Title
81245
    1CHL1    C3    1   3.504   1.173  10.235 -0.2801  0.0212  0.2660
    1CHL1    H3    2   3.578   1.096  10.204 -1.2554 -1.0067  0.4315
    1CHL1    O3    3   3.463   1.155  10.367  0.3273 -0.2676  0.6272
    1CHL1   H3'    4   3.520   1.082  10.392  0.2401 -0.2491  0.8878
    1CHL1    C4    5   3.567   1.311  10.215  0.4239 -0.0828  0.3018
    1CHL1   H4A    6   3.496   1.388  10.252  0.4474  0.3689 -0.5602
    1CHL1   H4B    7   3.659   1.321  10.277  1.5729  3.6199 -1.6809
    1CHL1    C5    8   3.610   1.346  10.073  0.8308  0.1764 -0.0152
    1CHL1    C6    9   3.736   1.374  10.047 -0.0230  0.0204  0.1287
    1CHL1    H6   10   3.809   1.398  10.126 -1.8425  2.4678  1.1982
    1CHL1    C7   11   3.775   1.415   9.907 -0.4155  0.2302 -0.6894
    1CHL1   H7A   12   3.828   1.512   9.910  0.5379 -0.2845 -0.3172
    1CHL1   H7B   13   3.842   1.337   9.865  0.3339  0.2905  0.3527
    1CHL1    C8   14   3.657   1.430   9.807  0.1247  0.2395  0.0853
    1CHL1    H8   15   3.601   1.522   9.836  0.1090 -0.6045  3.0426
    1CHL1   C14   16   3.708   1.450   9.669  0.4001  0.1857  0.0800
    1CHL1   H14   17   3.758   1.351   9.656 -2.9088 -1.7484  1.0960
    1CHL1   C15   18   3.800   1.567   9.638  0.0333  0.7656  0.1412
    1CHL1  H15A   19   3.763   1.667   9.667  0.3522  0.7285  0.6950
    1CHL1  H15B   20   3.903   1.543   9.673 -0.3269 -1.7816 -0.3305
    1CHL1   C16   21   3.799   1.569   9.480  0.3419 -0.0593 -0.0165
    1CHL1  H16A   22   3.778   1.672   9.442 -3.5891 -0.3509  0.8655
    1CHL1  H16B   23   3.899   1.551   9.437  0.3507  1.0593 -0.5126
    1CHL1   C17   24   3.682   1.475   9.434 -0.1850  0.0826  0.0244
    1CHL1   H17   25   3.722   1.372   9.426 -1.5246 -0.7571  2.8754
    1CHL1   C13   26   3.595   1.460   9.556 -0.1224 -0.4435 -0.4011
    1CHL1   C18   27   3.512   1.593   9.584 -0.1462  0.6819  0.1639
    1CHL1  H18A   28   3.484   1.620   9.688 -3.0439 -0.7358 -0.1398
    1CHL1  H18B   29   3.576   1.677   9.551  0.8029  0.0336  0.3204
    1CHL1  H18C   30   3.422   1.593   9.518  1.4648  0.3809 -2.1450
    1CHL1   C12   31   3.505   1.336   9.563  0.0026 -0.0677 -0.0865
    1CHL1  H12A   32   3.415   1.345   9.499 -0.2105  0.8903  0.3291
    1CHL1  H12B   33   3.571   1.258   9.518  0.0813  0.1641 -0.3800
    1CHL1   C11   34   3.448   1.318   9.705 -0.2270  0.1884  0.4722
    1CHL1  H11A   35   3.393   1.412   9.726  0.6343  0.5239  1.3329
    1CHL1  H11B   36   3.376   1.234   9.706  0.2385 -0.3619 -2.5703
    1CHL1    C9   37   3.553   1.316   9.819  0.0844 -0.1322  0.6171
    1CHL1    H9   38   3.607   1.221   9.797  0.1297  0.2888 -1.1742
    1CHL1   C10   39   3.500   1.314   9.968 -0.6270 -0.3870  0.9034
    1CHL1   C19   40   3.400   1.433   9.977 -0.2461 -0.6691  0.0405
    1CHL1  H19A   41   3.458   1.527   9.960  0.7707 -1.2094  0.4192
    1CHL1  H19B   42   3.316   1.414   9.907 -0.3155  0.0564 -0.0831
    1CHL1  H19C   43   3.372   1.433  10.084 -1.3106 -1.4899 -0.2259
    1CHL1    C1   44   3.435   1.170   9.996  0.6381  0.0587 -0.3063
    1CHL1   H1A   45   3.350   1.149   9.928 -0.1908 -2.2454  1.3030
    1CHL1   H1B   46   3.513   1.091   9.982  0.8063  0.3679 -1.2009
    1CHL1    C2   47   3.389   1.149  10.143 -0.9957 -0.1517  0.5561
    1CHL1   H2A   48   3.356   1.044  10.162  1.0341 -0.7368  1.1183
    1CHL1   H2B   49   3.315   1.225  10.175 -0.9965 -0.4115  1.1895
    1CHL1   C20   50   3.617   1.524   9.299 -0.3440 -0.2972  0.1325
    1CHL1   H20   51   3.556   1.615   9.318  0.6388  0.3705  0.1588
    1CHL1   C21   52   3.525   1.404   9.254 -0.4266  0.3058  0.6769
    1CHL1  H21A   53   3.425   1.418   9.300 -0.6932  2.4430 -0.3858
    1CHL1  H21B   54   3.566   1.303   9.273 -1.7960 -0.9733 -2.4785
    1CHL1  H21C   55   3.496   1.407   9.147  0.6709  0.3111  0.3593
    1CHL1   C22   56   3.730   1.556   9.195  0.6113 -0.0112  0.3154
    1CHL1  H22A   57   3.804   1.630   9.232 -1.6501  2.5134  0.0525
    1CHL1  H22B   58   3.787   1.464   9.169  0.9121  0.6522 -1.5006
    1CHL1   C23   59   3.664   1.618   9.067  0.0153 -1.0155  0.4735
    1CHL1  H23A   60   3.568   1.568   9.040 -2.4753  2.3126  2.3155
    1CHL1  H23B   61   3.640   1.725   9.086  0.5696 -0.8323  0.1375
    1CHL1   C24   62   3.750   1.616   8.943 -0.0429  0.1941 -0.6719
    1CHL1  H24A   63   3.836   1.686   8.950  2.0039 -2.2319  0.0359
    1CHL1  H24B   64   3.798   1.516   8.942 -2.0858 -0.8851  0.9831
    1CHL1   C25   65   3.672   1.624   8.812  0.1491  0.3635  0.1727
    1CHL1   H25   66   3.604   1.536   8.806  0.4612  0.2309 -2.6362
    1CHL1   C26   67   3.600   1.758   8.796 -0.8649 -0.5548 -0.0795
    1CHL1  H26A   68   3.539   1.763   8.889  1.1926 -1.1991  1.3736
    1CHL1  H26B   69   3.672   1.843   8.796 -1.6668  0.2209 -2.8181
    1CHL1  H26C   70   3.534   1.767   8.707  0.7719  0.6672 -1.2320
    1CHL1   C27   71   3.766   1.604   8.694  0.3813 -0.5002 -0.5072
    1CHL1  H27A   72   3.849   1.676   8.673  0.3614 -0.1038  0.6886
    1CHL1  H27B   73   3.807   1.501   8.689  2.1543  0.0929  0.6383
    1CHL1  H27C   74   3.697   1.601   8.607  0.0921 -2.0178 -0.2470
    2CHL1    C3   75   5.551   5.855  10.009  0.0165 -0.0301  0.8984
    2CHL1    H3   76   5.657   5.884  10.027  0.4452 -1.6520  1.1714
    2CHL1    O3   77   5.490   5.797  10.128  0.0952  0.0423 -0.0924
    2CHL1   H3'   78   5.398   5.824  10.127  0.6085  2.0493  0.8719
    2CHL1    C4   79   5.446   5.963   9.957 -0.1730 -0.1429 -0.5171
    2CHL1   H4A   80   5.345   5.918   9.956  0.1913 -0.9769 -0.3211
    2CHL1   H4B   81   5.454   6.038  10.039  0.2530 -1.4411  0.6750
    2CHL1    C5   82   5.487   6.009   9.817  0.1744 -0.2665  0.3492
    2CHL1    C6   83   5.526   6.140   9.797  0.6313 -0.0633 -0.4768
    2CHL1    H6   84   5.507   6.215   9.875  2.6175 -0.6505  0.6253
    2CHL1    C7   85   5.551   6.197   9.659  0.1164  0.4830 -0.5680
    2CHL1   H7A   86   5.481   6.279   9.634  0.8091  0.8435 -1.3377
    2CHL1   H7B   87   5.657   6.231   9.660  1.0702 -2.0717  2.3606
    2CHL1    C8   88   5.534   6.092   9.543 -0.0928 -0.5185 -0.0583
    2CHL1    H8   89   5.425   6.089   9.523 -0.5910 -0.5410  2.3326
    2CHL1   C14   90   5.609   6.150   9.419  0.6589 -0.1112  0.9973
    2CHL1   H14   91   5.716   6.158   9.449  0.1948  5.1736  2.2072
    2CHL1   C15   92   5.590   6.294   9.362  0.6235 -0.7136  0.5288
    2CHL1  H15A   93   5.481   6.309   9.352  0.5686 -0.8263  0.9211
    2CHL1  H15B   94   5.646   6.361   9.431  0.0200 -1.2151  1.5358
    2CHL1   C16   95   5.655   6.287   9.226  0.1754  0.4469  1.0631
    2CHL1  H16A   96   5.597   6.346   9.152  3.6013  2.3186 -0.3758
    2CHL1  H16B   97   5.756   6.333   9.224 -0.0730  1.0287  1.5639
    2CHL1   C17   98   5.670   6.138   9.181  0.6623  0.1788 -1.1191
    2CHL1   H17   99   5.779   6.120   9.193  1.0310 -0.1841 -4.2368
    2CHL1   C13  100   5.592   6.063   9.301 -0.0109  0.1018 -0.0048
    2CHL1   C18  101   5.442   6.055   9.256  0.2380 -0.2269 -0.3488
    2CHL1  H18A  102   5.444   5.964   9.192  2.6311 -0.4502 -0.0205
    2CHL1  H18B  103   5.365   6.035   9.333 -0.9686  1.5842 -0.9993
    2CHL1  H18C  104   5.423   6.155   9.212  0.9480 -0.5446 -1.4313
    2CHL1   C12  105   5.655   5.928   9.345  0.4408 -0.3491  0.5871
    2CHL1  H12A  106   5.667   5.863   9.256 -0.6021 -0.9755  0.8843
    2CHL1  H12B  107   5.755   5.961   9.379 -0.2666  0.3554  2.1357
    2CHL1   C11  108   5.581   5.861   9.458 -0.1853  0.0225 -0.6284
    2CHL1  H11A  109   5.480   5.830   9.424 -0.0514 -0.4549 -0.6030
    2CHL1  H11B  110   5.631   5.765   9.486 -1.9883 -0.5537  0.7991
    2CHL1    C9  111   5.579   5.957   9.585  0.2843  0.8091  0.2836
    2CHL1    H9  112   5.684   5.977   9.617  0.6077 -0.5684  0.1494
    2CHL1   C10  113   5.504   5.903   9.707 -0.4744  0.2081  0.0903
    2CHL1   C19  114   5.375   5.833   9.660 -0.2019 -0.9841  0.8099
    2CHL1  H19A  115   5.328   5.779   9.744  0.0109 -0.7712  1.0678
    2CHL1  H19B  116   5.305   5.909   9.618  2.0067 -0.2276 -1.7378
    2CHL1  H19C  117   5.376   5.763   9.574  0.9368 -0.4512  0.3731
    2CHL1    C1  118   5.594   5.788   9.761  0.7159 -0.0964 -0.3119
    2CHL1   H1A  119   5.588   5.699   9.695 -0.2558 -0.4195  0.1963
    2CHL1   H1B  120   5.701   5.819   9.766  0.3685  0.9542  2.4757
    2CHL1    C2  121   5.552   5.743   9.907  0.4163 -0.8275 -0.2536
    2CHL1   H2A  122   5.618   5.664   9.948 -0.1291 -2.1489 -1.8053
    2CHL1   H2B  123   5.450   5.700   9.897  0.3552 -0.6871 -0.2465
    2CHL1   C20  124   5.626   6.108   9.040 -0.2460  0.4775 -0.4726
    2CHL1   H20  125   5.523   6.143   9.019 -0.9234 -2.1333 -1.8273
    2CHL1   C21  126   5.643   5.953   8.998 -0.4854 -0.2399 -0.1427
    2CHL1  H21A  127   5.579   5.888   9.062  1.8751 -1.2603  1.2986
    2CHL1  H21B  128   5.744   5.917   9.024 -0.8054  0.0194  1.6111
    2CHL1  H21C  129   5.617   5.940   8.891 -4.2421 -1.5968  0.7797
    2CHL1   C22  130   5.722   6.192   8.949 -0.3767 -0.4095 -0.0797
    2CHL1  H22A  131   5.719   6.300   8.975  1.0114 -0.6298  1.1809
    2CHL1  H22B  132   5.830   6.169   8.961 -0.3164  0.8207  2.6538
    2CHL1   C23  133   5.682   6.189   8.799  0.2310 -0.2750 -0.1002
    2CHL1  H23A  134   5.735   6.274   8.751  2.1307 -0.1694  2.0392
    2CHL1  H23B  135   5.730   6.099   8.755  2.4058  0.8204 -0.1103
    2CHL1   C24  136   5.540   6.199   8.760 -0.2738  0.2466 -0.0666
    2CHL1  H24A  137   5.481   6.108   8.786  1.9893 -1.1074  0.5282
    2CHL1  H24B  138   5.496   6.285   8.816  1.6692  1.0671  0.2659
    2CHL1   C25  139   5.514   6.219   8.611  0.3324 -0.9012 -0.4527
    2CHL1   H25  140   5.573   6.306   8.574  0.2968 -2.0018 -3.3446
    2CHL1   C26  141   5.561   6.096   8.534 -0.1106 -0.3314  0.4035
    2CHL1  H26A  142   5.671   6.087   8.547  0.0021  0.5898  0.1786
    2CHL1  H26B  143   5.516   6.000   8.569 -0.7142 -0.0828  0.3137
    2CHL1  H26C  144   5.552   6.106   8.424 -0.6644 -0.8387  0.4009
    2CHL1   C27  145   5.369   6.249   8.585  0.1373 -0.0956  0.0182
    2CHL1  H27A  146   5.337   6.334   8.649  2.1008 -0.1995  1.2151
    2CHL1  H27B  147   5.342   6.267   8.479  1.6135 -1.0442 -0.5455
    2CHL1  H27C  148   5.311   6.162   8.623 -1.0611  1.1431  1.1444
    3CHL1    C3  149   6.397   0.525  10.289 -0.5564  0.3522  0.0291
    3CHL1    H3  150   6.377   0.421  10.255  3.0795 -0.7551  0.8552
    3CHL1    O3  151   6.429   0.519  10.426 -0.2942 -0.0109 -0.3655
    3CHL1   H3'  152   6.470   0.602  10.450 -1.4355  0.1052  1.3077
    3CHL1    C4  153   6.512   0.576  10.206  0.1669  0.3461  0.0104
    3CHL1   H4A  154   6.555   0.675  10.232  1.4593 -0.8397  2.7093
    3CHL1   H4B  155   6.601   0.511  10.214  1.1942  1.3617 -2.2155
    3CHL1    C5  156   6.472   0.577  10.056 -0.0822  0.0593  0.2116
    3CHL1    C6  157   6.534   0.507   9.961 -0.5372 -0.2773 -0.1615
    3CHL1    H6  158   6.620   0.446   9.994 -0.2034  0.7782  1.0132
    3CHL1    C7  159   6.502   0.515   9.817 -0.3779 -0.2299  0.7476
    3CHL1   H7A  160   6.591   0.527   9.751  0.3548 -0.9383  1.5789
    3CHL1   H7B  161   6.454   0.418   9.791  0.4230 -0.4288 -0.0542
    3CHL1    C8  162   6.407   0.630   9.782 -0.0964  0.0201 -0.1220
    3CHL1    H8  163   6.468   0.723   9.788 -0.9473  0.5335  1.2817
    3CHL1   C14  164   6.345   0.620   9.638 -0.1708 -0.3198 -0.6239
    3CHL1   H14  165   6.287   0.526   9.636 -1.4150  0.3581  0.8109
    3CHL1   C15  166   6.452   0.614   9.530  0.6321 -0.4774  0.3421
    3CHL1  H15A  167   6.531   0.692   9.540  0.9966 -0.7785 -0.0971
    3CHL1  H15B  168   6.498   0.513   9.539  0.0187 -0.6927  1.1775
    3CHL1   C16  169   6.373   0.639   9.398 -1.1717  0.7729  0.1795
    3CHL1  H16A  170   6.410   0.727   9.342 -3.3324  1.6328  0.0132
    3CHL1  H16B  171   6.362   0.541   9.345 -0.3287 -0.5709  2.3495
    3CHL1   C17  172   6.231   0.697   9.451 -0.3133  0.3522  0.6361
    3CHL1   H17  173   6.164   0.608   9.460 -0.1873  0.2835  0.8906
    3CHL1   C13  174   6.259   0.737   9.595  0.5905 -0.4994 -0.6647
    3CHL1   C18  175   6.332   0.871   9.602 -0.4024 -0.6771  0.2035
    3CHL1  H18A  176   6.405   0.883   9.519 -1.8584  0.2977 -1.0069
    3CHL1  H18B  177   6.260   0.955   9.591  2.5055  1.8566 -0.5878
    3CHL1  H18C  178   6.386   0.897   9.695 -1.5944  2.3898  0.1381
    3CHL1   C12  179   6.141   0.737   9.694 -0.2264 -1.0985 -0.4515
    3CHL1  H12A  180   6.071   0.821   9.676 -1.0237 -2.0550 -2.0457
    3CHL1  H12B  181   6.074   0.649   9.681 -0.6717 -0.7786 -0.3367
    3CHL1   C11  182   6.186   0.749   9.842 -0.1622 -0.1688 -0.0650
    3CHL1  H11A  183   6.220   0.854   9.856  2.3251 -1.0981  1.5889
    3CHL1  H11B  184   6.098   0.739   9.908 -0.0658 -0.2162  0.0553
    3CHL1    C9  185   6.290   0.641   9.883  0.0933 -0.2616 -0.5841
    3CHL1    H9  186   6.237   0.544   9.872  0.8180 -0.4219 -3.7919
    3CHL1   C10  187   6.343   0.660  10.026  1.2403  0.3603 -1.1414
    3CHL1   C19  188   6.395   0.802  10.041 -0.3210 -0.3760  1.0442
    3CHL1  H19A  189   6.478   0.815   9.969 -0.3794  0.8217  1.1711
    3CHL1  H19B  190   6.321   0.884  10.028 -0.4867 -0.6980 -0.1279
    3CHL1  H19C  191   6.438   0.839  10.137  0.1190  2.8616 -0.2899
    3CHL1    C1  192   6.232   0.618  10.123  0.3731 -0.1898  0.3581
    3CHL1   H1A  193   6.148   0.691  10.122  0.8926  0.4522  1.3948
    3CHL1   H1B  194   6.182   0.521  10.100  1.0179 -1.5394  3.8680
    3CHL1    C2  195   6.274   0.607  10.270  0.1483  1.0286 -0.0537
    3CHL1   H2A  196   6.192   0.567  10.333 -0.6962  2.3562 -0.2656
    3CHL1   H2B  197   6.298   0.709  10.308  0.1932  0.4684  1.4600
    3CHL1   C20  198   6.164   0.794   9.351  0.4812  0.3902 -0.5591
    3CHL1   H20  199   6.229   0.883   9.341  1.0436  0.2744  1.5562
    3CHL1   C21  200   6.029   0.836   9.414  0.1268 -0.3256  0.8949
    3CHL1  H21A  201   5.974   0.890   9.334  1.0404  0.0821  0.5213
    3CHL1  H21B  202   6.043   0.903   9.501 -1.3076  0.9510  0.1892
    3CHL1  H21C  203   5.972   0.747   9.448  0.5471 -1.0459 -0.2410
    3CHL1   C22  204   6.130   0.723   9.212  0.0282  0.4141 -0.4289
    3CHL1  H22A  205   6.223   0.677   9.172  0.6577  0.3429  1.0177
    3CHL1  H22B  206   6.050   0.648   9.226 -0.8554  1.5813  1.1863
    3CHL1   C23  207   6.088   0.830   9.104 -0.0763 -0.2919 -0.0478
    3CHL1  H23A  208   5.980   0.854   9.115 -0.2585 -0.3356 -1.5470
    3CHL1  H23B  209   6.153   0.920   9.117  1.1358 -1.0042 -0.9102
    3CHL1   C24  210   6.100   0.767   8.961 -0.3309 -0.0221 -0.3287
    3CHL1  H24A  211   6.209   0.745   8.957 -0.3985 -0.4182 -0.1282
    3CHL1  H24B  212   6.037   0.675   8.956 -1.1487  0.5862 -2.8515
    3CHL1   C25  213   6.069   0.848   8.830 -0.8034  0.5058 -0.7630
    3CHL1   H25  214   6.094   0.955   8.845 -1.5313  0.6396 -0.4678
    3CHL1   C26  215   6.144   0.800   8.698 -0.5662 -0.1066 -0.6186
    3CHL1  H26A  216   6.137   0.882   8.624  3.3093  0.1749 -0.8372
    3CHL1  H26B  217   6.250   0.776   8.719 -1.4332 -2.6850  1.2696
    3CHL1  H26C  218   6.100   0.708   8.654 -4.7032  1.0551  0.5733
    3CHL1   C27  219   5.918   0.832   8.797 -0.0335  0.2293  0.3091
    3CHL1  H27A  220   5.890   0.866   8.694  1.1333  1.8155  0.4790
    3CHL1  H27B  221   5.885   0.727   8.808  0.9635 -0.2286 -0.8674
    3CHL1  H27C  222   5.860   0.895   8.868 -0.6923  0.5779 -0.5152
    4CHL1    C3  223   3.807   0.540  10.334 -0.1044 -0.3087  0.2334
    4CHL1    H3  224   3.865   0.631  10.307 -0.5266 -0.1389 -0.1267
    4CHL1    O3  225   3.837   0.487  10.463 -0.3682  0.1555  0.0217
    4CHL1   H3'  226   3.929   0.460  10.459 -0.6645 -0.9960  0.6533
    4CHL1    C4  227   3.662   0.576  10.320 -0.0160 -0.7858 -0.4892
    4CHL1   H4A  228   3.603   0.492  10.361 -0.9247 -0.3827 -0.9460
    4CHL1   H4B  229   3.649   0.660  10.392  3.4976  0.6963 -1.3575
    4CHL1    C5  230   3.623   0.624  10.180  0.7082  1.1357 -0.0026
    4CHL1    C6  231   3.565   0.749  10.166 -0.3451  0.9081  0.2694
    4CHL1    H6  232   3.540   0.808  10.256  0.9217  0.0143  1.2527
    4CHL1    C7  233   3.525   0.801  10.036  0.1982  0.1997  0.3236
    4CHL1   H7A  234   3.423   0.846  10.044  0.5919  1.0163  0.9020
    4CHL1   H7B  235   3.592   0.888  10.018 -0.0705  0.7481  1.8478
    4CHL1    C8  236   3.536   0.693   9.920  0.2171 -0.3263 -0.4229
    4CHL1    H8  237   3.447   0.626   9.926 -1.9314  2.4531  1.7403
    4CHL1   C14  238   3.537   0.760   9.789 -0.6346  0.1372  0.1070
    4CHL1   H14  239   3.628   0.823   9.794 -1.3159  1.0759  1.3998
    4CHL1   C15  240   3.424   0.861   9.746  0.3159 -0.6612  0.5661
    4CHL1  H15A  241   3.327   0.822   9.783 -0.3091  0.1814 -0.1504
    4CHL1  H15B  242   3.441   0.950   9.811  3.6259  1.1117 -2.3646
    4CHL1   C16  243   3.441   0.880   9.594 -0.1802 -0.2037  0.2176
    4CHL1  H16A  244   3.343   0.853   9.549  0.0393 -1.2299  0.3232
    4CHL1  H16B  245   3.462   0.987   9.572 -1.4206 -0.1369 -0.6902
    4CHL1   C17  246   3.545   0.772   9.554 -0.0071  1.2582 -0.0454
    4CHL1   H17  247   3.638   0.831   9.564  0.7021 -0.1536  2.6342
    4CHL1   C13  248   3.552   0.670   9.668  0.0618  0.3531 -0.0250
    4CHL1   C18  249   3.429   0.575   9.665 -0.5319 -0.1101 -0.4503
    4CHL1  H18A  250   3.410   0.530   9.764 -1.1474  1.3908  0.1564
    4CHL1  H18B  251   3.337   0.628   9.631 -0.6047  1.5367  2.0641
    4CHL1  H18C  252   3.461   0.503   9.587  0.1821 -1.6504  1.1922
    4CHL1   C12  253   3.687   0.607   9.685 -0.0453 -0.4330 -0.4193
    4CHL1  H12A  254   3.722   0.545   9.600  0.7581  2.2305 -2.1712
    4CHL1  H12B  255   3.764   0.687   9.678 -0.2576 -0.2408 -0.5939
    4CHL1   C11  256   3.704   0.529   9.817 -1.0757 -0.0643  1.0224
    4CHL1  H11A  257   3.634   0.443   9.808  0.8475 -1.8115  2.0771
    4CHL1  H11B  258   3.807   0.491   9.827 -1.4053 -1.9900 -1.7454
    4CHL1    C9  259   3.666   0.613   9.939 -0.0888  0.0958  0.4642
    4CHL1    H9  260   3.741   0.693   9.957 -0.9550  0.9468  0.3900
    4CHL1   C10  261   3.666   0.527  10.065  0.8304 -0.6150 -0.0104
    4CHL1   C19  262   3.558   0.424  10.070 -0.1771  0.5443 -0.4258
    4CHL1  H19A  263   3.457   0.461  10.044 -0.4705 -1.7611 -2.9914
    4CHL1  H19B  264   3.585   0.334  10.011  0.0176 -1.0408  1.9330
    4CHL1  H19C  265   3.550   0.373  10.169  2.2518  0.1261 -0.3743
    4CHL1    C1  266   3.814   0.472  10.082 -0.4343 -0.7942 -0.6881
    4CHL1   H1A  267   3.829   0.380  10.021  1.3062 -0.7335 -0.4018
    4CHL1   H1B  268   3.890   0.543  10.042 -0.1211 -0.3684  0.6080
    4CHL1    C2  269   3.844   0.435  10.231 -0.8146 -0.4078 -0.7595
    4CHL1   H2A  270   3.953   0.412  10.236 -1.1472 -1.8485  0.7301
    4CHL1   H2B  271   3.785   0.345  10.258 -1.2405 -1.3644 -4.2720
    4CHL1   C20  272   3.520   0.723   9.400  0.1220 -0.5141 -0.4087
    4CHL1   H20  273   3.416   0.684   9.398 -1.1029  2.4347  0.6592
    4CHL1   C21  274   3.613   0.605   9.362 -0.2904 -0.3556 -0.0714
    4CHL1  H21A  275   3.599   0.510   9.418 -0.0092 -1.3238 -1.5602
    4CHL1  H21B  276   3.722   0.624   9.372  0.0485 -2.1067 -0.1013
    4CHL1  H21C  277   3.598   0.585   9.254  1.2404  1.0259 -0.5756
    4CHL1   C22  278   3.527   0.841   9.299  0.2745 -0.2227  0.1162
    4CHL1  H22A  279   3.486   0.932   9.349 -1.7007 -0.4326 -1.0124
    4CHL1  H22B  280   3.628   0.870   9.265  0.3994 -1.4112 -0.5963
    4CHL1   C23  281   3.444   0.822   9.167  0.8768 -0.2378 -0.0586
    4CHL1  H23A  282   3.493   0.740   9.109  0.6324 -3.0534  3.3852
    4CHL1  H23B  283   3.344   0.779   9.190  0.3422 -1.0646 -3.3855
    4CHL1   C24  284   3.414   0.953   9.095  0.3732  0.0061  0.6195
    4CHL1  H24A  285   3.494   1.028   9.079 -1.1985  1.6140 -0.0099
    4CHL1  H24B  286   3.395   0.919   8.990  1.8608 -0.7563  0.5717
    4CHL1   C25  287   3.287   1.041   9.131 -0.2093  0.6299 -0.4272
    4CHL1   H25  288   3.197   0.976   9.126  0.5836 -0.6853  1.3798
    4CHL1   C26  289   3.284   1.082   9.277  0.6495  0.0084  0.5369
    4CHL1  H26A  290   3.379   1.133   9.304 -0.3114  1.9497  0.4192
    4CHL1  H26B  291   3.203   1.157   9.289 -0.5674 -1.2561  0.4839
    4CHL1  H26C  292   3.252   0.999   9.344 -0.2120 -0.3012 -0.2405
    4CHL1   C27  293   3.270   1.161   9.033 -0.6254  0.1807 -0.5442
    4CHL1  H27A  294   3.192   1.234   9.063 -1.5948 -0.7261 -0.8164
    4CHL1  H27B  295   3.369   1.211   9.023 -0.1385 -0.7330 -0.3919
    4CHL1  H27C  296   3.246   1.127   8.930 -0.1098  1.3096 -1.0528
    5CHL1    C3  297   5.618   0.258   9.812  0.0959  0.6936  0.3155
    5CHL1    H3  298   5.708   0.196   9.791  0.2255  1.2757 -0.9262
    5CHL1    O3  299   5.595   0.270   9.949 -0.4273 -0.0014 -0.2367
    5CHL1   H3'  300   5.648   0.341   9.986 -1.7063 -0.2563  2.2874
    5CHL1    C4  301   5.643   0.393   9.755  0.1544 -0.2096  1.0369
    5CHL1   H4A  302   5.561   0.464   9.779 -0.1519  0.6213 -2.0312
    5CHL1   H4B  303   5.735   0.431   9.803  1.2331  0.3837 -1.3604
    5CHL1    C5  304   5.661   0.395   9.604  0.0489  0.3951  0.1153
    5CHL1    C6  305   5.767   0.444   9.545 -0.1695  0.1792 -0.2913
    5CHL1    H6  306   5.847   0.479   9.612 -0.4064  0.0662  0.0558
    5CHL1    C7  307   5.774   0.471   9.401  0.3431 -0.2132  0.4962
    5CHL1   H7A  308   5.803   0.578   9.393 -1.2880  0.3589  1.7365
    5CHL1   H7B  309   5.856   0.414   9.352 -0.7674 -1.6748  0.2336
    5CHL1    C8  310   5.640   0.443   9.327 -0.3600  0.0615  0.7932
    5CHL1    H8  311   5.572   0.527   9.354 -0.4894  0.4416 -0.6596
    5CHL1   C14  312   5.667   0.439   9.172 -0.4417  0.2471 -0.8517
    5CHL1   H14  313   5.745   0.361   9.159  0.2064  0.6755  0.3397
    5CHL1   C15  314   5.712   0.562   9.096 -0.9957 -0.6174 -0.3311
    5CHL1  H15A  315   5.653   0.653   9.116  1.0811  1.1678 -1.7986
    5CHL1  H15B  316   5.816   0.588   9.123 -0.8782  0.8290 -1.9996
    5CHL1   C16  317   5.711   0.526   8.951  0.2057  0.2867  0.8074
    5CHL1  H16A  318   5.688   0.607   8.879 -1.3367 -0.4036  0.4856
    5CHL1  H16B  319   5.813   0.491   8.923 -0.6127 -1.0410 -0.7122
    5CHL1   C17  320   5.615   0.396   8.955 -0.3570  0.3971  0.2938
    5CHL1   H17  321   5.693   0.317   8.952  0.9635  1.6898 -2.3236
    5CHL1   C13  322   5.550   0.386   9.093 -0.1552 -0.1545  0.5557
    5CHL1   C18  323   5.433   0.483   9.095  0.7673  0.0054  0.1454
    5CHL1  H18A  324   5.459   0.574   9.036 -1.4298  0.8588  0.4210
    5CHL1  H18B  325   5.343   0.437   9.050 -0.3689  2.2336  0.0089
    5CHL1  H18C  326   5.413   0.518   9.198  1.9809  1.9659 -0.2163
    5CHL1   C12  327   5.509   0.242   9.139  0.0772 -0.3389 -0.8719
    5CHL1  H12A  328   5.423   0.199   9.084 -0.3674 -1.4504  0.6312
    5CHL1  H12B  329   5.591   0.171   9.113 -0.2417 -0.7817 -0.6917
    5CHL1   C11  330   5.468   0.249   9.292 -0.1441 -0.3544  0.1915
    5CHL1  H11A  331   5.370   0.302   9.299  0.5843  1.2129 -0.9749
    5CHL1  H11B  332   5.438   0.148   9.326  1.1182 -1.4859 -1.9123
    5CHL1    C9  333   5.579   0.311   9.378 -0.5868 -0.0470 -0.2048
    5CHL1    H9  334   5.661   0.236   9.378 -0.4596  0.0843  0.3222
    5CHL1   C10  335   5.541   0.336   9.526 -0.4998  0.1351  0.4524
    5CHL1   C19  336   5.412   0.417   9.536 -0.8441  0.6134  0.5224
    5CHL1  H19A  337   5.379   0.427   9.642 -0.3466 -1.0074  0.8477
    5CHL1  H19B  338   5.431   0.524   9.514 -2.3918  1.3588  2.5065
    5CHL1  H19C  339   5.324   0.365   9.492 -0.8006 -0.7078  1.9273
    5CHL1    C1  340   5.509   0.201   9.592 -0.2573 -0.1143  0.3389
    5CHL1   H1A  341   5.415   0.159   9.550 -0.7248  2.0152 -0.9031
    5CHL1   H1B  342   5.589   0.128   9.564  0.4842  0.0797  1.8368
    5CHL1    C2  343   5.497   0.196   9.745  0.1746 -0.4518  0.9058
    5CHL1   H2A  344   5.474   0.098   9.792  2.1034 -0.8448  1.1079
    5CHL1   H2B  345   5.409   0.255   9.779 -0.3657  0.4125 -1.7521
    5CHL1   C20  346   5.533   0.358   8.833  0.5540  0.1395  0.1811
    5CHL1   H20  347   5.456   0.288   8.873  0.1987  0.6943  0.4726
    5CHL1   C21  348   5.622   0.285   8.732 -0.6998  0.5192 -0.3436
    5CHL1  H21A  349   5.663   0.197   8.786 -1.2292  1.8031  2.2770
    5CHL1  H21B  350   5.712   0.341   8.698  1.0557 -0.9561  1.6048
    5CHL1  H21C  351   5.563   0.253   8.643 -0.0433  0.9002 -0.9292
    5CHL1   C22  352   5.467   0.487   8.768 -0.4540 -0.3472  0.2071
    5CHL1  H22A  353   5.422   0.542   8.854  0.4018 -1.0216  1.1196
    5CHL1  H22B  354   5.549   0.552   8.729 -1.4708  0.2351 -1.0249
    5CHL1   C23  355   5.350   0.465   8.663 -0.2556 -0.0243  0.1977
    5CHL1  H23A  356   5.398   0.425   8.571  2.6112  1.2936  1.0026
    5CHL1  H23B  357   5.282   0.391   8.711 -2.5004  2.2618  0.7520
    5CHL1   C24  358   5.262   0.588   8.643 -0.2460 -0.4465  0.1073
    5CHL1  H24A  359   5.227   0.629   8.740  0.2411  0.9510 -0.2854
    5CHL1  H24B  360   5.318   0.670   8.593 -2.0495  0.2100 -0.9153
    5CHL1   C25  361   5.144   0.554   8.548  0.4571  0.6103  0.1544
    5CHL1   H25  362   5.105   0.451   8.566  4.6348 -1.6313 -2.1287
    5CHL1   C26  363   5.033   0.659   8.565  0.0977 -0.1729 -0.3219
    5CHL1  H26A  364   5.065   0.759   8.527  1.6891 -1.8206 -3.6773
    5CHL1  H26B  365   4.952   0.635   8.494  0.3590  0.9258 -1.0140
    5CHL1  H26C  366   4.978   0.663   8.662 -1.1872 -2.6084 -0.8756
    5CHL1   C27  367   5.198   0.542   8.401 -0.5665 -0.0766  0.0723
    5CHL1  H27A  368   5.229   0.645   8.373 -1.2519  0.5165  1.3569
    5CHL1  H27B  369   5.275   0.462   8.394 -0.6078 -0.4848  2.9704
    5CHL1  H27C  370   5.110   0.518   8.338 -0.6774 -0.2062  0.2742
    6CHL1    C3  371   4.470   2.876  10.058 -0.5150  0.1301 -0.0526
    6CHL1    H3  372   4.569   2.927  10.069 -0.4779  0.5840 -2.0704
    6CHL1    O3  373   4.439   2.856  10.198 -0.4033 -0.3882 -0.0112
    6CHL1   H3'  374   4.344   2.871  10.205 -0.1915  1.8755 -1.1297
    6CHL1    C4  375   4.369   2.966   9.997 -0.0998 -0.4727  0.1575
    6CHL1   H4A  376   4.263   2.942  10.023  0.3351 -2.2063  0.4725
    6CHL1   H4B  377   4.388   3.058  10.055 -1.6107 -1.1640  1.8679
    6CHL1    C5  378   4.390   2.987   9.851  0.5943  0.6249 -0.1687
    6CHL1    C6  379   4.394   3.107   9.786  0.1522  0.2391  0.3333
    6CHL1    H6  380   4.391   3.201   9.844 -0.8117  0.9058 -0.7201
    6CHL1    C7  381   4.400   3.125   9.637  0.3932 -0.8201 -1.0149
    6CHL1   H7A  382   4.318   3.196   9.613  0.8644 -0.2318 -0.8878
    6CHL1   H7B  383   4.494   3.178   9.611 -1.3482  2.1650 -1.6469
    6CHL1    C8  384   4.374   2.993   9.554  0.4427 -0.3113 -0.7431
    6CHL1    H8  385   4.265   2.973   9.564 -0.3951  3.8742  0.8785
    6CHL1   C14  386   4.416   2.995   9.408  0.1885 -0.5352  0.0121
    6CHL1   H14  387   4.526   3.012   9.410  0.4427 -1.3011 -3.1077
    6CHL1   C15  388   4.363   3.119   9.329 -1.2963 -1.1009 -0.3874
    6CHL1  H15A  389   4.259   3.156   9.345 -0.4763  1.9174 -1.3657
    6CHL1  H15B  390   4.427   3.209   9.346  0.0196 -1.8976 -1.0076
    6CHL1   C16  391   4.380   3.074   9.182  0.0179 -0.8545  0.0035
    6CHL1  H16A  392   4.283   3.083   9.129 -0.3230  1.4059  0.8943
    6CHL1  H16B  393   4.448   3.150   9.136 -0.8238  1.9937  3.0465
    6CHL1   C17  394   4.442   2.934   9.184 -0.1838  0.4999  0.3074
    6CHL1   H17  395   4.553   2.943   9.194 -0.0268 -0.6136 -0.2117
    6CHL1   C13  396   4.398   2.874   9.315  0.2992 -0.3094 -0.2670
    6CHL1   C18  397   4.248   2.842   9.305 -0.5290 -0.1000  0.2161
    6CHL1  H18A  398   4.189   2.927   9.265 -0.0856 -0.4688 -1.3168
    6CHL1  H18B  399   4.227   2.757   9.236 -2.7028  1.7626 -1.5944
    6CHL1  H18C  400   4.209   2.817   9.406  1.1338  0.0874  0.9378
    6CHL1   C12  401   4.482   2.773   9.387 -0.1373  0.4475  0.5913
    6CHL1  H12A  402   4.477   2.678   9.331 -1.7176  1.8629 -1.8424
    6CHL1  H12B  403   4.586   2.810   9.391 -0.6902  1.9793  2.0574
    6CHL1   C11  404   4.434   2.748   9.536  0.2679 -0.0516  0.5495
    6CHL1  H11A  405   4.328   2.714   9.538  0.6955 -1.4293  1.9543
    6CHL1  H11B  406   4.490   2.662   9.579  2.7457  1.2589  0.0921
    6CHL1    C9  407   4.448   2.874   9.629  0.5038 -0.0271 -0.0191
    6CHL1    H9  408   4.553   2.910   9.629  0.8037 -0.6717 -2.6316
    6CHL1   C10  409   4.407   2.854   9.781  0.4451  0.2843 -0.1477
    6CHL1   C19  410   4.269   2.784   9.783  0.1726  0.0101  0.3109
    6CHL1  H19A  411   4.244   2.771   9.890 -1.2143  0.8477  0.1134
    6CHL1  H19B  412   4.195   2.852   9.735  0.7655  0.9317  0.6754
    6CHL1  H19C  413   4.273   2.685   9.732  1.3882 -0.6081  1.5502
    6CHL1    C1  414   4.506   2.756   9.844  0.3184  0.1736 -0.5297
    6CHL1   H1A  415   4.498   2.661   9.788  0.6898  0.2677 -0.7530
    6CHL1   H1B  416   4.608   2.801   9.833  0.0333  0.5580 -1.7381
    6CHL1    C2  417   4.491   2.744   9.990  0.0174  0.2945  0.0700
    6CHL1   H2A  418   4.578   2.690  10.032 -0.5385  0.7076  1.8045
    6CHL1   H2B  419   4.398   2.683   9.996  0.4518 -0.4015 -0.1455
    6CHL1   C20  420   4.415   2.860   9.053  0.0961  0.1061 -1.4045
    6CHL1   H20  421   4.305   2.851   9.042  0.0158 -2.7038  0.6051
    6CHL1   C21  422   4.482   2.713   9.060  0.1536  0.3942 -0.3081
    6CHL1  H21A  423   4.436   2.648   9.138 -0.5439  1.3351  0.0892
    6CHL1  H21B  424   4.591   2.722   9.081  0.3162  0.2287 -1.0538
    6CHL1  H21C  425   4.450   2.653   8.972 -2.8906  0.0608  0.8958
    6CHL1   C22  426   4.481   2.930   8.931 -0.8005 -1.0813 -0.3510
    6CHL1  H22A  427   4.452   3.037   8.916  1.5016 -0.3822 -0.1513
    6CHL1  H22B  428   4.589   2.930   8.956 -0.8567  0.7186  0.0552
    6CHL1   C23  429   4.447   2.866   8.799 -0.0061 -0.6366  0.7163
    6CHL1  H23A  430   4.464   2.756   8.802 -0.1505 -0.6698  0.3472
    6CHL1  H23B  431   4.337   2.875   8.788  0.2771  3.0135 -0.1982
    6CHL1   C24  432   4.516   2.933   8.682  0.6709 -0.0568  0.2664
    6CHL1  H24A  433   4.504   3.040   8.708  1.1396 -0.4596  2.2493
    6CHL1  H24B  434   4.624   2.908   8.677  0.5218 -0.5575 -0.7737
    6CHL1   C25  435   4.455   2.912   8.544 -0.1395 -0.2289  0.6421
    6CHL1   H25  436   4.345   2.917   8.556 -0.1345 -1.9569  1.6088
    6CHL1   C26  437   4.498   3.021   8.439  0.1963 -0.4394 -0.0788
    6CHL1  H26A  438   4.572   2.981   8.366  0.7898  0.4321  0.0164
    6CHL1  H26B  439   4.408   3.049   8.381  0.0393  1.1717  0.8693
    6CHL1  H26C  440   4.551   3.108   8.485 -0.6435 -0.8007  1.6178
    6CHL1   C27  441   4.493   2.784   8.472 -0.3162  0.8533  0.2361
    6CHL1  H27A  442   4.603   2.786   8.455 -0.0679 -0.8039  1.3920
    6CHL1  H27B  443   4.476   2.711   8.553  1.6757  1.4978  1.3126
    6CHL1  H27C  444   4.449   2.754   8.374  1.2889 -0.0352 -0.2555
    7CHL1    C3  445   5.455   1.366  10.340 -0.3645 -0.4140 -0.3772
    7CHL1    H3  446   5.546   1.408  10.292  0.1490 -0.6265  0.3787
    7CHL1    O3  447   5.474   1.385  10.483 -0.7405 -0.2891 -0.7928
    7CHL1   H3'  448   5.412   1.322  10.521 -2.8220  0.4623 -2.6476
    7CHL1    C4  449   5.336   1.453  10.297 -0.5647  0.3119 -0.0752
    7CHL1   H4A  450   5.243   1.415  10.345  0.3744 -2.0947 -0.0066
    7CHL1   H4B  451   5.365   1.554  10.333  1.8070 -0.8726  1.6613
    7CHL1    C5  452   5.319   1.450  10.148  0.7880  0.5038  0.4343
    7CHL1    C6  453   5.333   1.560  10.071 -0.2656 -0.7689  0.1843
    7CHL1    H6  454   5.364   1.656  10.113 -1.4969 -0.1280 -0.3360
    7CHL1    C7  455   5.311   1.558   9.924 -0.5878  0.0491  0.5028
    7CHL1   H7A  456   5.265   1.653   9.890 -1.4153 -0.9017 -1.1825
    7CHL1   H7B  457   5.408   1.557   9.869 -1.2394 -0.6701 -0.6789
    7CHL1    C8  458   5.246   1.424   9.866  0.0694  0.2397 -0.0135
    7CHL1    H8  459   5.136   1.435   9.882 -0.2264 -0.7658 -1.1663
    7CHL1   C14  460   5.278   1.405   9.717  0.4034 -0.1216 -0.9891
    7CHL1   H14  461   5.388   1.407   9.703  0.5456 -0.7593 -0.0183
    7CHL1   C15  462   5.228   1.515   9.624 -0.2191 -0.4409  0.3960
    7CHL1  H15A  463   5.124   1.541   9.651 -0.0388 -1.7774  2.6359
    7CHL1  H15B  464   5.292   1.605   9.620  0.3461 -0.7535  1.8277
    7CHL1   C16  465   5.233   1.445   9.486  0.7750 -0.4566  0.3485
    7CHL1  H16A  466   5.126   1.448   9.456  0.8008 -1.6346  0.0843
    7CHL1  H16B  467   5.296   1.496   9.410 -2.6707  0.5956 -2.0481
    7CHL1   C17  468   5.268   1.293   9.515  0.4465  0.3305  0.2705
    7CHL1   H17  469   5.378   1.283   9.497  0.4478  0.3486  0.2707
    7CHL1   C13  470   5.232   1.271   9.663  0.1402  0.6931 -0.5492
    7CHL1   C18  471   5.080   1.253   9.674 -0.1840 -0.4174  0.6278
    7CHL1  H18A  472   5.046   1.287   9.774 -1.7441  1.0262 -0.3469
    7CHL1  H18B  473   5.032   1.311   9.592  2.6399 -1.4322 -1.9345
    7CHL1  H18C  474   5.050   1.148   9.655  1.3799 -0.8282  0.2744
    7CHL1   C12  475   5.300   1.155   9.737 -0.2805 -0.7440 -0.5761
    7CHL1  H12A  476   5.259   1.058   9.700  0.5127 -0.9535 -0.9370
    7CHL1  H12B  477   5.411   1.163   9.734 -0.3256 -0.3187 -1.7453
    7CHL1   C11  478   5.265   1.167   9.887 -0.6858 -0.0950  0.4980
    7CHL1  H11A  479   5.156   1.144   9.887 -0.2214 -2.6097 -0.6716
    7CHL1  H11B  480   5.313   1.080   9.937  0.6822  0.1082 -0.4234
    7CHL1    C9  481   5.301   1.305   9.944  0.4100 -0.5546 -0.8780
    7CHL1    H9  482   5.410   1.307   9.925  0.4466  1.7950 -0.7169
    7CHL1   C10  483   5.288   1.310  10.099 -0.4707  0.2839  0.5187
    7CHL1   C19  484   5.162   1.249  10.142  0.2881 -0.3483 -0.2823
    7CHL1  H19A  485   5.128   1.258  10.248 -1.9198  0.5408 -1.0144
    7CHL1  H19B  486   5.075   1.286  10.084  0.5322  0.0614 -0.3944
    7CHL1  H19C  487   5.160   1.142  10.114  0.3827 -0.5816  0.5631
    7CHL1    C1  488   5.403   1.208  10.157  0.0986 -0.1572  0.2111
    7CHL1   H1A  489   5.377   1.104  10.127 -0.9846  0.0570  0.3629
    7CHL1   H1B  490   5.499   1.242  10.113  0.2540  0.6015  1.1111
    7CHL1    C2  491   5.424   1.220  10.306 -0.3955  0.0631  0.4468
    7CHL1   H2A  492   5.489   1.156  10.371 -1.4761 -1.8775 -0.3169
    7CHL1   H2B  493   5.327   1.191  10.351 -1.1422  1.8073  0.0399
    7CHL1   C20  494   5.202   1.190   9.411 -0.6085 -0.2490  0.0511
    7CHL1   H20  495   5.092   1.204   9.416 -0.5176  0.3002  0.6120
    7CHL1   C21  496   5.237   1.044   9.440 -0.3735 -0.4204  0.1861
    7CHL1  H21A  497   5.180   1.002   9.526 -2.3053  0.6717 -0.5026
    7CHL1  H21B  498   5.347   1.045   9.461 -0.0828 -1.3674 -1.1677
    7CHL1  H21C  499   5.221   0.979   9.351 -1.6859  0.0363  0.0811
    7CHL1   C22  500   5.254   1.227   9.265  0.3479  0.2837 -0.4090
    7CHL1  H22A  501   5.242   1.337   9.258 -0.8096  0.1414 -0.9074
    7CHL1  H22B  502   5.362   1.206   9.259  0.5117  0.2077  1.9866
    7CHL1   C23  503   5.172   1.172   9.148  0.0484 -0.7544 -0.7374
    7CHL1  H23A  504   5.154   1.063   9.158 -1.1769 -0.3807  2.3912
    7CHL1  H23B  505   5.072   1.219   9.156  0.5009 -0.1124  3.1678
    7CHL1   C24  506   5.237   1.213   9.015  0.2631 -0.4121  0.4813
    7CHL1  H24A  507   5.290   1.309   9.035  2.5024 -1.1105 -1.5612
    7CHL1  H24B  508   5.323   1.148   8.988  1.8020  2.1895 -1.3744
    7CHL1   C25  509   5.149   1.215   8.891  0.1883 -0.1892  0.2282
    7CHL1   H25  510   5.056   1.264   8.927 -1.3590 -4.0903  2.1209
    7CHL1   C26  511   5.204   1.291   8.770 -0.2989 -0.3288  0.3239
    7CHL1  H26A  512   5.253   1.387   8.795  1.3579 -0.8564 -0.7439
    7CHL1  H26B  513   5.275   1.222   8.720  0.6993  0.3943  0.7178
    7CHL1  H26C  514   5.116   1.306   8.703  1.4396  0.6690 -1.9038
    7CHL1   C27  515   5.107   1.070   8.862  0.5171  0.2368 -0.2964
    7CHL1  H27A  516   5.202   1.014   8.848  0.1636 -0.3196 -0.5069
    7CHL1  H27B  517   5.065   1.021   8.953 -2.6278 -1.2957 -2.4142
    7CHL1  H27C  518   5.044   1.044   8.774 -0.0606 -2.1637  0.7256
    8CHL1    C3  519   0.349   2.004  10.333 -0.1426 -0.2823  0.3977
    8CHL1    H3  520   0.254   2.060  10.318 -0.3633 -0.7061  0.2127
    8CHL1    O3  521   0.358   1.957  10.463  0.4086  0.4774 -0.3147
    8CHL1   H3'  522   0.295   1.885  10.470  1.0439 -0.2399 -1.5270
    8CHL1    C4  523   0.343   1.886  10.234  0.4219  0.7124 -0.0449
    8CHL1   H4A  524   0.416   1.816  10.279 -0.3538 -0.1845 -0.1392
    8CHL1   H4B  525   0.240   1.845  10.243  0.6320  0.0023 -0.7736
    8CHL1    C5  526   0.365   1.912  10.090 -0.1721 -0.0508 -0.0067
    8CHL1    C6  527   0.281   1.859   9.993 -0.3282  0.7507  0.4482
    8CHL1    H6  528   0.200   1.791  10.023 -0.8678  1.4683  0.6495
    8CHL1    C7  529   0.297   1.881   9.846 -0.0485  0.0560 -0.0653
    8CHL1   H7A  530   0.296   1.785   9.789  1.2738 -1.5775  2.5084
    8CHL1   H7B  531   0.230   1.956   9.798 -0.1976 -1.1346 -1.8392
    8CHL1    C8  532   0.434   1.940   9.808 -0.1518  0.1166  0.4000
    8CHL1    H8  533   0.517   1.865   9.812  2.0019  2.2346 -1.5881
    8CHL1   C14  534   0.430   1.991   9.656 -0.1676 -0.1314  0.5495
    8CHL1   H14  535   0.349   2.065   9.671  1.7507  1.8530  1.8410
    8CHL1   C15  536   0.407   1.892   9.549  0.9211  0.9852  0.5011
    8CHL1  H15A  537   0.478   1.806   9.551 -1.6191 -1.2797 -0.2617
    8CHL1  H15B  538   0.305   1.849   9.549  1.4727 -0.4965 -1.6217
    8CHL1   C16  539   0.451   1.973   9.426  0.2556  0.3371 -0.2693
    8CHL1  H16A  540   0.511   1.913   9.354 -0.2015 -1.0299  0.4407
    8CHL1  H16B  541   0.364   2.011   9.369  0.6680  0.1410 -1.0452
    8CHL1   C17  542   0.531   2.098   9.474 -1.8620  0.0204  0.6443
    8CHL1   H17  543   0.460   2.184   9.473 -0.0717  1.5853 -1.3165
    8CHL1   C13  544   0.554   2.073   9.622 -0.3196 -0.0724  0.1729
    8CHL1   C18  545   0.679   1.987   9.629 -0.0786  0.7301  0.3653
    8CHL1  H18A  546   0.770   2.050   9.621  0.8283 -0.5058  0.6221
    8CHL1  H18B  547   0.688   1.935   9.727 -2.5633 -0.4238  0.0531
    8CHL1  H18C  548   0.687   1.909   9.551  1.1494  0.3236  0.8674
    8CHL1   C12  549   0.567   2.195   9.712  0.3117  0.7373  0.1236
    8CHL1  H12A  550   0.648   2.267   9.687  2.0644 -0.3137  2.4590
    8CHL1  H12B  551   0.471   2.250   9.699  0.1443  0.5056  0.3633
    8CHL1   C11  552   0.580   2.150   9.863  0.3449  0.3719  0.6703
    8CHL1  H11A  553   0.681   2.104   9.865  0.3802  0.2896 -1.1770
    8CHL1  H11B  554   0.585   2.244   9.922  1.8098 -0.5887  2.1347
    8CHL1    C9  555   0.466   2.053   9.906 -0.3355 -0.4275 -0.3262
    8CHL1    H9  556   0.377   2.118   9.900 -1.2782 -1.6476 -0.0130
    8CHL1   C10  557   0.469   2.014  10.063  0.0439 -0.1322  0.0116
    8CHL1   C19  558   0.614   1.953  10.086  0.1739 -0.4655 -0.0865
    8CHL1  H19A  559   0.618   1.919  10.192  2.5408  0.2886  0.1120
    8CHL1  H19B  560   0.640   1.865  10.023  0.4524  1.1953 -2.3864
    8CHL1  H19C  561   0.691   2.030  10.065 -0.0084 -0.0986  0.5569
    8CHL1    C1  562   0.469   2.139  10.153  0.0872 -0.0192 -0.6461
    8CHL1   H1A  563   0.554   2.206  10.129  0.7467 -0.1294  1.1977
    8CHL1   H1B  564   0.379   2.201  10.135  0.4509  0.7132 -0.0393
    8CHL1    C2  565   0.457   2.108  10.307 -0.4880  0.4269  0.8872
    8CHL1   H2A  566   0.439   2.189  10.381  0.9276  0.4879  1.1941
    8CHL1   H2B  567   0.550   2.063  10.347  0.0098  1.2508  0.6755
    8CHL1   C20  568   0.653   2.134   9.381 -0.6747  0.0194  0.0773
    8CHL1   H20  569   0.720   2.046   9.370  0.0839  0.2959  2.1614
    8CHL1   C21  570   0.734   2.260   9.437  0.4131 -0.0533 -0.3633
    8CHL1  H21A  571   0.784   2.313   9.354 -1.8716 -0.1081 -1.8462
    8CHL1  H21B  572   0.803   2.227   9.518 -0.5416  1.2728  1.0479
    8CHL1  H21C  573   0.666   2.329   9.491 -0.3978 -0.4173 -0.8989
    8CHL1   C22  574   0.608   2.181   9.235 -0.7198  0.8647 -0.4033
    8CHL1  H22A  575   0.521   2.121   9.200 -0.3593 -0.5037  0.9200
    8CHL1  H22B  576   0.573   2.286   9.241  1.9267  1.7138  2.5246
    8CHL1   C23  577   0.725   2.174   9.130 -0.7427  0.2245  0.8799
    8CHL1  H23A  578   0.730   2.269   9.074  0.0398 -0.0464  0.4642
    8CHL1  H23B  579   0.823   2.153   9.178  0.9967  0.0754 -2.4429
    8CHL1   C24  580   0.703   2.045   9.044 -0.9356 -0.6292 -0.5240
    8CHL1  H24A  581   0.691   1.958   9.112 -3.5012 -0.5925 -0.8104
    8CHL1  H24B  582   0.608   2.064   8.990 -0.4323 -0.7044 -1.4538
    8CHL1   C25  583   0.819   2.012   8.940  0.2618 -0.1040  0.3236
    8CHL1   H25  584   0.763   1.937   8.880 -0.2137 -2.4259  3.3802
    8CHL1   C26  585   0.861   2.128   8.859 -0.9100  0.5097 -0.3805
    8CHL1  H26A  586   0.779   2.156   8.789  0.1192  1.2456 -1.3486
    8CHL1  H26B  587   0.879   2.221   8.917  2.5323 -1.0394  1.3438
    8CHL1  H26C  588   0.952   2.105   8.798  0.0233 -0.9522  1.4524
    8CHL1   C27  589   0.936   1.948   9.010  0.0843 -0.4423 -0.5367
    8CHL1  H27A  590   0.977   2.015   9.090 -2.6730  0.0816  0.5551
    8CHL1  H27B  591   0.899   1.862   9.069  0.1264  0.4923  0.9064
    8CHL1  H27C  592   1.007   1.908   8.935  0.2963 -1.4684  0.1887
    9CHL1    C3  593   2.589   0.405  10.215 -0.2130  0.8762  0.1048
    9CHL1    H3  594   2.581   0.514  10.233 -0.2065  0.7487  0.9019
    9CHL1    O3  595   2.657   0.345  10.326  0.4224 -0.3819  0.0609
    9CHL1   H3'  596   2.639   0.251  10.318  0.7539 -0.7794  2.8858
    9CHL1    C4  597   2.449   0.339  10.197 -0.6053 -0.7228  0.1232
    9CHL1   H4A  598   2.462   0.229  10.193 -0.2880 -0.6478 -2.1724
    9CHL1   H4B  599   2.388   0.381  10.280 -1.1820  1.1950 -1.1928
    9CHL1    C5  600   2.386   0.387  10.063  0.9527 -0.2723  0.0115
    9CHL1    C6  601   2.263   0.447  10.054  0.2190  0.9022  0.3117
    9CHL1    H6  602   2.208   0.476  10.145  2.3104  0.9428  1.6079
    9CHL1    C7  603   2.203   0.491   9.925  0.0091  0.5097  0.0686
    9CHL1   H7A  604   2.093   0.481   9.927  0.0631 -0.3604 -0.6946
    9CHL1   H7B  605   2.207   0.599   9.899  0.0603  0.4417 -0.2133
    9CHL1    C8  606   2.256   0.413   9.811 -0.3194  0.8896 -0.1230
    9CHL1    H8  607   2.219   0.308   9.817  0.3047  0.6589 -0.2303
    9CHL1   C14  608   2.190   0.457   9.683 -0.5732 -0.0925  0.0595
    9CHL1   H14  609   2.207   0.566   9.671  0.1521 -0.3637 -1.6426
    9CHL1   C15  610   2.036   0.462   9.675  0.5010 -0.0512 -0.1648
    9CHL1  H15A  611   1.998   0.364   9.710 -0.1470  0.8629  1.8696
    9CHL1  H15B  612   1.988   0.543   9.734 -1.1320 -0.0863 -1.3911
    9CHL1   C16  613   2.015   0.481   9.524  0.4657  0.0100 -0.0478
    9CHL1  H16A  614   1.952   0.395   9.493 -0.6012 -0.2219  2.5026
    9CHL1  H16B  615   1.981   0.585   9.501  0.8506  0.4135  1.1144
    9CHL1   C17  616   2.154   0.457   9.453 -0.4189 -0.0297 -0.3951
    9CHL1   H17  617   2.206   0.555   9.440  1.9710 -1.1037  0.4919
    9CHL1   C13  618   2.244   0.386   9.558  0.2568 -0.1741  0.4751
    9CHL1   C18  619   2.201   0.233   9.566  0.3134 -0.1509 -0.1133
    9CHL1  H18A  620   2.250   0.188   9.656  1.8693  0.0135 -0.8372
    9CHL1  H18B  621   2.092   0.220   9.552  0.4537  0.5170 -2.0443
    9CHL1  H18C  622   2.249   0.182   9.481  0.3532  2.4319 -1.7580
    9CHL1   C12  623   2.394   0.403   9.543  0.5136 -1.1213 -0.1144
    9CHL1  H12A  624   2.431   0.361   9.447 -0.2199  0.0187 -0.9170
    9CHL1  H12B  625   2.407   0.513   9.531  1.2755 -1.4637 -3.2356
    9CHL1   C11  626   2.460   0.353   9.670 -0.2222  0.0643 -0.8786
    9CHL1  H11A  627   2.448   0.243   9.674 -0.4182  0.1025  2.0725
    9CHL1  H11B  628   2.566   0.388   9.665 -1.1666  4.0942  1.8772
    9CHL1    C9  629   2.409   0.415   9.807 -1.0623 -0.6710 -0.3955
    9CHL1    H9  630   2.434   0.523   9.800  0.2329 -0.9788 -0.6888
    9CHL1   C10  631   2.467   0.359   9.941  0.2051  0.2376  1.0762
    9CHL1   C19  632   2.479   0.201   9.930 -0.3822  0.4361  0.6444
    9CHL1  H19A  633   2.515   0.140  10.015  0.9172 -1.6570 -1.2937
    9CHL1  H19B  634   2.376   0.159   9.933  0.6522 -2.1742  1.8943
    9CHL1  H19C  635   2.530   0.165   9.838  0.4762  2.7758  0.1119
    9CHL1    C1  636   2.605   0.425   9.959  1.0995 -0.3386  0.2224
    9CHL1   H1A  637   2.668   0.403   9.870  0.4938  3.6977 -1.4049
    9CHL1   H1B  638   2.603   0.536   9.954  0.1267 -0.2521  1.8975
    9CHL1    C2  639   2.679   0.395  10.090 -0.7323  0.5137 -0.0902
    9CHL1   H2A  640   2.767   0.462  10.089  1.4253 -2.0309 -2.8297
    9CHL1   H2B  641   2.711   0.288  10.094 -0.8068  0.4322 -1.2310
    9CHL1   C20  642   2.136   0.402   9.313  0.0602  0.9801 -0.0965
    9CHL1   H20  643   2.105   0.296   9.319  2.1480  0.2418 -1.3377
    9CHL1   C21  644   2.273   0.400   9.236 -0.1109 -0.1755  0.2935
    9CHL1  H21A  645   2.341   0.317   9.267  0.3226  0.7366  1.8949
    9CHL1  H21B  646   2.322   0.496   9.258  1.3214 -0.2938 -2.0233
    9CHL1  H21C  647   2.258   0.393   9.126 -3.5426 -2.2032  0.7219
    9CHL1   C22  648   2.025   0.487   9.239  0.4626 -0.0961  1.0983
    9CHL1  H22A  649   1.936   0.517   9.298 -0.9536 -0.0328 -0.9562
    9CHL1  H22B  650   2.068   0.578   9.192 -0.5128 -1.0580 -1.8740
    9CHL1   C23  651   1.956   0.409   9.127 -0.7802  0.4379  0.2681
    9CHL1  H23A  652   2.037   0.352   9.076 -2.9159 -1.7305 -0.9168
    9CHL1  H23B  653   1.879   0.337   9.161 -1.1255  0.0713 -1.2266
    9CHL1   C24  654   1.893   0.499   9.014 -0.7736  0.4229  0.3847
    9CHL1  H24A  655   1.814   0.562   9.062  0.4326  0.7743  2.0096
    9CHL1  H24B  656   1.977   0.561   8.977 -0.0917 -0.7563 -0.0834
    9CHL1   C25  657   1.826   0.419   8.909  0.0068 -0.1214  0.3304
    9CHL1   H25  658   1.904   0.355   8.863  0.9846  1.1111  0.2210
    9CHL1   C26  659   1.710   0.331   8.962 -0.1258  0.8035  0.3583
    9CHL1  H26A  660   1.639   0.404   9.007  2.1123  1.8467  2.4397
    9CHL1  H26B  661   1.662   0.282   8.875  0.1364 -0.2681  0.8067
    9CHL1  H26C  662   1.727   0.248   9.033 -0.5319 -0.0242 -0.4938
    9CHL1   C27  663   1.765   0.510   8.801  0.3817  0.1075 -0.3692
    9CHL1  H27A  664   1.740   0.461   8.705  2.0748  0.3949 -0.9898
    9CHL1  H27B  665   1.679   0.571   8.835  0.0764 -0.2049 -0.5828
    9CHL1  H27C  666   1.838   0.589   8.775  0.4730  0.6091  1.2743
   10CHL1    C3  667   1.308   3.901   9.974 -0.8616  0.6124 -0.0768
   10CHL1    H3  668   1.330   4.009   9.957  1.5489  0.7007  2.8180
   10CHL1    O3  669   1.257   3.887  10.104  0.0582  0.7711  0.4566
   10CHL1   H3'  670   1.214   3.973  10.114  1.4448  1.6857 -1.0030
   10CHL1    C4  671   1.207   3.852   9.872 -0.6642  0.1055 -0.3468
   10CHL1   H4A  672   1.197   3.743   9.889 -1.3700  0.4091  1.4728
   10CHL1   H4B  673   1.104   3.884   9.898 -0.3638 -1.6328  3.6741
   10CHL1    C5  674   1.255   3.863   9.729  0.6408 -0.3972  0.0068
   10CHL1    C6  675   1.180   3.931   9.634 -0.0048  0.2616 -0.0144
   10CHL1    H6  676   1.085   3.977   9.665 -0.0273  0.4902 -0.4195
   10CHL1    C7  677   1.229   3.957   9.497 -0.9764  0.7755  0.0727
   10CHL1   H7A  678   1.149   3.958   9.420  0.1818  1.2789 -1.1657
   10CHL1   H7B  679   1.276   4.057   9.491 -0.5388  0.6319  0.9512
   10CHL1    C8  680   1.346   3.860   9.454  0.1743 -0.1644  0.4278
   10CHL1    H8  681   1.308   3.756   9.452  0.3543 -0.2275 -0.6113
   10CHL1   C14  682   1.411   3.897   9.327 -0.1797  0.1393  0.0599
   10CHL1   H14  683   1.451   4.000   9.334  0.6094  0.0575 -2.2016
   10CHL1   C15  684   1.325   3.899   9.197 -0.0959 -0.3365  0.2432
   10CHL1  H15A  685   1.262   3.807   9.190  2.0577 -1.9121  0.3336
   10CHL1  H15B  686   1.252   3.982   9.202 -1.5798 -1.4786 -1.2118
   10CHL1   C16  687   1.428   3.909   9.082 -0.1564  0.3166 -0.0300
   10CHL1  H16A  688   1.388   3.838   9.007  0.9448  0.3315 -0.6479
   10CHL1  H16B  689   1.434   4.009   9.035  1.7446  0.4606  0.4314
   10CHL1   C17  690   1.566   3.874   9.151 -0.5764 -0.2592 -0.3110
   10CHL1   H17  691   1.607   3.973   9.178 -0.6886 -1.0367  3.1889
   10CHL1   C13  692   1.539   3.817   9.289 -0.2366 -0.3792 -0.1079
   10CHL1   C18  693   1.503   3.668   9.282  0.8231  0.2325 -0.2347
   10CHL1  H18A  694   1.592   3.603   9.268  0.1220 -0.2932 -2.6311
   10CHL1  H18B  695   1.453   3.641   9.378  2.6857 -0.0481  0.7100
   10CHL1  H18C  696   1.426   3.646   9.205 -1.6581 -2.0958  2.6383
   10CHL1   C12  697   1.649   3.840   9.393  0.0986  0.9503 -0.5865
   10CHL1  H12A  698   1.745   3.791   9.366  1.3560  1.8340  1.8885
   10CHL1  H12B  699   1.669   3.950   9.397 -2.5534  1.4611  1.6846
   10CHL1   C11  700   1.594   3.803   9.533 -0.1240  0.7461 -0.2546
   10CHL1  H11A  701   1.598   3.692   9.541  0.7321  0.5257 -2.7621
   10CHL1  H11B  702   1.662   3.848   9.608 -0.7045  0.5623  0.3925
   10CHL1    C9  703   1.448   3.855   9.566 -0.2678 -0.4208 -0.3902
   10CHL1    H9  704   1.472   3.961   9.588  0.0315 -0.0674 -2.2093
   10CHL1   C10  705   1.390   3.802   9.704 -0.1055 -0.6486 -0.1078
   10CHL1   C19  706   1.386   3.648   9.699  0.0496 -0.2173  0.0999
   10CHL1  H19A  707   1.336   3.603   9.611  2.7612 -2.6700 -0.3357
   10CHL1  H19B  708   1.483   3.596   9.710 -1.5600 -2.9842  2.8941
   10CHL1  H19C  709   1.337   3.607   9.790  2.3116 -1.3785  0.8465
   10CHL1    C1  710   1.491   3.836   9.822  0.3731 -0.3544  0.2049
   10CHL1   H1A  711   1.582   3.775   9.804  0.6347 -0.1288  0.7666
   10CHL1   H1B  712   1.514   3.944   9.811 -2.3082  0.4070  1.1973
   10CHL1    C2  713   1.433   3.820   9.957 -0.5340  0.0930  0.2426
   10CHL1   H2A  714   1.506   3.864  10.029 -1.8268  0.2541  1.4944
   10CHL1   H2B  715   1.428   3.712   9.981 -0.6939 -0.6275 -2.7469
   10CHL1   C20  716   1.663   3.796   9.056  0.5409  0.3192  0.8601
   10CHL1   H20  717   1.741   3.738   9.110  0.9142  0.6116  0.6438
   10CHL1   C21  718   1.739   3.902   8.979  0.4635  0.4941  0.3098
   10CHL1  H21A  719   1.664   3.963   8.925 -1.4086 -0.3712  1.7952
   10CHL1  H21B  720   1.813   3.865   8.905 -0.3240  0.2654 -0.3775
   10CHL1  H21C  721   1.796   3.962   9.054  0.2634  0.1183  0.7694
   10CHL1   C22  722   1.592   3.698   8.958 -0.5409 -0.0475  0.1223
   10CHL1  H22A  723   1.532   3.624   9.015  1.0255  1.6479  4.4418
   10CHL1  H22B  724   1.524   3.748   8.886 -0.2055 -2.6587 -2.1614
   10CHL1   C23  725   1.687   3.602   8.878 -0.2099  0.6814 -0.2524
   10CHL1  H23A  726   1.749   3.658   8.805  1.4900 -1.6980 -0.7359
   10CHL1  H23B  727   1.754   3.552   8.950 -1.0886 -0.0332  0.0904
   10CHL1   C24  728   1.596   3.508   8.801 -0.2556  0.1579  0.1292
   10CHL1  H24A  729   1.537   3.447   8.872 -0.7365 -1.1995 -1.3816
   10CHL1  H24B  730   1.521   3.561   8.738 -1.7670 -2.8113 -0.7737
   10CHL1   C25  731   1.669   3.418   8.697  0.4005  0.7711 -0.2924
   10CHL1   H25  732   1.752   3.475   8.650  0.6548  1.3120  0.7692
   10CHL1   C26  733   1.725   3.297   8.764 -0.4321 -0.2251  0.4162
   10CHL1  H26A  734   1.650   3.243   8.826 -1.5987  2.4678  1.4858
   10CHL1  H26B  735   1.770   3.232   8.686 -1.9251 -0.2509 -0.4685
   10CHL1  H26C  736   1.807   3.317   8.836  1.0612 -1.1461 -0.9664
   10CHL1   C27  737   1.578   3.369   8.585  0.4627 -0.1397 -0.0050
   10CHL1  H27A  738   1.637   3.324   8.502  0.7588 -1.0742  0.6930
   10CHL1  H27B  739   1.503   3.295   8.621  0.3398 -0.5739 -1.1188
   10CHL1  H27C  740   1.522   3.456   8.544  1.0317  0.8625  1.2766
   11CHL1    C3  741   4.646   5.024  10.075  0.2702  0.9368 -0.0322
   11CHL1    H3  742   4.735   5.082  10.043  0.9220 -0.7593 -1.4904
   11CHL1    O3  743   4.626   5.026  10.212  0.1868  0.1913 -0.3739
   11CHL1   H3'  744   4.557   4.964  10.234 -0.5358  1.2225  0.3738
   11CHL1    C4  745   4.517   5.069  10.002 -1.4362  0.0949 -0.3038
   11CHL1   H4A  746   4.432   5.011  10.044  0.1334 -3.1554 -1.2262
   11CHL1   H4B  747   4.497   5.174  10.031 -2.2462 -0.9108  3.3349
   11CHL1    C5  748   4.534   5.047   9.851  1.3945 -0.7258  0.7231
   11CHL1    C6  749   4.519   5.157   9.775  0.0211 -0.1487  0.2038
   11CHL1    H6  750   4.493   5.252   9.824  0.1274 -0.0696  0.1055
   11CHL1    C7  751   4.536   5.152   9.621 -0.3394  0.1988 -0.4969
   11CHL1   H7A  752   4.449   5.191   9.564  1.0117 -0.4425 -3.1875
   11CHL1   H7B  753   4.614   5.222   9.583  0.2217 -0.6537 -0.9568
   11CHL1    C8  754   4.547   5.008   9.561 -0.0818 -0.3398 -0.4214
   11CHL1    H8  755   4.443   4.971   9.547 -0.5750  1.3300 -1.4265
   11CHL1   C14  756   4.608   5.007   9.418 -0.6412  0.3042  0.4384
   11CHL1   H14  757   4.709   5.049   9.437 -0.4171  0.2401 -0.5956
   11CHL1   C15  758   4.545   5.111   9.320 -0.1511  0.3574  0.8400
   11CHL1  H15A  759   4.434   5.109   9.319 -0.2119  1.8062  1.7551
   11CHL1  H15B  760   4.568   5.218   9.338  0.2023  0.7146 -1.3719
   11CHL1   C16  761   4.602   5.064   9.186  0.0320  0.8886 -1.1027
   11CHL1  H16A  762   4.519   5.021   9.125 -1.1497  0.1323  0.9308
   11CHL1  H16B  763   4.650   5.138   9.119 -0.5868  0.8334 -1.6243
   11CHL1   C17  764   4.681   4.929   9.216 -0.2378 -0.3584 -0.7754
   11CHL1   H17  765   4.788   4.956   9.232 -0.4876 -0.4787  1.3009
   11CHL1   C13  766   4.629   4.871   9.349  0.0033  0.6114 -0.4059
   11CHL1   C18  767   4.497   4.803   9.336 -1.1097  0.6410 -0.5983
   11CHL1  H18A  768   4.510   4.696   9.307  0.6657  0.7491 -0.2916
   11CHL1  H18B  769   4.441   4.808   9.431  0.5879  2.2356  0.3836
   11CHL1  H18C  770   4.435   4.857   9.261 -3.0716  0.4518  0.8151
   11CHL1   C12  771   4.720   4.794   9.448  0.0154  0.5665  0.6599
   11CHL1  H12A  772   4.739   4.687   9.423 -1.8797 -0.1964  2.2777
   11CHL1  H12B  773   4.820   4.842   9.456 -1.2190  3.6188 -0.8342
   11CHL1   C11  774   4.668   4.774   9.591  1.1896  0.4189 -0.3933
   11CHL1  H11A  775   4.579   4.709   9.579  2.2944 -0.7972 -2.3562
   11CHL1  H11B  776   4.745   4.723   9.653  1.2431  2.2459  1.1697
   11CHL1    C9  777   4.628   4.912   9.657  0.1168 -1.1418  0.0574
   11CHL1    H9  778   4.731   4.955   9.662 -0.4001  0.2306 -0.5855
   11CHL1   C10  779   4.577   4.910   9.800 -0.1668 -0.7880  0.4109
   11CHL1   C19  780   4.452   4.825   9.810 -0.6453 -0.3149 -0.0168
   11CHL1  H19A  781   4.487   4.728   9.769  0.0904  0.2453 -0.7368
   11CHL1  H19B  782   4.418   4.800   9.913  0.5539  0.9338  0.7135
   11CHL1  H19C  783   4.366   4.858   9.748  0.0450 -2.1361 -2.0717
   11CHL1    C1  784   4.685   4.830   9.891  0.1327 -1.1209 -0.1398
   11CHL1   H1A  785   4.672   4.720   9.879 -1.3138 -0.9171 -0.5725
   11CHL1   H1B  786   4.785   4.866   9.859 -0.1504 -0.6073 -0.4534
   11CHL1    C2  787   4.659   4.874  10.043 -0.1159 -0.2137  0.0295
   11CHL1   H2A  788   4.738   4.824  10.103 -0.4842  0.6206  1.2454
   11CHL1   H2B  789   4.571   4.815  10.077  1.8743 -1.2966  3.7637
   11CHL1   C20  790   4.681   4.835   9.100 -0.3599 -0.1894 -0.1273
   11CHL1   H20  791   4.578   4.796   9.089 -0.6115  0.8758 -2.1180
   11CHL1   C21  792   4.768   4.714   9.134 -0.5593  0.3622 -0.4150
   11CHL1  H21A  793   4.847   4.734   9.210 -0.1289  2.7656 -1.4011
   11CHL1  H21B  794   4.812   4.682   9.038 -2.6160  2.1782 -2.0609
   11CHL1  H21C  795   4.699   4.634   9.171 -0.3480  1.1565  1.8406
   11CHL1   C22  796   4.741   4.890   8.969  0.4395 -0.4514 -0.0349
   11CHL1  H22A  797   4.695   4.990   8.954 -2.8564 -1.8291 -0.1359
   11CHL1  H22B  798   4.850   4.900   8.982  0.4293 -1.7039  1.2573
   11CHL1   C23  799   4.694   4.810   8.840 -0.4726  0.1133  0.2062
   11CHL1  H23A  800   4.715   4.701   8.853 -0.5312  0.2801  1.9816
   11CHL1  H23B  801   4.584   4.820   8.826 -0.6940 -2.2324 -0.2089
   11CHL1   C24  802   4.772   4.859   8.714  0.4562 -0.0467  0.0602
   11CHL1  H24A  803   4.742   4.961   8.681 -0.2061 -1.1888 -3.2162
   11CHL1  H24B  804   4.878   4.835   8.736 -0.1076 -1.2440  1.5919
   11CHL1   C25  805   4.741   4.761   8.594  0.0013 -0.1238 -0.2438
   11CHL1   H25  806   4.633   4.733   8.591 -0.1740  0.4862  0.0962
   11CHL1   C26  807   4.761   4.812   8.454  0.7041  0.7822 -0.2718
   11CHL1  H26A  808   4.712   4.910   8.438  0.2101  0.4506 -0.8232
   11CHL1  H26B  809   4.870   4.827   8.437  1.0177 -0.9842 -0.0305
   11CHL1  H26C  810   4.731   4.738   8.377  1.3079 -1.5455  1.6327
   11CHL1   C27  811   4.824   4.635   8.599  0.0186  0.4474  0.4372
   11CHL1  H27A  812   4.930   4.666   8.608 -0.6374  2.6124  1.6328
   11CHL1  H27B  813   4.790   4.567   8.680  0.0661  0.6283  0.6098
   11CHL1  H27C  814   4.808   4.576   8.506 -1.6198  0.1117  0.8890
   12CHL1    C3  815   2.296   3.994  10.349 -0.8472  1.6266  0.5321
   12CHL1    H3  816   2.256   4.095  10.373 -2.4681  0.8362  1.3288
   12CHL1    O3  817   2.335   3.935  10.472 -0.4647 -0.4404  0.1703
   12CHL1   H3'  818   2.381   3.853  10.452  2.4109  0.8649  0.8642
   12CHL1    C4  819   2.180   3.919  10.283  0.2466  0.4923 -0.8550
   12CHL1   H4A  820   2.209   3.812  10.293 -0.3758  0.4693  0.9868
   12CHL1   H4B  821   2.087   3.925  10.343  0.6260 -1.4168  0.0159
   12CHL1    C5  822   2.153   3.965  10.140 -0.0991  0.0309 -0.2251
   12CHL1    C6  823   2.031   3.998  10.104  1.3104 -0.3116 -0.5705
   12CHL1    H6  824   1.949   3.983  10.176  0.3266  2.2317 -1.0723
   12CHL1    C7  825   1.987   4.024   9.963  0.4849  0.1306 -0.7121
   12CHL1   H7A  826   1.906   3.960   9.922  0.2590 -1.8684  2.4986
   12CHL1   H7B  827   1.954   4.129   9.948 -0.5140 -0.1060 -0.2194
   12CHL1    C8  828   2.095   4.008   9.861  0.4266 -0.5893 -0.1923
   12CHL1    H8  829   2.108   3.902   9.830 -1.4446 -1.1135  0.6783
   12CHL1   C14  830   2.074   4.097   9.736 -0.1823  0.3970 -0.2840
   12CHL1   H14  831   2.082   4.203   9.771  2.5134  0.3795 -0.5885
   12CHL1   C15  832   1.939   4.083   9.669  0.1476 -0.2013  0.3481
   12CHL1  H15A  833   1.900   3.983   9.644 -1.4576  0.9774 -2.2659
   12CHL1  H15B  834   1.861   4.123   9.738 -1.0144 -3.1481  0.9012
   12CHL1   C16  835   1.962   4.146   9.530  0.1154  0.2303  0.8557
   12CHL1  H16A  836   1.912   4.093   9.446  1.0519  0.0450  0.4031
   12CHL1  H16B  837   1.927   4.252   9.530 -1.2340 -0.1917  0.7917
   12CHL1   C17  838   2.115   4.153   9.509 -0.2501  0.6301 -0.5182
   12CHL1   H17  839   2.143   4.260   9.518  0.0087  0.6443 -1.3401
   12CHL1   C13  840   2.176   4.082   9.628  0.4065  0.1818  0.4200
   12CHL1   C18  841   2.196   3.937   9.581 -0.5767  0.9061 -0.4260
   12CHL1  H18A  842   2.240   3.870   9.658 -1.0913 -1.0564 -1.7418
   12CHL1  H18B  843   2.106   3.886   9.541 -0.3117  0.8966 -1.0380
   12CHL1  H18C  844   2.281   3.926   9.509 -2.4370 -1.5642 -2.4449
   12CHL1   C12  845   2.313   4.136   9.686 -0.7686  0.2864 -0.2280
   12CHL1  H12A  846   2.402   4.119   9.623  0.5101  1.1090  1.2956
   12CHL1  H12B  847   2.305   4.245   9.705  0.1698  0.4405 -0.7174
   12CHL1   C11  848   2.347   4.060   9.816  0.6776  0.0662 -0.0814
   12CHL1  H11A  849   2.382   3.959   9.786 -1.6094 -0.1839 -2.1822
   12CHL1  H11B  850   2.432   4.115   9.862  1.8387 -2.6261  1.1722
   12CHL1    C9  851   2.236   4.047   9.921 -0.3258  0.0474  0.1901
   12CHL1    H9  852   2.214   4.155   9.938 -2.8465 -0.3306 -0.3450
   12CHL1   C10  853   2.273   3.972  10.049 -0.7717 -0.0084  0.0367
   12CHL1   C19  854   2.328   3.835  10.020 -0.8323  0.9791  0.1629
   12CHL1  H19A  855   2.264   3.779   9.949  1.5247  0.5893 -1.7726
   12CHL1  H19B  856   2.424   3.840   9.966 -0.5626  1.7357  0.6998
   12CHL1  H19C  857   2.345   3.764  10.104 -0.2092 -1.0515 -1.5813
   12CHL1    C1  858   2.384   4.053  10.124 -0.6195 -0.2690  0.9350
   12CHL1   H1A  859   2.474   4.060  10.059 -0.1371 -2.5785  1.2732
   12CHL1   H1B  860   2.343   4.155  10.138  1.9603  1.0122 -0.2344
   12CHL1    C2  861   2.416   3.998  10.258 -0.6703  0.4811 -0.2465
   12CHL1   H2A  862   2.500   4.060  10.298 -0.5711  0.9472 -1.1452
   12CHL1   H2B  863   2.460   3.897  10.242  0.4837  0.7851  0.8451
   12CHL1   C20  864   2.176   4.125   9.364  0.3032  0.1564 -0.3637
   12CHL1   H20  865   2.170   4.016   9.342  0.0752  0.0766  0.0955
   12CHL1   C21  866   2.324   4.159   9.363  0.2505 -0.1976  0.3417
   12CHL1  H21A  867   2.381   4.077   9.412 -0.7734 -1.7210 -0.9278
   12CHL1  H21B  868   2.349   4.261   9.399  0.4563 -0.7285  1.7814
   12CHL1  H21C  869   2.370   4.154   9.262  0.0898  2.5250  0.0711
   12CHL1   C22  870   2.107   4.208   9.254 -0.4052 -0.3878 -0.1415
   12CHL1  H22A  871   1.997   4.189   9.254 -0.3676 -0.6113  0.0083
   12CHL1  H22B  872   2.123   4.316   9.277  1.5742 -0.5164 -0.7602
   12CHL1   C23  873   2.143   4.183   9.109 -0.2116  0.4012  0.3652
   12CHL1  H23A  874   2.235   4.241   9.086  0.4587 -0.9925 -0.6338
   12CHL1  H23B  875   2.168   4.075   9.093  1.1448  0.6139  0.8626
   12CHL1   C24  876   2.046   4.230   8.992 -0.2197  0.2638 -0.0397
   12CHL1  H24A  877   1.951   4.175   9.004 -0.0038 -0.0295  0.3464
   12CHL1  H24B  878   2.019   4.337   9.004  1.4432  0.6282  0.7770
   12CHL1   C25  879   2.083   4.205   8.849 -0.1364 -0.1405  1.3913
   12CHL1   H25  880   2.171   4.270   8.828 -1.7911  1.2185 -2.4435
   12CHL1   C26  881   2.126   4.060   8.818  0.1399 -0.0419 -0.0414
   12CHL1  H26A  882   2.046   3.989   8.847  0.2572  0.8384  2.6873
   12CHL1  H26B  883   2.147   4.036   8.711 -2.2357 -1.2988 -0.2936
   12CHL1  H26C  884   2.214   4.037   8.882  1.0965  1.7290 -0.6507
   12CHL1   C27  885   1.975   4.243   8.748 -0.5860  0.5988  0.0162
   12CHL1  H27A  886   2.012   4.240   8.644 -2.3028 -1.3517 -0.6023
   12CHL1  H27B  887   1.885   4.179   8.755 -0.9869  1.3086  2.4977
   12CHL1  H27C  888   1.955   4.350   8.772 -3.1987  0.0212  0.8341
   13CHL1    C3  889   0.968   3.398   9.851 -0.4817 -0.2518 -0.1263
   13CHL1    H3  890   1.076   3.372   9.847 -0.1859  1.0294 -1.1689
   13CHL1    O3  891   0.923   3.429   9.985  0.8831  0.3380 -0.3377
   13CHL1   H3'  892   0.828   3.441   9.981  0.8914  0.0451 -3.1832
   13CHL1    C4  893   0.939   3.524   9.761 -0.0329 -0.5145 -0.8403
   13CHL1   H4A  894   0.837   3.567   9.771  0.1228  0.2930 -2.4931
   13CHL1   H4B  895   1.002   3.612   9.788 -1.1228 -0.1523  0.6984
   13CHL1    C5  896   0.954   3.501   9.614  0.4813 -0.7250 -0.7919
   13CHL1    C6  897   1.014   3.595   9.537  0.3743 -0.3539  0.3182
   13CHL1    H6  898   1.055   3.688   9.578  1.0976  0.3384 -1.8142
   13CHL1    C7  899   1.039   3.582   9.384  0.4178  0.5179  0.0403
   13CHL1   H7A  900   1.018   3.682   9.341 -1.5777  0.7749  1.4436
   13CHL1   H7B  901   1.142   3.547   9.361  0.8517  0.9682  1.1852
   13CHL1    C8  902   0.939   3.477   9.322 -0.4317  0.9006 -1.2433
   13CHL1    H8  903   0.837   3.522   9.326 -0.3176  1.0689  0.0257
   13CHL1   C14  904   0.977   3.440   9.181  0.4955  0.3173  0.6520
   13CHL1   H14  905   1.071   3.384   9.202 -0.7826 -1.4746  1.8379
   13CHL1   C15  906   0.993   3.549   9.083  0.7731  1.0426  0.3658
   13CHL1  H15A  907   0.907   3.619   9.093  1.1764  1.7420 -0.8540
   13CHL1  H15B  908   1.086   3.609   9.090  2.6913 -1.7974  0.7965
   13CHL1   C16  909   0.976   3.486   8.940 -0.2051 -0.3187 -0.4834
   13CHL1  H16A  910   0.894   3.543   8.892 -0.3313 -0.1715 -0.0957
   13CHL1  H16B  911   1.070   3.489   8.881 -0.1733 -0.2930 -0.4319
   13CHL1   C17  912   0.937   3.335   8.964  0.2397 -0.5958 -0.7131
   13CHL1   H17  913   1.031   3.276   8.959  0.0942 -0.8077 -1.0406
   13CHL1   C13  914   0.891   3.337   9.115  0.3133  0.8137 -0.7065
   13CHL1   C18  915   0.746   3.378   9.112 -0.0497  0.3098 -0.8106
   13CHL1  H18A  916   0.680   3.303   9.063  0.9682 -0.7957 -0.5316
   13CHL1  H18B  917   0.704   3.374   9.215  0.5082 -1.9614 -0.6186
   13CHL1  H18C  918   0.736   3.483   9.075 -0.3421  0.5036 -0.1903
   13CHL1   C12  919   0.906   3.202   9.200  0.3103 -0.4548  0.1082
   13CHL1  H12A  920   0.845   3.119   9.157 -0.7662  0.0353  0.6530
   13CHL1  H12B  921   1.012   3.168   9.197  0.7146  0.8071 -0.6422
   13CHL1   C11  922   0.866   3.218   9.343 -0.2845  0.0543  0.3432
   13CHL1  H11A  923   0.759   3.219   9.371 -0.5737 -1.6064 -0.5591
   13CHL1  H11B  924   0.907   3.129   9.395 -1.7527 -1.7084 -1.3745
   13CHL1    C9  925   0.934   3.344   9.410  1.0762 -0.4050 -0.5888
   13CHL1    H9  926   1.041   3.314   9.418  1.5701  1.5016  0.6482
   13CHL1   C10  927   0.885   3.368   9.559  0.1016 -0.3404 -0.3531
   13CHL1   C19  928   0.735   3.393   9.559 -0.2538 -0.0056  0.3865
   13CHL1  H19A  929   0.685   3.294   9.548  1.6104 -0.8424 -1.0380
   13CHL1  H19B  930   0.698   3.426   9.659 -0.8228 -0.1645  0.2327
   13CHL1  H19C  931   0.705   3.457   9.474 -0.9206  0.9472  1.3149
   13CHL1    C1  932   0.923   3.248   9.650 -0.8159 -0.3543  0.0585
   13CHL1   H1A  933   0.851   3.166   9.629 -1.0421 -0.8437  2.5210
   13CHL1   H1B  934   1.023   3.203   9.629 -1.8574 -2.4756 -0.6297
   13CHL1    C2  935   0.892   3.273   9.800 -0.1524  0.0302  0.0707
   13CHL1   H2A  936   0.914   3.197   9.878 -2.5059 -0.5019  0.3019
   13CHL1   H2B  937   0.781   3.275   9.797 -0.2110 -1.9678 -2.3059
   13CHL1   C20  938   0.840   3.286   8.853 -1.0314  0.0486  1.0742
   13CHL1   H20  939   0.739   3.332   8.861 -1.6881 -1.3962  1.3932
   13CHL1   C21  940   0.823   3.135   8.872 -0.5679 -0.1347 -0.3921
   13CHL1  H21A  941   0.921   3.085   8.884 -0.1316 -0.3690 -3.8227
   13CHL1  H21B  942   0.770   3.089   8.785  0.8953  0.4553 -1.6372
   13CHL1  H21C  943   0.759   3.106   8.958  0.1622 -0.5390  0.0169
   13CHL1   C22  944   0.897   3.319   8.709  0.5491 -0.1517 -0.2190
   13CHL1  H22A  945   0.895   3.430   8.699 -2.2283 -0.2207 -1.3830
   13CHL1  H22B  946   0.999   3.276   8.703 -0.1059 -1.6945 -0.7612
   13CHL1   C23  947   0.820   3.264   8.583 -0.2184  0.2410  0.0746
   13CHL1  H23A  948   0.765   3.170   8.604  1.0358 -0.3934  0.5840
   13CHL1  H23B  949   0.739   3.335   8.555  0.9327  1.5357 -0.0703
   13CHL1   C24  950   0.914   3.250   8.460  0.5710  0.1836 -0.0089
   13CHL1  H24A  951   0.981   3.338   8.455  1.3054 -0.1621  2.3258
   13CHL1  H24B  952   0.990   3.170   8.471 -1.6334 -1.9504  0.7695
   13CHL1   C25  953   0.845   3.234   8.325 -0.2483  0.6520 -0.5609
   13CHL1   H25  954   0.782   3.324   8.309  0.8406  1.3990 -0.7761
   13CHL1   C26  955   0.941   3.241   8.205  0.3120  0.2391 -0.0121
   13CHL1  H26A  956   1.016   3.160   8.193 -0.1560 -0.0700 -0.9399
   13CHL1  H26B  957   0.871   3.234   8.119 -2.2648 -1.9355  2.0256
   13CHL1  H26C  958   0.991   3.340   8.197  0.0802  0.9566  4.5397
   13CHL1   C27  959   0.746   3.109   8.327  0.4016 -0.3336  0.3788
   13CHL1  H27A  960   0.817   3.025   8.342 -1.6252 -1.7226  2.9599
   13CHL1  H27B  961   0.666   3.106   8.404 -0.3514  0.4989 -0.3403
   13CHL1  H27C  962   0.693   3.099   8.231 -1.2796 -2.4734  1.4601
   14CHL1    C3  963   4.832   0.969  10.335  0.7087  1.1899  0.3465
   14CHL1    H3  964   4.828   1.080  10.327  1.8678  1.1257 -2.8629
   14CHL1    O3  965   4.880   0.944  10.465 -0.1087  0.0682  0.2600
   14CHL1   H3'  966   4.966   0.903  10.459 -0.6621 -0.9675 -0.7469
   14CHL1    C4  967   4.697   0.913  10.311  0.3669 -0.0195 -1.2601
   14CHL1   H4A  968   4.694   0.805  10.334  0.3678 -0.2794 -2.3859
   14CHL1   H4B  969   4.626   0.954  10.386  1.8911  0.4623 -0.0326
   14CHL1    C5  970   4.650   0.939  10.167 -0.1541  1.0844  0.2761
   14CHL1    C6  971   4.533   0.983  10.137  0.0127 -0.8014 -0.3426
   14CHL1    H6  972   4.463   1.012  10.216  0.2165  3.0512 -1.3999
   14CHL1    C7  973   4.477   1.002  10.000  0.0110 -0.2806  0.4313
   14CHL1   H7A  974   4.366   0.994   9.995  0.0994 -1.4443 -0.1336
   14CHL1   H7B  975   4.502   1.104   9.966  2.4751 -0.3145  1.9148
   14CHL1    C8  976   4.553   0.913   9.896  0.1336 -0.3488  0.4211
   14CHL1    H8  977   4.527   0.807   9.918  1.9123 -0.7165  0.8930
   14CHL1   C14  978   4.518   0.950   9.754 -0.3751  0.0749 -0.5499
   14CHL1   H14  979   4.534   1.060   9.745  1.1471  0.2327  2.7307
   14CHL1   C15  980   4.375   0.955   9.708 -0.1675 -0.3056 -0.3731
   14CHL1  H15A  981   4.312   0.867   9.734 -2.6443  1.0687 -1.2740
   14CHL1  H15B  982   4.320   1.042   9.750 -0.2434  0.0299 -1.1473
   14CHL1   C16  983   4.372   0.969   9.556 -0.1000  0.1334 -0.6552
   14CHL1  H16A  984   4.303   0.887   9.526 -0.0950 -0.1529  0.1024
   14CHL1  H16B  985   4.340   1.068   9.517  2.4650  0.7441 -1.3767
   14CHL1   C17  986   4.522   0.958   9.510 -0.1077 -0.0817  0.2669
   14CHL1   H17  987   4.569   1.058   9.497  1.2910 -0.7186  0.2342
   14CHL1   C13  988   4.594   0.892   9.635  0.6022 -0.1458  0.2249
   14CHL1   C18  989   4.580   0.738   9.633 -0.2878 -0.5547 -0.1927
   14CHL1  H18A  990   4.653   0.696   9.561  1.3121  0.4695  0.7574
   14CHL1  H18B  991   4.611   0.704   9.735  1.5757  0.3225 -0.4211
   14CHL1  H18C  992   4.481   0.690   9.621 -0.2517 -1.2270  1.8409
   14CHL1   C12  993   4.747   0.925   9.661  0.8086  0.6877  0.4200
   14CHL1  H12A  994   4.801   0.866   9.584  0.2905 -0.7313  1.0926
   14CHL1  H12B  995   4.763   1.033   9.643 -0.3040  0.4223 -2.7403
   14CHL1   C11  996   4.794   0.887   9.801 -0.8172 -0.3070 -0.0288
   14CHL1  H11A  997   4.801   0.777   9.815  1.0990 -0.6309 -2.6456
   14CHL1  H11B  998   4.897   0.925   9.819 -0.5835 -1.0270  0.1846
   14CHL1    C9  999   4.703   0.938   9.920  0.7803  0.3779 -0.3123
   14CHL1    H9 1000   4.722   1.048   9.919  2.5955  0.1182 -2.5175
   14CHL1   C10 1001   4.752   0.891  10.062 -0.5237 -0.2999  0.4017
   14CHL1   C19 1002   4.761   0.734  10.075 -0.1598 -0.5292 -0.6021
   14CHL1  H19A 1003   4.658   0.700  10.050 -1.5141  1.0387  2.2447
   14CHL1  H19B 1004   4.835   0.700  10.000  2.7583  1.6952  1.0492
   14CHL1  H19C 1005   4.789   0.690  10.173  0.2566  0.9609 -0.0169
   14CHL1    C1 1006   4.891   0.959  10.089  0.3897 -0.0965 -0.0558
   14CHL1   H1A 1007   4.977   0.920  10.030  0.4412 -1.3762  0.8317
   14CHL1   H1B 1008   4.888   1.069  10.074  0.5538 -0.3372 -2.3037
   14CHL1    C2 1009   4.935   0.930  10.240 -0.0051  0.1105 -0.1593
   14CHL1   H2A 1010   5.037   0.972  10.252  0.8687 -1.7411 -0.7360
   14CHL1   H2B 1011   4.952   0.820  10.244 -1.3818 -0.0919  2.1063
   14CHL1   C20 1012   4.542   0.900   9.368 -0.1229  0.1346  0.1502
   14CHL1   H20 1013   4.502   0.797   9.373 -1.4260  0.5637 -0.8911
   14CHL1   C21 1014   4.692   0.889   9.327  0.9510 -0.8013 -0.5570
   14CHL1  H21A 1015   4.745   0.986   9.337  1.5389 -1.1701 -0.0187
   14CHL1  H21B 1016   4.717   0.852   9.225 -0.3789 -0.8153 -0.8983
   14CHL1  H21C 1017   4.749   0.822   9.395 -0.9317 -0.6072  1.3386
   14CHL1   C22 1018   4.447   0.970   9.268 -0.6970  0.6474  0.3265
   14CHL1  H22A 1019   4.346   0.963   9.313 -0.0055 -2.5269  1.6623
   14CHL1  H22B 1020   4.480   1.076   9.261 -0.4114  0.5093 -0.6037
   14CHL1   C23 1021   4.455   0.911   9.128  0.1638  0.1525  0.1967
   14CHL1  H23A 1022   4.559   0.916   9.089  0.7232 -0.6787  1.5115
   14CHL1  H23B 1023   4.430   0.805   9.151  2.3002 -0.1754  1.2674
   14CHL1   C24 1024   4.344   0.965   9.029 -0.4221 -0.4374  0.5744
   14CHL1  H24A 1025   4.253   0.946   9.090 -0.0758 -1.1414  0.8711
   14CHL1  H24B 1026   4.349   1.076   9.032 -2.8398 -0.2888  0.8658
   14CHL1   C25 1027   4.341   0.892   8.891 -1.4216  0.3677 -1.3626
   14CHL1   H25 1028   4.445   0.871   8.860 -0.8241  1.4502 -0.1749
   14CHL1   C26 1029   4.291   0.751   8.894 -0.0275  0.3396 -0.1219
   14CHL1  H26A 1030   4.288   0.703   8.794 -1.0958  0.5109 -0.1856
   14CHL1  H26B 1031   4.359   0.690   8.957  0.9750  0.2828 -1.2259
   14CHL1  H26C 1032   4.190   0.758   8.939 -0.4347 -2.2546 -0.5307
   14CHL1   C27 1033   4.258   0.983   8.799  0.6204 -0.3164 -0.1118
   14CHL1  H27A 1034   4.295   1.087   8.811 -3.0038  0.9587  1.3353
   14CHL1  H27B 1035   4.263   0.948   8.694 -1.7611  1.5860 -0.9435
   14CHL1  H27C 1036   4.151   0.975   8.829  1.0932 -1.0605  1.5308
   15CHL1    C3 1037   6.327   3.311  10.037  0.6948  0.6134 -0.5741
   15CHL1    H3 1038   6.270   3.394   9.989  0.6064 -0.3095 -2.1397
   15CHL1    O3 1039   6.299   3.303  10.174 -0.4091 -0.0450  0.3820
   15CHL1   H3' 1040   6.372   3.259  10.218  0.1401 -0.6147 -1.0631
   15CHL1    C4 1041   6.293   3.171   9.974  0.2172  0.3052 -0.6630
   15CHL1   H4A 1042   6.354   3.099  10.033 -0.9688  0.7857  1.2199
   15CHL1   H4B 1043   6.185   3.154   9.993  0.6449 -2.2979 -0.3055
   15CHL1    C5 1044   6.323   3.166   9.832 -0.0343 -0.2457  0.5814
   15CHL1    C6 1045   6.230   3.134   9.741  0.7016 -0.6204  0.6716
   15CHL1    H6 1046   6.129   3.114   9.779 -0.1357  1.2809 -0.4031
   15CHL1    C7 1047   6.247   3.133   9.590  0.2756  0.4829  0.0590
   15CHL1   H7A 1048   6.194   3.052   9.536 -0.4556  1.8423 -1.3249
   15CHL1   H7B 1049   6.201   3.223   9.545  0.1709  1.0218  1.2060
   15CHL1    C8 1050   6.400   3.143   9.551  0.0744 -0.6160  0.0436
   15CHL1    H8 1051   6.439   3.041   9.568 -0.1353 -1.0404 -1.7920
   15CHL1   C14 1052   6.414   3.182   9.399 -0.3343  0.3689  0.3738
   15CHL1   H14 1053   6.384   3.289   9.387 -0.9978  0.2699  1.1075
   15CHL1   C15 1054   6.331   3.108   9.290  0.3193  0.4632  0.3023
   15CHL1  H15A 1055   6.329   2.999   9.314 -3.5916  0.6839  1.7117
   15CHL1  H15B 1056   6.230   3.152   9.283  0.9783  1.7663 -1.7604
   15CHL1   C16 1057   6.414   3.124   9.158 -1.6852 -0.1995  0.0604
   15CHL1  H16A 1058   6.448   3.025   9.121  0.5871  0.9039 -0.9786
   15CHL1  H16B 1059   6.345   3.159   9.078 -0.8087  0.9499 -0.2102
   15CHL1   C17 1060   6.548   3.203   9.198  0.6018  0.3018 -0.1903
   15CHL1   H17 1061   6.519   3.310   9.188 -0.5295  0.1287  0.9458
   15CHL1   C13 1062   6.562   3.182   9.343  0.2230  0.2285  0.0608
   15CHL1   C18 1063   6.621   3.040   9.365 -0.5239  0.6031 -0.3931
   15CHL1  H18A 1064   6.728   3.049   9.338 -0.4683 -0.6750 -0.6552
   15CHL1  H18B 1065   6.621   2.999   9.468  2.8912 -0.9965 -0.8910
   15CHL1  H18C 1066   6.568   2.968   9.298  0.4456  0.6236 -1.1978
   15CHL1   C12 1067   6.633   3.288   9.437  0.3610  0.8803 -0.7970
   15CHL1  H12A 1068   6.742   3.289   9.414  0.8775 -1.7435  1.0327
   15CHL1  H12B 1069   6.579   3.382   9.416 -0.0904  0.9248  0.5058
   15CHL1   C11 1070   6.623   3.262   9.594 -0.0370  0.7683 -0.0926
   15CHL1  H11A 1071   6.697   3.181   9.613 -0.2448 -0.0810 -2.5410
   15CHL1  H11B 1072   6.656   3.346   9.659 -1.4917  1.5129 -0.2729
   15CHL1    C9 1073   6.472   3.239   9.640  0.0050 -0.0441 -0.1754
   15CHL1    H9 1074   6.421   3.337   9.628  1.0177  0.6632  1.0388
   15CHL1   C10 1075   6.462   3.211   9.794 -1.4238 -0.0119 -0.1649
   15CHL1   C19 1076   6.557   3.098   9.831 -0.1573  0.4397 -0.6201
   15CHL1  H19A 1077   6.537   3.061   9.935  0.5976  0.1616 -0.5660
   15CHL1  H19B 1078   6.551   3.009   9.765  0.7861  1.6695 -2.4237
   15CHL1  H19C 1079   6.660   3.137   9.844 -0.4482  0.3064  3.4769
   15CHL1    C1 1080   6.500   3.352   9.864  0.2800  0.3049 -0.4770
   15CHL1   H1A 1081   6.602   3.384   9.832  0.8937 -0.4580  0.6709
   15CHL1   H1B 1082   6.419   3.420   9.829 -1.5379 -2.2692 -1.5932
   15CHL1    C2 1083   6.474   3.349  10.014  0.6290  0.0500 -0.4497
   15CHL1   H2A 1084   6.493   3.449  10.058 -0.4989 -0.1490  0.5736
   15CHL1   H2B 1085   6.548   3.277  10.057  1.4107 -0.0692 -1.9489
   15CHL1   C20 1086   6.658   3.165   9.100 -0.5883 -0.2117  0.0781
   15CHL1   H20 1087   6.673   3.056   9.119 -3.6238 -0.6532  0.4496
   15CHL1   C21 1088   6.781   3.261   9.131  0.1582  0.0843  0.2484
   15CHL1  H21A 1089   6.743   3.357   9.088 -2.3699 -1.0804 -0.2798
   15CHL1  H21B 1090   6.863   3.216   9.072 -1.2531 -0.3476 -1.4329
   15CHL1  H21C 1091   6.808   3.274   9.238  0.2611  0.1620  0.2143
   15CHL1   C22 1092   6.623   3.187   8.956  0.7948  0.4505  0.2095
   15CHL1  H22A 1093   6.547   3.112   8.925 -0.4553  2.6261 -2.3972
   15CHL1  H22B 1094   6.564   3.280   8.941 -1.5782 -1.1109 -0.7469
   15CHL1   C23 1095   6.739   3.159   8.861 -0.5670  0.0627  0.3247
   15CHL1  H23A 1096   6.780   3.262   8.861 -1.7441  0.5563 -0.3157
   15CHL1  H23B 1097   6.805   3.076   8.893 -2.4706 -1.8407 -0.4720
   15CHL1   C24 1098   6.692   3.108   8.719  0.1126  0.0320 -0.0764
   15CHL1  H24A 1099   6.776   3.081   8.651  0.2801 -2.3760  0.9806
   15CHL1  H24B 1100   6.638   3.013   8.737 -2.1668  0.9651 -1.4742
   15CHL1   C25 1101   6.602   3.207   8.632 -0.2621  0.2254 -0.6598
   15CHL1   H25 1102   6.544   3.256   8.713 -0.3520 -0.5816 -0.2317
   15CHL1   C26 1103   6.666   3.327   8.567  0.3281  0.5314  0.1862
   15CHL1  H26A 1104   6.739   3.370   8.638 -0.0456 -0.5823  1.2830
   15CHL1  H26B 1105   6.716   3.300   8.471 -0.7619 -1.2460  0.0622
   15CHL1  H26C 1106   6.589   3.400   8.535 -0.3624 -1.3862 -3.0621
   15CHL1   C27 1107   6.513   3.130   8.538  0.2648 -0.5627 -0.3818
   15CHL1  H27A 1108   6.577   3.083   8.460  0.1503  0.9237 -1.4259
   15CHL1  H27B 1109   6.451   3.050   8.584 -1.5241  0.4993 -0.8481
   15CHL1  H27C 1110   6.440   3.197   8.487  2.3662  1.6259 -0.6775
   16CHL1    C3 1111   1.082   1.031  10.298  0.5148 -0.5333 -0.8260
   16CHL1    H3 1112   0.989   1.086  10.273  0.9744  1.4597  1.3674
   16CHL1    O3 1113   1.125   1.041  10.433 -0.0676 -0.0942  0.2292
   16CHL1   H3' 1114   1.045   1.041  10.487  0.2388 -0.3245  0.6875
   16CHL1    C4 1115   1.080   0.885  10.251  0.4538  0.1723 -1.0993
   16CHL1   H4A 1116   1.173   0.849  10.300 -0.7578  1.5608  2.5638
   16CHL1   H4B 1117   1.000   0.834  10.308  1.8112 -0.5776  0.2321
   16CHL1    C5 1118   1.064   0.862  10.105 -0.0688 -0.2211 -0.0313
   16CHL1    C6 1119   0.959   0.787  10.060 -0.0564 -0.3561  0.0076
   16CHL1    H6 1120   0.882   0.759  10.134 -1.1279  0.4538 -0.7659
   16CHL1    C7 1121   0.939   0.747   9.914  1.4765 -0.4530  0.1065
   16CHL1   H7A 1122   0.914   0.642   9.886  1.5837 -0.5628  0.4176
   16CHL1   H7B 1123   0.849   0.807   9.885 -0.3614 -1.8521  2.5318
   16CHL1    C8 1124   1.053   0.801   9.814 -0.1910  1.0557  0.6350
   16CHL1    H8 1125   1.141   0.734   9.821  0.7436  2.2010  0.2465
   16CHL1   C14 1126   1.002   0.806   9.665  0.2486  0.8396  0.2343
   16CHL1   H14 1127   0.930   0.891   9.671  0.4712  1.0837 -0.5476
   16CHL1   C15 1128   0.929   0.685   9.609  0.3624  0.3387  0.8963
   16CHL1  H15A 1129   0.991   0.593   9.616  1.1257  0.4411 -2.5622
   16CHL1  H15B 1130   0.831   0.668   9.657 -1.1405  1.3227 -1.6542
   16CHL1   C16 1131   0.914   0.723   9.463  0.0652 -0.4174  0.3312
   16CHL1  H16A 1132   0.910   0.633   9.399  1.2035  0.0559 -0.4433
   16CHL1  H16B 1133   0.811   0.764   9.451  0.5201  0.1089 -2.5628
   16CHL1   C17 1134   1.011   0.841   9.433 -0.1835  0.4214  0.2555
   16CHL1   H17 1135   0.950   0.934   9.437 -0.9061  0.2796 -3.4455
   16CHL1   C13 1136   1.102   0.849   9.562 -0.5838  0.9343  0.3464
   16CHL1   C18 1137   1.222   0.745   9.550  0.1472 -0.4345  0.6249
   16CHL1  H18A 1138   1.285   0.778   9.465 -0.3300 -2.2185 -0.4807
   16CHL1  H18B 1139   1.289   0.742   9.639  0.7119 -2.6119  0.1870
   16CHL1  H18C 1140   1.177   0.647   9.522 -0.7314 -0.7390  2.8322
   16CHL1   C12 1141   1.153   0.985   9.605 -0.0188  0.1316 -0.4554
   16CHL1  H12A 1142   1.236   1.010   9.535  1.0543 -0.8386  0.4230
   16CHL1  H12B 1143   1.069   1.058   9.600  1.1664  1.4518 -3.8094
   16CHL1   C11 1144   1.211   0.988   9.753 -0.3105  0.0859 -0.5283
   16CHL1  H11A 1145   1.301   0.923   9.762 -0.7508 -0.4079  0.4483
   16CHL1  H11B 1146   1.249   1.090   9.776  3.3695 -1.2086 -0.0593
   16CHL1    C9 1147   1.111   0.937   9.862  0.0768  0.5195 -1.0469
   16CHL1    H9 1148   1.024   1.006   9.855 -1.2227 -1.1144 -1.7067
   16CHL1   C10 1149   1.158   0.944  10.010 -0.4678  0.2228 -0.5305
   16CHL1   C19 1150   1.294   0.885  10.034  0.0361 -0.4919  0.2696
   16CHL1  H19A 1151   1.367   0.927   9.962 -0.5918  1.6957  0.8280
   16CHL1  H19B 1152   1.340   0.905  10.134  0.8299  0.2131 -0.2208
   16CHL1  H19C 1153   1.297   0.775  10.021  0.6310 -0.5349  0.7132
   16CHL1    C1 1154   1.152   1.092  10.060  0.3367 -0.5204  0.0792
   16CHL1   H1A 1155   1.220   1.154   9.998 -0.7313 -0.6829 -1.2998
   16CHL1   H1B 1156   1.047   1.118  10.034  0.8310 -0.2598 -1.7997
   16CHL1    C2 1157   1.179   1.119  10.213  0.4295  0.3470  0.3711
   16CHL1   H2A 1158   1.147   1.221  10.242 -1.0937  0.1321 -0.4548
   16CHL1   H2B 1159   1.283   1.091  10.241  0.0654 -0.1491  1.2424
   16CHL1   C20 1160   1.080   0.846   9.291  0.5477 -0.0216  0.4027
   16CHL1   H20 1161   1.170   0.910   9.304  0.7624 -0.5282  1.5088
   16CHL1   C21 1162   0.977   0.919   9.197 -0.1267 -0.1471 -0.2164
   16CHL1  H21A 1163   0.883   0.861   9.209 -0.0750  0.1176  1.9463
   16CHL1  H21B 1164   1.007   0.922   9.090  1.5588 -0.3581  0.2101
   16CHL1  H21C 1165   0.968   1.025   9.230  0.4582  0.2384 -1.2639
   16CHL1   C22 1166   1.126   0.711   9.233 -0.3465 -0.3386 -0.5336
   16CHL1  H22A 1167   1.192   0.660   9.307 -0.0839  0.9368  0.1384
   16CHL1  H22B 1168   1.036   0.646   9.229  0.6902 -2.2186  2.7860
   16CHL1   C23 1169   1.196   0.710   9.095  0.2615  0.1646 -0.0033
   16CHL1  H23A 1170   1.139   0.771   9.021 -3.5223 -2.1396  0.7160
   16CHL1  H23B 1171   1.299   0.748   9.112  0.9733 -1.5108 -0.2954
   16CHL1   C24 1172   1.219   0.568   9.031 -0.1371 -0.1648  0.5342
   16CHL1  H24A 1173   1.284   0.507   9.097 -1.2078  1.2700  3.0319
   16CHL1  H24B 1174   1.126   0.511   9.048 -0.2552  0.3453  1.6590
   16CHL1   C25 1175   1.289   0.562   8.889 -0.1675 -0.3467 -0.4895
   16CHL1   H25 1176   1.386   0.611   8.912  0.0367 -1.2354  0.5970
   16CHL1   C26 1177   1.317   0.416   8.857 -0.6300 -0.0711  0.1446
   16CHL1  H26A 1178   1.235   0.361   8.806  1.1183  0.4503 -3.6072
   16CHL1  H26B 1179   1.398   0.409   8.781 -1.3081  0.3895 -0.6427
   16CHL1  H26C 1180   1.346   0.357   8.947  0.5292  0.6920  0.3040
   16CHL1   C27 1181   1.219   0.643   8.782 -0.6573 -0.7114  0.9485
   16CHL1  H27A 1182   1.116   0.603   8.767 -0.8978 -0.0683  0.8620
   16CHL1  H27B 1183   1.209   0.751   8.804 -1.0549 -0.5411 -0.0440
   16CHL1  H27C 1184   1.286   0.635   8.693 -1.0543 -0.1528  0.5930
   17CHL1    C3 1185   4.987   3.939  10.408 -0.3452 -0.0787 -0.6795
   17CHL1    H3 1186   5.056   4.025  10.401  0.8862 -1.1037 -1.6583
   17CHL1    O3 1187   4.957   3.912  10.545 -0.9739 -0.3423 -0.3673
   17CHL1   H3' 1188   4.920   3.823  10.551 -0.0701 -0.6316  2.4062
   17CHL1    C4 1189   4.853   3.963  10.334 -0.1669  0.0848 -0.0493
   17CHL1   H4A 1190   4.776   3.887  10.361 -0.7083  1.1232  1.4870
   17CHL1   H4B 1191   4.810   4.058  10.372  0.0490 -0.8430  2.8255
   17CHL1    C5 1192   4.865   3.964  10.183  0.4497 -0.2168  0.2334
   17CHL1    C6 1193   4.821   4.071  10.110 -0.0069  0.2157 -0.0946
   17CHL1    H6 1194   4.774   4.154  10.163  0.1167  1.0106 -1.1979
   17CHL1    C7 1195   4.840   4.083   9.963 -0.2417  0.3216  0.3147
   17CHL1   H7A 1196   4.747   4.130   9.924 -0.6257 -0.8010 -0.1647
   17CHL1   H7B 1197   4.921   4.157   9.948 -0.7666  0.7121 -0.6689
   17CHL1    C8 1198   4.870   3.954   9.897 -0.6305 -0.1727  0.1880
   17CHL1    H8 1199   4.779   3.890   9.891 -2.0478  1.8895 -3.3003
   17CHL1   C14 1200   4.920   3.977   9.751 -0.0760  0.2594  0.3100
   17CHL1   H14 1201   5.020   4.023   9.761 -0.4409  0.9246  0.9834
   17CHL1   C15 1202   4.843   4.073   9.654  0.2938  0.0656  0.5564
   17CHL1  H15A 1203   4.734   4.063   9.671 -0.1552  1.7157 -0.9850
   17CHL1  H15B 1204   4.874   4.178   9.677  0.8941 -0.3483  1.7153
   17CHL1   C16 1205   4.871   4.020   9.515  0.6227 -0.1397  0.3352
   17CHL1  H16A 1206   4.777   3.981   9.470  0.7865  0.9719 -1.0420
   17CHL1  H16B 1207   4.905   4.100   9.446  1.6852 -0.2508  0.7152
   17CHL1   C17 1208   4.976   3.905   9.531  0.1957  0.2055  0.0205
   17CHL1   H17 1209   5.076   3.955   9.534  0.0523  0.6317 -1.3787
   17CHL1   C13 1210   4.947   3.845   9.674 -0.4360 -0.5098 -0.0424
   17CHL1   C18 1211   4.828   3.747   9.680  0.0864 -0.3066  0.1360
   17CHL1  H18A 1212   4.847   3.668   9.604 -1.3622  2.5609 -3.5139
   17CHL1  H18B 1213   4.820   3.696   9.778  0.5535 -1.4309 -0.3841
   17CHL1  H18C 1214   4.729   3.789   9.652 -0.4379 -1.3855  0.3027
   17CHL1   C12 1215   5.073   3.778   9.746  0.8017  0.7516  0.0167
   17CHL1  H12A 1216   5.087   3.679   9.698  0.8224 -1.1436  3.5688
   17CHL1  H12B 1217   5.161   3.840   9.722  0.7065  0.4738 -1.0938
   17CHL1   C11 1218   5.059   3.758   9.897  0.1229 -0.0618 -0.0679
   17CHL1  H11A 1219   4.990   3.672   9.911 -0.0948  0.4358  2.3809
   17CHL1  H11B 1220   5.159   3.749   9.944  0.2383 -1.5769 -0.5689
   17CHL1    C9 1221   4.982   3.879   9.974 -0.3436  0.4739 -0.2810
   17CHL1    H9 1222   5.066   3.952   9.977 -0.5722  0.7860 -1.1484
   17CHL1   C10 1223   4.936   3.850  10.118 -0.4752  0.2352  0.0162
   17CHL1   C19 1224   4.839   3.725  10.116 -0.2322 -0.2499 -0.9544
   17CHL1  H19A 1225   4.742   3.742  10.064 -0.1214 -2.4260 -1.9787
   17CHL1  H19B 1226   4.880   3.631  10.074 -0.9537 -1.0334  0.0193
   17CHL1  H19C 1227   4.815   3.709  10.224  1.9452  1.2573 -0.1808
   17CHL1    C1 1228   5.066   3.806  10.203 -0.1796  0.2148  0.0461
   17CHL1   H1A 1229   5.107   3.710  10.167  1.7308  1.2318 -0.6339
   17CHL1   H1B 1230   5.149   3.873  10.173 -1.1057  0.9001 -1.0805
   17CHL1    C2 1231   5.051   3.812  10.353  1.4490 -0.1368  0.1678
   17CHL1   H2A 1232   5.153   3.804  10.396  1.8912  2.2296 -0.2975
   17CHL1   H2B 1233   4.989   3.723  10.378  1.1226 -0.0410 -0.2847
   17CHL1   C20 1234   4.974   3.807   9.411  0.1807 -0.5253  0.3349
   17CHL1   H20 1235   4.885   3.742   9.424 -0.5717  0.4333  0.1704
   17CHL1   C21 1236   5.104   3.726   9.398 -0.3887  0.1332 -0.2588
   17CHL1  H21A 1237   5.099   3.638   9.330 -1.0767 -1.4920  1.7868
   17CHL1  H21B 1238   5.121   3.684   9.500 -0.3222 -0.7961 -0.6360
   17CHL1  H21C 1239   5.193   3.786   9.371  0.2786 -0.2735  0.9423
   17CHL1   C22 1240   4.964   3.887   9.273 -0.1921 -0.0325 -0.4276
   17CHL1  H22A 1241   4.865   3.935   9.255  0.6404  0.8381 -3.1347
   17CHL1  H22B 1242   5.030   3.975   9.267  0.9047 -0.8152 -0.1685
   17CHL1   C23 1243   4.970   3.801   9.147 -0.1140 -0.1344 -0.0306
   17CHL1  H23A 1244   5.070   3.752   9.142  0.5626  1.3007 -1.2530
   17CHL1  H23B 1245   4.893   3.723   9.166 -1.1010  0.5292 -1.1808
   17CHL1   C24 1246   4.932   3.869   9.015  0.2922 -0.0484 -0.0994
   17CHL1  H24A 1247   4.823   3.892   9.020  0.1225 -0.4685 -1.4637
   17CHL1  H24B 1248   4.993   3.961   9.006  1.0651 -0.6496 -1.4518
   17CHL1   C25 1249   4.973   3.786   8.891  0.0441  0.5333 -0.3210
   17CHL1   H25 1250   5.078   3.753   8.899  0.1026  0.6091 -0.7795
   17CHL1   C26 1251   4.886   3.656   8.891  0.1459  0.1702  0.0939
   17CHL1  H26A 1252   4.913   3.610   8.794  0.1323  2.1259 -0.8883
   17CHL1  H26B 1253   4.911   3.591   8.977  0.8627  0.6250  0.2422
   17CHL1  H26C 1254   4.782   3.693   8.883  1.0003  2.9382  0.4071
   17CHL1   C27 1255   4.945   3.864   8.764 -0.2626 -0.3999  0.4488
   17CHL1  H27A 1256   4.961   3.803   8.673 -0.4734  2.0851 -1.3615
   17CHL1  H27B 1257   4.841   3.902   8.752 -0.9367 -1.8625  1.3647
   17CHL1  H27C 1258   5.017   3.948   8.762  2.4863 -2.6153  0.9070
   18CHL1    C3 1259   6.763   2.345  10.241 -0.7426 -0.1773  0.2207
   18CHL1    H3 1260   6.666   2.297  10.217  0.2316 -0.7912 -3.0780
   18CHL1    O3 1261   6.798   2.351  10.378 -0.2936 -0.2161 -0.2022
   18CHL1   H3' 1262   6.745   2.427  10.403  0.8493  0.5177  0.0330
   18CHL1    C4 1263   6.870   2.254  10.172 -0.2018  0.5072  0.0289
   18CHL1   H4A 1264   6.971   2.298  10.185 -0.1581  0.1844  0.8201
   18CHL1   H4B 1265   6.883   2.159  10.229 -1.0389  0.0175 -0.5790
   18CHL1    C5 1266   6.835   2.239  10.030 -0.5903  0.2808 -0.2542
   18CHL1    C6 1267   6.799   2.116   9.985  0.3157 -0.5329  0.7349
   18CHL1    H6 1268   6.802   2.028  10.051 -0.8174 -0.8862  0.3390
   18CHL1    C7 1269   6.770   2.087   9.843 -0.2849 -0.6879  0.2601
   18CHL1   H7A 1270   6.816   1.988   9.823 -1.3635 -1.9239  3.2689
   18CHL1   H7B 1271   6.660   2.089   9.829 -0.2304  0.9301 -0.1257
   18CHL1    C8 1272   6.820   2.195   9.745  0.1701 -0.3401  0.3598
   18CHL1    H8 1273   6.931   2.191   9.742  0.2648 -0.0517  2.0648
   18CHL1   C14 1274   6.767   2.176   9.599  0.1149 -0.3168  0.2049
   18CHL1   H14 1275   6.657   2.192   9.604 -0.5012 -4.0284  0.7981
   18CHL1   C15 1276   6.794   2.040   9.530  0.0580  0.3889  0.7562
   18CHL1  H15A 1277   6.893   2.000   9.561 -0.6563 -1.0095  1.2991
   18CHL1  H15B 1278   6.729   1.957   9.562  1.8658 -1.7916 -0.8513
   18CHL1   C16 1279   6.802   2.064   9.375  0.0649  0.1675 -0.2359
   18CHL1  H16A 1280   6.902   2.040   9.333 -0.5231  0.6309 -1.9898
   18CHL1  H16B 1281   6.730   2.001   9.319  1.2429 -3.2281  1.7957
   18CHL1   C17 1282   6.780   2.223   9.371  0.3470 -0.0921 -0.1090
   18CHL1   H17 1283   6.669   2.223   9.379  0.4200 -1.7138  1.4229
   18CHL1   C13 1284   6.828   2.280   9.504  0.8643  0.0465  1.0517
   18CHL1   C18 1285   6.977   2.280   9.503  0.0619  0.5930 -0.3874
   18CHL1  H18A 1286   7.014   2.372   9.452  2.1791  0.4643  0.7779
   18CHL1  H18B 1287   7.020   2.299   9.604  0.1849 -1.5067  0.0036
   18CHL1  H18C 1288   7.031   2.188   9.472  1.5604  1.2460  0.1489
   18CHL1   C12 1289   6.757   2.416   9.555 -0.6249 -0.3745 -0.2643
   18CHL1  H12A 1290   6.790   2.501   9.491 -1.6346  0.7815  0.6975
   18CHL1  H12B 1291   6.646   2.412   9.550 -0.6740 -2.6272  1.2063
   18CHL1   C11 1292   6.809   2.452   9.694 -0.2226  0.2276 -0.1309
   18CHL1  H11A 1293   6.913   2.491   9.691 -0.1478  0.2779  1.6800
   18CHL1  H11B 1294   6.743   2.537   9.723  0.2307  0.5158  0.0713
   18CHL1    C9 1295   6.782   2.341   9.795 -0.2406  0.3790 -0.8589
   18CHL1    H9 1296   6.671   2.333   9.806  0.0143 -1.2535  1.2407
   18CHL1   C10 1297   6.833   2.365   9.940 -0.4949 -0.8020  0.4003
   18CHL1   C19 1298   6.973   2.438   9.933 -0.4341 -0.7264 -0.6171
   18CHL1  H19A 1299   7.042   2.387   9.863 -0.3894 -2.3370  0.5426
   18CHL1  H19B 1300   6.973   2.546   9.906  2.0202  0.1604  2.2946
   18CHL1  H19C 1301   7.019   2.433  10.034  1.0541 -1.0691 -1.2944
   18CHL1    C1 1302   6.739   2.466  10.012  0.1218 -0.3087  0.6524
   18CHL1   H1A 1303   6.745   2.563   9.958 -1.2014 -1.4490 -1.7029
   18CHL1   H1B 1304   6.639   2.417  10.006 -0.8130  1.6124 -0.2642
   18CHL1    C2 1305   6.758   2.477  10.163  0.8529 -0.2312 -0.0799
   18CHL1   H2A 1306   6.677   2.541  10.205  1.3118  1.0362 -1.0588
   18CHL1   H2B 1307   6.859   2.516  10.189  1.6558 -1.5941 -1.0515
   18CHL1   C20 1308   6.831   2.294   9.242  0.7667  0.4271  0.0348
   18CHL1   H20 1309   6.867   2.393   9.277 -0.0064  0.9496 -0.6130
   18CHL1   C21 1310   6.706   2.338   9.163 -0.0519  0.6582 -0.3632
   18CHL1  H21A 1311   6.652   2.250   9.124 -1.6396  1.0803  0.7647
   18CHL1  H21B 1312   6.730   2.397   9.072 -1.9553  2.5510  0.2692
   18CHL1  H21C 1313   6.634   2.398   9.223  0.0993 -0.7598  1.3183
   18CHL1   C22 1314   6.939   2.226   9.161 -1.1518 -0.3454 -0.0218
   18CHL1  H22A 1315   6.993   2.310   9.112 -1.4880  0.3754  0.8188
   18CHL1  H22B 1316   7.007   2.185   9.238 -1.7223 -0.5607  0.3758
   18CHL1   C23 1317   6.882   2.124   9.061  0.5105  0.4502 -0.0254
   18CHL1  H23A 1318   6.803   2.062   9.107 -1.2421 -0.0504 -3.3663
   18CHL1  H23B 1319   6.827   2.173   8.978 -2.6270 -0.5477  1.3117
   18CHL1   C24 1320   7.002   2.029   9.009  0.2610  0.2682  0.0381
   18CHL1  H24A 1321   7.084   2.092   8.969 -0.0187 -0.5046 -1.8541
   18CHL1  H24B 1322   7.027   1.970   9.100  0.6958  1.6472  0.8451
   18CHL1   C25 1323   6.941   1.926   8.904 -0.3582 -0.4209  0.1663
   18CHL1   H25 1324   6.926   1.983   8.810 -0.8251 -0.6758  0.0795
   18CHL1   C26 1325   7.044   1.811   8.880 -0.5772  0.1090  0.0136
   18CHL1  H26A 1326   7.012   1.723   8.821  0.4206 -0.4989  0.3480
   18CHL1  H26B 1327   7.131   1.851   8.825 -0.3291 -3.5495 -2.6188
   18CHL1  H26C 1328   7.079   1.768   8.977 -3.3099  1.1314  1.5690
   18CHL1   C27 1329   6.816   1.856   8.959 -0.0840 -0.7988  0.0818
   18CHL1  H27A 1330   6.772   1.788   8.882  1.8484 -0.0180 -1.8068
   18CHL1  H27B 1331   6.836   1.791   9.047 -0.5289 -0.6694  0.2790
   18CHL1  H27C 1332   6.738   1.934   8.975  1.1157  0.4185  0.1432
   19CHL1    C3 1333   5.838   5.639  10.173 -0.2094  0.2491  0.5166
   19CHL1    H3 1334   5.748   5.700  10.149 -0.0418  0.3061  0.0225
   19CHL1    O3 1335   5.846   5.634  10.313  0.2503 -0.2178  0.1127
   19CHL1   H3' 1336   5.932   5.598  10.332 -0.6308 -2.8943 -0.6273
   19CHL1    C4 1337   5.844   5.494  10.114  0.1262  0.2892  0.1463
   19CHL1   H4A 1338   5.938   5.448  10.150 -0.9166 -0.5625  1.9473
   19CHL1   H4B 1339   5.759   5.432  10.149 -0.1814 -0.3781 -1.7115
   19CHL1    C5 1340   5.846   5.491   9.964 -0.0825 -0.4024  0.0985
   19CHL1    C6 1341   5.760   5.418   9.891  0.2077  0.2249 -0.0005
   19CHL1    H6 1342   5.687   5.357   9.945  2.7951 -0.3850  3.1513
   19CHL1    C7 1343   5.764   5.410   9.739 -0.1474 -0.1504 -0.0977
   19CHL1   H7A 1344   5.745   5.305   9.707 -3.3999  0.6433 -1.2031
   19CHL1   H7B 1345   5.679   5.457   9.686  0.0980 -0.7167 -1.0243
   19CHL1    C8 1346   5.888   5.462   9.679  0.0548  0.3562 -0.6874
   19CHL1    H8 1347   5.971   5.389   9.691 -0.3335  0.1762  1.1973
   19CHL1   C14 1348   5.866   5.489   9.534  0.0524  0.9252  0.4898
   19CHL1   H14 1349   5.792   5.571   9.525 -0.4080  0.5018  0.3607
   19CHL1   C15 1350   5.795   5.378   9.448 -0.4937  0.8316 -0.1647
   19CHL1  H15A 1351   5.848   5.283   9.472  0.8792  2.1581  2.5513
   19CHL1  H15B 1352   5.685   5.363   9.450 -0.4389 -0.2585 -2.3392
   19CHL1   C16 1353   5.833   5.403   9.302  0.0514 -0.2648 -0.2732
   19CHL1  H16A 1354   5.895   5.323   9.257  0.9684  0.7668 -0.9094
   19CHL1  H16B 1355   5.744   5.411   9.236 -1.6300  2.5411  2.1099
   19CHL1   C17 1356   5.920   5.534   9.317 -0.6393 -0.0517 -0.5015
   19CHL1   H17 1357   5.847   5.618   9.316 -1.8400 -1.0594 -1.6898
   19CHL1   C13 1358   5.988   5.527   9.455 -0.7679  0.2890  0.5539
   19CHL1   C18 1359   6.103   5.424   9.455 -0.1144  0.1918 -0.1582
   19CHL1  H18A 1360   6.186   5.436   9.381  0.0843 -3.7665 -0.7807
   19CHL1  H18B 1361   6.144   5.414   9.557  1.3094  0.3743 -0.6885
   19CHL1  H18C 1362   6.056   5.328   9.426 -0.9211  0.5744 -0.1634
   19CHL1   C12 1363   6.044   5.654   9.514 -0.5612 -0.1260 -0.1338
   19CHL1  H12A 1364   6.140   5.684   9.468  0.3238 -2.2323  0.2228
   19CHL1  H12B 1365   5.964   5.727   9.488  0.5192  0.5329 -1.7517
   19CHL1   C11 1366   6.054   5.640   9.660 -0.5228 -0.4774 -0.9487
   19CHL1  H11A 1367   6.136   5.570   9.688  0.9216  1.8513  0.9665
   19CHL1  H11B 1368   6.081   5.738   9.705 -0.5269 -0.7495 -0.3463
   19CHL1    C9 1369   5.931   5.587   9.745 -0.3080  0.0662 -0.1121
   19CHL1    H9 1370   5.848   5.659   9.727 -0.0956  0.0256 -1.3138
   19CHL1   C10 1371   5.957   5.573   9.897  0.4548  0.3701  0.0790
   19CHL1   C19 1372   6.083   5.487   9.922  0.0246 -0.9300  0.0734
   19CHL1  H19A 1373   6.066   5.388   9.873 -1.8377 -0.3218 -0.5887
   19CHL1  H19B 1374   6.171   5.539   9.879  1.8577 -2.8296  1.2919
   19CHL1  H19C 1375   6.101   5.477  10.031 -0.6285 -0.7446  0.1990
   19CHL1    C1 1376   5.961   5.715   9.964  0.2430 -0.5666 -0.3141
   19CHL1   H1A 1377   6.033   5.785   9.917 -0.9401  1.1281  0.3228
   19CHL1   H1B 1378   5.865   5.762   9.936  1.2660  2.2649  0.6212
   19CHL1    C2 1379   5.956   5.716  10.120 -0.3440  0.3348  0.0519
   19CHL1   H2A 1380   5.951   5.824  10.145 -0.0884  0.3847 -0.1111
   19CHL1   H2B 1381   6.052   5.680  10.164 -0.1869 -0.6154 -1.0358
   19CHL1   C20 1382   6.007   5.546   9.188 -0.5147  0.3110 -0.0715
   19CHL1   H20 1383   6.056   5.447   9.176 -0.0167  0.4636  0.7097
   19CHL1   C21 1384   6.118   5.649   9.214  0.2845 -0.2769 -0.5676
   19CHL1  H21A 1385   6.088   5.743   9.266 -1.5127 -0.4202 -1.2489
   19CHL1  H21B 1386   6.161   5.677   9.116 -2.7326 -0.9645 -2.2101
   19CHL1  H21C 1387   6.196   5.613   9.284 -1.0913  0.7499  1.6324
   19CHL1   C22 1388   5.917   5.590   9.065 -0.5408 -0.1164 -0.2728
   19CHL1  H22A 1389   5.838   5.512   9.068  0.2995 -0.9578  0.3416
   19CHL1  H22B 1390   5.874   5.689   9.091 -1.4640 -0.7043  0.4783
   19CHL1   C23 1391   5.975   5.578   8.918 -0.1082 -0.4144  0.2843
   19CHL1  H23A 1392   6.073   5.629   8.902  0.3555 -1.6567 -1.0872
   19CHL1  H23B 1393   5.997   5.472   8.891  2.2554 -0.3693  1.6630
   19CHL1   C24 1394   5.880   5.636   8.815  0.3435  0.3872  0.4278
   19CHL1  H24A 1395   5.777   5.602   8.839  0.2052 -0.5290 -1.2733
   19CHL1  H24B 1396   5.885   5.745   8.834 -0.7424  0.3752  0.8495
   19CHL1   C25 1397   5.927   5.630   8.670  0.0416  1.3162  0.1189
   19CHL1   H25 1398   6.035   5.656   8.670  0.0353  1.3516 -0.4809
   19CHL1   C26 1399   5.904   5.486   8.622  0.4043 -0.8899  0.2514
   19CHL1  H26A 1400   5.796   5.475   8.596  0.0489  2.9526 -0.5865
   19CHL1  H26B 1401   5.966   5.469   8.532 -0.0239  1.3366 -0.5389
   19CHL1  H26C 1402   5.940   5.417   8.701  2.6797 -1.2475 -1.0216
   19CHL1   C27 1403   5.872   5.733   8.573  0.2622 -0.9271  0.3193
   19CHL1  H27A 1404   5.929   5.723   8.477  1.1129 -2.5966  0.9520
   19CHL1  H27B 1405   5.764   5.721   8.551  0.0164 -0.4271  1.2155
   19CHL1  H27C 1406   5.884   5.839   8.604 -2.1639  0.0006 -1.5741
   20CHL1    C3 1407   2.251   1.249  10.317 -0.3605  0.8347 -0.2952
   20CHL1    H3 1408   2.292   1.154  10.276  0.8328  0.2040  2.1424
   20CHL1    O3 1409   2.223   1.235  10.460 -0.3894 -0.2745  0.4919
   20CHL1   H3' 1410   2.234   1.320  10.502  4.0037 -0.4800  0.1487
   20CHL1    C4 1411   2.365   1.347  10.293 -0.2890  0.1384  0.1500
   20CHL1   H4A 1412   2.307   1.438  10.321 -1.1426 -0.5497  0.6784
   20CHL1   H4B 1413   2.450   1.334  10.363 -1.4496 -0.6673  1.4821
   20CHL1    C5 1414   2.403   1.374  10.147  0.4644  0.2444 -1.2936
   20CHL1    C6 1415   2.520   1.349  10.097  0.0428 -0.2768  0.6679
   20CHL1    H6 1416   2.604   1.328  10.165  0.9213  0.6282 -0.0956
   20CHL1    C7 1417   2.563   1.386   9.953  0.3116  0.6732  0.1855
   20CHL1   H7A 1418   2.641   1.464   9.966 -0.6965  1.4399  2.1992
   20CHL1   H7B 1419   2.602   1.301   9.894 -2.5161 -0.3445 -0.3581
   20CHL1    C8 1420   2.451   1.460   9.875  0.6688  0.7106 -0.5287
   20CHL1    H8 1421   2.455   1.564   9.914 -1.3044  0.7318 -0.2894
   20CHL1   C14 1422   2.477   1.446   9.730  0.0900 -0.6763  0.1679
   20CHL1   H14 1423   2.483   1.336   9.716 -0.9115 -0.6035 -0.9868
   20CHL1   C15 1424   2.605   1.506   9.686  0.1264 -0.3600 -0.2651
   20CHL1  H15A 1425   2.639   1.593   9.746  0.5481 -1.0168  0.4667
   20CHL1  H15B 1426   2.687   1.430   9.684 -1.4621 -2.2376  1.1988
   20CHL1   C16 1427   2.592   1.537   9.532 -0.7051  0.6971 -0.1035
   20CHL1  H16A 1428   2.606   1.646   9.513 -1.1647  0.5167 -1.6271
   20CHL1  H16B 1429   2.663   1.483   9.466 -1.0300  1.6102 -1.2333
   20CHL1   C17 1430   2.447   1.492   9.494 -0.5014 -0.0563 -0.2877
   20CHL1   H17 1431   2.450   1.385   9.465 -1.3253 -0.3052  0.4824
   20CHL1   C13 1432   2.369   1.498   9.630 -0.7069  0.6011  0.2290
   20CHL1   C18 1433   2.341   1.640   9.673 -0.4675  0.1772  0.5964
   20CHL1  H18A 1434   2.435   1.696   9.656  1.4452 -2.7678  0.8115
   20CHL1  H18B 1435   2.258   1.679   9.610 -0.1956 -1.0816 -0.6065
   20CHL1  H18C 1436   2.322   1.647   9.782  2.8577  0.4942  1.2556
   20CHL1   C12 1437   2.242   1.407   9.642  0.1594  0.1581 -0.4027
   20CHL1  H12A 1438   2.155   1.455   9.593  0.5986  0.7735 -0.5875
   20CHL1  H12B 1439   2.259   1.300   9.616 -0.0246 -0.1657  0.7283
   20CHL1   C11 1440   2.207   1.416   9.794 -0.0429 -0.3704  0.2339
   20CHL1  H11A 1441   2.166   1.518   9.811  0.6524  0.3098 -1.8394
   20CHL1  H11B 1442   2.118   1.354   9.817 -0.1964 -0.3226 -0.2348
   20CHL1    C9 1443   2.320   1.389   9.905 -0.6511 -0.3626 -0.5878
   20CHL1    H9 1444   2.337   1.280   9.893  1.6326 -0.2715  1.1385
   20CHL1   C10 1445   2.276   1.399  10.056  0.4300 -0.3587  0.3918
   20CHL1   C19 1446   2.205   1.540  10.089  1.1676 -0.5328 -0.0820
   20CHL1  H19A 1447   2.274   1.624  10.067 -0.5258  0.6250 -1.1640
   20CHL1  H19B 1448   2.108   1.556  10.037  0.5606  0.9574  1.3836
   20CHL1  H19C 1449   2.182   1.546  10.198  0.3707 -1.5668 -0.1786
   20CHL1    C1 1450   2.166   1.291  10.087  0.5842  0.3626  0.6218
   20CHL1   H1A 1451   2.075   1.306  10.024  0.8299  0.9310  0.3899
   20CHL1   H1B 1452   2.199   1.187  10.066  0.6407 -0.1267  2.8830
   20CHL1    C2 1453   2.130   1.284  10.239  0.4768 -0.3299 -0.1534
   20CHL1   H2A 1454   2.042   1.216  10.249 -0.1108  0.3038 -0.9126
   20CHL1   H2B 1455   2.088   1.381  10.273  0.8680 -0.7979  1.7942
   20CHL1   C20 1456   2.385   1.572   9.378 -0.0974  0.7492 -0.0727
   20CHL1   H20 1457   2.364   1.677   9.409  0.9329  0.4461  1.7507
   20CHL1   C21 1458   2.244   1.517   9.342 -0.4741  0.4392 -0.4694
   20CHL1  H21A 1459   2.232   1.406   9.336  1.4057 -0.2067  3.7548
   20CHL1  H21B 1460   2.236   1.549   9.236  1.8563  3.6904  0.1950
   20CHL1  H21C 1461   2.164   1.562   9.403  0.9855 -1.9288  3.5711
   20CHL1   C22 1462   2.484   1.567   9.252 -0.6974 -0.5601 -0.6282
   20CHL1  H22A 1463   2.586   1.585   9.292 -0.4317 -0.4722 -1.3301
   20CHL1  H22B 1464   2.475   1.461   9.219 -2.5453 -1.0534  1.2489
   20CHL1   C23 1465   2.479   1.671   9.141  0.8097  0.2664  0.1143
   20CHL1  H23A 1466   2.374   1.684   9.107  1.0907  1.1244 -0.4841
   20CHL1  H23B 1467   2.505   1.775   9.172 -2.0770  1.2694 -0.4663
   20CHL1   C24 1468   2.570   1.639   9.018  0.0414  0.2637  0.0764
   20CHL1  H24A 1469   2.677   1.637   9.048 -0.0565  1.6748  0.5926
   20CHL1  H24B 1470   2.537   1.542   8.975 -0.6764  1.4603 -2.2860
   20CHL1   C25 1471   2.556   1.735   8.899  0.6568 -0.3429 -0.9395
   20CHL1   H25 1472   2.544   1.842   8.928 -1.9861 -0.9201  0.3666
   20CHL1   C26 1473   2.668   1.728   8.793 -0.2673 -0.3301 -0.4707
   20CHL1  H26A 1474   2.688   1.623   8.764  0.4307  0.3622 -2.7093
   20CHL1  H26B 1475   2.647   1.790   8.703 -0.2017 -1.4540 -1.2788
   20CHL1  H26C 1476   2.765   1.764   8.833  0.1435 -1.6040 -0.2617
   20CHL1   C27 1477   2.422   1.700   8.820 -0.2254 -0.2123  0.1808
   20CHL1  H27A 1478   2.401   1.768   8.734  0.7545 -1.4893 -1.1149
   20CHL1  H27B 1479   2.423   1.602   8.768  1.6890  0.5532 -1.3918
   20CHL1  H27C 1480   2.338   1.717   8.890  2.2886 -0.5444  3.5095
   21CHL1    C3 1481   2.474   4.997   9.918  0.6304 -0.2411 -0.3173
   21CHL1    H3 1482   2.585   4.989   9.912  0.7580  0.6476  0.6263
   21CHL1    O3 1483   2.447   4.974  10.056 -0.4880 -0.1055 -0.8227
   21CHL1   H3' 1484   2.461   5.055  10.105  0.7473 -1.7459  1.7706
   21CHL1    C4 1485   2.438   5.136   9.869 -0.4502 -0.3957  0.8894
   21CHL1   H4A 1486   2.331   5.148   9.895 -1.7057 -3.1179 -2.2146
   21CHL1   H4B 1487   2.509   5.199   9.926  1.6260 -0.7259 -1.1910
   21CHL1    C5 1488   2.452   5.159   9.716 -0.4283 -0.1169  0.3947
   21CHL1    C6 1489   2.543   5.253   9.676  0.6660  0.1348 -0.1704
   21CHL1    H6 1490   2.580   5.321   9.755 -0.2361 -0.5741  0.9018
   21CHL1    C7 1491   2.576   5.284   9.531 -0.0526 -0.4446  0.5671
   21CHL1   H7A 1492   2.570   5.394   9.519 -0.4290 -0.5181  0.0504
   21CHL1   H7B 1493   2.680   5.260   9.502  0.4313  1.1927  0.8712
   21CHL1    C8 1494   2.476   5.203   9.431 -0.2491  0.3802 -0.2561
   21CHL1    H8 1495   2.384   5.266   9.437 -0.8788 -0.5229 -0.2557
   21CHL1   C14 1496   2.530   5.202   9.289  0.0594 -0.8090  0.5468
   21CHL1   H14 1497   2.619   5.136   9.291  2.2988  2.0020  0.0400
   21CHL1   C15 1498   2.569   5.335   9.236  0.1393 -0.7689  0.2325
   21CHL1  H15A 1499   2.476   5.395   9.248  1.0271  0.1998  2.7682
   21CHL1  H15B 1500   2.651   5.400   9.272 -0.7715  1.2769 -1.1501
   21CHL1   C16 1501   2.591   5.289   9.090 -0.0210 -0.8001  0.3069
   21CHL1  H16A 1502   2.538   5.360   9.023  1.0392 -1.7428 -1.6166
   21CHL1  H16B 1503   2.699   5.287   9.062  0.1395  1.1278  0.6390
   21CHL1   C17 1504   2.537   5.141   9.062 -0.2258  0.0913 -0.6856
   21CHL1   H17 1505   2.623   5.072   9.079 -0.5494 -0.6675 -2.0414
   21CHL1   C13 1506   2.448   5.124   9.183  0.3791  0.4365  0.4837
   21CHL1   C18 1507   2.310   5.183   9.160  0.0685  0.0711 -0.6191
   21CHL1  H18A 1508   2.272   5.220   9.258  0.1881 -0.8907 -0.2047
   21CHL1  H18B 1509   2.317   5.282   9.110 -0.9357  0.1821 -0.5538
   21CHL1  H18C 1510   2.229   5.123   9.115 -1.9861  2.5895 -0.5061
   21CHL1   C12 1511   2.446   4.975   9.239  0.7470  0.4408  0.3085
   21CHL1  H12A 1512   2.380   4.915   9.174  0.1599 -0.1266  1.3987
   21CHL1  H12B 1513   2.545   4.926   9.253 -0.3525 -1.9144  0.3362
   21CHL1   C11 1514   2.373   4.971   9.376  0.1603  0.6021 -0.0223
   21CHL1  H11A 1515   2.268   5.004   9.363 -0.2786 -0.7915 -0.1671
   21CHL1  H11B 1516   2.364   4.871   9.424  0.2555  0.5904 -0.0277
   21CHL1    C9 1517   2.447   5.056   9.477 -0.1308  0.6050  1.1204
   21CHL1    H9 1518   2.549   5.012   9.481 -0.5430 -0.5763 -0.4305
   21CHL1   C10 1519   2.394   5.050   9.623 -0.5932 -0.2100 -0.5331
   21CHL1   C19 1520   2.238   5.069   9.622 -0.3467 -0.5691 -0.9277
   21CHL1  H19A 1521   2.190   5.068   9.722  2.6480 -0.0132  0.6096
   21CHL1  H19B 1522   2.210   5.166   9.576 -1.6186 -0.2940  0.3503
   21CHL1  H19C 1523   2.196   4.979   9.572  0.9450 -0.6460 -1.9346
   21CHL1    C1 1524   2.431   4.914   9.677  1.0871  0.6192 -0.2468
   21CHL1   H1A 1525   2.380   4.828   9.629  1.4037  0.9773 -1.2503
   21CHL1   H1B 1526   2.542   4.904   9.674  1.0392  0.2188 -0.7557
   21CHL1    C2 1527   2.391   4.890   9.827  0.6165  0.3938  0.1372
   21CHL1   H2A 1528   2.427   4.793   9.865  1.9100  0.7774 -0.0718
   21CHL1   H2B 1529   2.284   4.893   9.856  1.2802 -1.5477  3.2383
   21CHL1   C20 1530   2.482   5.105   8.918 -0.2392 -0.0675 -0.0029
   21CHL1   H20 1531   2.399   5.178   8.907 -1.6511 -1.7965 -1.5987
   21CHL1   C21 1532   2.441   4.954   8.908 -0.0524 -0.3449 -0.1087
   21CHL1  H21A 1533   2.520   4.893   8.957  0.4969 -0.1173 -0.7027
   21CHL1  H21B 1534   2.428   4.915   8.805 -2.1828 -2.4945  0.8611
   21CHL1  H21C 1535   2.340   4.933   8.950 -0.9952 -0.4370 -2.2819
   21CHL1   C22 1536   2.593   5.132   8.818 -0.5890 -0.1113  0.7947
   21CHL1  H22A 1537   2.647   5.227   8.833  0.5324 -0.6102  0.0184
   21CHL1  H22B 1538   2.666   5.048   8.820  0.2300  0.4707 -1.6467
   21CHL1   C23 1539   2.536   5.143   8.670  0.2849 -0.7448  0.1874
   21CHL1  H23A 1540   2.463   5.063   8.644 -0.4035  0.2292 -0.9534
   21CHL1  H23B 1541   2.480   5.238   8.664  0.0793 -0.8383  0.6309
   21CHL1   C24 1542   2.640   5.164   8.562 -0.7297  0.2650 -0.4464
   21CHL1  H24A 1543   2.708   5.248   8.589  2.0644 -0.8846 -3.2205
   21CHL1  H24B 1544   2.715   5.082   8.559 -0.8298 -0.0034  2.0708
   21CHL1   C25 1545   2.594   5.184   8.417  0.4317 -0.0444 -0.0198
   21CHL1   H25 1546   2.540   5.281   8.413  1.0156  0.2513 -0.8418
   21CHL1   C26 1547   2.712   5.184   8.326  0.0337 -0.7226 -0.6683
   21CHL1  H26A 1548   2.747   5.078   8.336 -1.1033 -1.1240 -0.8217
   21CHL1  H26B 1549   2.679   5.208   8.223 -1.2011 -1.7000 -0.5236
   21CHL1  H26C 1550   2.787   5.256   8.364 -0.3283 -0.2899 -0.7668
   21CHL1   C27 1551   2.497   5.069   8.368  0.7156  0.1750  0.5400
   21CHL1  H27A 1552   2.486   5.100   8.262 -0.4557 -2.3311 -0.1642
   21CHL1  H27B 1553   2.550   4.971   8.369  0.2324 -0.0988  1.2864
   21CHL1  H27C 1554   2.397   5.061   8.416  1.3744 -1.7642  1.7320
   22CHL1    C3 1555   1.089   2.836  10.102 -0.3499 -0.3786 -0.1005
   22CHL1    H3 1556   1.180   2.772  10.098 -0.3805 -0.3994 -0.5426
   22CHL1    O3 1557   1.085   2.891  10.232  0.1827 -0.2519  0.0430
   22CHL1   H3' 1558   1.035   2.973  10.233 -0.4111 -0.6077  0.1303
   22CHL1    C4 1559   1.103   2.954  10.012 -0.0965 -0.1463  0.2261
   22CHL1   H4A 1560   1.019   3.027  10.020 -2.0581 -2.1932 -0.5502
   22CHL1   H4B 1561   1.189   3.015  10.046 -0.8847  0.9316  0.3559
   22CHL1    C5 1562   1.121   2.912   9.868 -0.2175 -0.0129 -0.4687
   22CHL1    C6 1563   1.227   2.948   9.797 -0.5417  0.3397 -0.0051
   22CHL1    H6 1564   1.302   3.018   9.837  0.3273 -0.7918  0.4103
   22CHL1    C7 1565   1.249   2.920   9.648 -0.3227 -0.5219 -0.3254
   22CHL1   H7A 1566   1.280   3.009   9.590  2.4734 -1.1543  0.0451
   22CHL1   H7B 1567   1.338   2.854   9.636 -0.4263 -0.5419 -1.0407
   22CHL1    C8 1568   1.119   2.855   9.589 -0.0234 -0.2027 -0.4577
   22CHL1    H8 1569   1.061   2.949   9.577  1.3134  0.8378  0.9167
   22CHL1   C14 1570   1.153   2.792   9.456 -0.2170 -0.5460  0.3514
   22CHL1   H14 1571   1.221   2.706   9.476  0.4010  0.0018  0.6494
   22CHL1   C15 1572   1.221   2.878   9.344 -0.5411 -0.0334  0.2264
   22CHL1  H15A 1573   1.187   2.983   9.356 -0.9163 -0.1209 -0.0582
   22CHL1  H15B 1574   1.330   2.876   9.364 -0.9693 -0.7524  2.8449
   22CHL1   C16 1575   1.176   2.816   9.210 -0.0786  0.5654  0.0009
   22CHL1  H16A 1576   1.108   2.889   9.162 -0.1479  1.3286  1.2118
   22CHL1  H16B 1577   1.255   2.795   9.134  0.1122  0.4070  0.2396
   22CHL1   C17 1578   1.098   2.686   9.245 -0.7070 -0.3351  0.0506
   22CHL1   H17 1579   1.177   2.608   9.253  2.3595  2.4885 -0.7350
   22CHL1   C13 1580   1.035   2.722   9.382  0.1315  0.0734 -0.8339
   22CHL1   C18 1581   0.919   2.825   9.361 -0.2609  0.2655 -0.0113
   22CHL1  H18A 1582   0.948   2.916   9.305  0.7761  0.3822  0.6759
   22CHL1  H18B 1583   0.833   2.788   9.301  1.1562 -0.1123 -1.9004
   22CHL1  H18C 1584   0.879   2.854   9.460  1.9021  1.2514  0.6473
   22CHL1   C12 1585   0.986   2.607   9.470 -0.1832  0.0636 -0.1341
   22CHL1  H12A 1586   0.907   2.547   9.420 -0.8988 -0.3361  1.3956
   22CHL1  H12B 1587   1.075   2.541   9.471 -0.5536 -0.4428 -0.2302
   22CHL1   C11 1588   0.951   2.656   9.610  0.0117  0.0057 -0.8190
   22CHL1  H11A 1589   0.857   2.713   9.591 -0.2156 -0.8256 -2.2473
   22CHL1  H11B 1590   0.926   2.572   9.678  2.9210 -0.5799 -0.3232
   22CHL1    C9 1591   1.060   2.749   9.680 -0.3765 -0.0812  0.1553
   22CHL1    H9 1592   1.142   2.681   9.711 -0.9028 -0.6379  0.3378
   22CHL1   C10 1593   1.013   2.815   9.810 -0.5825  0.6235 -0.1343
   22CHL1   C19 1594   0.886   2.900   9.788 -0.0907 -0.6018  0.4671
   22CHL1  H19A 1595   0.847   2.947   9.881  0.3964 -0.4079  0.5803
   22CHL1  H19B 1596   0.910   2.981   9.715  1.4962 -0.5884  0.9522
   22CHL1  H19C 1597   0.799   2.845   9.748 -0.9796 -0.0877  1.6145
   22CHL1    C1 1598   0.979   2.703   9.913  0.7436 -0.0447  0.3620
   22CHL1   H1A 1599   0.881   2.657   9.888 -0.0135  1.2945  0.7591
   22CHL1   H1B 1600   1.061   2.629   9.915  0.8979  0.1401  0.8586
   22CHL1    C2 1601   0.961   2.755  10.061  0.4475  0.2384 -0.2140
   22CHL1   H2A 1602   0.952   2.669  10.130  4.7156  0.0720  0.3719
   22CHL1   H2B 1603   0.871   2.821  10.065  2.0032  2.4199  1.4051
   22CHL1   C20 1604   0.992   2.633   9.138  0.3325  0.6722  0.2366
   22CHL1   H20 1605   0.901   2.697   9.142  0.4665  0.9454 -0.7802
   22CHL1   C21 1606   0.958   2.483   9.164 -0.0558  0.3433 -0.4246
   22CHL1  H21A 1607   1.049   2.425   9.189 -1.3683 -1.4273  0.4428
   22CHL1  H21B 1608   0.917   2.436   9.072 -1.7857 -2.4618  1.6319
   22CHL1  H21C 1609   0.871   2.479   9.232 -0.4008  1.4392 -0.7728
   22CHL1   C22 1610   1.041   2.646   8.992  0.2441 -0.2449  0.1948
   22CHL1  H22A 1611   1.093   2.742   8.971 -0.7536  0.3505  0.3880
   22CHL1  H22B 1612   1.108   2.560   8.969 -0.8033 -1.6301  2.0160
   22CHL1   C23 1613   0.923   2.640   8.898 -0.3874  0.0484 -0.4082
   22CHL1  H23A 1614   0.895   2.536   8.870  1.4538 -0.3424 -0.9202
   22CHL1  H23B 1615   0.825   2.683   8.929 -0.3328 -1.2393  1.7924
   22CHL1   C24 1616   0.951   2.709   8.767 -0.0674  0.2819  0.7999
   22CHL1  H24A 1617   0.978   2.815   8.787 -0.3347  0.1785  1.7418
   22CHL1  H24B 1618   1.037   2.658   8.717 -1.5458  0.1187 -1.7136
   22CHL1   C25 1619   0.829   2.687   8.671 -0.4964  0.2272  0.7657
   22CHL1   H25 1620   0.744   2.739   8.720 -2.6792 -1.2515 -1.2372
   22CHL1   C26 1621   0.842   2.760   8.534  0.2528  0.4755  0.0549
   22CHL1  H26A 1622   0.884   2.863   8.542  1.4384 -0.0523  1.0593
   22CHL1  H26B 1623   0.918   2.694   8.487 -0.6575  0.3870 -1.3626
   22CHL1  H26C 1624   0.748   2.759   8.475 -0.7966 -3.2785  1.4998
   22CHL1   C27 1625   0.783   2.542   8.643  0.1252 -0.0007 -0.3836
   22CHL1  H27A 1626   0.698   2.546   8.571 -0.9809 -0.1706  0.8870
   22CHL1  H27B 1627   0.871   2.493   8.595 -0.1491  0.1397 -1.0457
   22CHL1  H27C 1628   0.755   2.496   8.740  1.5745  2.4967  1.3396
   23CHL1    C3 1629   4.156   3.500  10.323  0.3513  0.1622  0.1628
   23CHL1    H3 1630   4.229   3.416  10.315 -0.4557 -0.4138 -1.8551
   23CHL1    O3 1631   4.171   3.534  10.455 -0.1506 -0.7448  0.2458
   23CHL1   H3' 1632   4.136   3.623  10.453 -0.7040 -0.6375 -6.3425
   23CHL1    C4 1633   4.200   3.620  10.230  1.0082  0.0756  0.1532
   23CHL1   H4A 1634   4.129   3.704  10.243  0.6733  0.3792 -2.8711
   23CHL1   H4B 1635   4.299   3.649  10.269 -0.4512  0.8197  3.7541
   23CHL1    C5 1636   4.191   3.576  10.089 -0.9841 -0.3368 -0.6093
   23CHL1    C6 1637   4.303   3.567  10.011  0.2627 -0.2321 -0.0024
   23CHL1    H6 1638   4.399   3.606  10.047  0.7431 -1.1359 -0.2826
   23CHL1    C7 1639   4.308   3.520   9.872  0.7744  0.3687 -0.3434
   23CHL1   H7A 1640   4.358   3.593   9.805 -1.2063  1.7074 -0.4390
   23CHL1   H7B 1641   4.369   3.428   9.858 -0.7596 -0.4650 -1.9618
   23CHL1    C8 1642   4.166   3.514   9.810  0.1453  0.2534  0.6052
   23CHL1    H8 1643   4.131   3.618   9.790 -1.2810  0.0436  1.8570
   23CHL1   C14 1644   4.168   3.441   9.675 -0.3907  0.3515  0.3888
   23CHL1   H14 1645   4.220   3.346   9.699 -3.0991 -1.0258  1.1675
   23CHL1   C15 1646   4.243   3.502   9.553 -0.1692 -0.1921  0.0423
   23CHL1  H15A 1647   4.222   3.611   9.552  1.5261  0.1765  1.3848
   23CHL1  H15B 1648   4.351   3.480   9.567  0.3510  2.9005  1.8280
   23CHL1   C16 1649   4.177   3.432   9.428 -0.6472  0.2777  0.0895
   23CHL1  H16A 1650   4.147   3.509   9.353  2.5078  2.0197  0.3928
   23CHL1  H16B 1651   4.248   3.355   9.390 -0.6031  0.1132  0.5104
   23CHL1   C17 1652   4.064   3.349   9.485 -0.3799  0.0786  1.0618
   23CHL1   H17 1653   4.088   3.243   9.510 -0.0509 -0.4530 -1.2590
   23CHL1   C13 1654   4.037   3.406   9.620  0.6972 -0.7943  0.5235
   23CHL1   C18 1655   3.957   3.539   9.598 -0.4490 -0.5538 -0.5693
   23CHL1  H18A 1656   3.970   3.617   9.676  2.1475 -1.3918 -0.0825
   23CHL1  H18B 1657   3.994   3.591   9.506  1.6443 -0.4048  0.3060
   23CHL1  H18C 1658   3.847   3.522   9.589 -0.4417 -0.2329 -1.3233
   23CHL1   C12 1659   3.964   3.313   9.715  0.4471 -0.2344 -0.8854
   23CHL1  H12A 1660   3.870   3.280   9.667 -0.6228  1.0549  0.2164
   23CHL1  H12B 1661   4.018   3.220   9.742 -0.0895  0.2009  2.0665
   23CHL1   C11 1662   3.942   3.389   9.853  0.2303 -0.5323  0.3727
   23CHL1  H11A 1663   3.860   3.463   9.847 -0.2897 -1.1927 -1.7248
   23CHL1  H11B 1664   3.902   3.313   9.922 -1.3426 -0.7861 -0.7693
   23CHL1    C9 1665   4.075   3.441   9.909  0.0165  0.2005 -0.4842
   23CHL1    H9 1666   4.136   3.351   9.934 -0.7534  0.3673  2.3205
   23CHL1   C10 1667   4.058   3.512  10.050 -0.0494 -0.0625  0.5188
   23CHL1   C19 1668   3.961   3.629  10.027  0.9739  0.7407  0.7309
   23CHL1  H19A 1669   3.965   3.698  10.114  0.7231  0.5474  0.8987
   23CHL1  H19B 1670   3.999   3.686   9.940  2.4510 -0.3391  0.6351
   23CHL1  H19C 1671   3.854   3.599  10.024  1.0837  0.4042 -0.1450
   23CHL1    C1 1672   4.001   3.415  10.152 -1.1295 -0.0045 -0.2017
   23CHL1   H1A 1673   3.891   3.411  10.141 -1.2967  3.1520 -0.5028
   23CHL1   H1B 1674   4.048   3.314  10.152 -0.0671  0.3433  3.4931
   23CHL1    C2 1675   4.011   3.455  10.299  0.0358  0.7643  0.8296
   23CHL1   H2A 1676   3.995   3.366  10.363 -1.9644  0.9574  0.6729
   23CHL1   H2B 1677   3.936   3.528  10.336  1.0497  1.2397  2.0027
   23CHL1   C20 1678   3.954   3.330   9.379  0.3328  0.0307  0.3377
   23CHL1   H20 1679   3.922   3.435   9.359  1.7049  0.7029  1.4831
   23CHL1   C21 1680   3.818   3.261   9.421 -0.4362  0.3564 -1.5067
   23CHL1  H21A 1681   3.827   3.154   9.450 -3.3733  0.6470  1.0763
   23CHL1  H21B 1682   3.740   3.271   9.342  1.0249 -1.3033 -3.2523
   23CHL1  H21C 1683   3.775   3.317   9.507 -0.6731  0.4626 -1.6922
   23CHL1   C22 1684   4.000   3.254   9.254 -0.2446 -0.5135 -0.1896
   23CHL1  H22A 1685   4.065   3.324   9.197  0.9979 -0.5805  1.1014
   23CHL1  H22B 1686   4.075   3.175   9.277 -1.6179 -1.9438 -0.4269
   23CHL1   C23 1687   3.906   3.180   9.154 -0.2091 -0.7462  0.5046
   23CHL1  H23A 1688   3.839   3.110   9.207 -2.0963 -0.7454 -1.6909
   23CHL1  H23B 1689   3.838   3.254   9.105  0.8913  0.2891  0.4768
   23CHL1   C24 1690   3.985   3.102   9.048  0.4662 -0.4093 -0.6124
   23CHL1  H24A 1691   4.059   3.163   8.993  1.1591 -1.9972 -1.5055
   23CHL1  H24B 1692   4.043   3.026   9.103 -0.7020 -0.6175  0.3805
   23CHL1   C25 1693   3.891   3.012   8.962  0.3018 -0.2529  0.0372
   23CHL1   H25 1694   3.839   2.942   9.031 -0.6565 -2.9424 -3.0912
   23CHL1   C26 1695   3.776   3.102   8.891  0.2421  0.0712 -0.0576
   23CHL1  H26A 1696   3.813   3.198   8.850  0.9176  0.6664  1.8670
   23CHL1  H26B 1697   3.727   3.038   8.813 -1.6824  0.2054  0.9653
   23CHL1  H26C 1698   3.696   3.126   8.965 -0.5058 -2.2385 -0.0227
   23CHL1   C27 1699   3.969   2.927   8.859  0.0250  0.1337 -0.1275
   23CHL1  H27A 1700   4.056   2.875   8.904 -0.3564 -0.3434  0.0610
   23CHL1  H27B 1701   3.902   2.849   8.816 -0.0262  0.4584 -0.6459
   23CHL1  H27C 1702   4.011   2.991   8.778 -0.3426 -1.8791 -2.0029
   24CHL1    C3 1703   4.922   5.612   9.951  0.3102 -0.1394 -0.2350
   24CHL1    H3 1704   5.031   5.606   9.930 -0.0246  0.1279 -2.2653
   24CHL1    O3 1705   4.900   5.643  10.085 -0.4820  0.2356  0.1906
   24CHL1   H3' 1706   4.876   5.561  10.129  3.3677 -0.3495  1.6285
   24CHL1    C4 1707   4.864   5.714   9.849  0.2267 -0.6372 -0.5425
   24CHL1   H4A 1708   4.755   5.727   9.865  0.4210  0.5929 -0.1592
   24CHL1   H4B 1709   4.903   5.817   9.866 -0.7848 -0.5477  1.4876
   24CHL1    C5 1710   4.893   5.659   9.712  0.5026 -0.3407  0.4273
   24CHL1    C6 1711   4.964   5.737   9.635 -0.9951 -0.5318  0.0739
   24CHL1    H6 1712   4.986   5.839   9.670  0.4948 -0.5519 -0.6991
   24CHL1    C7 1713   4.990   5.718   9.483  0.8023 -0.0705  0.3874
   24CHL1   H7A 1714   4.963   5.811   9.430 -0.3326 -1.4296 -1.5285
   24CHL1   H7B 1715   5.098   5.695   9.470  1.4060  2.2064  0.8311
   24CHL1    C8 1716   4.890   5.604   9.431 -0.2988 -0.3578  0.9560
   24CHL1    H8 1717   4.794   5.659   9.421  0.2431  0.2019 -2.3457
   24CHL1   C14 1718   4.936   5.552   9.297  0.6517 -0.1334  0.2910
   24CHL1   H14 1719   5.036   5.505   9.308  1.2605  1.0279 -0.1405
   24CHL1   C15 1720   4.959   5.651   9.182 -0.8257 -0.5771  0.4975
   24CHL1  H15A 1721   4.886   5.735   9.190  0.0506  0.1464  1.1174
   24CHL1  H15B 1722   5.055   5.707   9.186 -0.3253 -1.3400 -0.2703
   24CHL1   C16 1723   4.969   5.570   9.052 -0.3598 -0.3637 -0.1812
   24CHL1  H16A 1724   4.903   5.620   8.978 -0.5791 -0.6038 -0.1521
   24CHL1  H16B 1725   5.073   5.553   9.017 -0.3328  0.0239 -0.2928
   24CHL1   C17 1726   4.924   5.426   9.096 -0.3366  0.1569 -0.8229
   24CHL1   H17 1727   5.017   5.375   9.130  0.1784  1.1615 -0.6688
   24CHL1   C13 1728   4.854   5.442   9.228 -0.2349  0.3930 -0.4996
   24CHL1   C18 1729   4.707   5.490   9.196 -0.2058 -0.2130 -0.2087
   24CHL1  H18A 1730   4.646   5.402   9.168 -1.1523 -0.0822  1.3465
   24CHL1  H18B 1731   4.663   5.530   9.290  0.3327  1.8865 -0.7980
   24CHL1  H18C 1732   4.705   5.568   9.117  0.3060 -0.5821 -0.5947
   24CHL1   C12 1733   4.858   5.319   9.331 -0.0784 -0.0883  0.5224
   24CHL1  H12A 1734   4.803   5.232   9.289  1.2825 -0.4159 -0.6613
   24CHL1  H12B 1735   4.962   5.282   9.341  0.4118  0.3836 -2.1221
   24CHL1   C11 1736   4.810   5.359   9.469  0.1498 -0.1689 -0.6686
   24CHL1  H11A 1737   4.705   5.390   9.450 -0.7884 -1.0591  2.4475
   24CHL1  H11B 1738   4.800   5.268   9.532 -3.9443 -0.0793 -0.9026
   24CHL1    C9 1739   4.885   5.486   9.529  0.3128  1.1576  0.1624
   24CHL1    H9 1740   4.989   5.446   9.534 -0.0890 -0.1095 -1.1328
   24CHL1   C10 1741   4.833   5.524   9.672 -0.3697  0.0248 -0.7124
   24CHL1   C19 1742   4.674   5.525   9.679  0.0860  0.2981  0.2162
   24CHL1  H19A 1743   4.646   5.580   9.771  4.6547  0.9938  1.4589
   24CHL1  H19B 1744   4.639   5.589   9.595 -0.1009  0.5122  0.4575
   24CHL1  H19C 1745   4.624   5.426   9.668 -0.0929  0.3385  0.6335
   24CHL1    C1 1746   4.881   5.425   9.777 -1.0983 -0.3057  0.0333
   24CHL1   H1A 1747   4.831   5.330   9.749 -0.6597 -0.2707 -0.9040
   24CHL1   H1B 1748   4.990   5.405   9.769 -1.0689 -0.2473  0.2684
   24CHL1    C2 1749   4.868   5.472   9.925 -0.8204 -0.0973 -0.2608
   24CHL1   H2A 1750   4.907   5.388   9.987 -2.7786 -0.4517  0.5572
   24CHL1   H2B 1751   4.760   5.480   9.950 -0.6000 -0.3075  0.8179
   24CHL1   C20 1752   4.854   5.330   8.993  0.2132  0.2989  0.0761
   24CHL1   H20 1753   4.746   5.324   9.017  0.3931 -2.1699  0.5549
   24CHL1   C21 1754   4.925   5.191   9.012 -0.2248  0.1184  0.0608
   24CHL1  H21A 1755   4.900   5.120   8.931 -1.5348  1.0067 -0.3410
   24CHL1  H21B 1756   4.899   5.147   9.111 -2.9596  2.0464  0.3206
   24CHL1  H21C 1757   5.033   5.215   9.006 -0.4936  1.0465 -1.8889
   24CHL1   C22 1758   4.862   5.379   8.848  0.3201 -0.7592 -0.7101
   24CHL1  H22A 1759   4.820   5.481   8.838  2.2008 -0.0314 -1.7333
   24CHL1  H22B 1760   4.966   5.391   8.811  1.0474  0.8492  1.5911
   24CHL1   C23 1761   4.775   5.299   8.746 -0.8699  0.6597 -0.7687
   24CHL1  H23A 1762   4.801   5.191   8.744 -3.5548 -0.0441 -1.7564
   24CHL1  H23B 1763   4.669   5.289   8.777  0.0282 -0.8355  2.1645
   24CHL1   C24 1764   4.793   5.348   8.603 -0.5462 -0.0352  0.2781
   24CHL1  H24A 1765   4.728   5.438   8.595 -0.4551 -0.1351 -3.5454
   24CHL1  H24B 1766   4.901   5.366   8.585 -0.4212  0.2270  1.2082
   24CHL1   C25 1767   4.752   5.247   8.493  0.1580 -0.3048 -1.2140
   24CHL1   H25 1768   4.782   5.149   8.537  1.6559  0.9328  0.7362
   24CHL1   C26 1769   4.604   5.243   8.476  0.0820  1.1451 -0.3137
   24CHL1  H26A 1770   4.557   5.318   8.409 -0.5818 -1.6404 -3.2007
   24CHL1  H26B 1771   4.573   5.149   8.426  0.1721  1.5399 -1.1229
   24CHL1  H26C 1772   4.550   5.242   8.573 -0.0406 -1.8163 -0.3228
   24CHL1   C27 1773   4.824   5.273   8.362 -0.0078  0.0874 -0.5589
   24CHL1  H27A 1774   4.927   5.307   8.383 -0.3100 -0.0796  1.4182
   24CHL1  H27B 1775   4.829   5.183   8.297  2.0440 -0.0531 -0.2670
   24CHL1  H27C 1776   4.775   5.355   8.307 -1.6329 -1.4947 -1.5878
   25CHL1    C3 1777   0.771   1.500  10.218 -0.4438 -0.1851  0.0129
   25CHL1    H3 1778   0.736   1.396  10.236 -0.1439 -0.1422  0.9211
   25CHL1    O3 1779   0.792   1.558  10.347 -0.4339 -0.9436  0.1391
   25CHL1   H3' 1780   0.755   1.646  10.336 -1.1658 -1.4528 -2.0356
   25CHL1    C4 1781   0.907   1.520  10.137 -1.2328  0.6002  0.2759
   25CHL1   H4A 1782   0.961   1.615  10.157  1.8293 -1.3171  1.9713
   25CHL1   H4B 1783   0.975   1.446  10.184 -0.6328 -0.3131 -1.9201
   25CHL1    C5 1784   0.896   1.489   9.989  0.2366 -0.2233  0.0198
   25CHL1    C6 1785   0.977   1.404   9.921  0.7702 -0.0239  0.1388
   25CHL1    H6 1786   1.047   1.345   9.982  0.4239  1.1181  1.6887
   25CHL1    C7 1787   0.959   1.368   9.775 -0.1328 -1.3133  0.7795
   25CHL1   H7A 1788   1.056   1.357   9.721 -1.3832 -2.4205 -1.3848
   25CHL1   H7B 1789   0.912   1.268   9.766 -0.4258 -0.9696 -3.2077
   25CHL1    C8 1790   0.891   1.478   9.703  0.9831 -0.2917  0.4588
   25CHL1    H8 1791   0.960   1.565   9.707  0.5338  0.1543 -0.8773
   25CHL1   C14 1792   0.858   1.447   9.557  0.5406 -0.1231  0.7669
   25CHL1   H14 1793   0.775   1.373   9.561 -0.4493  0.9566  0.7149
   25CHL1   C15 1794   0.969   1.376   9.477 -0.4564 -0.2518  0.1019
   25CHL1  H15A 1795   1.055   1.439   9.509 -0.4834 -0.0418 -0.2322
   25CHL1  H15B 1796   0.970   1.267   9.498  2.3994 -0.4165 -0.4711
   25CHL1   C16 1797   0.931   1.407   9.331 -0.8267 -0.0718  0.6030
   25CHL1  H16A 1798   1.011   1.475   9.296 -2.0063  0.6339 -0.8274
   25CHL1  H16B 1799   0.926   1.314   9.270  0.0363 -1.1996  2.1876
   25CHL1   C17 1800   0.794   1.476   9.331  0.2308 -0.5265  0.5406
   25CHL1   H17 1801   0.724   1.391   9.344 -0.0668 -0.1681  1.3464
   25CHL1   C13 1802   0.802   1.557   9.468  0.9661  0.3062  0.1369
   25CHL1   C18 1803   0.891   1.677   9.475 -0.3079 -0.7855 -0.1658
   25CHL1  H18A 1804   0.914   1.726   9.572  2.7135  0.0017 -1.1834
   25CHL1  H18B 1805   0.994   1.660   9.438  0.1602  0.7351  0.3829
   25CHL1  H18C 1806   0.844   1.762   9.421 -0.9809 -2.8359 -3.0436
   25CHL1   C12 1807   0.661   1.582   9.529 -1.1710 -0.1233  0.4206
   25CHL1  H12A 1808   0.603   1.666   9.488 -0.6372  0.3944  0.7046
   25CHL1  H12B 1809   0.608   1.485   9.518 -0.3067 -0.8408  2.1536
   25CHL1   C11 1810   0.680   1.619   9.685  0.6526  1.0340  0.5316
   25CHL1  H11A 1811   0.722   1.721   9.684 -1.7779  2.1241  1.8552
   25CHL1  H11B 1812   0.580   1.630   9.731  0.0908 -1.8579  0.2036
   25CHL1    C9 1813   0.764   1.522   9.775 -0.3061 -1.1588  0.2758
   25CHL1    H9 1814   0.703   1.429   9.777  0.7984 -1.9012  0.7543
   25CHL1   C10 1815   0.785   1.568   9.918  0.0077 -0.0721 -0.0779
   25CHL1   C19 1816   0.847   1.712   9.913 -0.2301 -0.3740 -0.2393
   25CHL1  H19A 1817   0.927   1.728   9.838 -0.0402  3.3773  0.5773
   25CHL1  H19B 1818   0.773   1.790   9.886  2.1964  1.5494 -1.6909
   25CHL1  H19C 1819   0.891   1.741  10.011 -0.3682 -1.9500  0.3295
   25CHL1    C1 1820   0.647   1.558   9.996 -0.1015 -1.2077 -0.2944
   25CHL1   H1A 1821   0.563   1.626   9.968 -0.4054 -1.6863 -0.5689
   25CHL1   H1B 1822   0.603   1.459   9.969 -0.1430 -1.4228  0.5342
   25CHL1    C2 1823   0.657   1.583  10.148 -0.7987 -0.3524  0.2003
   25CHL1   H2A 1824   0.562   1.574  10.205 -1.1440 -0.0837 -0.3291
   25CHL1   H2B 1825   0.688   1.688  10.168 -0.2069 -0.8209  1.9286
   25CHL1   C20 1826   0.768   1.559   9.200 -0.2439  0.0805 -0.3429
   25CHL1   H20 1827   0.844   1.639   9.199 -1.9754  1.8211  0.3146
   25CHL1   C21 1828   0.636   1.639   9.197  0.3052 -0.1162  0.5944
   25CHL1  H21A 1829   0.634   1.713   9.114  2.4008 -0.8510 -0.1642
   25CHL1  H21B 1830   0.626   1.705   9.286  0.0641  1.5514 -0.6265
   25CHL1  H21C 1831   0.552   1.567   9.188 -0.9552  1.2263  1.1274
   25CHL1   C22 1832   0.782   1.463   9.072 -0.0255 -0.8356  0.0322
   25CHL1  H22A 1833   0.878   1.408   9.063 -0.3452 -1.2158 -1.2860
   25CHL1  H22B 1834   0.709   1.379   9.074 -0.0613 -0.8658 -1.4458
   25CHL1   C23 1835   0.779   1.532   8.934  0.2917 -0.2282  0.1182
   25CHL1  H23A 1836   0.679   1.578   8.919 -0.4066 -2.1634 -1.7171
   25CHL1  H23B 1837   0.858   1.609   8.938 -0.5158  0.7439 -1.4298
   25CHL1   C24 1838   0.798   1.427   8.822 -0.1340 -0.1495 -1.1622
   25CHL1  H24A 1839   0.885   1.366   8.852 -1.4294 -1.6349 -0.2405
   25CHL1  H24B 1840   0.712   1.356   8.827 -0.5484  0.4134 -0.0503
   25CHL1   C25 1841   0.826   1.483   8.686 -0.1173 -0.0583 -0.2564
   25CHL1   H25 1842   0.757   1.568   8.664 -0.6823 -0.5388 -0.3624
   25CHL1   C26 1843   0.963   1.553   8.667 -0.5718  0.5338  0.0382
   25CHL1  H26A 1844   0.953   1.623   8.581  2.9052 -1.5852 -2.3747
   25CHL1  H26B 1845   1.001   1.613   8.752  0.8173 -0.2845  0.0179
   25CHL1  H26C 1846   1.035   1.479   8.626 -0.0026 -0.5216  2.7618
   25CHL1   C27 1847   0.823   1.372   8.576  0.1906 -0.2751  0.5227
   25CHL1  H27A 1848   0.906   1.300   8.592  1.8697  1.0065 -1.8267
   25CHL1  H27B 1849   0.724   1.322   8.575  0.0911 -0.1428  2.0320
   25CHL1  H27C 1850   0.850   1.423   8.481 -0.0080  1.6703  1.4554
   26CHL1    C3 1851   1.216   5.514  10.047 -0.2136 -0.6203  0.6316
   26CHL1    H3 1852   1.170   5.413  10.044 -2.6647  0.4467 -0.8518
   26CHL1    O3 1853   1.207   5.570  10.181 -0.1388  0.2090 -0.3090
   26CHL1   H3' 1854   1.217   5.665  10.177 -1.1296  0.3512  0.1920
   26CHL1    C4 1855   1.366   5.496  10.007  0.2033  1.0845  0.6052
   26CHL1   H4A 1856   1.419   5.591  10.029 -0.2048  1.1724  1.2219
   26CHL1   H4B 1857   1.401   5.426  10.085  0.2356 -1.2261 -1.3708
   26CHL1    C5 1858   1.396   5.449   9.872 -0.1400 -0.8739  0.7098
   26CHL1    C6 1859   1.466   5.337   9.849 -0.3218  0.3194  0.5703
   26CHL1    H6 1860   1.504   5.283   9.937  0.4665  2.0327  1.3069
   26CHL1    C7 1861   1.486   5.282   9.710 -0.5632 -0.3858  0.7992
   26CHL1   H7A 1862   1.593   5.265   9.686 -0.7310  0.9808 -1.1527
   26CHL1   H7B 1863   1.433   5.186   9.691 -1.1726  0.0788  0.1201
   26CHL1    C8 1864   1.446   5.387   9.595  0.1241 -0.6976  0.6974
   26CHL1    H8 1865   1.541   5.438   9.567  0.5330 -2.6369 -1.7500
   26CHL1   C14 1866   1.412   5.309   9.467 -0.1174  0.3926  0.1499
   26CHL1   H14 1867   1.313   5.260   9.475  0.2711 -0.9516 -2.1955
   26CHL1   C15 1868   1.517   5.201   9.422  0.2432  0.0723 -0.1161
   26CHL1  H15A 1869   1.624   5.230   9.421  1.0921 -2.6724  0.5955
   26CHL1  H15B 1870   1.504   5.105   9.478  1.2829  1.0840  1.9804
   26CHL1   C16 1871   1.479   5.178   9.272  0.1731  0.5197 -0.0561
   26CHL1  H16A 1872   1.571   5.209   9.217 -0.9719  2.9135 -0.7812
   26CHL1  H16B 1873   1.454   5.074   9.244  1.4789  0.4646 -1.1200
   26CHL1   C17 1874   1.380   5.281   9.224  0.3236 -0.5330 -0.2051
   26CHL1   H17 1875   1.280   5.235   9.240 -0.8534  1.8863 -0.2259
   26CHL1   C13 1876   1.386   5.395   9.334 -0.2532  0.1189  0.0424
   26CHL1   C18 1877   1.511   5.482   9.302 -0.2167 -0.0087  0.6732
   26CHL1  H18A 1878   1.593   5.420   9.262  0.4135  1.1995  0.0638
   26CHL1  H18B 1879   1.494   5.559   9.223 -0.0525 -0.3124  0.3407
   26CHL1  H18C 1880   1.562   5.523   9.392 -0.5768  1.3541  0.2905
   26CHL1   C12 1881   1.266   5.486   9.371  0.3165 -0.5517  0.4976
   26CHL1  H12A 1882   1.243   5.555   9.287  0.3115 -1.3885 -0.2026
   26CHL1  H12B 1883   1.180   5.433   9.419  1.7829  0.2164  4.3699
   26CHL1   C11 1884   1.306   5.565   9.498  0.0939  0.1236  0.4096
   26CHL1  H11A 1885   1.393   5.631   9.481 -0.2538  0.9738  1.7733
   26CHL1  H11B 1886   1.215   5.626   9.515 -0.1721  0.4209 -1.7470
   26CHL1    C9 1887   1.328   5.472   9.621  0.1636 -0.7630  0.1951
   26CHL1    H9 1888   1.239   5.407   9.628  0.7781 -1.5108  1.6663
   26CHL1   C10 1889   1.327   5.538   9.766  0.3239 -0.6527 -0.2578
   26CHL1   C19 1890   1.406   5.670   9.762 -0.3543 -0.0620  0.1665
   26CHL1  H19A 1891   1.498   5.642   9.707 -1.6789 -0.6645 -1.8629
   26CHL1  H19B 1892   1.344   5.744   9.707 -2.2141 -1.9261 -0.4021
   26CHL1  H19C 1893   1.423   5.714   9.863  1.1173 -0.9036  0.3134
   26CHL1    C1 1894   1.175   5.560   9.797  0.0718  0.3798  0.3856
   26CHL1   H1A 1895   1.130   5.634   9.727  0.1300 -1.1151 -1.2967
   26CHL1   H1B 1896   1.113   5.468   9.788  1.5000 -0.8099  2.0192
   26CHL1    C2 1897   1.155   5.609   9.942 -0.5455 -0.2231 -0.3629
   26CHL1   H2A 1898   1.046   5.620   9.964  0.2055  1.1918  3.5791
   26CHL1   H2B 1899   1.202   5.709   9.952  2.3272 -1.3080 -2.0657
   26CHL1   C20 1900   1.390   5.329   9.076  0.2022 -0.0948  0.1765
   26CHL1   H20 1901   1.488   5.374   9.050 -0.1537  0.9023  0.5026
   26CHL1   C21 1902   1.279   5.435   9.051  0.3161  0.2536  0.0371
   26CHL1  H21A 1903   1.178   5.396   9.075  0.5011  0.9767  2.2367
   26CHL1  H21B 1904   1.278   5.462   8.943 -1.3911  1.4570  0.3070
   26CHL1  H21C 1905   1.286   5.533   9.103  0.3242  1.6685 -2.4635
   26CHL1   C22 1906   1.370   5.219   8.967  0.1461  0.1832  0.0336
   26CHL1  H22A 1907   1.393   5.118   9.008  0.6011  0.9166  1.6292
   26CHL1  H22B 1908   1.263   5.213   8.938 -0.5411  3.2025  1.6145
   26CHL1   C23 1909   1.457   5.232   8.842 -0.2418 -0.6357  0.6112
   26CHL1  H23A 1910   1.424   5.324   8.788 -0.4095 -1.0984 -0.0954
   26CHL1  H23B 1911   1.565   5.249   8.861  0.3780  1.0712 -3.4084
   26CHL1   C24 1912   1.435   5.112   8.738 -0.2343 -0.0711  0.3773
   26CHL1  H24A 1913   1.485   5.027   8.788  1.0887 -0.7046 -1.8616
   26CHL1  H24B 1914   1.327   5.087   8.725 -0.9441  1.1219  3.2726
   26CHL1   C25 1915   1.497   5.138   8.598  0.2138  0.1539 -0.4376
   26CHL1   H25 1916   1.448   5.229   8.558  1.5382  0.6768 -0.9533
   26CHL1   C26 1917   1.649   5.158   8.601 -0.7626 -0.4374 -0.1782
   26CHL1  H26A 1918   1.688   5.065   8.647  1.1936  1.2587  1.8218
   26CHL1  H26B 1919   1.690   5.174   8.499  2.8158  0.0100  1.1722
   26CHL1  H26C 1920   1.683   5.239   8.669 -0.2215 -0.3958 -0.4942
   26CHL1   C27 1921   1.468   5.023   8.498  0.0854  0.0833 -0.1343
   26CHL1  H27A 1922   1.360   5.012   8.474  0.2874 -0.1499 -0.9608
   26CHL1  H27B 1923   1.508   5.045   8.397 -1.9065 -0.4586 -1.0883
   26CHL1  H27C 1924   1.506   4.925   8.535  1.8979  0.7685 -0.0786
   27CHL1    C3 1925   0.549   1.029  10.348 -0.0655  0.0789  0.4248
   27CHL1    H3 1926   0.441   1.002  10.354 -0.0239  0.2498  3.3008
   27CHL1    O3 1927   0.581   1.030  10.482 -0.5851 -0.0959 -0.4968
   27CHL1   H3' 1928   0.574   0.939  10.510  0.8450 -0.1266 -0.1672
   27CHL1    C4 1929   0.626   0.921  10.268 -0.1045 -0.0970 -0.8856
   27CHL1   H4A 1930   0.737   0.923  10.282  0.1098  2.3886 -2.2596
   27CHL1   H4B 1931   0.605   0.822  10.313 -1.7798  0.8131  0.4105
   27CHL1    C5 1932   0.587   0.918  10.123  0.2096  0.4995  0.2059
   27CHL1    C6 1933   0.552   0.798  10.068 -0.1103  0.0443 -0.4782
   27CHL1    H6 1934   0.555   0.707  10.130 -2.4783 -0.3600 -0.8722
   27CHL1    C7 1935   0.503   0.794   9.924  0.0460  0.9811 -0.1009
   27CHL1   H7A 1936   0.545   0.700   9.881 -0.6964  0.7131 -0.2555
   27CHL1   H7B 1937   0.393   0.783   9.913  0.1761 -1.0456  0.1729
   27CHL1    C8 1938   0.554   0.911   9.835 -0.2352  0.4042 -0.6415
   27CHL1    H8 1939   0.664   0.904   9.829 -0.3089 -2.8778  0.0388
   27CHL1   C14 1940   0.504   0.912   9.696  0.3649  0.5923  0.5803
   27CHL1   H14 1941   0.394   0.913   9.712 -0.0154 -1.4596 -1.3757
   27CHL1   C15 1942   0.522   0.788   9.612 -0.0225  0.1226  0.4966
   27CHL1  H15A 1943   0.631   0.778   9.595  0.2180  0.5581  1.7131
   27CHL1  H15B 1944   0.481   0.700   9.667  0.6938  0.1887  1.1454
   27CHL1   C16 1945   0.453   0.828   9.481 -0.3441 -0.3247 -0.2743
   27CHL1  H16A 1946   0.522   0.796   9.401 -0.1699  0.2834 -0.3765
   27CHL1  H16B 1947   0.348   0.793   9.475 -0.3250 -0.9463  2.1623
   27CHL1   C17 1948   0.446   0.984   9.482 -0.4616  0.9796 -0.0776
   27CHL1   H17 1949   0.339   1.003   9.505 -0.8717  1.2513 -2.0369
   27CHL1   C13 1950   0.525   1.034   9.607 -0.6753 -0.3036  0.9184
   27CHL1   C18 1951   0.677   1.056   9.582 -0.7240 -0.3074  0.2014
   27CHL1  H18A 1952   0.740   1.032   9.670 -0.7485  3.5909  1.4798
   27CHL1  H18B 1953   0.713   0.992   9.499  1.2196  2.2808 -1.0625
   27CHL1  H18C 1954   0.703   1.158   9.547 -0.1995 -0.1828  0.9313
   27CHL1   C12 1955   0.464   1.161   9.677  0.1805  0.3268 -0.8975
   27CHL1  H12A 1956   0.467   1.257   9.621 -0.4965  0.9637  0.1360
   27CHL1  H12B 1957   0.357   1.146   9.700  0.6306  0.1645  1.2948
   27CHL1   C11 1958   0.528   1.170   9.822 -0.1757 -0.6189  1.5426
   27CHL1  H11A 1959   0.630   1.209   9.801 -1.2782  1.7038  0.1265
   27CHL1  H11B 1960   0.488   1.257   9.879 -1.2479 -1.4813  2.1490
   27CHL1    C9 1961   0.519   1.040   9.909  0.2807 -0.2834 -0.3866
   27CHL1    H9 1962   0.409   1.041   9.926  0.3960  1.8238  0.4485
   27CHL1   C10 1963   0.590   1.055  10.054  0.0102  0.6748  0.3225
   27CHL1   C19 1964   0.731   1.097  10.033  0.0916  0.9116 -0.2889
   27CHL1  H19A 1965   0.726   1.207  10.013 -1.6170  1.4368  2.4748
   27CHL1  H19B 1966   0.797   1.089  10.122 -0.5632  1.9493  0.3155
   27CHL1  H19C 1967   0.775   1.054   9.940  1.3086  2.4639 -0.4878
   27CHL1    C1 1968   0.520   1.169  10.138 -0.3111 -0.1677  0.7372
   27CHL1   H1A 1969   0.542   1.267  10.091 -0.4003 -1.1934 -1.6128
   27CHL1   H1B 1970   0.409   1.165  10.128 -0.3737  0.9852  0.8706
   27CHL1    C2 1971   0.561   1.165  10.283  0.1547  0.2708 -0.3438
   27CHL1   H2A 1972   0.489   1.230  10.337  0.7355  0.8737 -0.2784
   27CHL1   H2B 1973   0.663   1.207  10.300  0.5720 -0.5315 -0.7779
   27CHL1   C20 1974   0.493   1.054   9.346 -0.1953  0.4344 -0.2978
   27CHL1   H20 1975   0.602   1.039   9.332  0.4159 -0.6196  4.1518
   27CHL1   C21 1976   0.464   1.211   9.347 -0.2748  0.6512  0.0643
   27CHL1  H21A 1977   0.494   1.251   9.247  2.4441 -0.9980  0.1222
   27CHL1  H21B 1978   0.526   1.260   9.425  4.3131 -1.5722 -1.8047
   27CHL1  H21C 1979   0.355   1.227   9.356 -0.4890  0.3896 -1.6141
   27CHL1   C22 1980   0.437   0.994   9.216 -0.0983  0.9764  0.5405
   27CHL1  H22A 1981   0.467   1.048   9.124  1.0436 -3.8946 -2.3371
   27CHL1  H22B 1982   0.478   0.892   9.202  0.2905  1.0542  1.0681
   27CHL1   C23 1983   0.288   0.985   9.215  0.0533 -0.3668 -0.2225
   27CHL1  H23A 1984   0.260   0.917   9.299  1.6170  0.6731  1.2132
   27CHL1  H23B 1985   0.251   1.087   9.238  0.6324 -0.4367  1.1352
   27CHL1   C24 1986   0.234   0.912   9.086  0.0762 -0.8099  0.1346
   27CHL1  H24A 1987   0.252   0.973   8.996 -1.1966 -1.2176 -0.4180
   27CHL1  H24B 1988   0.285   0.816   9.062 -0.6151 -1.1376 -0.0424
   27CHL1   C25 1989   0.081   0.888   9.109 -0.1252 -0.2222  0.1907
   27CHL1   H25 1990   0.030   0.972   9.160  2.4096  0.2710  2.1612
   27CHL1   C26 1991   0.014   0.873   8.975  0.4726  0.2586 -0.0068
   27CHL1  H26A 1992   0.059   0.802   8.903 -0.1876  0.9400 -1.1205
   27CHL1  H26B 1993  -0.093   0.847   8.988  0.6911 -0.0582  1.2405
   27CHL1  H26C 1994   0.010   0.969   8.919  3.3328 -0.9242 -2.5364
   27CHL1   C27 1995   0.057   0.758   9.192 -0.2938 -0.1959 -0.0998
   27CHL1  H27A 1996   0.100   0.671   9.138 -1.2881 -0.2692 -0.8036
   27CHL1  H27B 1997   0.100   0.757   9.294  1.4677  0.5895 -0.8022
   27CHL1  H27C 1998  -0.052   0.744   9.211 -0.0324  2.2833  4.4969
   28CHL1    C3 1999   6.328   5.718  10.092  0.2264  0.0249  0.1897
   28CHL1    H3 2000   6.242   5.692  10.026  0.3683  1.0565 -0.4371
   28CHL1    O3 2001   6.321   5.669  10.227  0.7876 -0.2044  0.1856
   28CHL1   H3' 2002   6.314   5.573  10.217 -1.0763 -0.2693  1.6685
   28CHL1    C4 2003   6.443   5.661  10.007  0.1026 -0.1929  0.2318
   28CHL1   H4A 2004   6.532   5.689  10.066  0.2092 -2.2162  1.0952
   28CHL1   H4B 2005   6.421   5.552  10.000 -2.0220  0.2595 -1.0429
   28CHL1    C5 2006   6.443   5.724   9.869  0.4896  0.1384 -0.8520
   28CHL1    C6 2007   6.437   5.647   9.761  0.2483 -0.5026 -0.0714
   28CHL1    H6 2008   6.445   5.537   9.764 -1.6945 -0.8440 -3.2020
   28CHL1    C7 2009   6.439   5.700   9.627  0.4363  0.4756  0.7775
   28CHL1   H7A 2010   6.484   5.628   9.555 -2.4875  1.6533 -2.5782
   28CHL1   H7B 2011   6.335   5.702   9.589  0.3856 -1.0793  0.7711
   28CHL1    C8 2012   6.496   5.842   9.618 -0.5290  0.1837  0.0151
   28CHL1    H8 2013   6.606   5.836   9.634 -0.3642  1.2804 -0.6321
   28CHL1   C14 2014   6.477   5.907   9.483 -0.0731  1.2316 -0.0598
   28CHL1   H14 2015   6.367   5.921   9.471 -0.1279  0.1229 -1.0920
   28CHL1   C15 2016   6.516   5.827   9.361  0.2404  0.1066  0.5269
   28CHL1  H15A 2017   6.617   5.780   9.365  1.1189  1.8609  0.0526
   28CHL1  H15B 2018   6.443   5.745   9.353 -0.4563  0.7705 -0.0963
   28CHL1   C16 2019   6.502   5.928   9.248 -0.2395  0.0358  0.0838
   28CHL1  H16A 2020   6.597   5.930   9.191 -0.4595  1.3458 -0.2740
   28CHL1  H16B 2021   6.417   5.912   9.178 -0.9736  1.8200  0.5027
   28CHL1   C17 2022   6.491   6.065   9.311 -0.8355  0.0169  1.4237
   28CHL1   H17 2023   6.384   6.092   9.321 -1.0252  0.5311 -1.2292
   28CHL1   C13 2024   6.528   6.045   9.455  0.4202  0.6801  0.3051
   28CHL1   C18 2025   6.681   6.058   9.459 -0.4809  0.2439  0.2343
   28CHL1  H18A 2026   6.727   5.972   9.405  0.6562 -0.2126  1.8445
   28CHL1  H18B 2027   6.719   6.148   9.406  1.3518  0.1974  1.3794
   28CHL1  H18C 2028   6.723   6.071   9.560 -2.1016  1.1209  0.8345
   28CHL1   C12 2029   6.471   6.134   9.564  0.2741  0.2544 -0.0048
   28CHL1  H12A 2030   6.535   6.225   9.561 -0.5369  0.8457  0.1645
   28CHL1  H12B 2031   6.364   6.154   9.542 -0.0236 -1.6477 -0.4201
   28CHL1   C11 2032   6.481   6.070   9.700 -0.3185 -0.1198 -0.5319
   28CHL1  H11A 2033   6.591   6.066   9.712 -0.1727 -1.1390 -1.9167
   28CHL1  H11B 2034   6.437   6.136   9.777  0.1278 -1.1646  0.6483
   28CHL1    C9 2035   6.426   5.926   9.721  0.0745 -0.5381  0.1495
   28CHL1    H9 2036   6.320   5.922   9.688  0.0887  0.4978 -0.0580
   28CHL1   C10 2037   6.448   5.878   9.866 -0.2676  0.2494 -0.4446
   28CHL1   C19 2038   6.589   5.909   9.928  0.0619  0.0729  0.5415
   28CHL1  H19A 2039   6.595   5.874  10.033 -0.1900 -0.8646  0.2533
   28CHL1  H19B 2040   6.662   5.846   9.874 -0.7784 -0.9089  0.5168
   28CHL1  H19C 2041   6.614   6.017   9.914 -0.3007  0.1588  0.5458
   28CHL1    C1 2042   6.336   5.940   9.961 -0.3565 -0.3582  0.0277
   28CHL1   H1A 2043   6.366   6.046   9.973  1.4738 -0.9672  1.2962
   28CHL1   H1B 2044   6.238   5.936   9.909 -1.3107  1.9240  1.5072
   28CHL1    C2 2045   6.335   5.871  10.100  0.4665  0.1691 -0.0867
   28CHL1   H2A 2046   6.255   5.915  10.164  0.8343 -0.5374  0.8862
   28CHL1   H2B 2047   6.428   5.897  10.155  0.5600 -0.1345 -0.0973
   28CHL1   C20 2048   6.562   6.176   9.221 -0.2102 -0.5909  0.4912
   28CHL1   H20 2049   6.673   6.167   9.226 -0.3054 -1.2441  1.9826
   28CHL1   C21 2050   6.542   6.320   9.285  0.2246  0.3710  0.2091
   28CHL1  H21A 2051   6.432   6.341   9.285  0.5324  2.1565  0.7413
   28CHL1  H21B 2052   6.586   6.398   9.220 -1.6244 -0.9933 -2.9021
   28CHL1  H21C 2053   6.579   6.330   9.389 -0.8465 -0.3565  0.6810
   28CHL1   C22 2054   6.503   6.178   9.079 -0.4269  0.3276 -0.2353
   28CHL1  H22A 2055   6.535   6.081   9.036  0.8585  0.2096  0.9033
   28CHL1  H22B 2056   6.394   6.197   9.078 -0.5715 -0.3091 -2.7858
   28CHL1   C23 2057   6.569   6.274   8.981 -0.4819 -1.2096  0.3472
   28CHL1  H23A 2058   6.554   6.382   9.001  0.3721 -0.6647 -1.7133
   28CHL1  H23B 2059   6.678   6.252   8.990 -0.2062  0.0787  0.4071
   28CHL1   C24 2060   6.509   6.253   8.845 -0.1037 -0.0452  0.0263
   28CHL1  H24A 2061   6.541   6.149   8.822  0.2581  0.3821 -1.5593
   28CHL1  H24B 2062   6.399   6.256   8.864 -0.2841  0.6785 -1.0433
   28CHL1   C25 2063   6.551   6.347   8.737 -0.0867 -0.1381  0.7209
   28CHL1   H25 2064   6.560   6.449   8.781  0.2232 -0.4848  1.4750
   28CHL1   C26 2065   6.693   6.304   8.695  0.7306 -0.1512  0.5439
   28CHL1  H26A 2066   6.701   6.200   8.656  0.6401  0.5399 -1.4532
   28CHL1  H26B 2067   6.732   6.375   8.618 -1.0889 -1.7236 -1.9776
   28CHL1  H26C 2068   6.752   6.310   8.789 -0.7018 -0.6900  1.5114
   28CHL1   C27 2069   6.447   6.345   8.619 -0.2425 -0.0411  0.2436
   28CHL1  H27A 2070   6.346   6.378   8.653 -1.3725 -2.9448  0.0002
   28CHL1  H27B 2071   6.484   6.416   8.542 -0.7617  1.4496  1.3055
   28CHL1  H27C 2072   6.416   6.244   8.584 -2.9219  0.9953 -0.7052
   29CHL1    C3 2073   5.243   0.014   6.530 -0.2997 -0.4961 -0.3388
   29CHL1    H3 2074   5.345   0.036   6.569 -1.1094  1.6856  0.6989
   29CHL1    O3 2075   5.261   0.033   6.390 -0.4483 -0.6065  0.2897
   29CHL1   H3' 2076   5.258  -0.058   6.362  1.6779 -0.1408 -1.8085
   29CHL1    C4 2077   5.201  -0.132   6.578 -0.1206 -0.6015  0.5534
   29CHL1   H4A 2078   5.098  -0.151   6.541 -0.7628  3.0306  0.0821
   29CHL1   H4B 2079   5.278  -0.201   6.537  0.3669 -0.3678  1.0531
   29CHL1    C5 2080   5.199  -0.135   6.730 -0.1656 -0.0550  0.6467
   29CHL1    C6 2081   5.277  -0.218   6.794 -0.3833 -0.5366  0.4379
   29CHL1    H6 2082   5.334  -0.291   6.735 -0.6079 -1.1915  1.0273
   29CHL1    C7 2083   5.296  -0.222   6.945  0.0716 -0.3224  0.0216
   29CHL1   H7A 2084   5.292  -0.325   6.987 -1.8034  0.7078  2.6078
   29CHL1   H7B 2085   5.393  -0.175   6.972 -0.9775  1.6489  0.5466
   29CHL1    C8 2086   5.180  -0.153   7.011 -0.4034 -0.1760 -0.0367
   29CHL1    H8 2087   5.086  -0.211   6.998 -1.3539  1.3310 -0.2475
   29CHL1   C14 2088   5.214  -0.126   7.160 -0.3495  0.0732  0.5861
   29CHL1   H14 2089   5.301  -0.057   7.163 -0.9349  0.9823 -1.3000
   29CHL1   C15 2090   5.247  -0.248   7.240 -0.9451  0.3111 -0.6767
   29CHL1  H15A 2091   5.154  -0.304   7.216 -0.4763 -2.1896  2.7004
   29CHL1  H15B 2092   5.340  -0.302   7.213 -1.6101 -0.4144 -1.5652
   29CHL1   C16 2093   5.234  -0.205   7.386  0.1269  0.4749 -0.3338
   29CHL1  H16A 2094   5.165  -0.269   7.445  1.9604 -0.1334  1.2709
   29CHL1  H16B 2095   5.327  -0.193   7.446 -2.0225  1.7719  3.0458
   29CHL1   C17 2096   5.171  -0.059   7.379  0.0804  0.0831 -0.1892
   29CHL1   H17 2097   5.250   0.018   7.378 -2.3645  2.8364 -2.7772
   29CHL1   C13 2098   5.105  -0.051   7.239  0.1607 -0.2082  0.2350
   29CHL1   C18 2099   4.967  -0.120   7.242  0.0259  0.6133 -0.0337
   29CHL1  H18A 2100   4.945  -0.148   7.137  2.6994  1.4092 -0.8878
   29CHL1  H18B 2101   4.980  -0.214   7.299 -0.9737  1.0109  0.8614
   29CHL1  H18C 2102   4.886  -0.056   7.282 -0.7168  0.1422 -0.7651
   29CHL1   C12 2103   5.096   0.086   7.175 -0.1625  0.1977 -0.0500
   29CHL1  H12A 2104   5.037   0.155   7.238  1.0100  0.7908  0.4254
   29CHL1  H12B 2105   5.200   0.120   7.157 -0.1660 -0.3402 -1.1673
   29CHL1   C11 2106   5.050   0.076   7.029  0.2862 -0.0683 -0.2313
   29CHL1  H11A 2107   4.950   0.027   7.029 -0.1834  0.8846  0.1836
   29CHL1  H11B 2108   5.037   0.178   6.987  1.0154  0.0169 -0.2542
   29CHL1    C9 2109   5.151  -0.020   6.946  0.0396  0.2887 -1.0942
   29CHL1    H9 2110   5.243   0.042   6.957 -0.7882  1.2750  0.8652
   29CHL1   C10 2111   5.121  -0.021   6.797  0.0568 -0.4072 -0.2705
   29CHL1   C19 2112   4.972  -0.049   6.779  0.4517 -0.1277 -0.4123
   29CHL1  H19A 2113   4.904   0.035   6.806  1.1818  0.5774 -0.7327
   29CHL1  H19B 2114   4.953  -0.054   6.669  1.1523  2.8598 -0.7622
   29CHL1  H19C 2115   4.934  -0.142   6.825 -0.6911  0.4409 -0.1576
   29CHL1    C1 2116   5.157   0.115   6.728  0.1294  0.6505  0.2293
   29CHL1   H1A 2117   5.086   0.187   6.776  1.0556  0.4438  1.9856
   29CHL1   H1B 2118   5.260   0.137   6.763  0.0963 -1.5314  1.9296
   29CHL1    C2 2119   5.141   0.118   6.577 -0.3242  0.4182 -0.0501
   29CHL1   H2A 2120   5.159   0.222   6.544  1.6591 -0.4048 -1.8079
   29CHL1   H2B 2121   5.040   0.090   6.542  0.8214 -2.7468 -1.2518
   29CHL1   C20 2122   5.077  -0.038   7.508 -0.4106  0.5898 -0.4888
   29CHL1   H20 2123   4.987  -0.103   7.502  1.4081 -2.4622  2.2290
   29CHL1   C21 2124   5.032   0.113   7.516 -0.3408 -0.1146 -0.5674
   29CHL1  H21A 2125   5.117   0.184   7.502 -0.3639  0.1426  0.5342
   29CHL1  H21B 2126   4.976   0.130   7.610  0.2538 -0.1095 -0.2094
   29CHL1  H21C 2127   4.962   0.132   7.432 -0.5671  0.8155 -0.1781
   29CHL1   C22 2128   5.135  -0.083   7.640 -0.1040 -0.2891  1.2496
   29CHL1  H22A 2129   5.058  -0.077   7.720  0.2489 -0.6036  1.6181
   29CHL1  H22B 2130   5.166  -0.190   7.630 -0.2894 -0.2387  0.0374
   29CHL1   C23 2131   5.257  -0.002   7.689 -0.2798 -0.4647  0.0874
   29CHL1  H23A 2132   5.333  -0.009   7.608 -0.2653  3.2148 -0.3612
   29CHL1  H23B 2133   5.235   0.105   7.710  2.3052  0.0232  0.6754
   29CHL1   C24 2134   5.319  -0.058   7.818 -1.0378 -0.0933 -0.9638
   29CHL1  H24A 2135   5.248  -0.052   7.904  1.1218 -1.9486  1.0786
   29CHL1  H24B 2136   5.331  -0.166   7.798 -3.4079 -0.3543 -1.3212
   29CHL1   C25 2137   5.445   0.011   7.884  0.8640  0.0380 -0.0285
   29CHL1   H25 2138   5.486  -0.058   7.961 -1.0209 -1.2433 -0.1142
   29CHL1   C26 2139   5.560   0.051   7.784  0.0575  0.4586  0.2566
   29CHL1  H26A 2140   5.644   0.095   7.841  1.5198 -1.0892 -0.5865
   29CHL1  H26B 2141   5.592  -0.046   7.741  1.2895 -0.6851  3.4759
   29CHL1  H26C 2142   5.528   0.121   7.704  0.9866 -0.2160 -0.7302
   29CHL1   C27 2143   5.391   0.137   7.951 -0.0798  0.8815 -0.3022
   29CHL1  H27A 2144   5.472   0.189   8.007 -0.9514  1.5061  0.4033
   29CHL1  H27B 2145   5.343   0.198   7.872  0.4717  0.3867 -1.0379
   29CHL1  H27C 2146   5.319   0.125   8.034 -1.2279  4.1909 -0.6760
   30CHL1    C3 2147   2.629   1.803   7.255  0.3236 -0.3790  0.4803
   30CHL1    H3 2148   2.728   1.773   7.295 -0.0555  0.1390  1.8854
   30CHL1    O3 2149   2.623   1.749   7.122 -0.1476  0.0885 -0.0318
   30CHL1   H3' 2150   2.638   1.832   7.075 -2.4895  1.9480  2.2182
   30CHL1    C4 2151   2.517   1.740   7.344  0.1049  0.1591 -0.1038
   30CHL1   H4A 2152   2.425   1.762   7.285  0.7157  1.3370 -0.6575
   30CHL1   H4B 2153   2.529   1.630   7.346  0.1577  0.1218  3.3133
   30CHL1    C5 2154   2.524   1.805   7.477 -0.5398  0.1495 -0.4706
   30CHL1    C6 2155   2.536   1.727   7.586  0.5673 -0.0705 -0.4178
   30CHL1    H6 2156   2.531   1.618   7.572 -1.5966  0.0359 -0.8666
   30CHL1    C7 2157   2.551   1.778   7.727 -0.9161  0.0908 -0.5699
   30CHL1   H7A 2158   2.508   1.705   7.799 -0.0765  0.4985  0.3813
   30CHL1   H7B 2159   2.659   1.777   7.756 -0.5759 -2.4289 -1.6991
   30CHL1    C8 2160   2.496   1.923   7.737  0.2593 -0.0923 -0.7087
   30CHL1    H8 2161   2.386   1.919   7.720  0.2396  1.7208 -1.2109
   30CHL1   C14 2162   2.516   1.990   7.875 -1.0456  0.1005  0.1484
   30CHL1   H14 2163   2.627   1.996   7.872 -1.0370  0.0998  0.4282
   30CHL1   C15 2164   2.486   1.910   8.007  0.6015 -0.3605  0.2712
   30CHL1  H15A 2165   2.385   1.864   7.999  0.9629 -1.0827 -0.2954
   30CHL1  H15B 2166   2.557   1.825   8.003  0.4418 -0.5196 -3.5964
   30CHL1   C16 2167   2.484   2.021   8.114  0.2403  0.6074 -0.1898
   30CHL1  H16A 2168   2.378   2.021   8.147  0.0008  1.5987 -0.9094
   30CHL1  H16B 2169   2.549   2.003   8.202  0.6645 -0.2583 -0.6653
   30CHL1   C17 2170   2.506   2.158   8.049  0.5420  0.6844 -0.2531
   30CHL1   H17 2171   2.613   2.184   8.064  0.3860  0.5095  1.3892
   30CHL1   C13 2172   2.474   2.139   7.893 -1.0647  0.0651 -0.3440
   30CHL1   C18 2173   2.322   2.141   7.861  0.1090 -0.2233 -0.0971
   30CHL1  H18A 2174   2.272   2.240   7.871 -1.9020 -1.3369  1.8270
   30CHL1  H18B 2175   2.302   2.102   7.758  2.2478  0.3803 -0.7871
   30CHL1  H18C 2176   2.275   2.070   7.933 -2.0297  0.4639 -0.7226
   30CHL1   C12 2177   2.553   2.219   7.788  0.5420  0.6190 -0.9207
   30CHL1  H12A 2178   2.528   2.327   7.785  2.3822  1.0720 -4.0859
   30CHL1  H12B 2179   2.662   2.200   7.799  0.2163 -2.0523 -1.4595
   30CHL1   C11 2180   2.521   2.171   7.647  0.1046  0.2454 -0.2785
   30CHL1  H11A 2181   2.416   2.189   7.615  0.9820  1.8575 -2.4871
   30CHL1  H11B 2182   2.574   2.227   7.567 -0.5929  1.2301 -0.0647
   30CHL1    C9 2183   2.554   2.014   7.625 -0.8998  1.0022  0.0538
   30CHL1    H9 2184   2.665   2.008   7.630 -0.8984  0.0489 -0.7552
   30CHL1   C10 2185   2.519   1.961   7.481 -0.0754  0.3497  0.0252
   30CHL1   C19 2186   2.379   1.999   7.440 -0.4561  0.0589  0.7601
   30CHL1  H19A 2187   2.349   1.963   7.340  1.1288  2.2622 -0.6088
   30CHL1  H19B 2188   2.300   1.958   7.507  0.2104 -0.1359  1.4461
   30CHL1  H19C 2189   2.370   2.109   7.424 -1.1514 -0.0456  0.3950
   30CHL1    C1 2190   2.620   2.020   7.376 -0.6522  0.2942  0.0803
   30CHL1   H1A 2191   2.604   2.129   7.365  0.5642  0.4793 -0.0069
   30CHL1   H1B 2192   2.721   2.002   7.420 -0.5408  0.0723 -0.2629
   30CHL1    C2 2193   2.605   1.954   7.239  0.4215  0.3575 -0.1503
   30CHL1   H2A 2194   2.683   2.000   7.174 -0.8076  0.8474 -1.3165
   30CHL1   H2B 2195   2.501   1.965   7.202 -1.2175 -1.4339  3.4416
   30CHL1   C20 2196   2.426   2.278   8.118 -0.5972  0.4404 -0.4219
   30CHL1   H20 2197   2.317   2.275   8.100 -0.7110  1.4646  0.0145
   30CHL1   C21 2198   2.477   2.412   8.055 -0.7675  0.4854  0.1584
   30CHL1  H21A 2199   2.455   2.422   7.946 -0.2776  0.8286  0.0867
   30CHL1  H21B 2200   2.585   2.416   8.081 -0.3552 -2.0002 -0.9161
   30CHL1  H21C 2201   2.429   2.502   8.100  0.9553  0.3078  2.4844
   30CHL1   C22 2202   2.449   2.282   8.272  0.3876  0.2348 -0.0792
   30CHL1  H22A 2203   2.408   2.190   8.318  1.0862 -1.2475 -2.2976
   30CHL1  H22B 2204   2.558   2.294   8.291  0.3692 -0.4113  0.4781
   30CHL1   C23 2205   2.375   2.400   8.340 -0.4953 -0.1761 -0.5254
   30CHL1  H23A 2206   2.425   2.494   8.308 -0.3408  0.0243  0.2691
   30CHL1  H23B 2207   2.267   2.398   8.312 -0.2346 -4.3308 -1.9095
   30CHL1   C24 2208   2.392   2.401   8.494 -0.6655 -0.2674 -1.0214
   30CHL1  H24A 2209   2.347   2.310   8.537 -0.3901  0.2220  0.3366
   30CHL1  H24B 2210   2.502   2.403   8.512 -0.3522  1.0383 -2.6897
   30CHL1   C25 2211   2.335   2.525   8.568 -0.1408  0.2072 -0.4410
   30CHL1   H25 2212   2.357   2.622   8.517  2.0482 -0.1809 -0.3238
   30CHL1   C26 2213   2.182   2.518   8.573 -0.2877  0.6611 -0.5084
   30CHL1  H26A 2214   2.139   2.456   8.655 -0.9245  0.9780 -0.5992
   30CHL1  H26B 2215   2.136   2.617   8.594 -1.3713  0.2592 -0.9321
   30CHL1  H26C 2216   2.129   2.488   8.480 -0.3348  2.4965 -1.1146
   30CHL1   C27 2217   2.388   2.538   8.714  0.0118 -0.1107  0.5890
   30CHL1  H27A 2218   2.392   2.441   8.769  0.2709 -0.5985 -0.2725
   30CHL1  H27B 2219   2.496   2.559   8.701  0.0872  0.8417  2.3757
   30CHL1  H27C 2220   2.340   2.623   8.767 -0.7074  0.2226 -0.5717
   31CHL1    C3 2221   0.147   6.012   6.684 -0.3892  0.8541 -0.0187
   31CHL1    H3 2222   0.109   5.913   6.715 -0.2807 -0.4162 -3.4971
   31CHL1    O3 2223   0.159   5.989   6.545 -0.3136  0.5448  0.4708
   31CHL1   H3' 2224   0.131   6.072   6.507 -0.0387  1.1589  1.5790
   31CHL1    C4 2225   0.051   6.131   6.721 -0.2381  0.1795 -0.6472
   31CHL1   H4A 2226   0.093   6.220   6.669 -0.8794 -0.0041 -1.5049
   31CHL1   H4B 2227  -0.051   6.104   6.687 -0.1496 -1.0725  0.0286
   31CHL1    C5 2228   0.039   6.161   6.872  0.2275 -0.1760  0.0031
   31CHL1    C6 2229  -0.079   6.160   6.936  0.0997 -0.3768  0.0135
   31CHL1    H6 2230  -0.172   6.145   6.878 -1.4193 -3.7646  2.9724
   31CHL1    C7 2231  -0.100   6.190   7.077 -0.2000 -0.0904 -0.3884
   31CHL1   H7A 2232  -0.176   6.265   7.110 -1.0431 -1.9417  2.2446
   31CHL1   H7B 2233  -0.130   6.100   7.136  0.5021 -0.2135 -0.2073
   31CHL1    C8 2234   0.030   6.245   7.147  0.0977  0.8257  0.3318
   31CHL1    H8 2235   0.030   6.353   7.122  0.7461  0.8186  0.2943
   31CHL1   C14 2236   0.016   6.230   7.291 -0.1588  0.1254  0.4239
   31CHL1   H14 2237   0.020   6.120   7.307  0.0571  0.3968  2.5438
   31CHL1   C15 2238  -0.112   6.288   7.367  0.4958 -0.1579 -0.4675
   31CHL1  H15A 2239  -0.148   6.384   7.324 -0.4906 -1.3606 -2.4635
   31CHL1  H15B 2240  -0.184   6.203   7.373  0.5905 -0.3230 -1.4487
   31CHL1   C16 2241  -0.060   6.314   7.517 -0.6526 -0.4517  0.4948
   31CHL1  H16A 2242  -0.050   6.423   7.538  0.5331 -0.0431 -1.8871
   31CHL1  H16B 2243  -0.126   6.261   7.589 -0.4716 -0.6295  0.5301
   31CHL1   C17 2244   0.085   6.254   7.516 -0.1260  0.6231  0.5550
   31CHL1   H17 2245   0.066   6.145   7.521 -0.2685  0.6116 -0.1590
   31CHL1   C13 2246   0.135   6.278   7.373  0.2886 -0.1492 -0.2948
   31CHL1   C18 2247   0.162   6.424   7.343  0.9471 -0.2152 -0.2946
   31CHL1  H18A 2248   0.232   6.466   7.418 -1.5211  1.4906  1.2140
   31CHL1  H18B 2249   0.189   6.451   7.239 -1.2249  1.2057 -0.5547
   31CHL1  H18C 2250   0.064   6.472   7.366 -0.5052 -3.2283  0.3495
   31CHL1   C12 2251   0.252   6.198   7.334  0.3408  0.3947 -1.0398
   31CHL1  H12A 2252   0.348   6.226   7.383 -0.8186 -0.0485  1.6887
   31CHL1  H12B 2253   0.239   6.092   7.362 -0.0685  0.9668  1.1602
   31CHL1   C11 2254   0.283   6.196   7.183  0.9968  0.6802  0.0744
   31CHL1  H11A 2255   0.317   6.297   7.153  0.0690  1.2918  0.9849
   31CHL1  H11B 2256   0.354   6.118   7.148 -1.0952 -2.2175  1.8151
   31CHL1    C9 2257   0.152   6.158   7.104 -0.2931 -0.2080 -0.5953
   31CHL1    H9 2258   0.123   6.052   7.120 -1.6888 -0.1542 -2.4328
   31CHL1   C10 2259   0.171   6.165   6.948 -0.0867 -0.3599  0.6885
   31CHL1   C19 2260   0.227   6.304   6.906 -0.9271 -0.7450 -0.2149
   31CHL1  H19A 2261   0.333   6.313   6.937 -1.3196  0.7767  0.8106
   31CHL1  H19B 2262   0.237   6.329   6.798 -0.1438  1.9503  0.4179
   31CHL1  H19C 2263   0.176   6.387   6.959 -2.3334 -2.7352  1.7611
   31CHL1    C1 2264   0.275   6.057   6.893  0.5399 -0.2030  0.5303
   31CHL1   H1A 2265   0.376   6.076   6.935  0.7972 -1.2385  0.4080
   31CHL1   H1B 2266   0.240   5.958   6.930 -1.3135 -0.6715 -2.1808
   31CHL1    C2 2267   0.282   6.028   6.745 -0.0620  0.3383  0.9293
   31CHL1   H2A 2268   0.336   5.932   6.730 -0.1910  0.0407  2.2404
   31CHL1   H2B 2269   0.334   6.112   6.692  0.5445 -0.3605  0.3924
   31CHL1   C20 2270   0.177   6.305   7.633  0.2386 -0.4299 -0.4412
   31CHL1   H20 2271   0.245   6.388   7.606  0.5178 -0.7799 -0.8327
   31CHL1   C21 2272   0.267   6.180   7.668  0.0737 -0.4392  0.6877
   31CHL1  H21A 2273   0.200   6.099   7.704 -0.3664 -0.6003 -0.4510
   31CHL1  H21B 2274   0.351   6.208   7.735 -1.0394  1.3816  1.4112
   31CHL1  H21C 2275   0.313   6.139   7.575 -0.0050 -3.0675  1.7406
   31CHL1   C22 2276   0.112   6.348   7.768 -0.0015 -0.0943  0.3761
   31CHL1  H22A 2277   0.033   6.424   7.747 -1.8251 -2.3484 -1.6277
   31CHL1  H22B 2278   0.055   6.261   7.808 -0.4057  0.3896  0.8724
   31CHL1   C23 2279   0.214   6.388   7.882  0.1290  0.3855 -0.5598
   31CHL1  H23A 2280   0.156   6.397   7.976  0.8386 -0.5618 -0.0165
   31CHL1  H23B 2281   0.293   6.313   7.901  1.3698  2.0340  1.0366
   31CHL1   C24 2282   0.281   6.527   7.864 -0.5000  1.1682  0.2831
   31CHL1  H24A 2283   0.329   6.525   7.764 -1.4760 -0.7205 -0.1771
   31CHL1  H24B 2284   0.195   6.596   7.847 -0.2536  1.2247 -0.7686
   31CHL1   C25 2285   0.359   6.565   7.984 -0.8009  0.0988  0.7324
   31CHL1   H25 2286   0.439   6.490   7.999  0.5691  1.3718  0.1462
   31CHL1   C26 2287   0.418   6.701   7.960  0.0515  0.1660 -0.4644
   31CHL1  H26A 2288   0.338   6.765   7.917 -2.6746 -0.4120  3.1890
   31CHL1  H26B 2289   0.437   6.754   8.056  0.7510  2.1841 -1.6795
   31CHL1  H26C 2290   0.506   6.700   7.893  0.1239 -0.1827 -0.3697
   31CHL1   C27 2291   0.278   6.569   8.115 -0.2513  0.6027  0.2957
   31CHL1  H27A 2292   0.335   6.617   8.197 -0.3788  0.4142  0.4943
   31CHL1  H27B 2293   0.272   6.462   8.144 -0.7500 -0.2277 -2.5224
   31CHL1  H27C 2294   0.180   6.621   8.108 -0.2523  0.5872  0.1885
   32CHL1    C3 2295   3.951   1.987   6.967 -0.3425 -0.0860 -0.5125
   32CHL1    H3 2296   4.045   2.039   6.993 -1.6965  3.2405 -1.7981
   32CHL1    O3 2297   3.958   1.947   6.832 -0.4465  0.1675 -0.0632
   32CHL1   H3' 2298   3.869   1.929   6.802 -0.2245 -1.1491  0.0020
   32CHL1    C4 2299   3.942   1.862   7.055  0.0664  0.6217  0.2081
   32CHL1   H4A 2300   3.853   1.805   7.023 -0.6721  1.5622  0.5482
   32CHL1   H4B 2301   4.028   1.800   7.022  0.2587  0.9643  0.0525
   32CHL1    C5 2302   3.929   1.891   7.204  0.5789 -0.2703 -0.3017
   32CHL1    C6 2303   4.002   1.830   7.301  0.2303 -0.2832  0.0836
   32CHL1    H6 2304   4.073   1.754   7.262 -0.2360 -0.6016 -0.1560
   32CHL1    C7 2305   4.006   1.859   7.451  0.9483 -0.2743 -0.0308
   32CHL1   H7A 2306   3.983   1.762   7.501  0.6940  0.0816  0.5425
   32CHL1   H7B 2307   4.105   1.897   7.484  0.2946  0.3540  1.2595
   32CHL1    C8 2308   3.891   1.959   7.500  0.5711 -0.1694 -0.6308
   32CHL1    H8 2309   3.800   1.899   7.519  0.2281 -0.1172 -1.9677
   32CHL1   C14 2310   3.933   2.020   7.636  0.0441  0.0222 -0.1580
   32CHL1   H14 2311   4.022   2.082   7.613 -1.0366  1.0052 -1.9597
   32CHL1   C15 2312   3.975   1.938   7.762  0.2992 -0.4720  0.7388
   32CHL1  H15A 2313   3.932   1.835   7.760  1.6406 -1.0445 -0.8876
   32CHL1  H15B 2314   4.085   1.927   7.751  0.4345  1.8996 -0.9058
   32CHL1   C16 2315   3.934   2.026   7.885  0.5162 -0.0438 -1.0020
   32CHL1  H16A 2316   3.857   1.962   7.934  1.8585 -1.4618 -0.6946
   32CHL1  H16B 2317   4.020   2.044   7.953 -0.5825  0.0291  0.4249
   32CHL1   C17 2318   3.878   2.158   7.830  0.1642 -0.1296 -0.2440
   32CHL1   H17 2319   3.969   2.222   7.820  1.7461 -2.1252  0.7796
   32CHL1   C13 2320   3.827   2.120   7.690 -0.3706 -0.2757  0.0429
   32CHL1   C18 2321   3.700   2.050   7.711  0.1882  0.6949 -0.2627
   32CHL1  H18A 2322   3.648   2.040   7.613 -1.4584  0.7973  0.5688
   32CHL1  H18B 2323   3.714   1.952   7.761  0.3014  0.8657  0.0400
   32CHL1  H18C 2324   3.623   2.102   7.772  0.2584 -0.7065  1.0610
   32CHL1   C12 2325   3.816   2.232   7.590 -0.8142 -0.1970 -0.4075
   32CHL1  H12A 2326   3.737   2.306   7.615 -1.8917 -1.1897 -0.8204
   32CHL1  H12B 2327   3.913   2.286   7.597 -0.4232 -1.1017  2.1055
   32CHL1   C11 2328   3.791   2.191   7.440  0.2333  0.7438  0.3923
   32CHL1  H11A 2329   3.682   2.174   7.449  0.2567  1.3007  1.9336
   32CHL1  H11B 2330   3.797   2.281   7.375 -0.9088  1.5863  1.4277
   32CHL1    C9 2331   3.877   2.067   7.390  0.3150  1.0296  0.3183
   32CHL1    H9 2332   3.983   2.100   7.387  0.9679 -0.9424  0.2830
   32CHL1   C10 2333   3.835   2.008   7.249 -0.2788  0.2560 -0.1051
   32CHL1   C19 2334   3.690   1.958   7.247 -0.6541  0.6698  0.4201
   32CHL1  H19A 2335   3.620   2.022   7.305 -2.3596  2.2677 -3.0603
   32CHL1  H19B 2336   3.665   1.959   7.139  0.2311  0.0221  0.1971
   32CHL1  H19C 2337   3.680   1.853   7.281 -0.9158  1.0482  1.5416
   32CHL1    C1 2338   3.850   2.129   7.157 -0.9911  0.1025  0.1382
   32CHL1   H1A 2339   3.773   2.205   7.182 -0.9254 -0.0377  0.7836
   32CHL1   H1B 2340   3.954   2.156   7.185 -0.9440 -0.3047  0.3685
   32CHL1    C2 2341   3.843   2.090   7.007  0.7855  0.2991 -0.0085
   32CHL1   H2A 2342   3.845   2.180   6.943 -1.0644  0.9338  0.7684
   32CHL1   H2B 2343   3.744   2.045   6.990  0.4507  1.4123 -1.1293
   32CHL1   C20 2344   3.785   2.224   7.938 -0.2800 -0.1625 -0.3825
   32CHL1   H20 2345   3.696   2.158   7.939 -0.8377  0.4477 -2.5755
   32CHL1   C21 2346   3.743   2.370   7.874 -0.2376  0.0059 -0.4444
   32CHL1  H21A 2347   3.664   2.352   7.798  0.6498 -0.9566 -1.1625
   32CHL1  H21B 2348   3.833   2.424   7.837 -0.4687  0.1407 -0.8134
   32CHL1  H21C 2349   3.694   2.437   7.949 -1.0613  1.1310 -1.9269
   32CHL1   C22 2350   3.847   2.220   8.084  0.2200 -0.3897 -0.2669
   32CHL1  H22A 2351   3.895   2.124   8.112 -1.5200 -1.0486  0.6024
   32CHL1  H22B 2352   3.923   2.301   8.087 -0.0903 -0.0316  3.6933
   32CHL1   C23 2353   3.745   2.256   8.196 -0.1756  0.6251 -0.2086
   32CHL1  H23A 2354   3.720   2.364   8.191 -0.4203  0.5482 -0.6054
   32CHL1  H23B 2355   3.645   2.210   8.193  1.0081 -2.1170 -0.9298
   32CHL1   C24 2356   3.812   2.231   8.333 -0.1679 -0.3471 -0.4547
   32CHL1  H24A 2357   3.846   2.128   8.353 -1.6941 -0.6955  0.4465
   32CHL1  H24B 2358   3.899   2.301   8.333  0.9065 -1.6342 -1.2179
   32CHL1   C25 2359   3.717   2.259   8.451  0.3491  0.0751 -0.0654
   32CHL1   H25 2360   3.613   2.242   8.415  0.3908 -1.0061  0.2830
   32CHL1   C26 2361   3.744   2.163   8.569  0.2825  0.2218  0.2408
   32CHL1  H26A 2362   3.761   2.060   8.529 -1.9597 -0.7461  1.5892
   32CHL1  H26B 2363   3.837   2.189   8.623  1.4093 -1.1358 -0.9304
   32CHL1  H26C 2364   3.654   2.162   8.634 -0.7732 -0.5777 -1.1784
   32CHL1   C27 2365   3.707   2.406   8.495  0.2817  0.3085  0.2088
   32CHL1  H27A 2366   3.657   2.413   8.595  0.6080 -1.6280  0.5450
   32CHL1  H27B 2367   3.806   2.455   8.505 -0.3740  1.4150  1.6485
   32CHL1  H27C 2368   3.651   2.459   8.415  1.6635  1.7927  0.1924
   33CHL1    C3 2369   4.891   2.788   6.901  0.0955  0.9217 -0.0322
   33CHL1    H3 2370   4.785   2.771   6.930 -0.1783  1.3116 -0.7863
   33CHL1    O3 2371   4.909   2.781   6.762 -0.0431  0.4690 -0.4067
   33CHL1   H3' 2372   4.996   2.810   6.735 -0.7691  0.4041 -3.0571
   33CHL1    C4 2373   4.938   2.923   6.961 -0.9420  0.2953  0.0480
   33CHL1   H4A 2374   5.043   2.933   6.927 -0.8664 -1.8959 -0.4746
   33CHL1   H4B 2375   4.882   3.000   6.903 -0.8249 -0.8427 -1.6360
   33CHL1    C5 2376   4.943   2.933   7.113  0.0002 -0.2823 -0.6210
   33CHL1    C6 2377   4.871   3.025   7.176 -0.0038 -0.8127  0.1522
   33CHL1    H6 2378   4.810   3.097   7.121  0.5295 -1.3874 -1.2352
   33CHL1    C7 2379   4.877   3.050   7.326 -0.3102  0.3075 -0.2800
   33CHL1   H7A 2380   4.883   3.160   7.345 -2.2271  0.3734  0.1564
   33CHL1   H7B 2381   4.781   3.030   7.378 -0.7184  1.5945 -0.4894
   33CHL1    C8 2382   4.984   2.962   7.398 -0.1125  0.3339  0.4755
   33CHL1    H8 2383   5.083   3.013   7.395 -0.1846  0.4292 -0.4119
   33CHL1   C14 2384   4.941   2.951   7.538  0.1904  0.3316 -0.1071
   33CHL1   H14 2385   4.843   2.900   7.536  1.2847 -1.8599 -0.5551
   33CHL1   C15 2386   4.919   3.080   7.621  0.0669  0.7412  0.0022
   33CHL1  H15A 2387   5.003   3.148   7.599  1.3876 -0.5465  0.8848
   33CHL1  H15B 2388   4.825   3.126   7.584  0.4269  1.0192 -0.5712
   33CHL1   C16 2389   4.923   3.036   7.768  0.2859 -0.3835  0.1344
   33CHL1  H16A 2390   4.995   3.098   7.824  1.2121 -1.1334 -0.2043
   33CHL1  H16B 2391   4.825   3.062   7.813 -1.1738  2.1325 -3.9345
   33CHL1   C17 2392   4.965   2.886   7.769 -0.0402 -0.1561  0.5130
   33CHL1   H17 2393   4.874   2.822   7.766 -1.4823  1.6139  2.8471
   33CHL1   C13 2394   5.031   2.862   7.632  0.2385 -0.0577  1.0847
   33CHL1   C18 2395   5.172   2.927   7.643 -0.1178 -0.2727  0.1891
   33CHL1  H18A 2396   5.224   2.936   7.545 -2.1977  1.2297 -0.8652
   33CHL1  H18B 2397   5.160   3.031   7.682 -1.0554 -0.1992 -0.2786
   33CHL1  H18C 2398   5.238   2.874   7.715  0.7825  0.5972  0.0300
   33CHL1   C12 2399   5.032   2.725   7.576 -0.5237  0.5788  0.0151
   33CHL1  H12A 2400   5.086   2.641   7.622  0.8485  0.7398 -1.2438
   33CHL1  H12B 2401   4.924   2.699   7.574 -0.8610  1.8863 -0.2074
   33CHL1   C11 2402   5.074   2.722   7.425 -0.1548  0.4463 -0.3889
   33CHL1  H11A 2403   5.182   2.737   7.407 -0.5087  0.2735 -3.0038
   33CHL1  H11B 2404   5.055   2.617   7.396  0.3188 -0.4748  2.3539
   33CHL1    C9 2405   4.994   2.825   7.338 -0.6345  0.0495  0.7942
   33CHL1    H9 2406   4.893   2.782   7.354 -0.0868 -1.9945 -0.8327
   33CHL1   C10 2407   5.017   2.819   7.185  0.7901  0.4542 -1.3797
   33CHL1   C19 2408   5.172   2.833   7.159 -0.3856 -0.1342  0.5654
   33CHL1  H19A 2409   5.236   2.748   7.191  1.8050  0.4829 -1.8980
   33CHL1  H19B 2410   5.195   2.848   7.052 -0.7143 -1.4330  0.2931
   33CHL1  H19C 2411   5.212   2.920   7.216 -2.0998  1.2253 -0.2234
   33CHL1    C1 2412   4.962   2.684   7.123  0.2996  0.6060  0.3102
   33CHL1   H1A 2413   5.011   2.595   7.167 -0.4814 -0.7454 -1.4439
   33CHL1   H1B 2414   4.853   2.683   7.147 -0.3287  5.4813 -1.1986
   33CHL1    C2 2415   4.967   2.673   6.966 -0.3686 -0.3771 -0.6313
   33CHL1   H2A 2416   4.920   2.577   6.937 -0.8025 -0.4108  0.1482
   33CHL1   H2B 2417   5.074   2.675   6.939 -0.6242 -1.3959 -1.8123
   33CHL1   C20 2418   5.049   2.848   7.891  0.1125  0.1055 -0.6116
   33CHL1   H20 2419   5.143   2.907   7.899 -0.9250  1.9711 -1.4470
   33CHL1   C21 2420   5.091   2.700   7.895  0.1433 -0.0883 -0.5923
   33CHL1  H21A 2421   5.010   2.624   7.893  2.0805 -2.4147  1.7359
   33CHL1  H21B 2422   5.156   2.685   7.984  0.0166  3.2752  0.1866
   33CHL1  H21C 2423   5.157   2.675   7.809  0.4313 -1.1624 -0.0864
   33CHL1   C22 2424   4.991   2.896   8.025  0.4219  0.2111 -0.0572
   33CHL1  H22A 2425   5.077   2.902   8.095 -0.2011 -0.2226  0.7687
   33CHL1  H22B 2426   4.951   2.999   8.023  0.3775  0.1867 -1.6236
   33CHL1   C23 2427   4.891   2.806   8.095  0.2218  0.2234 -0.0683
   33CHL1  H23A 2428   4.822   2.776   8.013  0.8159 -1.0501 -0.1357
   33CHL1  H23B 2429   4.947   2.715   8.128  0.4153 -0.4310 -2.0182
   33CHL1   C24 2430   4.828   2.872   8.208 -0.1162  0.2555 -0.1242
   33CHL1  H24A 2431   4.767   2.960   8.179 -0.5274 -0.2401 -0.7749
   33CHL1  H24B 2432   4.758   2.796   8.247  2.2061 -0.4940  3.0190
   33CHL1   C25 2433   4.927   2.904   8.326  0.1342  0.0530 -0.1439
   33CHL1   H25 2434   5.014   2.964   8.291  0.3299 -0.7430 -1.0738
   33CHL1   C26 2435   4.849   2.997   8.425  0.1293 -0.0303 -0.0557
   33CHL1  H26A 2436   4.787   2.931   8.489  0.3548  0.5591  0.7857
   33CHL1  H26B 2437   4.927   3.044   8.489 -0.3573  0.6808  0.0272
   33CHL1  H26C 2438   4.788   3.073   8.372 -0.1205 -0.2429 -0.0780
   33CHL1   C27 2439   4.987   2.778   8.397  0.2070  0.0561  0.2979
   33CHL1  H27A 2440   5.039   2.701   8.337  2.0949 -0.1731  2.1090
   33CHL1  H27B 2441   5.056   2.811   8.477  0.8005 -1.0627  0.2723
   33CHL1  H27C 2442   4.893   2.727   8.430 -2.1871  2.8569 -1.6701
   34CHL1    C3 2443   6.315   2.772   7.061 -0.4029  0.6552  0.7139
   34CHL1    H3 2444   6.340   2.879   7.079  0.0965  0.4124  1.5378
   34CHL1    O3 2445   6.342   2.743   6.922  0.2357  0.1048 -0.2990
   34CHL1   H3' 2446   6.255   2.748   6.881  1.0347 -0.7704 -2.1887
   34CHL1    C4 2447   6.408   2.679   7.143  0.5752  0.1046 -0.3517
   34CHL1   H4A 2448   6.393   2.574   7.109 -0.7517 -0.4455  1.7363
   34CHL1   H4B 2449   6.514   2.706   7.124  0.6274  1.4711  1.6325
   34CHL1    C5 2450   6.382   2.686   7.284 -0.1933  0.6147 -0.8182
   34CHL1    C6 2451   6.481   2.718   7.374  0.3083  1.0614 -0.2144
   34CHL1    H6 2452   6.583   2.719   7.333  0.7761 -2.7024  0.5637
   34CHL1    C7 2453   6.465   2.724   7.523  0.0427  0.9179  0.6159
   34CHL1   H7A 2454   6.552   2.671   7.568 -0.2138 -1.8706 -1.8662
   34CHL1   H7B 2455   6.458   2.833   7.547  1.0358  1.3420 -0.8565
   34CHL1    C8 2456   6.334   2.667   7.567  0.3423  0.5840  0.1356
   34CHL1    H8 2457   6.351   2.558   7.552  1.9043  0.7720  0.3242
   34CHL1   C14 2458   6.308   2.689   7.714  0.4362  0.1278 -0.5530
   34CHL1   H14 2459   6.307   2.799   7.729 -1.1753  0.0067  0.4228
   34CHL1   C15 2460   6.412   2.636   7.809  0.6161  0.0647  0.0479
   34CHL1  H15A 2461   6.449   2.542   7.761  1.4512  0.0298  0.7392
   34CHL1  H15B 2462   6.497   2.703   7.831 -0.2374  0.8003  1.1757
   34CHL1   C16 2463   6.338   2.608   7.940 -0.0410  0.4993  0.0593
   34CHL1  H16A 2464   6.359   2.502   7.966  0.2177  0.7030  0.7143
   34CHL1  H16B 2465   6.376   2.681   8.015 -1.5805  2.3979 -0.9038
   34CHL1   C17 2466   6.186   2.646   7.915  0.4253  0.3879  0.2792
   34CHL1   H17 2467   6.189   2.754   7.941 -0.3394  1.0596 -2.2371
   34CHL1   C13 2468   6.179   2.640   7.766  0.9324  0.2538  0.8404
   34CHL1   C18 2469   6.164   2.493   7.722 -0.6730 -0.5744 -0.2722
   34CHL1  H18A 2470   6.177   2.478   7.612  0.2703  2.1942 -0.6019
   34CHL1  H18B 2471   6.239   2.426   7.770 -3.1361 -3.9671 -0.7450
   34CHL1  H18C 2472   6.061   2.466   7.754 -0.5251  0.1521  0.8512
   34CHL1   C12 2473   6.061   2.711   7.694 -0.6796  0.4082  0.1728
   34CHL1  H12A 2474   5.963   2.660   7.705 -1.4709  1.3749 -1.8501
   34CHL1  H12B 2475   6.057   2.819   7.722 -1.1444  0.5277 -0.3312
   34CHL1   C11 2476   6.082   2.699   7.541  1.1339  0.0235 -0.4811
   34CHL1  H11A 2477   6.052   2.596   7.511 -0.6434  0.0428  1.0449
   34CHL1  H11B 2478   6.011   2.766   7.487  0.5486 -0.9315 -0.9186
   34CHL1    C9 2479   6.221   2.727   7.484 -0.5434 -0.8625  0.2324
   34CHL1    H9 2480   6.222   2.838   7.485 -1.5242 -0.8179 -0.9908
   34CHL1   C10 2481   6.232   2.681   7.334  0.0917 -0.0801  0.7845
   34CHL1   C19 2482   6.193   2.530   7.319 -0.0527  0.1645  0.1913
   34CHL1  H19A 2483   6.225   2.485   7.222 -0.8066  1.3138 -0.6136
   34CHL1  H19B 2484   6.230   2.469   7.404  1.1301  0.8074  0.1454
   34CHL1  H19C 2485   6.082   2.519   7.317 -0.0448 -0.1534 -2.9270
   34CHL1    C1 2486   6.138   2.756   7.242  0.5859  0.1810  0.5114
   34CHL1   H1A 2487   6.035   2.717   7.255  0.9784 -0.5994  1.3479
   34CHL1   H1B 2488   6.135   2.864   7.269  1.7329  0.8503 -1.7801
   34CHL1    C2 2489   6.170   2.740   7.090 -0.6607  0.5677  0.3037
   34CHL1   H2A 2490   6.105   2.806   7.029 -1.4543  0.0946  0.6171
   34CHL1   H2B 2491   6.142   2.638   7.056  3.7755 -1.1400  1.0686
   34CHL1   C20 2492   6.085   2.581   8.007  0.3435  0.3519 -1.0449
   34CHL1   H20 2493   6.052   2.486   7.960  0.4740 -0.8437  1.1266
   34CHL1   C21 2494   5.959   2.674   8.033  0.9129 -0.1433  0.7802
   34CHL1  H21A 2495   5.927   2.718   7.936  2.7781 -1.2120 -0.3938
   34CHL1  H21B 2496   6.006   2.757   8.090 -0.0813  0.1286  1.2228
   34CHL1  H21C 2497   5.875   2.629   8.090 -0.8599  2.3759  0.3454
   34CHL1   C22 2498   6.152   2.532   8.146  0.2568  0.1700  0.5240
   34CHL1  H22A 2499   6.224   2.450   8.124  0.0581 -0.4457  2.0874
   34CHL1  H22B 2500   6.191   2.625   8.191 -0.4724  0.6917  0.0861
   34CHL1   C23 2501   6.044   2.470   8.240  0.6404  1.0544 -0.4745
   34CHL1  H23A 2502   5.974   2.547   8.277 -0.5013 -0.5923  0.9474
   34CHL1  H23B 2503   5.998   2.389   8.180  1.4117  0.3960 -0.2000
   34CHL1   C24 2504   6.094   2.391   8.370 -0.5399  0.0943  0.0805
   34CHL1  H24A 2505   6.170   2.317   8.340  2.2924  3.9021 -3.0711
   34CHL1  H24B 2506   6.147   2.473   8.423 -2.9514  1.0271  1.1979
   34CHL1   C25 2507   5.990   2.335   8.466  0.7162 -0.6632  0.1798
   34CHL1   H25 2508   5.921   2.271   8.407  0.9227 -0.4662 -0.2759
   34CHL1   C26 2509   6.059   2.252   8.578  0.1509 -0.4524  0.0612
   34CHL1  H26A 2510   6.122   2.180   8.522 -0.5042 -1.6463  0.8276
   34CHL1  H26B 2511   6.120   2.324   8.637 -2.3779  0.7849  1.3236
   34CHL1  H26C 2512   5.980   2.208   8.642 -1.2903  0.4808 -1.0093
   34CHL1   C27 2513   5.902   2.438   8.535 -0.9079 -0.5814 -0.3344
   34CHL1  H27A 2514   5.864   2.519   8.470 -1.3601 -0.0092  0.6182
   34CHL1  H27B 2515   5.811   2.393   8.581 -0.0686 -0.2094  1.8352
   34CHL1  H27C 2516   5.945   2.493   8.622 -1.1490 -1.9263  0.6699
   35CHL1    C3 2517   4.628   0.576   7.008 -0.3352 -0.2879 -0.4192
   35CHL1    H3 2518   4.685   0.619   7.093 -0.7254 -1.1236  0.2802
   35CHL1    O3 2519   4.657   0.653   6.891 -0.0647 -1.1531  0.5163
   35CHL1   H3' 2520   4.657   0.746   6.914  1.1037 -1.0096  0.0241
   35CHL1    C4 2521   4.675   0.433   6.990  0.2974  1.0928  0.1691
   35CHL1   H4A 2522   4.630   0.394   6.897  2.1959  0.8013 -0.6812
   35CHL1   H4B 2523   4.785   0.417   6.982  0.1006 -1.4238  1.5424
   35CHL1    C5 2524   4.643   0.351   7.115  0.1016  0.2204  0.0743
   35CHL1    C6 2525   4.734   0.287   7.189  0.3282  0.3379  0.5901
   35CHL1    H6 2526   4.839   0.276   7.159  0.6040 -0.0769  1.6340
   35CHL1    C7 2527   4.722   0.202   7.313 -1.0932  0.4049 -0.6495
   35CHL1   H7A 2528   4.770   0.104   7.292 -0.3775  0.0903  2.1254
   35CHL1   H7B 2529   4.773   0.260   7.392 -0.4616 -2.5230  1.2596
   35CHL1    C8 2530   4.574   0.167   7.343  0.1039 -0.1126  0.4116
   35CHL1    H8 2531   4.542   0.078   7.284  1.6998 -2.6403  3.0796
   35CHL1   C14 2532   4.556   0.141   7.489 -0.0785  0.0143  0.2380
   35CHL1   H14 2533   4.585   0.239   7.535  0.0649  0.0550  0.0621
   35CHL1   C15 2534   4.651   0.039   7.556 -0.0654 -0.1295 -0.0662
   35CHL1  H15A 2535   4.663  -0.050   7.490  0.0498 -0.3579  0.2612
   35CHL1  H15B 2536   4.751   0.080   7.585  0.3232 -0.4330 -0.9335
   35CHL1   C16 2537   4.580  -0.004   7.686  0.4530  0.2545  0.1230
   35CHL1  H16A 2538   4.575  -0.114   7.674 -2.5761  0.3957 -0.7774
   35CHL1  H16B 2539   4.631   0.021   7.782  0.5316 -0.3785  0.2446
   35CHL1   C17 2540   4.439   0.061   7.689  0.0639  0.1037  0.5924
   35CHL1   H17 2541   4.452   0.159   7.740  2.8466 -1.0616  2.3295
   35CHL1   C13 2542   4.414   0.102   7.535 -0.2333 -1.0490  0.0459
   35CHL1   C18 2543   4.369  -0.027   7.465  0.1994 -0.1389  0.3117
   35CHL1  H18A 2544   4.277  -0.073   7.508  0.5444 -1.3350 -0.1867
   35CHL1  H18B 2545   4.348  -0.016   7.356 -2.1442  2.9215  0.9236
   35CHL1  H18C 2546   4.450  -0.102   7.471  2.0041  1.5476 -1.4324
   35CHL1   C12 2547   4.314   0.217   7.506 -0.8437  0.1321 -0.0817
   35CHL1  H12A 2548   4.206   0.195   7.515 -0.8474  0.1448 -0.0998
   35CHL1  H12B 2549   4.344   0.312   7.556 -0.7551 -0.0610  0.2391
   35CHL1   C11 2550   4.330   0.261   7.356 -0.0743  0.1361  0.6957
   35CHL1  H11A 2551   4.283   0.180   7.296  0.2098  1.0256 -0.7723
   35CHL1  H11B 2552   4.260   0.346   7.346 -1.1857 -0.6892  1.3094
   35CHL1    C9 2553   4.480   0.284   7.310 -0.0396  0.4069  0.1018
   35CHL1    H9 2554   4.521   0.370   7.367 -0.1413  2.6453 -2.9244
   35CHL1   C10 2555   4.495   0.338   7.159  0.5043  0.0944 -0.6687
   35CHL1   C19 2556   4.424   0.236   7.069  0.0695  0.0915  0.1310
   35CHL1  H19A 2557   4.483   0.142   7.061  0.9153  0.4608  1.5800
   35CHL1  H19B 2558   4.318   0.215   7.093  0.5796  0.3970  3.1090
   35CHL1  H19C 2559   4.422   0.275   6.965  1.7960  0.1708  0.1005
   35CHL1    C1 2560   4.445   0.488   7.153 -0.0987 -0.4294 -0.1916
   35CHL1   H1A 2561   4.340   0.494   7.187  0.2944  4.4409  1.0177
   35CHL1   H1B 2562   4.507   0.538   7.231 -0.6486 -2.7378  1.8420
   35CHL1    C2 2563   4.476   0.570   7.024 -0.5838 -0.3979  1.2853
   35CHL1   H2A 2564   4.426   0.669   7.031 -1.2224 -0.5787 -0.2447
   35CHL1   H2B 2565   4.426   0.515   6.942 -1.0280  1.3262  0.3415
   35CHL1   C20 2566   4.345  -0.034   7.772 -0.3804  0.1500 -0.3313
   35CHL1   H20 2567   4.355  -0.138   7.735  0.5855 -0.0129  0.3560
   35CHL1   C21 2568   4.191   0.003   7.761  0.7217 -0.4300 -0.0936
   35CHL1  H21A 2569   4.140  -0.035   7.852  1.2004 -0.6403  0.0917
   35CHL1  H21B 2570   4.147  -0.054   7.677  1.0771 -1.2600  0.2799
   35CHL1  H21C 2571   4.170   0.112   7.752 -1.0295 -0.8547 -1.6420
   35CHL1   C22 2572   4.393  -0.033   7.926 -0.0667  0.1242  0.3412
   35CHL1  H22A 2573   4.341  -0.110   7.987 -0.2354 -0.9616 -1.1319
   35CHL1  H22B 2574   4.498  -0.066   7.932 -0.1181 -0.0628  0.2160
   35CHL1   C23 2575   4.394   0.106   8.005  0.4019  0.4783  0.1021
   35CHL1  H23A 2576   4.468   0.174   7.957  0.4056  0.6598  0.3665
   35CHL1  H23B 2577   4.296   0.156   7.992 -0.7723 -1.7256 -0.0005
   35CHL1   C24 2578   4.438   0.093   8.151 -0.3256 -0.1857 -0.0229
   35CHL1  H24A 2579   4.379   0.013   8.201 -2.0901  2.5246  2.5848
   35CHL1  H24B 2580   4.545   0.065   8.159 -0.7852 -1.4809  2.7199
   35CHL1   C25 2581   4.416   0.222   8.238  0.4348  0.1907 -0.6042
   35CHL1   H25 2582   4.307   0.243   8.233  0.8270  2.5045 -1.0090
   35CHL1   C26 2583   4.459   0.179   8.380 -0.7542 -0.4036 -0.1095
   35CHL1  H26A 2584   4.418   0.081   8.409  1.9199 -1.1651  1.5072
   35CHL1  H26B 2585   4.570   0.176   8.384 -0.7176  1.1104  1.8367
   35CHL1  H26C 2586   4.426   0.250   8.460  0.7261  1.3454 -0.9630
   35CHL1   C27 2587   4.485   0.355   8.186  0.2074 -0.0754 -0.4863
   35CHL1  H27A 2588   4.591   0.339   8.158  0.7430  0.9575  0.8616
   35CHL1  H27B 2589   4.477   0.440   8.257 -1.5661  1.9167 -2.9208
   35CHL1  H27C 2590   4.443   0.383   8.087  2.6580  1.6411 -1.1334
   36CHL1    C3 2591   2.010   1.362   7.115  0.2845  0.2242  0.4841
   36CHL1    H3 2592   1.924   1.298   7.143  1.6664 -1.2699  1.4966
   36CHL1    O3 2593   2.012   1.371   6.975 -0.1381  0.7377  0.6418
   36CHL1   H3' 2594   2.057   1.452   6.951 -0.4047 -0.0044 -2.8256
   36CHL1    C4 2595   2.001   1.500   7.176  0.2023 -0.3422 -0.6417
   36CHL1   H4A 2596   2.087   1.566   7.150  1.4164 -0.6344  2.2342
   36CHL1   H4B 2597   1.904   1.550   7.157  0.1486  0.8508  2.3415
   36CHL1    C5 2598   2.012   1.472   7.330 -0.1314  0.3591  0.5502
   36CHL1    C6 2599   1.909   1.511   7.412 -0.1858 -0.3411 -0.0165
   36CHL1    H6 2600   1.819   1.559   7.370 -0.3366 -1.8116 -1.4525
   36CHL1    C7 2601   1.909   1.506   7.565  0.4422 -0.0695  0.6869
   36CHL1   H7A 2602   1.866   1.598   7.610 -0.0522  0.3370 -0.5612
   36CHL1   H7B 2603   1.835   1.430   7.595 -0.0496 -0.6889 -1.8917
   36CHL1    C8 2604   2.053   1.471   7.616 -0.3199 -0.0840 -0.1399
   36CHL1    H8 2605   2.111   1.564   7.599  0.4380 -0.8154 -1.8955
   36CHL1   C14 2606   2.048   1.437   7.764 -0.1200  1.2538  0.5194
   36CHL1   H14 2607   2.002   1.337   7.777  1.6349  0.2329 -0.6537
   36CHL1   C15 2608   1.975   1.536   7.860 -0.7226  0.5994 -0.0722
   36CHL1  H15A 2609   2.009   1.640   7.842  0.5236  0.7966  2.8786
   36CHL1  H15B 2610   1.866   1.514   7.856 -0.6723  0.1060  0.9864
   36CHL1   C16 2611   2.025   1.493   7.999 -0.0886 -0.4945 -0.3877
   36CHL1  H16A 2612   2.050   1.589   8.050  0.0238 -1.3348  1.2154
   36CHL1  H16B 2613   1.942   1.443   8.053 -0.2903  0.5686  0.3304
   36CHL1   C17 2614   2.151   1.397   7.979 -0.4063 -0.2566 -0.3121
   36CHL1   H17 2615   2.120   1.291   7.988 -1.6330  0.2283  1.8667
   36CHL1   C13 2616   2.195   1.414   7.826  0.9399 -0.3062  0.3813
   36CHL1   C18 2617   2.281   1.545   7.816  0.9726  0.1838 -0.4441
   36CHL1  H18A 2618   2.229   1.636   7.854  1.7281  1.4873 -2.3717
   36CHL1  H18B 2619   2.383   1.538   7.858  1.3783 -1.7859 -1.6222
   36CHL1  H18C 2620   2.287   1.555   7.706  0.8539  0.6739 -0.4055
   36CHL1   C12 2621   2.262   1.297   7.752  0.4609 -0.0386 -0.2157
   36CHL1  H12A 2622   2.357   1.260   7.797 -0.0570  2.5962  3.5602
   36CHL1  H12B 2623   2.194   1.209   7.762 -0.2670  0.5484  0.1270
   36CHL1   C11 2624   2.263   1.323   7.595  0.3029  0.3207  0.0932
   36CHL1  H11A 2625   2.344   1.397   7.577  0.7331 -0.3613 -0.8482
   36CHL1  H11B 2626   2.296   1.232   7.539  0.5982  0.7093 -0.3715
   36CHL1    C9 2627   2.125   1.366   7.540  0.2362 -0.0312 -0.3347
   36CHL1    H9 2628   2.061   1.275   7.551  0.0158  0.0499 -0.9301
   36CHL1   C10 2629   2.136   1.408   7.388  0.5015 -0.4552 -0.2199
   36CHL1   C19 2630   2.253   1.508   7.365 -0.1259 -0.3896  0.2923
   36CHL1  H19A 2631   2.240   1.591   7.438  0.6730 -2.9883  3.6223
   36CHL1  H19B 2632   2.348   1.456   7.388  0.3137 -0.5368 -1.6339
   36CHL1  H19C 2633   2.267   1.532   7.257  0.2058 -2.4617 -0.1710
   36CHL1    C1 2634   2.160   1.285   7.308  0.8077  0.2397 -0.0315
   36CHL1   H1A 2635   2.265   1.253   7.326 -0.4680 -2.5123  3.7565
   36CHL1   H1B 2636   2.123   1.187   7.346 -0.1300  0.6617  0.1911
   36CHL1    C2 2637   2.134   1.289   7.158 -0.8497 -0.2037 -0.2162
   36CHL1   H2A 2638   2.128   1.184   7.122  1.7035 -1.4167  2.4813
   36CHL1   H2B 2639   2.223   1.343   7.118 -0.5470  0.3580  1.1920
   36CHL1   C20 2640   2.261   1.422   8.086 -0.1305 -0.2308  0.1017
   36CHL1   H20 2641   2.292   1.527   8.069 -0.0849 -0.5885 -2.3067
   36CHL1   C21 2642   2.381   1.325   8.066  0.8734 -0.2348 -0.2244
   36CHL1  H21A 2643   2.355   1.217   8.059  1.7566 -0.3831 -1.6292
   36CHL1  H21B 2644   2.452   1.332   8.152 -0.6698 -1.2696  1.2175
   36CHL1  H21C 2645   2.448   1.346   7.980  0.7780  0.2869 -0.1723
   36CHL1   C22 2646   2.204   1.417   8.234 -0.8110  0.4295 -0.4343
   36CHL1  H22A 2647   2.147   1.513   8.240 -0.0151  0.8705  0.2459
   36CHL1  H22B 2648   2.132   1.333   8.249 -0.0841  0.2534  2.6705
   36CHL1   C23 2649   2.304   1.419   8.350 -0.0169 -0.0537  0.5142
   36CHL1  H23A 2650   2.336   1.315   8.370 -1.1921 -0.1566  2.0494
   36CHL1  H23B 2651   2.392   1.478   8.319 -1.1383  1.5832  0.3038
   36CHL1   C24 2652   2.243   1.472   8.486  0.2192 -1.0334  0.0068
   36CHL1  H24A 2653   2.159   1.405   8.515 -0.4495  0.0631  0.6631
   36CHL1  H24B 2654   2.320   1.453   8.564  1.3839 -1.5355 -1.2227
   36CHL1   C25 2655   2.202   1.622   8.494  0.2427 -0.0694  0.3891
   36CHL1   H25 2656   2.134   1.648   8.410  0.5959 -3.3557 -1.0534
   36CHL1   C26 2657   2.128   1.656   8.624 -0.8832  0.4052 -0.6549
   36CHL1  H26A 2658   2.205   1.649   8.704  0.5229  1.4959 -1.8651
   36CHL1  H26B 2659   2.103   1.764   8.628 -0.3223  0.5885 -1.6922
   36CHL1  H26C 2660   2.035   1.600   8.649 -0.7197  0.7403  0.8161
   36CHL1   C27 2661   2.335   1.704   8.476  0.6237  0.1636  0.5178
   36CHL1  H27A 2662   2.326   1.807   8.516  0.4161 -0.2624  1.6191
   36CHL1  H27B 2663   2.424   1.663   8.529  0.3424 -1.6446 -0.3285
   36CHL1  H27C 2664   2.360   1.724   8.370  0.2088 -0.3533  0.3191
   37CHL1    C3 2665   3.952   4.627   6.850  0.4897 -0.2404 -0.3862
   37CHL1    H3 2666   3.876   4.707   6.866  0.0983 -0.7032  0.0649
   37CHL1    O3 2667   3.976   4.625   6.713 -0.1534 -0.2302  0.3613
   37CHL1   H3' 2668   4.031   4.547   6.704  0.1100 -0.2085  1.5123
   37CHL1    C4 2669   4.085   4.659   6.922  0.5722  0.8151 -0.0090
   37CHL1   H4A 2670   4.165   4.595   6.880  1.0296  1.6120 -0.3891
   37CHL1   H4B 2671   4.116   4.755   6.876 -2.3444  0.5761 -2.7942
   37CHL1    C5 2672   4.073   4.641   7.071 -0.7954  0.2056 -0.4923
   37CHL1    C6 2673   4.091   4.745   7.151 -0.5972  0.4513 -0.1216
   37CHL1    H6 2674   4.114   4.848   7.119 -0.4761  1.3031  2.4581
   37CHL1    C7 2675   4.086   4.741   7.296  0.1416 -0.2424 -0.2653
   37CHL1   H7A 2676   4.170   4.790   7.350 -1.3307  1.0106  0.9843
   37CHL1   H7B 2677   4.000   4.797   7.337  1.2579  2.2166 -1.1155
   37CHL1    C8 2678   4.082   4.597   7.354  0.1412  0.8306 -0.6098
   37CHL1    H8 2679   4.188   4.561   7.352  0.1185  0.5249  1.2581
   37CHL1   C14 2680   4.042   4.595   7.501  0.2998 -0.3467  0.1114
   37CHL1   H14 2681   3.937   4.631   7.509 -0.2724 -1.2312 -2.4656
   37CHL1   C15 2682   4.120   4.681   7.603 -0.0047  0.1148 -0.1069
   37CHL1  H15A 2683   4.229   4.667   7.588 -0.0592 -4.7812  2.0512
   37CHL1  H15B 2684   4.096   4.788   7.589 -2.1083 -0.4176 -0.9165
   37CHL1   C16 2685   4.077   4.620   7.737 -0.0051 -0.1191 -0.7505
   37CHL1  H16A 2686   4.172   4.598   7.791 -0.3923 -0.4486 -0.1884
   37CHL1  H16B 2687   4.005   4.688   7.787 -0.7779 -0.8149 -0.8904
   37CHL1   C17 2688   4.008   4.484   7.712 -0.4835 -0.0902 -0.2068
   37CHL1   H17 2689   3.901   4.511   7.714 -0.1185  1.4578 -0.5925
   37CHL1   C13 2690   4.034   4.451   7.564  1.0692 -1.0394 -1.0235
   37CHL1   C18 2691   4.171   4.373   7.561 -0.7201 -0.1321  0.5204
   37CHL1  H18A 2692   4.207   4.364   7.456  2.8644 -0.5869  1.6582
   37CHL1  H18B 2693   4.245   4.432   7.619 -1.0316  0.9505 -0.1533
   37CHL1  H18C 2694   4.158   4.271   7.603 -0.4001 -1.4076 -2.2216
   37CHL1   C12 2695   3.919   4.380   7.489 -0.1806 -0.2681 -0.7076
   37CHL1  H12A 2696   3.892   4.286   7.542  0.7788  0.6621  1.5934
   37CHL1  H12B 2697   3.826   4.437   7.509  0.6710  0.9301 -0.0418
   37CHL1   C11 2698   3.954   4.368   7.341  0.3208  0.1150  0.3021
   37CHL1  H11A 2699   4.045   4.305   7.329 -0.4619 -0.7196 -1.7807
   37CHL1  H11B 2700   3.881   4.313   7.278 -0.9601 -1.0546  2.6686
   37CHL1    C9 2701   3.983   4.510   7.276  0.0538  0.5502 -0.2707
   37CHL1    H9 2702   3.887   4.563   7.288 -0.7318 -0.8416 -0.1986
   37CHL1   C10 2703   4.024   4.504   7.123  0.0725  0.3689 -0.4978
   37CHL1   C19 2704   4.140   4.405   7.085  0.5403  1.2543 -1.2474
   37CHL1  H19A 2705   4.152   4.397   6.974  0.4106  1.0570 -1.2486
   37CHL1  H19B 2706   4.244   4.416   7.124 -0.3220  1.1347  1.2590
   37CHL1  H19C 2707   4.096   4.306   7.109  2.7545  0.0727 -1.8041
   37CHL1    C1 2708   3.901   4.464   7.042  1.1497 -0.3128  0.3876
   37CHL1   H1A 2709   3.864   4.362   7.066  0.1988 -0.0295  0.1967
   37CHL1   H1B 2710   3.824   4.537   7.076  1.4415 -0.2107  0.8374
   37CHL1    C2 2711   3.910   4.489   6.890  0.4498 -0.0194 -0.0789
   37CHL1   H2A 2712   3.811   4.462   6.847  1.5322 -3.3228 -0.7971
   37CHL1   H2B 2713   3.986   4.415   6.855 -0.2506 -1.7779  1.9574
   37CHL1   C20 2714   4.039   4.381   7.821 -0.1886 -0.8558  0.1454
   37CHL1   H20 2715   4.146   4.351   7.818  0.0482 -0.2168  1.3658
   37CHL1   C21 2716   3.962   4.252   7.805 -0.2032  0.8298  0.5763
   37CHL1  H21A 2717   3.982   4.213   7.703  0.8622 -0.2246  1.1672
   37CHL1  H21B 2718   3.854   4.276   7.815 -0.3576  0.0771  0.7233
   37CHL1  H21C 2719   3.999   4.174   7.875 -0.2559 -0.1928 -0.5107
   37CHL1   C22 2720   4.012   4.422   7.968  0.1942 -0.8703  0.3142
   37CHL1  H22A 2721   4.052   4.524   7.989  1.4722 -0.9964 -1.3030
   37CHL1  H22B 2722   3.905   4.437   7.990 -0.4060 -1.4445 -1.9561
   37CHL1   C23 2723   4.075   4.342   8.072 -0.0327  0.7897 -0.4070
   37CHL1  H23A 2724   4.020   4.246   8.082  1.4617 -0.0356  0.2171
   37CHL1  H23B 2725   4.182   4.325   8.047 -0.9798 -1.5273 -3.5782
   37CHL1   C24 2726   4.068   4.412   8.214  0.3816  0.1736 -0.1767
   37CHL1  H24A 2727   4.119   4.511   8.212  1.4300 -0.3686 -0.8866
   37CHL1  H24B 2728   3.963   4.435   8.244  0.9028  1.0688  1.0208
   37CHL1   C25 2729   4.123   4.338   8.340 -0.7990 -0.4567 -0.5262
   37CHL1   H25 2730   4.231   4.336   8.312 -0.6778  0.5655 -0.1412
   37CHL1   C26 2731   4.107   4.418   8.478 -0.0091 -0.0407  0.5740
   37CHL1  H26A 2732   4.001   4.440   8.501 -0.6099 -0.6467 -1.4287
   37CHL1  H26B 2733   4.145   4.353   8.561 -1.4048  1.6218  2.6162
   37CHL1  H26C 2734   4.162   4.514   8.479 -1.6144  0.9629  2.9891
   37CHL1   C27 2735   4.064   4.200   8.361 -0.2893  0.2951  0.1405
   37CHL1  H27A 2736   4.066   4.138   8.269 -0.9194 -0.8888  0.8971
   37CHL1  H27B 2737   4.125   4.138   8.431  1.3993  1.6647 -0.0579
   37CHL1  H27C 2738   3.957   4.204   8.391 -0.2503 -2.0223  0.7870
   38CHL1    C3 2739   4.618   4.235   6.715  0.0045  0.0047 -0.2206
   38CHL1    H3 2740   4.716   4.275   6.751  0.0016 -0.0972 -0.0985
   38CHL1    O3 2741   4.616   4.267   6.578 -0.3652  0.3996  0.0122
   38CHL1   H3' 2742   4.702   4.245   6.543 -0.6826 -0.0281 -0.5205
   38CHL1    C4 2743   4.595   4.082   6.731 -0.1798  0.2895  0.2725
   38CHL1   H4A 2744   4.502   4.061   6.674  0.5980 -3.1346  0.0370
   38CHL1   H4B 2745   4.683   4.042   6.676 -0.6122  2.6967 -2.3519
   38CHL1    C5 2746   4.582   4.036   6.873  0.3943 -0.7757  0.1252
   38CHL1    C6 2747   4.650   3.927   6.915  0.8891 -0.1789  0.5109
   38CHL1    H6 2748   4.709   3.871   6.841  0.6283 -1.6574  1.3908
   38CHL1    C7 2749   4.636   3.860   7.051 -0.0401  0.5511  0.8613
   38CHL1   H7A 2750   4.606   3.754   7.031  1.0853 -0.0857  2.3191
   38CHL1   H7B 2751   4.731   3.851   7.107  0.6819 -1.7109 -0.5953
   38CHL1    C8 2752   4.523   3.930   7.122  0.9598  0.3408  0.3548
   38CHL1    H8 2753   4.434   3.888   7.070 -0.3455  2.7223  0.5390
   38CHL1   C14 2754   4.527   3.888   7.267  0.0161  0.1394 -0.2623
   38CHL1   H14 2755   4.620   3.937   7.304 -0.1810  0.7997 -0.6204
   38CHL1   C15 2756   4.532   3.744   7.318  0.3877  0.5649 -0.5112
   38CHL1  H15A 2757   4.472   3.673   7.256 -1.8267  1.8310  0.0920
   38CHL1  H15B 2758   4.639   3.715   7.311  0.3476  0.6789 -2.0558
   38CHL1   C16 2759   4.487   3.750   7.470  0.0493  0.5183 -0.6584
   38CHL1  H16A 2760   4.412   3.668   7.477  1.6511 -1.2744 -2.9262
   38CHL1  H16B 2761   4.569   3.725   7.540 -1.2090 -0.8985  0.3582
   38CHL1   C17 2762   4.437   3.896   7.501 -0.3186 -0.1039 -0.1352
   38CHL1   H17 2763   4.521   3.957   7.539  1.0932 -0.3913 -2.5898
   38CHL1   C13 2764   4.416   3.949   7.364 -0.2477 -0.6856  0.8144
   38CHL1   C18 2765   4.279   3.910   7.307  0.8173 -0.5989  0.4713
   38CHL1  H18A 2766   4.262   3.944   7.203  0.1714 -2.0403  0.0781
   38CHL1  H18B 2767   4.259   3.801   7.306 -1.8574 -0.2413  2.4714
   38CHL1  H18C 2768   4.196   3.950   7.369  0.0458 -1.8877  0.3109
   38CHL1   C12 2769   4.437   4.098   7.352  0.5873  0.3951  0.6206
   38CHL1  H12A 2770   4.361   4.137   7.423 -2.6197 -0.5939 -1.9611
   38CHL1  H12B 2771   4.532   4.119   7.405  0.8383  0.0366  0.3193
   38CHL1   C11 2772   4.427   4.164   7.210  0.1225  0.3837 -0.1653
   38CHL1  H11A 2773   4.320   4.157   7.180  0.5390 -1.6691 -1.3917
   38CHL1  H11B 2774   4.450   4.272   7.213  0.3471  0.3346 -0.1182
   38CHL1    C9 2775   4.515   4.081   7.111  0.0084 -0.8950 -0.2894
   38CHL1    H9 2776   4.617   4.117   7.137 -0.8472  1.6690 -0.2142
   38CHL1   C10 2777   4.487   4.124   6.960  1.1093  0.1441  0.2476
   38CHL1   C19 2778   4.334   4.092   6.926  0.0610  0.1244  0.4302
   38CHL1  H19A 2779   4.316   4.119   6.820 -0.7915  0.5038  0.6606
   38CHL1  H19B 2780   4.312   3.990   6.964  1.4491  0.1473  1.4216
   38CHL1  H19C 2781   4.256   4.152   6.978 -2.8744 -1.1501 -2.2420
   38CHL1    C1 2782   4.513   4.276   6.944 -0.2437  0.7392 -0.6025
   38CHL1   H1A 2783   4.434   4.336   6.994 -0.7523 -1.0401  0.8584
   38CHL1   H1B 2784   4.608   4.305   6.993 -0.5723  2.9187 -1.1472
   38CHL1    C2 2785   4.528   4.329   6.799  0.2625  0.2372 -0.4518
   38CHL1   H2A 2786   4.550   4.437   6.786 -0.2142  0.4796  0.6552
   38CHL1   H2B 2787   4.423   4.324   6.763  0.6064  2.1996 -1.8364
   38CHL1   C20 2788   4.320   3.895   7.600 -0.0314 -0.2066 -0.0328
   38CHL1   H20 2789   4.240   3.826   7.564 -2.7800  2.4892  0.5100
   38CHL1   C21 2790   4.253   4.043   7.621 -0.0556  1.5122  0.1135
   38CHL1  H21A 2791   4.194   4.073   7.531  1.3957  1.3584 -0.9198
   38CHL1  H21B 2792   4.331   4.117   7.647  0.5572  0.5957  0.9214
   38CHL1  H21C 2793   4.176   4.034   7.701  0.2215  0.8425  0.3081
   38CHL1   C22 2794   4.360   3.847   7.740 -0.4629  0.0910 -0.8714
   38CHL1  H22A 2795   4.279   3.873   7.811 -1.3059 -0.3893 -1.6239
   38CHL1  H22B 2796   4.396   3.742   7.751  0.1557  0.4650  0.8296
   38CHL1   C23 2797   4.487   3.916   7.800 -0.3706 -0.0710 -0.2299
   38CHL1  H23A 2798   4.574   3.903   7.732 -0.0766  0.6083  0.0078
   38CHL1  H23B 2799   4.470   4.026   7.797 -1.8244 -0.2466  0.7229
   38CHL1   C24 2800   4.522   3.872   7.944 -0.1063 -0.0610 -0.3648
   38CHL1  H24A 2801   4.542   3.763   7.935 -0.1078 -0.4347  3.0970
   38CHL1  H24B 2802   4.614   3.912   7.991 -0.6138  0.4507  0.2120
   38CHL1   C25 2803   4.416   3.883   8.061  0.0343  0.2358  0.2159
   38CHL1   H25 2804   4.323   3.838   8.022  0.7276  0.2760 -1.5962
   38CHL1   C26 2805   4.455   3.806   8.193  0.6483 -0.4202 -0.0488
   38CHL1  H26A 2806   4.377   3.806   8.272  0.8248 -3.2119  0.2328
   38CHL1  H26B 2807   4.470   3.698   8.171  1.4428 -0.5326  0.9934
   38CHL1  H26C 2808   4.553   3.845   8.229  1.3318 -1.3637 -0.8136
   38CHL1   C27 2809   4.373   4.029   8.086 -0.4256  0.1400  0.4005
   38CHL1  H27A 2810   4.307   4.014   8.174 -0.9060  0.0140  0.0290
   38CHL1  H27B 2811   4.459   4.093   8.114 -0.6478  0.7098 -0.1826
   38CHL1  H27C 2812   4.319   4.066   7.996  0.4988  1.4924  0.3723
   39CHL1    C3 2813   6.785   4.086   6.861 -0.1561 -0.3993  0.2609
   39CHL1    H3 2814   6.680   4.061   6.887 -0.3290 -0.0591 -0.1015
   39CHL1    O3 2815   6.794   4.101   6.719 -0.2802 -0.6011 -0.3761
   39CHL1   H3' 2816   6.878   4.063   6.693  0.7750  0.9528  0.5906
   39CHL1    C4 2817   6.828   4.214   6.929 -0.6695 -0.3856 -0.0767
   39CHL1   H4A 2818   6.937   4.228   6.911 -0.9597  0.2246 -1.5018
   39CHL1   H4B 2819   6.779   4.303   6.885  3.0065  1.7853 -0.1902
   39CHL1    C5 2820   6.804   4.199   7.081 -0.2256  0.4959  0.3423
   39CHL1    C6 2821   6.734   4.290   7.153 -0.1822  0.0554  0.4918
   39CHL1    H6 2822   6.710   4.384   7.102  0.3228 -0.9327 -1.6860
   39CHL1    C7 2823   6.712   4.285   7.300 -0.0988 -0.3834  0.5614
   39CHL1   H7A 2824   6.708   4.386   7.347  1.0036 -0.5874  1.1243
   39CHL1   H7B 2825   6.611   4.244   7.315 -0.2199  0.4034  2.0822
   39CHL1    C8 2826   6.805   4.189   7.378 -0.3740  0.1085 -0.9937
   39CHL1    H8 2827   6.907   4.231   7.392 -0.8221  1.6468 -2.0059
   39CHL1   C14 2828   6.737   4.144   7.508 -0.3071 -0.4274  0.0015
   39CHL1   H14 2829   6.652   4.081   7.474  0.3156 -0.2927 -1.9748
   39CHL1   C15 2830   6.687   4.255   7.600  0.6994  0.7520  0.3661
   39CHL1  H15A 2831   6.743   4.350   7.592  2.6041 -0.3185  0.2644
   39CHL1  H15B 2832   6.582   4.273   7.570  0.7365 -0.3858 -0.5467
   39CHL1   C16 2833   6.697   4.200   7.742  0.1846  0.0321  0.3386
   39CHL1  H16A 2834   6.778   4.255   7.795  0.6198  0.0202 -0.3030
   39CHL1  H16B 2835   6.602   4.208   7.800  0.7973 -0.9859  1.5251
   39CHL1   C17 2836   6.748   4.057   7.727  0.8127  0.0468 -1.0425
   39CHL1   H17 2837   6.657   3.998   7.705 -1.3169  0.7960  4.2886
   39CHL1   C13 2838   6.830   4.049   7.595  0.1243  0.2719  0.1525
   39CHL1   C18 2839   6.962   4.117   7.616 -0.4479  0.4762 -0.0021
   39CHL1  H18A 2840   7.008   4.065   7.703  1.1890  0.7832 -0.6619
   39CHL1  H18B 2841   7.025   4.101   7.526 -0.6796  1.9712 -0.4512
   39CHL1  H18C 2842   6.960   4.226   7.638  1.7100  0.7766 -1.0572
   39CHL1   C12 2843   6.848   3.922   7.516 -0.1813 -0.1543  0.1579
   39CHL1  H12A 2844   6.930   3.860   7.558 -3.3442 -3.6448  1.7536
   39CHL1  H12B 2845   6.758   3.857   7.518 -0.3302  0.0418 -0.1562
   39CHL1   C11 2846   6.883   3.932   7.365 -0.3827  0.2616 -0.2237
   39CHL1  H11A 2847   6.992   3.955   7.356 -0.6076  1.3589 -0.2998
   39CHL1  H11B 2848   6.873   3.838   7.306 -0.2023  0.8166 -1.1586
   39CHL1    C9 2849   6.814   4.060   7.297 -0.2841  0.3311 -0.6832
   39CHL1    H9 2850   6.712   4.020   7.281 -0.1511 -0.2299 -0.1869
   39CHL1   C10 2851   6.860   4.075   7.142 -0.1052  0.6597 -0.4043
   39CHL1   C19 2852   7.012   4.103   7.145 -1.0184 -0.2586 -0.3199
   39CHL1  H19A 2853   7.044   4.171   7.227 -0.1890  0.6617 -1.3707
   39CHL1  H19B 2854   7.065   4.007   7.163 -1.0519 -0.2611 -0.2320
   39CHL1  H19C 2855   7.052   4.129   7.045 -2.4507 -0.3086 -0.9289
   39CHL1    C1 2856   6.834   3.946   7.059  0.3177 -0.4662  0.1089
   39CHL1   H1A 2857   6.901   3.865   7.095 -0.3599 -0.0781  2.3751
   39CHL1   H1B 2858   6.730   3.906   7.063  0.5203 -0.9198  1.3763
   39CHL1    C2 2859   6.873   3.972   6.915 -0.3575 -0.6981 -0.0738
   39CHL1   H2A 2860   6.849   3.888   6.846 -2.3757 -1.0911  1.0226
   39CHL1   H2B 2861   6.977   4.007   6.901 -1.3462  2.4740 -0.1549
   39CHL1   C20 2862   6.800   3.990   7.852 -0.1032  0.2118 -0.2645
   39CHL1   H20 2863   6.902   4.020   7.884 -1.1493 -0.1839  4.0349
   39CHL1   C21 2864   6.798   3.834   7.826 -0.1088 -0.9911 -0.2052
   39CHL1  H21A 2865   6.831   3.769   7.910 -2.9731 -0.2142  1.6777
   39CHL1  H21B 2866   6.867   3.801   7.745 -0.6596 -2.7497 -0.0091
   39CHL1  H21C 2867   6.696   3.806   7.794 -0.1524  1.7980 -3.0109
   39CHL1   C22 2868   6.722   4.034   7.982  0.1923  0.7264 -0.4727
   39CHL1  H22A 2869   6.733   4.142   8.003 -2.3960  0.8829  0.4325
   39CHL1  H22B 2870   6.614   4.006   7.981  0.4465 -0.3493 -0.0151
   39CHL1   C23 2871   6.783   3.973   8.106 -0.6250 -0.4250  0.4177
   39CHL1  H23A 2872   6.773   3.863   8.093 -0.7627 -0.2342 -1.2907
   39CHL1  H23B 2873   6.890   4.002   8.111 -0.6890 -0.3816  2.0067
   39CHL1   C24 2874   6.712   4.021   8.230  0.5463 -0.4199 -0.2771
   39CHL1  H24A 2875   6.750   4.120   8.265 -2.5043  0.7594  0.0684
   39CHL1  H24B 2876   6.601   4.027   8.223 -0.0495 -1.5274  4.4405
   39CHL1   C25 2877   6.746   3.922   8.343  0.5130  0.7766 -0.6321
   39CHL1   H25 2878   6.854   3.902   8.327  0.3804 -0.4983 -0.0741
   39CHL1   C26 2879   6.725   3.968   8.483  0.2079  0.4523 -0.8484
   39CHL1  H26A 2880   6.756   3.895   8.561  0.2979 -0.5742 -1.8170
   39CHL1  H26B 2881   6.776   4.066   8.496 -1.8342  1.5014 -0.4303
   39CHL1  H26C 2882   6.615   3.978   8.491  0.0991 -1.5465  1.1531
   39CHL1   C27 2883   6.684   3.777   8.315 -0.1238 -0.0798  0.0658
   39CHL1  H27A 2884   6.575   3.788   8.338 -0.7531 -0.4994 -2.4559
   39CHL1  H27B 2885   6.691   3.743   8.210 -0.7353 -1.7978  0.5526
   39CHL1  H27C 2886   6.725   3.693   8.374 -1.3844 -0.4427  0.4641
   40CHL1    C3 2887   3.464   2.406   6.728  0.0169  0.2116 -0.0735
   40CHL1    H3 2888   3.357   2.416   6.755 -0.5590  1.0393 -2.3924
   40CHL1    O3 2889   3.475   2.372   6.590 -0.1070  0.4071  0.1784
   40CHL1   H3' 2890   3.446   2.448   6.539 -1.0606 -0.1934 -0.1918
   40CHL1    C4 2891   3.537   2.536   6.754  0.3277  0.4141  0.3256
   40CHL1   H4A 2892   3.643   2.532   6.721  0.3220  1.9812  0.0461
   40CHL1   H4B 2893   3.504   2.615   6.683  0.3341 -0.1068 -0.2722
   40CHL1    C5 2894   3.518   2.584   6.894 -0.2220  0.2337 -1.1339
   40CHL1    C6 2895   3.456   2.705   6.922  0.1735 -0.6519 -0.3883
   40CHL1    H6 2896   3.426   2.767   6.836  0.8747 -0.9979 -0.8941
   40CHL1    C7 2897   3.454   2.772   7.048 -0.2462 -0.1075  0.2900
   40CHL1   H7A 2898   3.502   2.872   7.036 -2.5927  1.2506  1.4430
   40CHL1   H7B 2899   3.353   2.784   7.092 -0.1937  2.0080 -0.0482
   40CHL1    C8 2900   3.524   2.690   7.157  0.0572 -0.4623 -0.1457
   40CHL1    H8 2901   3.632   2.714   7.165 -0.3281  1.9266 -1.3562
   40CHL1   C14 2902   3.472   2.739   7.287  0.1808  0.6348  0.2632
   40CHL1   H14 2903   3.363   2.715   7.295 -0.4650  3.4247  0.6527
   40CHL1   C15 2904   3.487   2.881   7.314 -0.1116  0.1116  0.0014
   40CHL1  H15A 2905   3.589   2.923   7.303 -0.5295  1.3146  0.5281
   40CHL1  H15B 2906   3.414   2.936   7.251  1.3821  0.9291 -1.1005
   40CHL1   C16 2907   3.449   2.888   7.463  0.4756 -0.0224 -0.6336
   40CHL1  H16A 2908   3.521   2.946   7.525 -0.5452  0.8613 -0.2521
   40CHL1  H16B 2909   3.345   2.921   7.483 -0.7227 -3.4266 -0.4978
   40CHL1   C17 2910   3.462   2.744   7.514  0.2591 -0.4045 -0.2083
   40CHL1   H17 2911   3.359   2.701   7.518 -0.1218  0.5847  1.4978
   40CHL1   C13 2912   3.541   2.668   7.401 -0.4800  0.6384 -0.7234
   40CHL1   C18 2913   3.695   2.699   7.414  0.3811 -0.4542 -0.1869
   40CHL1  H18A 2914   3.763   2.658   7.336 -1.5913  0.2872 -2.3976
   40CHL1  H18B 2915   3.715   2.809   7.421  1.5984 -0.5839 -1.2539
   40CHL1  H18C 2916   3.729   2.648   7.507  1.7708  2.0025  0.7674
   40CHL1   C12 2917   3.511   2.511   7.391  0.6652  0.1220 -0.1574
   40CHL1  H12A 2918   3.567   2.455   7.469  0.6027  0.9760  0.5212
   40CHL1  H12B 2919   3.402   2.494   7.390  0.5844  0.4334  1.2077
   40CHL1   C11 2920   3.564   2.459   7.260  0.3841  0.3289  0.8133
   40CHL1  H11A 2921   3.674   2.476   7.265  0.1222  2.7310  0.0331
   40CHL1  H11B 2922   3.545   2.351   7.246 -2.1878  0.6875  1.0741
   40CHL1    C9 2923   3.508   2.536   7.140 -0.5272  0.2880  0.6376
   40CHL1    H9 2924   3.399   2.517   7.138 -0.7629  1.6238 -0.6577
   40CHL1   C10 2925   3.568   2.484   7.002  0.3493 -0.2798 -0.8074
   40CHL1   C19 2926   3.720   2.474   7.010 -0.2873 -0.2037 -0.5639
   40CHL1  H19A 2927   3.753   2.578   7.034 -2.7326  0.6886 -0.7399
   40CHL1  H19B 2928   3.766   2.403   7.082  0.9184  0.3530 -0.7495
   40CHL1  H19C 2929   3.753   2.449   6.907 -1.0520  1.4656 -1.2595
   40CHL1    C1 2930   3.515   2.341   6.959 -0.0145 -1.1513  0.3951
   40CHL1   H1A 2931   3.568   2.266   7.023  0.8491  0.2808  1.4098
   40CHL1   H1B 2932   3.407   2.332   6.982 -0.0875 -1.5491 -0.0884
   40CHL1    C2 2933   3.530   2.307   6.811  0.2188  0.2668 -0.0074
   40CHL1   H2A 2934   3.475   2.212   6.792 -0.5566  0.5711  0.6797
   40CHL1   H2B 2935   3.637   2.291   6.783  0.4808  0.5279  0.8054
   40CHL1   C20 2936   3.513   2.733   7.657  0.4302 -0.4824 -0.0887
   40CHL1   H20 2937   3.613   2.780   7.663 -0.8201  2.4575 -0.8107
   40CHL1   C21 2938   3.545   2.587   7.704 -0.3426  0.0491  0.4497
   40CHL1  H21A 2939   3.557   2.593   7.814  2.6355 -1.4605  0.2987
   40CHL1  H21B 2940   3.646   2.558   7.669 -0.6428  0.0215 -0.4154
   40CHL1  H21C 2941   3.471   2.508   7.679 -0.0655  0.1073 -0.6024
   40CHL1   C22 2942   3.400   2.784   7.758  0.1478 -0.1056  0.3629
   40CHL1  H22A 2943   3.338   2.867   7.717  0.6602 -0.4706 -1.2278
   40CHL1  H22B 2944   3.333   2.700   7.785  2.0363 -1.5258  0.8159
   40CHL1   C23 2945   3.461   2.825   7.895  1.0264  0.0529  0.6635
   40CHL1  H23A 2946   3.566   2.791   7.886  0.1065 -2.3448 -4.4281
   40CHL1  H23B 2947   3.475   2.935   7.898  0.3024  0.1444  2.3825
   40CHL1   C24 2948   3.380   2.791   8.016  0.5668  0.2780  0.6941
   40CHL1  H24A 2949   3.294   2.860   8.023 -1.8143 -2.2840 -1.3312
   40CHL1  H24B 2950   3.334   2.690   8.009 -1.4574  1.1818  0.5272
   40CHL1   C25 2951   3.464   2.778   8.144  0.3481  0.5082  0.0746
   40CHL1   H25 2952   3.516   2.877   8.148  0.4608  0.4052  1.8884
   40CHL1   C26 2953   3.372   2.778   8.266  0.1242  0.3174  0.4281
   40CHL1  H26A 2954   3.310   2.687   8.265 -2.5710  2.0397  0.3312
   40CHL1  H26B 2955   3.439   2.774   8.355  0.4139 -2.6862  0.1785
   40CHL1  H26C 2956   3.297   2.860   8.273 -0.9606 -0.6294  0.0245
   40CHL1   C27 2957   3.562   2.660   8.153 -0.1040  0.2274  0.6886
   40CHL1  H27A 2958   3.604   2.644   8.051  0.9905 -0.5139  1.2318
   40CHL1  H27B 2959   3.648   2.675   8.220 -0.2879 -0.0403  0.9897
   40CHL1  H27C 2960   3.504   2.570   8.184 -1.0678  0.5841 -0.0230
   41CHL1    C3 2961   5.815   3.624   7.025 -0.3949  0.2262 -0.5040
   41CHL1    H3 2962   5.712   3.664   7.025 -0.6103 -0.1863  1.9698
   41CHL1    O3 2963   5.863   3.592   6.894  0.3934 -0.4411 -0.2634
   41CHL1   H3' 2964   5.949   3.634   6.881 -0.0868  0.8599  0.6101
   41CHL1    C4 2965   5.906   3.729   7.090 -0.3233  0.2939  0.2563
   41CHL1   H4A 2966   6.014   3.709   7.072 -0.1788 -0.4652  1.8607
   41CHL1   H4B 2967   5.870   3.817   7.032 -1.3278 -0.3581 -0.1427
   41CHL1    C5 2968   5.903   3.753   7.238 -0.2972 -0.6895  0.4835
   41CHL1    C6 2969   5.881   3.877   7.287  0.0651  0.4091  0.1774
   41CHL1    H6 2970   5.862   3.962   7.220 -0.0519  0.3529  0.1391
   41CHL1    C7 2971   5.872   3.906   7.435  0.3927 -0.1596  0.4394
   41CHL1   H7A 2972   5.920   4.002   7.467  1.3433  0.3463 -2.2391
   41CHL1   H7B 2973   5.763   3.922   7.447 -0.2868 -1.1055 -3.1453
   41CHL1    C8 2974   5.914   3.790   7.524  0.6251  0.1432  0.0704
   41CHL1    H8 2975   6.024   3.786   7.530  0.9174 -3.1317 -3.4720
   41CHL1   C14 2976   5.840   3.803   7.660 -0.2575 -0.7146 -0.1909
   41CHL1   H14 2977   5.732   3.792   7.637  0.0323 -0.0771 -1.9729
   41CHL1   C15 2978   5.851   3.937   7.734 -0.3894  0.2539 -0.7505
   41CHL1  H15A 2979   5.960   3.959   7.731 -0.1439 -0.9903 -1.9418
   41CHL1  H15B 2980   5.795   4.028   7.707 -1.3037  0.0749  0.4679
   41CHL1   C16 2981   5.820   3.907   7.885 -0.0990  0.2467  0.3284
   41CHL1  H16A 2982   5.903   3.939   7.951 -0.7605  0.9554  0.8320
   41CHL1  H16B 2983   5.727   3.956   7.920  0.1538 -0.0438  1.4269
   41CHL1   C17 2984   5.812   3.754   7.893  0.2356  0.3152 -0.4487
   41CHL1   H17 2985   5.704   3.732   7.882 -0.0562  1.4538 -0.0688
   41CHL1   C13 2986   5.886   3.701   7.765  0.1496  0.3359 -0.7163
   41CHL1   C18 2987   6.042   3.697   7.784 -0.8092 -0.1820  0.5552
   41CHL1  H18A 2988   6.106   3.669   7.697 -0.6877 -0.0482  0.6023
   41CHL1  H18B 2989   6.076   3.793   7.827 -1.4232  0.8243 -1.1219
   41CHL1  H18C 2990   6.074   3.617   7.854  1.9174 -0.2700 -0.6702
   41CHL1   C12 2991   5.839   3.569   7.716  0.2467 -0.5027  0.1931
   41CHL1  H12A 2992   5.870   3.482   7.776  0.3570  0.1178  1.0577
   41CHL1  H12B 2993   5.729   3.572   7.700  0.4945 -1.3308 -1.9603
   41CHL1   C11 2994   5.885   3.542   7.570  0.2463  0.6684 -0.0934
   41CHL1  H11A 2995   5.996   3.543   7.575  0.5332 -1.5624 -3.1698
   41CHL1  H11B 2996   5.842   3.443   7.543 -0.3200  0.1682  2.3723
   41CHL1    C9 2997   5.862   3.657   7.469 -1.0132 -0.1690  0.1126
   41CHL1    H9 2998   5.751   3.657   7.463 -0.9812 -0.2008 -0.5320
   41CHL1   C10 2999   5.909   3.627   7.330 -0.5740 -0.4214 -0.5095
   41CHL1   C19 3000   6.054   3.570   7.333 -0.9050  0.4546  0.5820
   41CHL1  H19A 3001   6.065   3.480   7.397 -1.7411  1.3274  1.9922
   41CHL1  H19B 3002   6.079   3.541   7.228  1.1720  0.2561  1.0921
   41CHL1  H19C 3003   6.130   3.641   7.371  1.4488 -1.9139  0.5986
   41CHL1    C1 3004   5.806   3.528   7.263  0.1763  0.3637 -0.3792
   41CHL1   H1A 3005   5.814   3.432   7.319  1.5873  0.6336 -0.0600
   41CHL1   H1B 3006   5.707   3.564   7.296  1.5522  4.0641  0.1501
   41CHL1    C2 3007   5.814   3.497   7.113 -0.1539 -0.1598  0.6431
   41CHL1   H2A 3008   5.732   3.427   7.089 -0.0517  0.4583 -1.7942
   41CHL1   H2B 3009   5.917   3.457   7.098  0.4196  1.5995 -0.4496
   41CHL1   C20 3010   5.854   3.708   8.029 -0.6346 -0.1735  0.1730
   41CHL1   H20 3011   5.965   3.719   8.034 -0.2115 -1.7941 -2.9812
   41CHL1   C21 3012   5.816   3.557   8.040  0.1159  0.8403 -0.7678
   41CHL1  H21A 3013   5.884   3.487   7.987  0.8034  0.8681  0.0722
   41CHL1  H21B 3014   5.707   3.534   8.032  0.1088 -1.3166  2.9883
   41CHL1  H21C 3015   5.843   3.527   8.143  2.0861 -1.4864 -1.8645
   41CHL1   C22 3016   5.792   3.786   8.145  0.2267 -0.0522  0.5964
   41CHL1  H22A 3017   5.820   3.893   8.132  0.7723 -0.3613 -1.0190
   41CHL1  H22B 3018   5.683   3.767   8.144  0.6286 -2.9495 -1.3563
   41CHL1   C23 3019   5.836   3.750   8.293  0.0831 -0.7166  0.8519
   41CHL1  H23A 3020   5.820   3.644   8.322  1.0377 -0.4690  2.4166
   41CHL1  H23B 3021   5.938   3.783   8.321  0.0784 -2.4593  3.1862
   41CHL1   C24 3022   5.729   3.821   8.388 -0.1772 -0.0536  0.6922
   41CHL1  H24A 3023   5.712   3.927   8.360 -1.3045 -0.4953 -0.3670
   41CHL1  H24B 3024   5.627   3.780   8.371 -0.4344  1.2101 -1.0155
   41CHL1   C25 3025   5.771   3.826   8.534  0.4312 -0.0019 -0.2052
   41CHL1   H25 3026   5.790   3.721   8.566 -0.0947 -0.6493 -1.8649
   41CHL1   C26 3027   5.884   3.924   8.566 -0.2020 -0.4866  0.2525
   41CHL1  H26A 3028   5.866   4.027   8.527  2.3251 -0.5556 -1.3318
   41CHL1  H26B 3029   5.891   3.934   8.676  0.6602 -1.0685  0.2570
   41CHL1  H26C 3030   5.988   3.908   8.529  0.0679  1.9424 -0.2215
   41CHL1   C27 3031   5.648   3.879   8.606 -0.5723  0.7037 -0.5227
   41CHL1  H27A 3032   5.559   3.812   8.601  0.7147 -1.5683  3.3567
   41CHL1  H27B 3033   5.672   3.891   8.713  0.3922  0.9453 -0.7576
   41CHL1  H27C 3034   5.635   3.983   8.569  0.2344  1.1141  0.3275
   42CHL1    C3 3035   2.179   2.256   7.109 -0.2733 -0.4087 -0.0396
   42CHL1    H3 3036   2.171   2.156   7.156  1.3251 -1.7565 -2.4404
   42CHL1    O3 3037   2.207   2.243   6.972  0.2140  0.3334 -0.0260
   42CHL1   H3' 3038   2.237   2.331   6.950 -0.9098  0.7124 -0.0927
   42CHL1    C4 3039   2.043   2.325   7.116 -0.3597 -0.3620  0.5031
   42CHL1   H4A 3040   2.036   2.415   7.050 -2.6930 -0.5673  0.3837
   42CHL1   H4B 3041   1.958   2.261   7.084 -0.3611 -0.9608  1.6670
   42CHL1    C5 3042   2.006   2.364   7.258  0.4872 -0.3905 -0.4346
   42CHL1    C6 3043   1.886   2.335   7.317 -0.3282 -0.3009  0.4363
   42CHL1    H6 3044   1.821   2.283   7.245 -0.2070 -0.9424  0.7834
   42CHL1    C7 3045   1.839   2.370   7.445 -0.2643 -0.0026 -0.7275
   42CHL1   H7A 3046   1.736   2.409   7.437  0.0310  0.4042 -3.5102
   42CHL1   H7B 3047   1.836   2.280   7.510  0.1588  1.4310  1.4053
   42CHL1    C8 3048   1.938   2.471   7.512  0.4022  0.4911 -0.1586
   42CHL1    H8 3049   1.915   2.575   7.481 -3.7435 -0.4633 -0.8304
   42CHL1   C14 3050   1.901   2.453   7.663 -0.3557 -0.5575  0.6530
   42CHL1   H14 3051   1.932   2.347   7.675 -0.6648 -1.4223 -4.2398
   42CHL1   C15 3052   1.750   2.469   7.700 -0.4240  0.5615  0.8413
   42CHL1  H15A 3053   1.710   2.563   7.656 -0.2062  0.3390  0.1552
   42CHL1  H15B 3054   1.692   2.374   7.696  2.3259 -1.1789 -2.1056
   42CHL1   C16 3055   1.755   2.499   7.853 -0.2501 -0.3782  0.3429
   42CHL1  H16A 3056   1.720   2.604   7.861  2.1178  0.6821 -1.8155
   42CHL1  H16B 3057   1.693   2.433   7.918  0.5391  0.6684  2.2448
   42CHL1   C17 3058   1.908   2.496   7.889  0.0812  0.1230  0.0087
   42CHL1   H17 3059   1.944   2.392   7.903  3.0826  0.8676 -1.2926
   42CHL1   C13 3060   1.983   2.534   7.757 -0.0699 -0.1252 -0.2958
   42CHL1   C18 3061   1.970   2.683   7.730 -0.0867 -0.2888 -0.4991
   42CHL1  H18A 3062   2.019   2.739   7.812  2.3751 -2.0901 -0.6537
   42CHL1  H18B 3063   2.027   2.704   7.637  1.6905 -0.4344  0.5248
   42CHL1  H18C 3064   1.864   2.714   7.711  0.3228  1.0649 -0.6802
   42CHL1   C12 3065   2.135   2.497   7.748 -0.3808  0.5852  0.3406
   42CHL1  H12A 3066   2.199   2.571   7.801  2.0125  0.1294 -1.7072
   42CHL1  H12B 3067   2.155   2.396   7.788  1.6174  0.6622 -0.3015
   42CHL1   C11 3068   2.179   2.505   7.596  0.4493  0.4253  0.8432
   42CHL1  H11A 3069   2.197   2.613   7.578  1.3532  0.2123  0.3799
   42CHL1  H11B 3070   2.277   2.453   7.586 -0.4097 -1.1784  0.4259
   42CHL1    C9 3071   2.085   2.431   7.491 -0.4236  0.4629 -0.5040
   42CHL1    H9 3072   2.095   2.325   7.523  0.8058  0.2667 -1.4658
   42CHL1   C10 3073   2.119   2.434   7.343 -0.2731  0.1219 -0.2797
   42CHL1   C19 3074   2.138   2.579   7.289 -0.2717  0.2761  0.6525
   42CHL1  H19A 3075   2.146   2.578   7.178  0.5634  1.6290  0.6805
   42CHL1  H19B 3076   2.060   2.656   7.313  0.9900  1.9451 -0.3740
   42CHL1  H19C 3077   2.222   2.628   7.342 -2.7307  2.6458  2.7265
   42CHL1    C1 3078   2.251   2.358   7.322  0.5616 -0.7160 -0.2913
   42CHL1   H1A 3079   2.331   2.412   7.377  1.6269 -2.0745 -0.4233
   42CHL1   H1B 3080   2.243   2.255   7.365 -1.9924  0.3137  1.9901
   42CHL1    C2 3081   2.286   2.335   7.176 -1.0376  0.5316 -0.2501
   42CHL1   H2A 3082   2.382   2.278   7.172 -0.7478  0.4680  3.7468
   42CHL1   H2B 3083   2.305   2.435   7.132 -0.6927 -0.0560 -1.4751
   42CHL1   C20 3084   1.945   2.584   8.022  0.0329  0.0761  0.6561
   42CHL1   H20 3085   1.946   2.693   8.005  0.0884  0.0967  0.7901
   42CHL1   C21 3086   2.089   2.548   8.072 -0.6915  0.0220 -0.7509
   42CHL1  H21A 3087   2.098   2.603   8.169 -2.2562 -0.7547 -0.1363
   42CHL1  H21B 3088   2.168   2.582   8.002  1.7095 -2.3762  0.5813
   42CHL1  H21C 3089   2.107   2.441   8.096 -1.5683  0.3454  1.6366
   42CHL1   C22 3090   1.849   2.544   8.138  0.3166  0.1434 -0.4316
   42CHL1  H22A 3091   1.745   2.561   8.101 -0.3725  0.8407  1.6542
   42CHL1  H22B 3092   1.851   2.434   8.148  0.5943  0.1511 -0.4066
   42CHL1   C23 3093   1.873   2.604   8.278  0.2068  0.0981 -0.2439
   42CHL1  H23A 3094   1.946   2.539   8.331 -0.6778  1.0021  2.2255
   42CHL1  H23B 3095   1.898   2.710   8.260  1.6733 -0.2978 -0.6350
   42CHL1   C24 3096   1.738   2.596   8.352  0.2064  0.2220  0.4923
   42CHL1  H24A 3097   1.661   2.635   8.282 -0.9113 -1.3896  0.7552
   42CHL1  H24B 3098   1.716   2.487   8.360 -1.4456  0.5120  0.4104
   42CHL1   C25 3099   1.734   2.670   8.486  0.2268 -0.3389  0.6553
   42CHL1   H25 3100   1.754   2.777   8.465 -2.9131  0.3226  0.5621
   42CHL1   C26 3101   1.595   2.663   8.560  0.5786  0.7875  0.2089
   42CHL1  H26A 3102   1.514   2.709   8.498  1.2578  0.7550 -0.7227
   42CHL1  H26B 3103   1.559   2.559   8.577  1.4177  0.2655 -1.0465
   42CHL1  H26C 3104   1.604   2.728   8.650 -1.5732  1.2020  0.1794
   42CHL1   C27 3105   1.850   2.620   8.585  0.5694  0.5848  0.1441
   42CHL1  H27A 3106   1.829   2.661   8.686  0.9124  2.1619 -0.3950
   42CHL1  H27B 3107   1.948   2.653   8.546  0.6217  1.9285  1.3136
   42CHL1  H27C 3108   1.849   2.509   8.586 -1.2012  0.4425 -3.0644
   43CHL1    C3 3109   6.389   0.274   6.675  0.0721 -0.0438 -0.0945
   43CHL1    H3 3110   6.295   0.327   6.699 -0.0687  0.3826 -1.4866
   43CHL1    O3 3111   6.391   0.247   6.539  0.3814  0.3925 -0.0979
   43CHL1   H3' 3112   6.399   0.326   6.484 -4.0212  0.0008 -1.7978
   43CHL1    C4 3113   6.500   0.381   6.712 -0.2094  0.0858 -0.1928
   43CHL1   H4A 3114   6.599   0.337   6.688  0.0074  1.4492 -1.9962
   43CHL1   H4B 3115   6.492   0.470   6.646  1.0309  0.5454  0.2597
   43CHL1    C5 3116   6.493   0.412   6.866 -0.3882 -0.0821 -0.2750
   43CHL1    C6 3117   6.476   0.537   6.913 -0.0117  0.9629 -0.3298
   43CHL1    H6 3118   6.474   0.619   6.839  0.1756  1.3113  0.0504
   43CHL1    C7 3119   6.486   0.585   7.051  0.2216  0.5751 -0.1484
   43CHL1   H7A 3120   6.539   0.682   7.057 -2.2438  1.9960  0.3456
   43CHL1   H7B 3121   6.378   0.598   7.077 -0.6715 -1.4118 -2.4754
   43CHL1    C8 3122   6.536   0.476   7.148  0.5298  0.0957  0.1661
   43CHL1    H8 3123   6.646   0.463   7.143  0.5660 -0.0171  1.1003
   43CHL1   C14 3124   6.483   0.504   7.287  0.8049  0.7311  0.0481
   43CHL1   H14 3125   6.373   0.518   7.278  0.5867 -0.7585  0.0924
   43CHL1   C15 3126   6.532   0.632   7.347 -0.8645  0.2962 -0.0668
   43CHL1  H15A 3127   6.643   0.640   7.349 -0.7985 -0.4226 -0.4709
   43CHL1  H15B 3128   6.487   0.720   7.297 -1.4427 -0.0606 -0.1809
   43CHL1   C16 3129   6.488   0.610   7.502  0.2442 -0.0296  0.2306
   43CHL1  H16A 3130   6.580   0.628   7.562  2.2801  0.9301 -2.9198
   43CHL1  H16B 3131   6.411   0.684   7.532  1.4842  0.8350  1.4378
   43CHL1   C17 3132   6.436   0.463   7.518 -0.1530  0.1545 -0.2619
   43CHL1   H17 3133   6.328   0.475   7.496 -0.1317 -0.1145 -0.5081
   43CHL1   C13 3134   6.502   0.395   7.397 -0.0633  0.0085  0.6872
   43CHL1   C18 3135   6.654   0.383   7.425 -0.3493 -0.3542  0.3385
   43CHL1  H18A 3136   6.700   0.480   7.456 -0.4312  0.3510 -1.5945
   43CHL1  H18B 3137   6.672   0.310   7.506  0.9521  1.1600  1.4837
   43CHL1  H18C 3138   6.705   0.369   7.327  1.0526  2.4134  0.5617
   43CHL1   C12 3139   6.436   0.264   7.344 -0.8955  0.1049 -0.0889
   43CHL1  H12A 3140   6.453   0.181   7.417  1.9482  0.2014 -0.5351
   43CHL1  H12B 3141   6.329   0.294   7.342 -2.1140 -3.7301 -0.0499
   43CHL1   C11 3142   6.492   0.225   7.212  0.1607 -0.3724  0.2713
   43CHL1  H11A 3143   6.597   0.190   7.217  0.0478 -0.8073 -0.3001
   43CHL1  H11B 3144   6.437   0.137   7.171 -0.9657  0.9929 -1.2943
   43CHL1    C9 3145   6.471   0.339   7.107 -0.1995 -0.4641 -0.1889
   43CHL1    H9 3146   6.361   0.359   7.103  0.3938  3.3612 -0.9787
   43CHL1   C10 3147   6.501   0.289   6.964 -0.3880  0.4017  0.1692
   43CHL1   C19 3148   6.643   0.234   6.954 -0.0226  0.0940 -0.5794
   43CHL1  H19A 3149   6.654   0.138   7.009 -0.3437  0.4005  0.0381
   43CHL1  H19B 3150   6.670   0.207   6.850  1.0725  0.1745 -0.3249
   43CHL1  H19C 3151   6.712   0.307   7.002  0.6456 -0.4176 -0.7452
   43CHL1    C1 3152   6.393   0.189   6.914  0.3231  0.0698  0.9350
   43CHL1   H1A 3153   6.389   0.095   6.974 -0.2025 -0.7506 -0.3247
   43CHL1   H1B 3154   6.293   0.237   6.923 -0.4351 -1.2542 -0.0140
   43CHL1    C2 3155   6.397   0.151   6.763 -0.7622 -0.4556  0.5062
   43CHL1   H2A 3156   6.309   0.086   6.743 -1.2879  0.0314  1.1988
   43CHL1   H2B 3157   6.493   0.102   6.737 -0.2001  1.1023 -0.4501
   43CHL1   C20 3158   6.456   0.397   7.652 -0.0733  0.3757  0.0521
   43CHL1   H20 3159   6.552   0.342   7.655 -0.6297 -0.8143 -1.9474
   43CHL1   C21 3160   6.334   0.306   7.671  0.1938  0.0548 -0.1824
   43CHL1  H21A 3161   6.344   0.253   7.768 -2.4662 -0.3627 -0.0708
   43CHL1  H21B 3162   6.323   0.226   7.595 -0.3445 -1.0902  1.0595
   43CHL1  H21C 3163   6.240   0.364   7.668 -0.8938 -1.4282  2.3937
   43CHL1   C22 3164   6.461   0.501   7.768 -0.4151  0.6631 -1.3682
   43CHL1  H22A 3165   6.544   0.575   7.758  1.3147 -0.9516  0.1846
   43CHL1  H22B 3166   6.369   0.561   7.780  0.0908  0.9263  2.3228
   43CHL1   C23 3167   6.491   0.456   7.916  0.2832  0.5495 -0.2837
   43CHL1  H23A 3168   6.406   0.391   7.947  0.6574  0.6674  1.0510
   43CHL1  H23B 3169   6.581   0.392   7.928 -0.6508 -0.3676  3.0465
   43CHL1   C24 3170   6.516   0.576   8.012 -0.1075  0.3867  0.5049
   43CHL1  H24A 3171   6.618   0.613   7.990  0.3752 -0.3374  1.4785
   43CHL1  H24B 3172   6.435   0.650   7.990 -1.2543 -0.2293  2.3851
   43CHL1   C25 3173   6.515   0.538   8.164 -0.0874 -0.6870 -0.3662
   43CHL1   H25 3174   6.425   0.474   8.176  0.6117 -1.2939  2.2060
   43CHL1   C26 3175   6.646   0.463   8.198  0.5395  0.4379 -0.5467
   43CHL1  H26A 3176   6.737   0.524   8.179 -0.1761  1.4648 -0.8093
   43CHL1  H26B 3177   6.636   0.426   8.302 -0.5953  0.5056 -0.6181
   43CHL1  H26C 3178   6.649   0.371   8.137  0.5573  0.7595 -1.0335
   43CHL1   C27 3179   6.481   0.658   8.257 -0.1040 -0.4965 -0.6525
   43CHL1  H27A 3180   6.467   0.618   8.360 -0.1731 -2.4578 -1.3810
   43CHL1  H27B 3181   6.565   0.730   8.262 -0.3979 -0.1476 -0.6695
   43CHL1  H27C 3182   6.391   0.711   8.219 -0.5505  0.9131  2.0958
   44CHL1    C3 3183   5.178   4.030   6.810  0.7297  0.3658 -0.1303
   44CHL1    H3 3184   5.256   3.966   6.857 -1.4294 -1.1059  1.6986
   44CHL1    O3 3185   5.190   4.024   6.676  0.4554 -0.0224  0.4605
   44CHL1   H3' 3186   5.233   4.104   6.644  1.3492 -1.4499 -2.2272
   44CHL1    C4 3187   5.043   3.959   6.836  0.0825 -0.3277 -0.5619
   44CHL1   H4A 3188   4.963   4.021   6.791  2.1165  2.6139 -0.3882
   44CHL1   H4B 3189   5.039   3.861   6.783 -1.7979 -0.7068  0.1975
   44CHL1    C5 3190   5.015   3.952   6.986 -0.2322  0.1068  0.1376
   44CHL1    C6 3191   5.001   3.831   7.047  0.1065 -0.5261  0.4673
   44CHL1    H6 3192   4.987   3.735   6.994  0.1481  0.2708 -1.0105
   44CHL1    C7 3193   4.981   3.822   7.196  0.1414 -0.0355  0.0593
   44CHL1   H7A 3194   4.899   3.752   7.222  2.0634 -3.2125 -1.6653
   44CHL1   H7B 3195   5.066   3.759   7.230  0.2701 -0.3762 -0.8557
   44CHL1    C8 3196   4.954   3.953   7.269  0.5426 -0.3084 -0.2953
   44CHL1    H8 3197   4.848   3.980   7.247  0.5880 -0.8187 -1.1850
   44CHL1   C14 3198   4.976   3.933   7.422 -0.4125  0.3538  0.8021
   44CHL1   H14 3199   5.081   3.900   7.436 -0.2270  1.3120  1.8172
   44CHL1   C15 3200   4.892   3.827   7.490 -0.4085 -0.6562  0.2829
   44CHL1  H15A 3201   4.786   3.826   7.454 -0.4100 -4.1791  0.0021
   44CHL1  H15B 3202   4.931   3.723   7.482 -0.3759 -0.6204 -0.0214
   44CHL1   C16 3203   4.889   3.875   7.640  0.7472  0.0057 -0.0718
   44CHL1  H16A 3204   4.781   3.893   7.661  0.4317 -0.7301 -1.0374
   44CHL1  H16B 3205   4.922   3.795   7.710  1.3111  0.9960  0.8319
   44CHL1   C17 3206   4.972   4.004   7.651  0.0623  0.1123 -0.3977
   44CHL1   H17 3207   5.071   3.955   7.661 -0.5824 -0.8570  2.0167
   44CHL1   C13 3208   4.961   4.063   7.507 -0.2518 -0.1688 -0.1981
   44CHL1   C18 3209   4.815   4.119   7.484  0.1930 -0.2673 -0.2103
   44CHL1  H18A 3210   4.797   4.211   7.543 -0.1872  0.0171 -0.7629
   44CHL1  H18B 3211   4.791   4.141   7.378  0.5194 -0.3554 -0.3034
   44CHL1  H18C 3212   4.742   4.042   7.517  0.6216 -0.5207  0.1643
   44CHL1   C12 3213   5.080   4.154   7.463  0.3236 -0.1401 -0.4121
   44CHL1  H12A 3214   5.072   4.255   7.509  1.3337 -1.8218  3.9567
   44CHL1  H12B 3215   5.177   4.103   7.478 -0.1145 -0.7839  0.3068
   44CHL1   C11 3216   5.052   4.186   7.315  0.4468  0.5312 -0.0816
   44CHL1  H11A 3217   4.957   4.244   7.309  0.5307  0.6594 -0.1823
   44CHL1  H11B 3218   5.137   4.249   7.281 -0.4495  1.1751 -1.2293
   44CHL1    C9 3219   5.052   4.059   7.223 -0.3119  0.2027 -0.1450
   44CHL1    H9 3220   5.154   4.017   7.231 -0.6628 -0.9891 -1.5021
   44CHL1   C10 3221   5.029   4.086   7.070  0.5199 -0.7169  0.1392
   44CHL1   C19 3222   4.899   4.178   7.043 -0.4502 -1.1394 -0.3873
   44CHL1  H19A 3223   4.815   4.117   7.080 -1.0709  1.1999  2.4398
   44CHL1  H19B 3224   4.901   4.271   7.104 -0.5103 -2.2567  1.4092
   44CHL1  H19C 3225   4.882   4.197   6.935  0.6170  0.4753 -0.3172
   44CHL1    C1 3226   5.156   4.163   7.019 -0.0897 -0.0130  0.3550
   44CHL1   H1A 3227   5.139   4.264   7.063  0.5036 -0.6752  2.1852
   44CHL1   H1B 3228   5.244   4.113   7.064  2.6093  4.1933  0.3472
   44CHL1    C2 3229   5.179   4.172   6.868  0.5976  0.4025 -0.1890
   44CHL1   H2A 3230   5.270   4.230   6.842  1.3977 -0.3976  0.7408
   44CHL1   H2B 3231   5.092   4.222   6.821  0.7428  1.8629  1.0321
   44CHL1   C20 3232   4.949   4.085   7.773  0.8683 -0.0075 -0.1609
   44CHL1   H20 3233   4.865   4.155   7.754  0.1631 -0.5556  0.8943
   44CHL1   C21 3234   5.073   4.174   7.794 -0.8990 -0.0019 -0.6143
   44CHL1  H21A 3235   5.077   4.226   7.892 -0.1776 -2.6024  0.8370
   44CHL1  H21B 3236   5.070   4.263   7.727  0.1818  1.5590  1.2900
   44CHL1  H21C 3237   5.161   4.110   7.771 -1.0617 -0.3709 -0.2108
   44CHL1   C22 3238   4.921   4.012   7.906 -0.3262  0.2609  0.1143
   44CHL1  H22A 3239   4.829   3.953   7.888  0.0297 -0.3816  0.3622
   44CHL1  H22B 3240   5.001   3.938   7.925  0.5050  1.9301  3.9162
   44CHL1   C23 3241   4.899   4.089   8.035  0.2786 -0.3639 -0.7403
   44CHL1  H23A 3242   4.983   4.158   8.060 -1.0415  1.0805 -0.0891
   44CHL1  H23B 3243   4.810   4.144   7.999 -0.1402 -1.2555 -1.0847
   44CHL1   C24 3244   4.874   4.002   8.162  0.1881  0.1542 -0.6511
   44CHL1  H24A 3245   4.788   3.939   8.130 -0.5557  1.1016 -0.5700
   44CHL1  H24B 3246   4.958   3.930   8.172  0.5809  0.8045  1.0569
   44CHL1   C25 3247   4.842   4.073   8.293 -0.0453  0.0305 -0.1350
   44CHL1   H25 3248   4.931   4.130   8.328 -0.8592  0.4810  1.2910
   44CHL1   C26 3249   4.727   4.173   8.272  0.4576  0.9370  0.2282
   44CHL1  H26A 3250   4.701   4.225   8.366  0.9164  2.3211 -0.3756
   44CHL1  H26B 3251   4.754   4.247   8.193 -1.2618  1.5529  0.1797
   44CHL1  H26C 3252   4.636   4.115   8.246  1.2444 -0.6337  0.8440
   44CHL1   C27 3253   4.806   3.978   8.405 -0.5930 -0.6737 -0.5620
   44CHL1  H27A 3254   4.884   3.899   8.412 -1.3405 -1.5831 -1.9891
   44CHL1  H27B 3255   4.794   4.022   8.506  1.0792 -1.7591  0.1460
   44CHL1  H27C 3256   4.714   3.921   8.381  0.9049 -3.1508 -0.7513
   45CHL1    C3 3257   2.359   2.961   6.708  0.3996  0.8789 -0.1240
   45CHL1    H3 3258   2.375   3.070   6.706  0.2810  0.8913 -2.1541
   45CHL1    O3 3259   2.376   2.904   6.582 -0.4974  0.2251 -0.0573
   45CHL1   H3' 3260   2.361   2.809   6.585 -0.4593  0.1893 -0.8399
   45CHL1    C4 3261   2.461   2.913   6.809  0.1890 -0.0602  0.4109
   45CHL1   H4A 3262   2.453   2.802   6.810  0.7381 -0.1589  3.1410
   45CHL1   H4B 3263   2.562   2.942   6.775  0.0262  2.8766  2.1103
   45CHL1    C5 3264   2.440   2.961   6.950  0.4619 -0.5740  1.1625
   45CHL1    C6 3265   2.538   3.021   7.016 -0.5343  0.5559  0.4850
   45CHL1    H6 3266   2.630   3.051   6.963 -0.9909  2.5912  0.7713
   45CHL1    C7 3267   2.527   3.064   7.151  0.4802  0.4983 -0.0624
   45CHL1   H7A 3268   2.612   3.028   7.212 -0.5791 -1.1549  0.5241
   45CHL1   H7B 3269   2.537   3.175   7.152  1.8976  0.3815  0.5012
   45CHL1    C8 3270   2.395   3.008   7.222 -0.5542 -0.5072  0.1380
   45CHL1    H8 3271   2.402   2.902   7.254 -0.6644 -0.3847  0.5701
   45CHL1   C14 3272   2.376   3.091   7.355  0.1352  0.2234 -0.4627
   45CHL1   H14 3273   2.359   3.197   7.325 -0.3106  0.7473  1.4852
   45CHL1   C15 3274   2.490   3.110   7.464 -0.1993  0.6611  1.0124
   45CHL1  H15A 3275   2.543   3.014   7.480  0.4024  0.7657 -0.2293
   45CHL1  H15B 3276   2.563   3.182   7.422  0.3973  0.2693  1.3699
   45CHL1   C16 3277   2.417   3.159   7.584  0.1899 -0.6639 -0.9535
   45CHL1  H16A 3278   2.460   3.096   7.665 -1.8386 -0.1337  0.6144
   45CHL1  H16B 3279   2.442   3.265   7.604 -0.0801 -1.0613  1.8393
   45CHL1   C17 3280   2.266   3.149   7.550  0.4966  0.6273 -0.8727
   45CHL1   H17 3281   2.241   3.251   7.513 -0.5417 -0.1506 -2.4669
   45CHL1   C13 3282   2.249   3.055   7.432  0.2790  0.2192  0.8698
   45CHL1   C18 3283   2.258   2.905   7.473  0.3581 -0.4020 -0.1469
   45CHL1  H18A 3284   2.301   2.840   7.394 -1.5197 -0.4414 -1.1934
   45CHL1  H18B 3285   2.311   2.884   7.569  0.0897  0.1677  0.1297
   45CHL1  H18C 3286   2.159   2.855   7.478  1.0387 -1.7178  1.0714
   45CHL1   C12 3287   2.121   3.075   7.334 -0.4845 -0.4727  0.3734
   45CHL1  H12A 3288   2.024   3.052   7.382 -1.4509  0.4775 -1.0432
   45CHL1  H12B 3289   2.117   3.183   7.306  1.5771 -1.1706 -3.2516
   45CHL1   C11 3290   2.141   2.989   7.208  0.3992 -0.6396  0.0855
   45CHL1  H11A 3291   2.134   2.879   7.225  3.5115 -0.5950  2.6446
   45CHL1  H11B 3292   2.067   3.014   7.129  2.7148  1.6861 -1.5371
   45CHL1    C9 3293   2.272   3.015   7.138  0.0668  0.0390 -0.4279
   45CHL1    H9 3294   2.265   3.120   7.104 -3.2473  0.1208  0.1373
   45CHL1   C10 3295   2.299   2.938   7.004  0.2986 -0.6070  0.2361
   45CHL1   C19 3296   2.290   2.788   7.033 -0.3865 -0.5433 -0.1714
   45CHL1  H19A 3297   2.182   2.765   7.046 -0.9660  1.5559 -0.8547
   45CHL1  H19B 3298   2.325   2.721   6.952 -1.1192 -1.0387 -0.0869
   45CHL1  H19C 3299   2.336   2.748   7.126  0.1294  0.5651  0.0768
   45CHL1    C1 3300   2.198   2.992   6.895 -0.1972  0.5661  0.1547
   45CHL1   H1A 3301   2.095   2.960   6.924  0.1931 -0.4426  0.4615
   45CHL1   H1B 3302   2.202   3.101   6.878  1.9480  0.7871  1.6876
   45CHL1    C2 3303   2.214   2.930   6.751  0.1955 -0.1144  0.1218
   45CHL1   H2A 3304   2.144   2.978   6.680 -1.5977 -0.4229  1.6082
   45CHL1   H2B 3305   2.203   2.820   6.742  1.7883 -0.2773 -0.0743
   45CHL1   C20 3306   2.171   3.123   7.667  0.8000 -0.7945  0.5826
   45CHL1   H20 3307   2.203   3.035   7.727  0.8510 -0.9228  0.3642
   45CHL1   C21 3308   2.025   3.097   7.626  0.0163  0.2948 -0.7435
   45CHL1  H21A 3309   1.962   3.099   7.717  2.2628 -2.8037  1.0783
   45CHL1  H21B 3310   2.023   3.003   7.568  1.2282 -0.4946  0.4223
   45CHL1  H21C 3311   1.991   3.180   7.560 -3.7739  2.0641  2.9668
   45CHL1   C22 3312   2.164   3.246   7.760  0.2327  0.6377 -0.3415
   45CHL1  H22A 3313   2.257   3.306   7.770  0.5963 -0.1172  1.0652
   45CHL1  H22B 3314   2.087   3.314   7.717 -0.2481  1.4071  1.6302
   45CHL1   C23 3315   2.128   3.203   7.903 -0.0401 -0.0687  0.9363
   45CHL1  H23A 3316   2.026   3.161   7.914 -1.4325  2.5910 -0.7442
   45CHL1  H23B 3317   2.201   3.124   7.930  0.2257 -0.5032 -0.9187
   45CHL1   C24 3318   2.138   3.318   8.002  0.0156 -0.2753  0.1233
   45CHL1  H24A 3319   2.069   3.401   7.973 -1.5919 -1.5767  0.0498
   45CHL1  H24B 3320   2.093   3.278   8.095  0.0934  0.2583  0.3964
   45CHL1   C25 3321   2.272   3.375   8.045  0.7234 -0.9006  0.0048
   45CHL1   H25 3322   2.310   3.434   7.959 -2.7923  0.8261 -0.5529
   45CHL1   C26 3323   2.255   3.483   8.159 -0.6046 -0.4523  0.2374
   45CHL1  H26A 3324   2.199   3.574   8.130 -0.2382  0.1195  1.2484
   45CHL1  H26B 3325   2.202   3.442   8.248 -2.6672  1.6192  0.0698
   45CHL1  H26C 3326   2.356   3.520   8.189 -0.5139  1.6437 -2.3403
   45CHL1   C27 3327   2.372   3.270   8.088  0.1725  0.2134 -0.5723
   45CHL1  H27A 3328   2.340   3.221   8.183 -1.5196 -0.1048 -1.2540
   45CHL1  H27B 3329   2.389   3.187   8.016  1.5581  0.2125 -0.2662
   45CHL1  H27C 3330   2.471   3.315   8.109 -0.3621  1.3708 -0.4612
   46CHL1    C3 3331   3.194   1.941   7.063 -0.4419 -0.3138 -0.4476
   46CHL1    H3 3332   3.209   1.838   7.103  0.8044  0.0320  0.0186
   46CHL1    O3 3333   3.188   1.921   6.922 -0.1387 -0.2008  0.5000
   46CHL1   H3' 3334   3.163   2.007   6.887  0.1923 -0.2267  0.1939
   46CHL1    C4 3335   3.076   2.016   7.121  0.8235 -0.3736 -0.3785
   46CHL1   H4A 3336   3.068   2.116   7.073 -3.1222  1.2452  3.0256
   46CHL1   H4B 3337   2.974   1.975   7.111  0.8892 -0.2479 -1.7708
   46CHL1    C5 3338   3.088   2.044   7.268  0.5885 -0.0469 -0.6802
   46CHL1    C6 3339   2.999   2.001   7.353 -0.0715 -0.5862  0.3353
   46CHL1    H6 3340   2.908   1.946   7.324 -0.1282 -0.8654  1.0356
   46CHL1    C7 3341   3.004   2.030   7.501 -0.2718 -0.0022 -0.2241
   46CHL1   H7A 3342   2.910   2.062   7.550  0.0770  0.5956  0.0710
   46CHL1   H7B 3343   3.038   1.942   7.559 -3.6809  1.2431  4.2423
   46CHL1    C8 3344   3.104   2.142   7.547 -0.8752  0.1530  0.0659
   46CHL1    H8 3345   3.059   2.235   7.506 -0.0513  0.3267 -0.4666
   46CHL1   C14 3346   3.131   2.136   7.697  0.3342 -0.0920  0.2001
   46CHL1   H14 3347   3.170   2.034   7.715  3.4047  0.7570 -1.0091
   46CHL1   C15 3348   3.002   2.154   7.786  0.3954  0.6909  0.1549
   46CHL1  H15A 3349   2.942   2.245   7.766  0.2600  0.5342 -0.1747
   46CHL1  H15B 3350   2.936   2.066   7.776  1.9699 -0.5658  0.3897
   46CHL1   C16 3351   3.060   2.175   7.926 -0.0818 -0.9610  0.1981
   46CHL1  H16A 3352   3.028   2.277   7.957  4.3169  1.3611 -1.9202
   46CHL1  H16B 3353   3.045   2.085   7.989 -0.5234 -1.8988 -1.1966
   46CHL1   C17 3354   3.219   2.186   7.905  0.3709  0.2218 -0.2957
   46CHL1   H17 3355   3.263   2.085   7.914  0.5432  0.3625  0.4587
   46CHL1   C13 3356   3.236   2.227   7.753 -0.2493  0.5913  0.4327
   46CHL1   C18 3357   3.191   2.371   7.725  1.1009 -0.2339  0.3113
   46CHL1  H18A 3358   3.187   2.393   7.616  2.3541  0.0601  0.2992
   46CHL1  H18B 3359   3.106   2.401   7.790  2.1453  3.0013  0.3907
   46CHL1  H18C 3360   3.264   2.442   7.770  0.6788 -0.1868  0.9301
   46CHL1   C12 3361   3.366   2.202   7.682  0.1312 -0.2182 -0.1294
   46CHL1  H12A 3362   3.440   2.278   7.716 -0.5359  0.3738  0.0268
   46CHL1  H12B 3363   3.413   2.106   7.712  0.2342 -0.4457 -0.9956
   46CHL1   C11 3364   3.359   2.200   7.526 -0.1238 -0.3066 -0.3826
   46CHL1  H11A 3365   3.348   2.303   7.485  0.4936  0.8845  2.2684
   46CHL1  H11B 3366   3.456   2.160   7.488  1.7623  3.5304 -0.0154
   46CHL1    C9 3367   3.239   2.114   7.474 -0.0599 -0.0636 -0.6070
   46CHL1    H9 3368   3.268   2.012   7.508  0.5849  0.2860 -0.0877
   46CHL1   C10 3369   3.219   2.112   7.315 -0.3148  0.0710 -0.4327
   46CHL1   C19 3370   3.212   2.256   7.251 -0.0767 -0.3421 -0.4339
   46CHL1  H19A 3371   3.200   2.250   7.141 -0.2806 -2.8902 -0.3402
   46CHL1  H19B 3372   3.138   2.325   7.296  2.4261  2.2794 -0.0351
   46CHL1  H19C 3373   3.311   2.306   7.260 -0.1168 -0.1650 -0.9825
   46CHL1    C1 3374   3.330   2.034   7.245 -0.8425  0.6054 -0.1094
   46CHL1   H1A 3375   3.427   2.081   7.272  0.0015 -0.5826 -0.9929
   46CHL1   H1B 3376   3.340   1.935   7.294  4.2817  1.2935  0.7837
   46CHL1    C2 3377   3.324   2.022   7.095  0.0041  0.8167  0.1765
   46CHL1   H2A 3378   3.418   1.973   7.059 -0.4302  0.8845 -1.0868
   46CHL1   H2B 3379   3.320   2.116   7.036  0.3811 -0.8315 -2.6766
   46CHL1   C20 3380   3.285   2.291   8.009  0.6594  0.0090 -0.4331
   46CHL1   H20 3381   3.241   2.392   7.993 -0.4593 -0.0836  1.6955
   46CHL1   C21 3382   3.442   2.291   7.989  0.0300  0.0992 -0.5717
   46CHL1  H21A 3383   3.497   2.338   8.073  0.8053 -2.7735  0.6322
   46CHL1  H21B 3384   3.461   2.368   7.910  1.7076 -0.3417 -0.6311
   46CHL1  H21C 3385   3.473   2.192   7.952 -2.3655 -0.6841 -0.6366
   46CHL1   C22 3386   3.245   2.254   8.156 -0.3608 -0.5399  0.5882
   46CHL1  H22A 3387   3.140   2.220   8.162  0.7189 -4.2109  1.2615
   46CHL1  H22B 3388   3.305   2.163   8.179  0.3384 -0.6051 -1.3130
   46CHL1   C23 3389   3.291   2.358   8.261  0.5187  0.0043 -0.0469
   46CHL1  H23A 3390   3.398   2.387   8.259  0.0548  1.8256  0.0552
   46CHL1  H23B 3391   3.249   2.458   8.240  3.6562  1.2917 -0.7317
   46CHL1   C24 3392   3.241   2.320   8.401  0.1950 -0.4157  0.5063
   46CHL1  H24A 3393   3.130   2.324   8.400  0.1828 -0.7212  0.7455
   46CHL1  H24B 3394   3.285   2.219   8.409 -0.6287 -1.1301 -2.6591
   46CHL1   C25 3395   3.291   2.407   8.521  0.6894  0.5262  0.4990
   46CHL1   H25 3396   3.398   2.416   8.493 -0.0651  3.6597 -1.9718
   46CHL1   C26 3397   3.218   2.540   8.522 -0.0717 -0.7989 -0.0518
   46CHL1  H26A 3398   3.189   2.577   8.421 -0.6089  1.1873  0.7822
   46CHL1  H26B 3399   3.123   2.524   8.576 -0.0800 -4.5471 -0.8922
   46CHL1  H26C 3400   3.275   2.616   8.580 -1.5555  0.3036  0.0059
   46CHL1   C27 3401   3.279   2.343   8.658 -0.3493 -0.7444 -0.3838
   46CHL1  H27A 3402   3.358   2.364   8.733 -1.1359  0.1666  0.2071
   46CHL1  H27B 3403   3.187   2.378   8.710  1.1855 -0.3621  2.2271
   46CHL1  H27C 3404   3.284   2.234   8.639 -1.0935 -0.5710 -1.7026
   47CHL1    C3 3405   5.054   2.029   6.738 -0.1348 -0.2261  0.2808
   47CHL1    H3 3406   4.946   2.042   6.716  0.6065  1.3850 -3.2020
   47CHL1    O3 3407   5.111   2.080   6.616  0.1415  0.3618  0.1286
   47CHL1   H3' 3408   5.175   2.146   6.642 -0.5827  0.6545  1.2270
   47CHL1    C4 3409   5.108   2.112   6.855 -0.0457  0.1092  0.5101
   47CHL1   H4A 3410   5.219   2.107   6.847 -0.0218 -2.8463  1.7749
   47CHL1   H4B 3411   5.072   2.214   6.827 -0.6178  0.1855  1.5015
   47CHL1    C5 3412   5.067   2.064   6.994 -0.1447 -0.8558 -0.4332
   47CHL1    C6 3413   5.014   2.148   7.084 -0.2150 -0.6445 -0.2599
   47CHL1    H6 3414   5.013   2.256   7.068  3.9143 -0.4407 -0.2155
   47CHL1    C7 3415   4.973   2.096   7.213 -0.0379 -0.3061 -0.5490
   47CHL1   H7A 3416   5.006   2.173   7.287 -0.0264 -0.2841 -0.5776
   47CHL1   H7B 3417   4.862   2.092   7.220  0.0098 -1.5469 -0.3287
   47CHL1    C8 3418   5.025   1.957   7.260 -0.5802 -0.0385 -0.1952
   47CHL1    H8 3419   5.130   1.954   7.299 -0.2922  0.1306 -0.9388
   47CHL1   C14 3420   4.933   1.901   7.369 -0.1901 -0.1577  0.0715
   47CHL1   H14 3421   4.840   1.871   7.316 -0.0147  1.2298 -1.0758
   47CHL1   C15 3422   4.901   2.004   7.486  0.2075  0.6642 -0.5164
   47CHL1  H15A 3423   4.995   2.058   7.508  1.5551 -1.5262 -0.5583
   47CHL1  H15B 3424   4.813   2.069   7.465  1.5891  3.0901  0.7476
   47CHL1   C16 3425   4.861   1.905   7.600 -0.2604  0.1207  0.4219
   47CHL1  H16A 3426   4.925   1.923   7.690 -2.3156 -0.6876  2.1249
   47CHL1  H16B 3427   4.756   1.902   7.634 -0.5253 -0.8815 -0.4276
   47CHL1   C17 3428   4.892   1.754   7.556  0.1296  0.3454 -0.6195
   47CHL1   H17 3429   4.797   1.716   7.513 -0.3718  1.9912 -1.0293
   47CHL1   C13 3430   4.987   1.766   7.439  0.2280 -0.8604  0.7585
   47CHL1   C18 3431   5.130   1.785   7.497 -0.2433  0.0086  0.1975
   47CHL1  H18A 3432   5.130   1.856   7.582 -1.2413  0.6909 -0.3478
   47CHL1  H18B 3433   5.170   1.684   7.523  4.0313  1.4895  0.1502
   47CHL1  H18C 3434   5.196   1.830   7.419  0.7954 -1.4485  0.1988
   47CHL1   C12 3435   4.978   1.663   7.320  0.3674  0.6001  0.1392
   47CHL1  H12A 3436   5.022   1.568   7.356  3.5399  1.5093 -0.9969
   47CHL1  H12B 3437   4.868   1.664   7.306  0.1202  3.0530  1.6584
   47CHL1   C11 3438   5.058   1.722   7.199 -0.1248  0.6295 -0.3957
   47CHL1  H11A 3439   5.167   1.722   7.220  0.2847 -2.8642 -1.8021
   47CHL1  H11B 3440   5.030   1.655   7.114 -1.0148 -0.6732  0.8630
   47CHL1    C9 3441   5.023   1.859   7.151 -0.2635 -0.0079 -0.2390
   47CHL1    H9 3442   4.913   1.860   7.134 -0.6654 -2.7586  1.4422
   47CHL1   C10 3443   5.081   1.909   7.020  0.0327 -0.0959 -0.9428
   47CHL1   C19 3444   5.238   1.886   7.023  0.2053  0.9112 -0.6075
   47CHL1  H19A 3445   5.276   1.938   7.114 -1.3926  0.2518  0.4896
   47CHL1  H19B 3446   5.258   1.777   7.027 -1.4372  0.5938  2.0130
   47CHL1  H19C 3447   5.286   1.925   6.931  0.0241 -0.3821 -1.2738
   47CHL1    C1 3448   5.025   1.838   6.889  0.1434  0.4103 -0.6609
   47CHL1   H1A 3449   5.035   1.727   6.890 -0.7088  0.3074  1.2336
   47CHL1   H1B 3450   4.915   1.847   6.900 -0.2112 -0.5527 -2.7991
   47CHL1    C2 3451   5.072   1.880   6.758 -0.6016 -0.3897 -0.3795
   47CHL1   H2A 3452   5.016   1.835   6.673 -1.4539  0.0065 -0.0360
   47CHL1   H2B 3453   5.181   1.857   6.755 -0.6012 -0.4929  0.1975
   47CHL1   C20 3454   4.926   1.659   7.674 -0.2962  0.1755 -0.2678
   47CHL1   H20 3455   5.008   1.702   7.735  0.6161 -2.0069  0.1301
   47CHL1   C21 3456   4.961   1.524   7.617  0.4054 -0.0218  0.1293
   47CHL1  H21A 3457   4.960   1.447   7.696  0.4384  1.2352  1.3918
   47CHL1  H21B 3458   5.050   1.515   7.551 -0.1246  0.1354 -0.6280
   47CHL1  H21C 3459   4.880   1.485   7.551  1.6024 -0.8367 -0.9094
   47CHL1   C22 3460   4.811   1.639   7.773  0.0518  0.2196 -0.2984
   47CHL1  H22A 3461   4.748   1.731   7.783  0.6890  0.6377 -0.0944
   47CHL1  H22B 3462   4.745   1.562   7.726 -0.7745  0.1750  0.8928
   47CHL1   C23 3463   4.841   1.574   7.913  0.1377 -0.5412  0.1732
   47CHL1  H23A 3464   4.900   1.481   7.896 -1.0022 -1.4379  1.0192
   47CHL1  H23B 3465   4.906   1.648   7.964 -2.1349  0.8679  1.1480
   47CHL1   C24 3466   4.724   1.550   8.011  0.2955 -0.4505  0.5247
   47CHL1  H24A 3467   4.765   1.553   8.114 -0.1294  0.0140  0.6850
   47CHL1  H24B 3468   4.649   1.633   8.005 -1.8307 -2.3460 -0.6309
   47CHL1   C25 3469   4.650   1.423   7.981  0.6078  0.4701  0.6068
   47CHL1   H25 3470   4.617   1.419   7.874 -0.5661 -1.8394  0.9723
   47CHL1   C26 3471   4.733   1.295   8.019 -0.1135 -1.0600  0.1316
   47CHL1  H26A 3472   4.661   1.211   8.016  0.9334 -1.9845  0.4521
   47CHL1  H26B 3473   4.826   1.274   7.962  1.1150  2.2446  0.6566
   47CHL1  H26C 3474   4.771   1.312   8.122 -0.7732 -2.7492  0.6779
   47CHL1   C27 3475   4.509   1.419   8.042  0.3234  0.1645 -0.3275
   47CHL1  H27A 3476   4.441   1.348   7.991 -0.3894 -0.4150  1.3663
   47CHL1  H27B 3477   4.521   1.403   8.152  0.1253 -1.8850 -0.5713
   47CHL1  H27C 3478   4.468   1.523   8.039  1.0685  0.4499 -1.0910
   48CHL1    C3 3479   2.823   4.525   6.416 -0.1932  0.4325  0.2796
   48CHL1    H3 3480   2.825   4.417   6.442  2.5899  0.3202 -0.0501
   48CHL1    O3 3481   2.849   4.541   6.281 -0.3445  0.1741 -0.1024
   48CHL1   H3' 3482   2.858   4.636   6.267  1.8004  0.0578  0.1889
   48CHL1    C4 3483   2.695   4.599   6.457  0.1995  0.1212  0.2466
   48CHL1   H4A 3484   2.696   4.706   6.425  1.0754 -0.5857 -2.4102
   48CHL1   H4B 3485   2.619   4.543   6.398  1.3311 -0.1594 -0.9883
   48CHL1    C5 3486   2.668   4.594   6.604  0.9167  0.6768  0.4638
   48CHL1    C6 3487   2.553   4.544   6.650  0.1464 -0.1250  0.5479
   48CHL1    H6 3488   2.465   4.513   6.593 -1.0107  2.8778  0.4965
   48CHL1    C7 3489   2.530   4.523   6.794  0.4705 -0.3451  0.0823
   48CHL1   H7A 3490   2.428   4.555   6.825  1.4825  2.0605  1.2282
   48CHL1   H7B 3491   2.550   4.416   6.814  0.5008 -0.2044  0.8453
   48CHL1    C8 3492   2.616   4.608   6.892 -0.2271 -0.1566 -0.0221
   48CHL1    H8 3493   2.576   4.712   6.890 -0.2511 -0.1735 -1.3156
   48CHL1   C14 3494   2.602   4.560   7.039 -0.4759 -0.3938  0.4035
   48CHL1   H14 3495   2.650   4.460   7.041  1.8825  0.6631 -0.2470
   48CHL1   C15 3496   2.468   4.539   7.108  1.1308 -0.2200 -0.5878
   48CHL1  H15A 3497   2.399   4.625   7.095  1.4646 -0.1245 -1.9494
   48CHL1  H15B 3498   2.417   4.450   7.065  0.5254 -0.2498  0.1771
   48CHL1   C16 3499   2.508   4.532   7.252  0.0322  0.0265 -0.5641
   48CHL1  H16A 3500   2.439   4.587   7.318 -0.7440 -0.8338 -0.6240
   48CHL1  H16B 3501   2.500   4.424   7.278 -1.0243 -0.1089 -1.3751
   48CHL1   C17 3502   2.653   4.590   7.265  0.2129 -0.2513 -0.2389
   48CHL1   H17 3503   2.717   4.499   7.265 -0.6821 -1.0267 -3.7593
   48CHL1   C13 3504   2.680   4.657   7.134 -0.1351  0.2318 -0.2192
   48CHL1   C18 3505   2.618   4.795   7.137  1.1389 -0.3654 -0.9382
   48CHL1  H18A 3506   2.617   4.834   7.033 -1.0978  0.0472 -0.8168
   48CHL1  H18B 3507   2.517   4.793   7.181  2.2781 -1.1815  1.8206
   48CHL1  H18C 3508   2.680   4.860   7.203  0.6048 -0.7958  0.0030
   48CHL1   C12 3509   2.828   4.652   7.086 -0.8165 -0.0970 -0.2995
   48CHL1  H12A 3510   2.892   4.713   7.154 -0.4551  0.0444 -0.7653
   48CHL1  H12B 3511   2.874   4.552   7.100 -1.0631 -0.1821 -0.0742
   48CHL1   C11 3512   2.850   4.691   6.946 -0.4950  0.0168  1.0991
   48CHL1  H11A 3513   2.827   4.800   6.935 -2.4729 -0.4491  0.0063
   48CHL1  H11B 3514   2.956   4.686   6.914 -1.4991  0.0388 -2.8102
   48CHL1    C9 3515   2.764   4.611   6.842 -0.2747 -0.2545  0.2559
   48CHL1    H9 3516   2.801   4.507   6.848  0.8216 -0.1836 -3.1969
   48CHL1   C10 3517   2.786   4.646   6.688 -0.5637 -0.0326 -0.4633
   48CHL1   C19 3518   2.810   4.795   6.669 -0.8652  0.2916 -0.0176
   48CHL1  H19A 3519   2.919   4.808   6.686 -0.8861 -1.0395  1.2720
   48CHL1  H19B 3520   2.788   4.822   6.563 -2.0348 -2.0954 -0.4544
   48CHL1  H19C 3521   2.744   4.852   6.737  1.3874  0.2557  2.3309
   48CHL1    C1 3522   2.909   4.565   6.644 -0.3360  0.0193 -0.2461
   48CHL1   H1A 3523   3.003   4.589   6.697  0.7205  1.7193 -2.7088
   48CHL1   H1B 3524   2.881   4.459   6.664 -1.1769  0.1819 -0.5340
   48CHL1    C2 3525   2.945   4.577   6.494  0.4534 -0.4272 -0.1045
   48CHL1   H2A 3526   3.032   4.514   6.468 -0.6160 -2.2135  0.4865
   48CHL1   H2B 3527   2.966   4.684   6.473 -0.4072 -0.4207 -0.9774
   48CHL1   C20 3528   2.668   4.668   7.398  0.1299  0.5247  0.1319
   48CHL1   H20 3529   2.601   4.756   7.398  1.4066  1.5301  0.9383
   48CHL1   C21 3530   2.816   4.715   7.405 -0.4710  0.3434 -0.0885
   48CHL1  H21A 3531   2.889   4.635   7.381 -0.6742 -0.3481  1.4624
   48CHL1  H21B 3532   2.841   4.761   7.503  0.2693  1.1284 -0.6330
   48CHL1  H21C 3533   2.834   4.797   7.332  0.7284 -0.4723 -0.7450
   48CHL1   C22 3534   2.628   4.591   7.528 -0.0237  0.6577  0.2579
   48CHL1  H22A 3535   2.528   4.543   7.515 -0.0381  0.8362 -0.2988
   48CHL1  H22B 3536   2.701   4.507   7.532 -0.5926  0.0451 -1.5237
   48CHL1   C23 3537   2.618   4.655   7.668 -0.2387  0.0483 -0.2287
   48CHL1  H23A 3538   2.577   4.563   7.715 -0.6621 -0.3931 -1.4254
   48CHL1  H23B 3539   2.721   4.684   7.699  0.6434 -0.9885 -2.0216
   48CHL1   C24 3540   2.513   4.762   7.692 -0.2735 -0.0265  0.2332
   48CHL1  H24A 3541   2.556   4.849   7.638  0.3982  0.1452  1.0187
   48CHL1  H24B 3542   2.421   4.747   7.633 -0.0792 -0.7989  0.1131
   48CHL1   C25 3543   2.478   4.798   7.834  0.5826  0.1958  0.8296
   48CHL1   H25 3544   2.428   4.708   7.875  0.4858  0.3464  1.0487
   48CHL1   C26 3545   2.610   4.837   7.907  0.0612  0.3443 -0.6694
   48CHL1  H26A 3546   2.655   4.909   7.835 -2.7942  1.4631 -1.4793
   48CHL1  H26B 3547   2.579   4.893   7.999  0.6321 -0.1607 -0.1605
   48CHL1  H26C 3548   2.679   4.754   7.933 -2.3167 -2.2495 -2.0923
   48CHL1   C27 3549   2.374   4.911   7.838 -0.1833  0.1696  0.2680
   48CHL1  H27A 3550   2.373   4.956   7.940 -1.7170 -2.1554  1.3614
   48CHL1  H27B 3551   2.409   4.986   7.765  0.5698  1.0432  1.4790
   48CHL1  H27C 3552   2.280   4.858   7.813  1.2936 -1.8969 -1.1721
   49CHL1    C3 3553   1.887   0.144   6.808  0.5680 -0.7278 -0.1314
   49CHL1    H3 3554   1.988   0.189   6.799  0.4886 -0.3124  0.9162
   49CHL1    O3 3555   1.819   0.138   6.680  0.0585 -1.2540 -0.0452
   49CHL1   H3' 3556   1.737   0.093   6.701  0.3377 -1.2719  1.0710
   49CHL1    C4 3557   1.898   0.011   6.859 -0.6827  0.2709  0.2865
   49CHL1   H4A 3558   1.795  -0.029   6.859 -0.5629 -0.1250  2.4514
   49CHL1   H4B 3559   1.962  -0.043   6.785  0.8690  2.1805  0.1483
   49CHL1    C5 3560   1.955   0.008   7.001  0.4084  0.3026 -0.0919
   49CHL1    C6 3561   2.067  -0.065   7.034  0.0070 -0.2926  0.8107
   49CHL1    H6 3562   2.121  -0.111   6.951  0.6386  0.6803  0.6671
   49CHL1    C7 3563   2.127  -0.074   7.176  0.0311 -0.3396  0.4185
   49CHL1   H7A 3564   2.167  -0.175   7.198  0.5525  0.0339  1.2163
   49CHL1   H7B 3565   2.218  -0.014   7.197  0.0470 -0.3561  0.3981
   49CHL1    C8 3566   2.016  -0.021   7.282 -0.7488  0.0641 -0.8777
   49CHL1    H8 3567   1.928  -0.089   7.282 -2.2924  2.0029 -1.6365
   49CHL1   C14 3568   2.086  -0.001   7.413  0.1176  0.3536  0.8425
   49CHL1   H14 3569   2.151   0.089   7.403 -0.9344  1.1870  1.4063
   49CHL1   C15 3570   2.184  -0.115   7.451 -0.8286  0.1138 -0.0288
   49CHL1  H15A 3571   2.148  -0.218   7.429  2.8405 -0.9501 -1.8486
   49CHL1  H15B 3572   2.275  -0.104   7.389 -0.8268  0.1718 -0.0160
   49CHL1   C16 3573   2.221  -0.079   7.598 -0.0104 -0.1075  0.7621
   49CHL1  H16A 3574   2.226  -0.170   7.662 -1.8613  0.5433  1.9096
   49CHL1  H16B 3575   2.323  -0.035   7.602  0.3509 -0.7434 -0.7925
   49CHL1   C17 3576   2.119   0.029   7.640 -0.2163  0.0247 -0.4912
   49CHL1   H17 3577   2.167   0.129   7.638 -2.0848  1.0059  0.8841
   49CHL1   C13 3578   2.006   0.029   7.538  0.0702 -0.0281  0.0045
   49CHL1   C18 3579   1.903  -0.085   7.569  0.2557  0.0405  0.7173
   49CHL1  H18A 3580   1.840  -0.068   7.659 -3.1134  2.2580 -1.8011
   49CHL1  H18B 3581   1.838  -0.087   7.479  1.4141  0.4110 -0.1509
   49CHL1  H18C 3582   1.949  -0.186   7.568 -3.4372 -1.8327 -0.5530
   49CHL1   C12 3583   1.946   0.167   7.508  0.0621  0.4619 -0.6315
   49CHL1  H12A 3584   1.867   0.184   7.584 -1.7563 -1.0311 -2.0718
   49CHL1  H12B 3585   2.020   0.249   7.511  1.2853 -0.5849  2.7203
   49CHL1   C11 3586   1.871   0.167   7.373 -0.3876  0.0934  0.1857
   49CHL1  H11A 3587   1.790   0.095   7.396  0.7152 -0.6997  1.7935
   49CHL1  H11B 3588   1.832   0.268   7.347  1.0369  0.2121 -1.6951
   49CHL1    C9 3589   1.950   0.117   7.244  0.1003  0.0278 -0.1142
   49CHL1    H9 3590   2.040   0.182   7.235 -0.7186  1.3088  0.6003
   49CHL1   C10 3591   1.877   0.098   7.106  0.5371  0.7069  0.3821
   49CHL1   C19 3592   1.733   0.033   7.124 -0.6238 -0.1579  0.4747
   49CHL1  H19A 3593   1.669   0.088   7.195 -2.5994 -0.5286 -0.9238
   49CHL1  H19B 3594   1.676   0.046   7.030 -0.4357  0.6945  0.4707
   49CHL1  H19C 3595   1.739  -0.074   7.154  0.1899  0.4285  2.5356
   49CHL1    C1 3596   1.847   0.239   7.046 -0.4299 -0.0835  0.1541
   49CHL1   H1A 3597   1.767   0.295   7.099 -0.4935  0.6843 -0.7410
   49CHL1   H1B 3598   1.942   0.297   7.050 -1.2294  1.2759 -0.1745
   49CHL1    C2 3599   1.805   0.237   6.898  0.6049  0.4008 -0.3154
   49CHL1   H2A 3600   1.825   0.340   6.860  2.4846  0.1191 -0.1903
   49CHL1   H2B 3601   1.697   0.214   6.887  0.4865  0.5011  0.5755
   49CHL1   C20 3602   2.082   0.022   7.787 -0.1490  0.1016 -0.6482
   49CHL1   H20 3603   2.030  -0.072   7.814 -2.2001  1.0389 -1.1170
   49CHL1   C21 3604   1.975   0.129   7.830 -0.4402 -0.4900  0.3075
   49CHL1  H21A 3605   1.994   0.233   7.798 -1.0265 -0.7439 -0.9369
   49CHL1  H21B 3606   1.955   0.130   7.939 -0.3516  1.3350  0.3415
   49CHL1  H21C 3607   1.881   0.106   7.776  0.9478 -2.9692 -1.2554
   49CHL1   C22 3608   2.203   0.023   7.887 -0.1143 -0.1407  0.1777
   49CHL1  H22A 3609   2.294  -0.006   7.830  0.9982 -0.8780  2.2355
   49CHL1  H22B 3610   2.220   0.129   7.919  0.1527 -0.0912 -0.1183
   49CHL1   C23 3611   2.182  -0.075   8.011  0.3615  0.3955  0.5141
   49CHL1  H23A 3612   2.092  -0.040   8.066  0.4909 -1.1017  1.7659
   49CHL1  H23B 3613   2.187  -0.179   7.973 -1.5355  1.0466 -1.7387
   49CHL1   C24 3614   2.294  -0.047   8.110 -1.1248  0.1694 -0.0098
   49CHL1  H24A 3615   2.389  -0.077   8.061 -0.4548  1.1513  0.6571
   49CHL1  H24B 3616   2.307   0.063   8.121  3.1417  0.0611 -1.9975
   49CHL1   C25 3617   2.281  -0.120   8.240 -0.4193 -0.0500 -0.5247
   49CHL1   H25 3618   2.246  -0.220   8.206 -1.1828  0.4203 -1.1453
   49CHL1   C26 3619   2.414  -0.136   8.314  0.0812  0.5361 -0.3558
   49CHL1  H26A 3620   2.448  -0.034   8.341  2.3019 -0.5712  1.3387
   49CHL1  H26B 3621   2.413  -0.193   8.409  0.2253  0.9794 -0.0888
   49CHL1  H26C 3622   2.493  -0.169   8.243 -0.5835 -1.3491 -0.2870
   49CHL1   C27 3623   2.176  -0.066   8.338 -0.1378 -0.4266  0.4250
   49CHL1  H27A 3624   2.072  -0.068   8.297 -0.4838 -0.3888  1.2840
   49CHL1  H27B 3625   2.167  -0.126   8.430 -1.3179  1.9963  2.0074
   49CHL1  H27C 3626   2.201   0.041   8.357  1.0243  0.0626 -3.0949
   50CHL1    C3 3627   2.417   0.771   6.982 -1.1122  0.1455  0.2716
   50CHL1    H3 3628   2.332   0.706   7.011 -0.5372 -0.8448 -0.2136
   50CHL1    O3 3629   2.406   0.799   6.838 -0.6183  0.3000 -0.0391
   50CHL1   H3' 3630   2.483   0.849   6.811  0.2428 -0.1572  1.4815
   50CHL1    C4 3631   2.419   0.912   7.052  0.5791 -0.0477 -0.1202
   50CHL1   H4A 3632   2.493   0.977   7.000 -0.7659  2.4875  0.9335
   50CHL1   H4B 3633   2.313   0.940   7.032 -0.3913 -3.4950 -0.4042
   50CHL1    C5 3634   2.455   0.905   7.199 -0.0047  0.3775  0.3135
   50CHL1    C6 3635   2.360   0.951   7.286  0.2939 -0.1026 -0.0599
   50CHL1    H6 3636   2.269   0.992   7.241 -0.1710 -3.0560 -2.1068
   50CHL1    C7 3637   2.369   0.943   7.432  0.0881 -0.0291  0.8555
   50CHL1   H7A 3638   2.322   1.034   7.475  1.8335  1.4341 -0.2035
   50CHL1   H7B 3639   2.304   0.857   7.456 -0.6015  0.5690  1.1563
   50CHL1    C8 3640   2.513   0.912   7.478 -0.6829 -0.5141 -0.3633
   50CHL1    H8 3641   2.585   0.996   7.463  0.8952 -1.2886  2.1706
   50CHL1   C14 3642   2.506   0.878   7.629 -0.0868  0.8172 -0.4566
   50CHL1   H14 3643   2.436   0.793   7.628  2.1217 -1.1976  2.0051
   50CHL1   C15 3644   2.435   0.973   7.727 -0.6061 -0.4255 -0.0602
   50CHL1  H15A 3645   2.477   1.075   7.722 -1.6112 -0.0168 -0.2837
   50CHL1  H15B 3646   2.326   0.967   7.708 -0.8454  1.2260  0.6777
   50CHL1   C16 3647   2.479   0.916   7.860  0.0709  0.3107 -0.1202
   50CHL1  H16A 3648   2.527   0.998   7.919  0.4272 -0.3309  0.4885
   50CHL1  H16B 3649   2.388   0.881   7.913 -0.8685 -1.4210 -2.7180
   50CHL1   C17 3650   2.578   0.797   7.832  0.0964 -0.6586 -0.3270
   50CHL1   H17 3651   2.506   0.713   7.816 -0.7902 -0.5104  2.2681
   50CHL1   C13 3652   2.637   0.823   7.692  0.3850 -0.2185  0.1613
   50CHL1   C18 3653   2.739   0.941   7.716  0.6536 -0.5621 -0.5646
   50CHL1  H18A 3654   2.709   1.013   7.796 -0.2822 -0.1835 -1.2368
   50CHL1  H18B 3655   2.838   0.894   7.732 -0.1307 -1.7362  1.2918
   50CHL1  H18C 3656   2.723   1.009   7.630 -0.3232 -0.3646 -0.2406
   50CHL1   C12 3657   2.692   0.708   7.610  0.4804  0.0514  0.4305
   50CHL1  H12A 3658   2.789   0.683   7.657 -0.5179 -0.5865  2.2523
   50CHL1  H12B 3659   2.628   0.618   7.624 -1.9020  1.7215  0.8412
   50CHL1   C11 3660   2.706   0.730   7.458 -0.4392  0.1227 -0.2706
   50CHL1  H11A 3661   2.790   0.802   7.450 -0.4734  0.1697 -0.2053
   50CHL1  H11B 3662   2.738   0.636   7.408 -0.0696  0.0036  0.1801
   50CHL1    C9 3663   2.579   0.795   7.394  0.2760  0.5423 -0.8523
   50CHL1    H9 3664   2.510   0.709   7.408  0.2016  0.5433 -1.2112
   50CHL1   C10 3665   2.584   0.828   7.243  0.0075 -0.0876  0.7317
   50CHL1   C19 3666   2.713   0.914   7.227 -0.0729  0.6709 -0.5619
   50CHL1  H19A 3667   2.811   0.863   7.229 -0.4301 -0.0175  1.7677
   50CHL1  H19B 3668   2.700   0.959   7.126  0.1747  0.8452 -0.5196
   50CHL1  H19C 3669   2.724   1.004   7.291  0.3395  0.3709 -0.2040
   50CHL1    C1 3670   2.587   0.704   7.160  1.0541  0.7115  0.5606
   50CHL1   H1A 3671   2.692   0.667   7.162  0.6833 -0.4872 -0.6394
   50CHL1   H1B 3672   2.517   0.628   7.200  1.0316  0.3182 -0.2095
   50CHL1    C2 3673   2.553   0.708   7.008  0.6385  0.3068 -0.5800
   50CHL1   H2A 3674   2.548   0.607   6.962 -1.3593  0.7249 -1.4154
   50CHL1   H2B 3675   2.630   0.765   6.952 -2.3077  2.2423 -3.0016
   50CHL1   C20 3676   2.678   0.763   7.940  0.1369  0.6858 -0.3387
   50CHL1   H20 3677   2.780   0.796   7.910 -0.0432  0.8767 -0.7513
   50CHL1   C21 3678   2.679   0.607   7.955  0.6538 -0.0200 -0.0547
   50CHL1  H21A 3679   2.594   0.580   8.022  2.6451 -2.7178  1.6265
   50CHL1  H21B 3680   2.771   0.570   8.004  1.8800  2.0883 -0.6543
   50CHL1  H21C 3681   2.667   0.558   7.856 -2.0943  0.4222 -0.0246
   50CHL1   C22 3682   2.661   0.836   8.075  0.5956 -0.4247 -0.0911
   50CHL1  H22A 3683   2.671   0.946   8.060 -0.0790 -0.2944  0.3534
   50CHL1  H22B 3684   2.555   0.825   8.107  0.9047  0.0439  1.1889
   50CHL1   C23 3685   2.758   0.788   8.190 -0.1012 -0.0554 -0.1352
   50CHL1  H23A 3686   2.740   0.680   8.209  3.6264 -0.8171 -0.0461
   50CHL1  H23B 3687   2.868   0.792   8.174 -0.2853  0.8502 -1.3467
   50CHL1   C24 3688   2.746   0.853   8.334 -0.2157  0.1564  0.7009
   50CHL1  H24A 3689   2.812   0.801   8.407  0.6553  1.3200  0.7554
   50CHL1  H24B 3690   2.780   0.958   8.327 -1.4601  0.4877 -0.8633
   50CHL1   C25 3691   2.605   0.844   8.394  0.2696 -0.3935  0.0679
   50CHL1   H25 3692   2.530   0.892   8.327 -1.7229 -1.3484  1.4898
   50CHL1   C26 3693   2.555   0.699   8.408  0.0201  0.0181 -0.1357
   50CHL1  H26A 3694   2.459   0.688   8.464  0.2697 -1.6080  0.0354
   50CHL1  H26B 3695   2.546   0.655   8.306 -0.1833 -1.2558  0.4097
   50CHL1  H26C 3696   2.637   0.640   8.455  0.7248  0.2230 -1.0614
   50CHL1   C27 3697   2.615   0.917   8.534 -0.2586 -0.9183 -0.6161
   50CHL1  H27A 3698   2.707   0.895   8.592  0.2319  0.4130 -0.8505
   50CHL1  H27B 3699   2.613   1.027   8.523 -0.2622 -0.8718 -0.1936
   50CHL1  H27C 3700   2.529   0.887   8.598 -0.8939  0.4432 -0.8037
   51CHL1    C3 3701   0.926   0.965   6.998 -0.5495 -0.2552 -0.3605
   51CHL1    H3 3702   0.949   1.073   6.985 -3.1772  0.3340 -0.7302
   51CHL1    O3 3703   0.884   0.919   6.872 -0.3258 -0.2283 -0.1092
   51CHL1   H3' 3704   0.955   0.937   6.810  0.3611  4.5792  1.6311
   51CHL1    C4 3705   1.051   0.884   7.041  0.9084  0.2595 -0.6205
   51CHL1   H4A 3706   1.022   0.777   7.028 -0.3359  0.5204 -0.1455
   51CHL1   H4B 3707   1.134   0.911   6.973  0.3013  1.3561 -0.9433
   51CHL1    C5 3708   1.094   0.915   7.188  0.0724  0.1691  0.0974
   51CHL1    C6 3709   1.220   0.953   7.215  0.1617 -0.0211 -0.3845
   51CHL1    H6 3710   1.293   0.970   7.136  1.8737 -0.8968  0.9429
   51CHL1    C7 3711   1.276   0.986   7.356  0.4033 -0.2631 -0.1338
   51CHL1   H7A 3712   1.375   0.936   7.372  1.1605  1.1110 -0.3739
   51CHL1   H7B 3713   1.301   1.094   7.367 -2.2243  0.3546  0.3063
   51CHL1    C8 3714   1.175   0.944   7.461 -0.1761 -0.2358  0.0876
   51CHL1    H8 3715   1.189   0.835   7.481  0.1377 -0.9902 -3.5606
   51CHL1   C14 3716   1.209   1.025   7.588 -0.2599 -0.4379  0.2034
   51CHL1   H14 3717   1.184   1.131   7.568 -0.4924 -0.1190  1.9623
   51CHL1   C15 3718   1.358   1.038   7.636  0.5926 -0.0833  0.0949
   51CHL1  H15A 3719   1.412   0.944   7.613 -2.2370 -1.7604 -0.1031
   51CHL1  H15B 3720   1.407   1.123   7.583  1.8770 -0.5214  0.5592
   51CHL1   C16 3721   1.354   1.064   7.784  0.2031  0.4228  0.2209
   51CHL1  H16A 3722   1.392   0.980   7.846 -2.0744  0.2188  1.4392
   51CHL1  H16B 3723   1.398   1.160   7.817  2.5137  0.0979 -1.6507
   51CHL1   C17 3724   1.203   1.068   7.824  0.7607 -0.4379  0.4661
   51CHL1   H17 3725   1.167   1.173   7.812 -0.5841 -0.3180  4.2217
   51CHL1   C13 3726   1.123   0.982   7.715  0.1842 -0.0956 -0.2915
   51CHL1   C18 3727   1.140   0.830   7.750  0.0482 -0.3332 -0.2579
   51CHL1  H18A 3728   1.061   0.806   7.824  1.2137  0.0619  1.1606
   51CHL1  H18B 3729   1.129   0.753   7.670 -1.4773 -1.4938  1.0093
   51CHL1  H18C 3730   1.234   0.817   7.806  0.2959 -0.5217 -0.7143
   51CHL1   C12 3731   0.984   1.014   7.676  0.0331 -0.1782 -0.0154
   51CHL1  H12A 3732   0.914   0.982   7.756 -0.4325  0.2488 -0.2481
   51CHL1  H12B 3733   0.987   1.124   7.661  1.3454 -0.1578  0.2831
   51CHL1   C11 3734   0.932   0.954   7.540 -0.4583 -0.8188 -0.5216
   51CHL1  H11A 3735   0.931   0.846   7.564 -0.7401 -0.1288  3.1147
   51CHL1  H11B 3736   0.828   0.989   7.519  0.5103  0.4961 -3.6616
   51CHL1    C9 3737   1.031   0.980   7.425 -0.3254 -0.3127  0.3246
   51CHL1    H9 3738   1.028   1.090   7.411 -0.1948 -0.5161 -1.7593
   51CHL1   C10 3739   0.986   0.910   7.297  0.2764 -0.6225  0.4109
   51CHL1   C19 3740   0.952   0.760   7.316  0.4928 -0.1713 -0.5792
   51CHL1  H19A 3741   1.041   0.715   7.365  1.9631  1.3114 -1.7230
   51CHL1  H19B 3742   0.862   0.748   7.379 -0.1270  0.7629 -1.2454
   51CHL1  H19C 3743   0.925   0.712   7.220  0.4947  1.2767 -1.3412
   51CHL1    C1 3744   0.865   0.989   7.241 -0.0448  0.2165  0.2737
   51CHL1   H1A 3745   0.782   0.966   7.310 -0.7284  1.9277  0.0871
   51CHL1   H1B 3746   0.891   1.097   7.237  2.0975 -0.2161 -4.2176
   51CHL1    C2 3747   0.824   0.938   7.102  0.3995 -0.0398 -0.0408
   51CHL1   H2A 3748   0.736   1.000   7.071 -1.4314 -3.0091 -1.2030
   51CHL1   H2B 3749   0.788   0.833   7.096  0.6251 -0.0660 -1.0629
   51CHL1   C20 3750   1.182   1.041   7.971  0.2618 -0.6308 -0.9753
   51CHL1   H20 3751   1.210   0.941   8.012 -0.5232  0.4794  2.6372
   51CHL1   C21 3752   1.032   1.074   8.002  0.2899  0.0715  0.1745
   51CHL1  H21A 3753   0.999   1.177   7.979 -0.6613 -0.1136  0.6730
   51CHL1  H21B 3754   1.032   1.049   8.110  2.7226 -0.3144  0.1441
   51CHL1  H21C 3755   0.966   1.002   7.949  0.5787  1.5295 -2.3263
   51CHL1   C22 3756   1.271   1.141   8.058  0.1012 -0.0212  0.0997
   51CHL1  H22A 3757   1.379   1.122   8.045  0.0877  0.5129 -0.8703
   51CHL1  H22B 3758   1.246   1.246   8.032 -1.4947 -0.2919  0.4178
   51CHL1   C23 3759   1.243   1.122   8.214 -0.8443  0.7804 -0.0472
   51CHL1  H23A 3760   1.140   1.146   8.248 -1.2105  0.5234 -0.9279
   51CHL1  H23B 3761   1.280   1.018   8.229 -2.9395  0.0798  0.6129
   51CHL1   C24 3762   1.334   1.210   8.299 -0.5994 -0.1890  0.3965
   51CHL1  H24A 3763   1.443   1.192   8.282 -0.4053  1.5147 -0.2750
   51CHL1  H24B 3764   1.309   1.312   8.263 -1.8637  0.1845  2.2004
   51CHL1   C25 3765   1.295   1.221   8.442 -0.4436 -0.1683 -0.1175
   51CHL1   H25 3766   1.185   1.205   8.445 -0.6560  0.4496 -2.7290
   51CHL1   C26 3767   1.375   1.120   8.525 -0.5493  0.4829  0.0778
   51CHL1  H26A 3768   1.480   1.156   8.527 -0.6255  0.8195 -0.9616
   51CHL1  H26B 3769   1.336   1.106   8.628 -0.1172 -2.7171 -0.0763
   51CHL1  H26C 3770   1.364   1.015   8.489 -0.6968  0.0094  1.4668
   51CHL1   C27 3771   1.331   1.364   8.491  0.5557  1.2296  0.4764
   51CHL1  H27A 3772   1.302   1.386   8.597 -1.0354 -1.0464  0.5966
   51CHL1  H27B 3773   1.440   1.377   8.480  0.2057  2.4992 -2.1610
   51CHL1  H27C 3774   1.283   1.450   8.439  0.4741 -0.8738 -3.2327
   52CHL1    C3 3775   2.342   0.221   6.856 -0.8394 -0.1839 -0.0109
   52CHL1    H3 3776   2.243   0.196   6.901 -1.4204  2.8025  0.5653
   52CHL1    O3 3777   2.313   0.247   6.718 -0.2346  0.2903 -0.4129
   52CHL1   H3' 3778   2.395   0.256   6.670 -0.1808 -0.7783 -0.5483
   52CHL1    C4 3779   2.375   0.353   6.926 -0.4010 -0.3131 -0.7421
   52CHL1   H4A 3780   2.465   0.392   6.873 -0.2899 -1.1234 -1.1564
   52CHL1   H4B 3781   2.298   0.427   6.896 -0.3403 -0.9104 -2.4735
   52CHL1    C5 3782   2.396   0.342   7.076  0.1575 -0.7394  0.1546
   52CHL1    C6 3783   2.315   0.412   7.157 -0.1258  0.2099  0.1108
   52CHL1    H6 3784   2.248   0.486   7.111  0.0253  0.1789 -0.1589
   52CHL1    C7 3785   2.340   0.405   7.304 -0.5866 -0.3244 -0.3891
   52CHL1   H7A 3786   2.338   0.510   7.341 -1.8552 -1.0139  1.6353
   52CHL1   H7B 3787   2.255   0.342   7.338  1.2796 -1.4422  2.5449
   52CHL1    C8 3788   2.472   0.340   7.353 -0.0363 -0.2262  0.2760
   52CHL1    H8 3789   2.550   0.418   7.338  0.1302 -0.4671 -0.1270
   52CHL1   C14 3790   2.464   0.299   7.503  0.7413  0.2927  0.1391
   52CHL1   H14 3791   2.384   0.222   7.502 -0.1405  1.1174  2.4190
   52CHL1   C15 3792   2.411   0.396   7.601 -0.3841 -0.3567 -0.3802
   52CHL1  H15A 3793   2.444   0.500   7.583  1.2083 -1.1556 -2.5864
   52CHL1  H15B 3794   2.301   0.392   7.615 -0.1471  0.4520  2.5295
   52CHL1   C16 3795   2.471   0.344   7.730  0.1974 -0.4034 -0.3194
   52CHL1  H16A 3796   2.540   0.419   7.776 -0.6257 -0.3168  0.8178
   52CHL1  H16B 3797   2.390   0.321   7.802 -0.0626 -1.0926 -0.8276
   52CHL1   C17 3798   2.546   0.209   7.705  0.4300  0.3174  0.5296
   52CHL1   H17 3799   2.467   0.131   7.702 -0.8464  1.5936 -0.0838
   52CHL1   C13 3800   2.593   0.237   7.559  0.0808  0.4784  0.0872
   52CHL1   C18 3801   2.711   0.331   7.563 -0.0775 -0.3376  0.2861
   52CHL1  H18A 3802   2.702   0.395   7.472  1.6005 -0.2424  0.1631
   52CHL1  H18B 3803   2.727   0.393   7.653  0.3159  0.5285 -0.3615
   52CHL1  H18C 3804   2.807   0.275   7.552 -1.1244 -2.2571  0.4978
   52CHL1   C12 3805   2.629   0.112   7.474  0.3304  0.1991  0.7966
   52CHL1  H12A 3806   2.714   0.055   7.518 -0.3864 -1.8563 -0.3412
   52CHL1  H12B 3807   2.536   0.052   7.483 -1.8738  3.2383 -0.3621
   52CHL1   C11 3808   2.630   0.134   7.315 -0.3629 -0.7618  0.0840
   52CHL1  H11A 3809   2.727   0.178   7.284 -1.8094  1.5077 -1.4753
   52CHL1  H11B 3810   2.627   0.038   7.258 -1.1049 -1.3118  1.0261
   52CHL1    C9 3811   2.503   0.216   7.265 -0.0053  0.3566  0.0941
   52CHL1    H9 3812   2.415   0.152   7.288 -1.8886  3.1054  1.2045
   52CHL1   C10 3813   2.501   0.244   7.113  0.2474  0.5091 -0.5282
   52CHL1   C19 3814   2.642   0.307   7.072  0.1911  0.0527  0.0292
   52CHL1  H19A 3815   2.645   0.329   6.963  1.7621 -1.9852 -0.3874
   52CHL1  H19B 3816   2.678   0.387   7.141  3.1232 -2.0048  1.0741
   52CHL1  H19C 3817   2.720   0.229   7.086  1.2799  1.3950  2.0299
   52CHL1    C1 3818   2.477   0.108   7.042  0.5497 -0.0987  0.6106
   52CHL1   H1A 3819   2.575   0.056   7.049  0.5724 -1.5484 -5.2134
   52CHL1   H1B 3820   2.397   0.052   7.097  2.6631 -2.0858  1.8476
   52CHL1    C2 3821   2.450   0.111   6.891  0.2786 -0.5936  0.0017
   52CHL1   H2A 3822   2.406   0.016   6.854 -1.9829  0.1411  0.6378
   52CHL1   H2B 3823   2.543   0.141   6.839 -2.2080  2.2328 -3.2870
   52CHL1   C20 3824   2.646   0.176   7.821 -0.2015  0.4312  0.1156
   52CHL1   H20 3825   2.731   0.247   7.828  1.7343 -1.8795  1.8707
   52CHL1   C21 3826   2.693   0.031   7.800 -0.7242  0.3701 -0.1481
   52CHL1  H21A 3827   2.786   0.023   7.740 -1.4568 -1.4548 -1.1409
   52CHL1  H21B 3828   2.626  -0.040   7.746 -0.6108 -0.1300  0.3632
   52CHL1  H21C 3829   2.713  -0.015   7.899 -1.3849  1.2385  0.4024
   52CHL1   C22 3830   2.581   0.180   7.956  0.7954  0.1662 -0.1342
   52CHL1  H22A 3831   2.503   0.252   7.989  1.2826 -0.5718  2.8612
   52CHL1  H22B 3832   2.541   0.081   7.986 -2.6435  0.4286 -3.0787
   52CHL1   C23 3833   2.692   0.217   8.059 -0.0740 -0.0565  0.3929
   52CHL1  H23A 3834   2.763   0.131   8.062 -3.0075 -2.6499  1.0516
   52CHL1  H23B 3835   2.748   0.310   8.036 -2.2654  2.0791  3.0262
   52CHL1   C24 3836   2.625   0.228   8.198  0.3346 -0.8870  0.0486
   52CHL1  H24A 3837   2.573   0.326   8.209  2.2124  0.1050  0.3946
   52CHL1  H24B 3838   2.551   0.148   8.223 -0.4289 -0.8611 -1.9151
   52CHL1   C25 3839   2.724   0.230   8.316  0.4308 -0.7745  0.1381
   52CHL1   H25 3840   2.799   0.149   8.304 -0.6687 -1.7096 -0.5832
   52CHL1   C26 3841   2.816   0.352   8.318 -0.0030  0.2341 -0.8952
   52CHL1  H26A 3842   2.766   0.451   8.306 -2.0374 -0.7322 -0.7776
   52CHL1  H26B 3843   2.882   0.357   8.407 -1.2612 -0.8519  0.1448
   52CHL1  H26C 3844   2.894   0.351   8.238  2.7322  2.8175  1.5036
   52CHL1   C27 3845   2.644   0.226   8.451  0.4953 -0.4884 -0.3107
   52CHL1  H27A 3846   2.719   0.228   8.533  0.5883 -1.5869 -0.3528
   52CHL1  H27B 3847   2.572   0.311   8.456  2.1101  1.0331 -1.5570
   52CHL1  H27C 3848   2.575   0.140   8.465 -2.0341  1.7135  1.8668
   53CHL1    C3 3849   5.378   4.768   6.951 -0.5968 -0.7044 -0.0731
   53CHL1    H3 3850   5.277   4.744   6.991 -1.0489 -1.0526 -1.3756
   53CHL1    O3 3851   5.375   4.755   6.809 -0.2776 -0.0625  1.0042
   53CHL1   H3' 3852   5.461   4.734   6.772  0.1516  2.1915  0.6063
   53CHL1    C4 3853   5.402   4.913   7.001 -0.6507 -0.0274  0.0321
   53CHL1   H4A 3854   5.504   4.942   6.966 -0.6333 -0.8022 -0.5821
   53CHL1   H4B 3855   5.324   4.984   6.967 -0.5622 -0.9144 -2.2052
   53CHL1    C5 3856   5.415   4.910   7.151  0.2911 -0.6387 -0.7119
   53CHL1    C6 3857   5.333   4.991   7.221  0.4188  0.0609 -0.4849
   53CHL1    H6 3858   5.258   5.058   7.177 -0.1435 -0.2438 -0.0013
   53CHL1    C7 3859   5.343   5.008   7.373  0.3074 -0.0632  0.7120
   53CHL1   H7A 3860   5.347   5.116   7.399  1.1462  0.1511 -0.2414
   53CHL1   H7B 3861   5.255   4.961   7.422  0.9671 -0.7393  1.2822
   53CHL1    C8 3862   5.468   4.927   7.435  0.1426  0.2771 -0.3092
   53CHL1    H8 3863   5.563   4.981   7.414  1.7438 -2.1820  0.1116
   53CHL1   C14 3864   5.444   4.904   7.587 -0.2381  0.6225 -0.4084
   53CHL1   H14 3865   5.355   4.837   7.594 -1.1637  1.9682  1.4486
   53CHL1   C15 3866   5.412   5.031   7.678  0.6776 -0.3172  0.3129
   53CHL1  H15A 3867   5.484   5.109   7.646 -0.8481  0.1652 -2.3173
   53CHL1  H15B 3868   5.316   5.082   7.654  0.4846 -0.1545  1.3729
   53CHL1   C16 3869   5.424   4.980   7.816 -0.0299 -0.9219 -0.7115
   53CHL1  H16A 3870   5.498   5.048   7.863 -2.0765  1.1602 -0.2881
   53CHL1  H16B 3871   5.336   4.971   7.883  2.2903  0.0723  2.7175
   53CHL1   C17 3872   5.484   4.831   7.804 -0.1873  0.6344  0.2606
   53CHL1   H17 3873   5.394   4.766   7.798  0.2992  0.0847 -3.1281
   53CHL1   C13 3874   5.548   4.819   7.663 -0.2507  0.6169  0.5284
   53CHL1   C18 3875   5.685   4.903   7.649  0.0699  0.1706 -0.3682
   53CHL1  H18A 3876   5.772   4.868   7.708  1.8176  1.8908 -1.8209
   53CHL1  H18B 3877   5.722   4.913   7.545 -1.7120 -0.4455 -1.0962
   53CHL1  H18C 3878   5.664   5.007   7.684 -0.5518  0.0979 -0.5128
   53CHL1   C12 3879   5.557   4.680   7.593  0.1465  0.0864 -0.1311
   53CHL1  H12A 3880   5.637   4.622   7.644 -0.3272  0.7449  1.3982
   53CHL1  H12B 3881   5.463   4.621   7.603  0.0545  0.2892  0.2112
   53CHL1   C11 3882   5.583   4.694   7.437  0.1303  0.5395  0.2595
   53CHL1  H11A 3883   5.690   4.720   7.423  0.7710 -1.0573  1.7124
   53CHL1  H11B 3884   5.562   4.596   7.389  0.5286  0.2600  0.6369
   53CHL1    C9 3885   5.486   4.794   7.363  0.3780  0.5166  0.2251
   53CHL1    H9 3886   5.386   4.746   7.367  1.2808 -1.4592 -0.1242
   53CHL1   C10 3887   5.507   4.808   7.213 -0.5759  0.5716  0.2700
   53CHL1   C19 3888   5.655   4.846   7.186 -0.6953 -0.4074 -0.7249
   53CHL1  H19A 3889   5.667   4.887   7.083 -1.3227 -0.9770 -1.0267
   53CHL1  H19B 3890   5.683   4.933   7.249 -3.7887 -0.7304  1.3209
   53CHL1  H19C 3891   5.729   4.765   7.206 -0.6401 -0.4621 -1.1307
   53CHL1    C1 3892   5.485   4.666   7.150 -0.1578  0.3664  0.0280
   53CHL1   H1A 3893   5.565   4.598   7.186 -0.8673  0.6591  2.2846
   53CHL1   H1B 3894   5.385   4.633   7.184 -1.8122  1.5139 -3.2807
   53CHL1    C2 3895   5.476   4.663   7.003 -0.6440  0.0973 -0.2186
   53CHL1   H2A 3896   5.432   4.563   6.982 -0.3475 -0.9983  3.6513
   53CHL1   H2B 3897   5.577   4.650   6.958 -0.5768  1.0783 -0.3705
   53CHL1   C20 3898   5.574   4.796   7.928  0.9662  0.8695  0.4575
   53CHL1   H20 3899   5.678   4.831   7.909  2.5294 -1.1412  4.1153
   53CHL1   C21 3900   5.590   4.640   7.934  0.1375  0.2417 -0.5612
   53CHL1  H21A 3901   5.607   4.590   7.836  0.9733 -0.6818  0.0390
   53CHL1  H21B 3902   5.490   4.606   7.969 -1.4574  4.1207 -0.8995
   53CHL1  H21C 3903   5.667   4.597   8.001 -0.5650 -2.5646 -1.4209
   53CHL1   C22 3904   5.514   4.848   8.057  0.7313  0.0105  0.3860
   53CHL1  H22A 3905   5.525   4.958   8.069  1.3287 -0.0243  0.2165
   53CHL1  H22B 3906   5.412   4.808   8.074 -0.2939  2.8397  1.5775
   53CHL1   C23 3907   5.601   4.801   8.178  0.1943  0.3771  0.6724
   53CHL1  H23A 3908   5.603   4.690   8.181  1.1672 -0.0072 -4.5195
   53CHL1  H23B 3909   5.698   4.847   8.150  0.1130 -0.5715 -1.3025
   53CHL1   C24 3910   5.547   4.869   8.303  0.1295  0.1346  0.2101
   53CHL1  H24A 3911   5.554   4.980   8.294  0.4777 -0.0174 -2.0763
   53CHL1  H24B 3912   5.437   4.855   8.304  0.1523 -0.3116  2.6479
   53CHL1   C25 3913   5.586   4.822   8.443 -0.4651 -0.6893 -0.0875
   53CHL1   H25 3914   5.532   4.726   8.457 -0.8340 -0.5589 -0.5957
   53CHL1   C26 3915   5.740   4.811   8.455 -0.4977  0.1660 -0.5745
   53CHL1  H26A 3916   5.789   4.751   8.375  1.7008 -0.6095  1.2747
   53CHL1  H26B 3917   5.783   4.913   8.441 -2.1487  0.9654 -0.1562
   53CHL1  H26C 3918   5.785   4.755   8.539  2.6150 -0.3653 -2.4315
   53CHL1   C27 3919   5.548   4.922   8.555 -0.7041  0.0723  0.3365
   53CHL1  H27A 3920   5.570   4.874   8.652 -1.6372  0.1043  0.5734
   53CHL1  H27B 3921   5.605   5.018   8.559  0.4993 -0.6256  0.3255
   53CHL1  H27C 3922   5.446   4.966   8.554  0.1167  2.1399 -1.1506
   54CHL1    C3 3923   5.546   6.259   6.872 -0.5853  0.0858 -0.2942
   54CHL1    H3 3924   5.454   6.249   6.933  1.2951  2.6522  3.3361
   54CHL1    O3 3925   5.532   6.244   6.734  0.1759 -0.0941  0.5198
   54CHL1   H3' 3926   5.540   6.332   6.696  0.2692 -1.2193 -2.2697
   54CHL1    C4 3927   5.628   6.388   6.894  0.5368  0.4164  1.3440
   54CHL1   H4A 3928   5.707   6.401   6.816 -0.5863  2.5758  0.4669
   54CHL1   H4B 3929   5.554   6.466   6.867  0.8200 -0.1462 -1.2319
   54CHL1    C5 3930   5.664   6.402   7.042 -0.1921 -0.9586  0.1514
   54CHL1    C6 3931   5.616   6.505   7.105 -0.1402  0.3926 -0.6082
   54CHL1    H6 3932   5.566   6.589   7.054  0.4351  0.6696 -0.7213
   54CHL1    C7 3933   5.640   6.532   7.253 -0.0457 -0.2549  0.2162
   54CHL1   H7A 3934   5.643   6.642   7.266 -2.4744  0.0731 -1.3210
   54CHL1   H7B 3935   5.547   6.507   7.309  0.2394  1.0443  1.3059
   54CHL1    C8 3936   5.755   6.452   7.301 -0.2938  0.3995 -0.6549
   54CHL1    H8 3937   5.850   6.498   7.268  0.1929  0.4468  0.7618
   54CHL1   C14 3938   5.740   6.452   7.460 -0.2000  0.1547 -1.1410
   54CHL1   H14 3939   5.647   6.394   7.480  0.5453 -1.2076 -1.4529
   54CHL1   C15 3940   5.731   6.589   7.529  0.6755 -0.1157 -0.4305
   54CHL1  H15A 3941   5.820   6.646   7.496  0.4183  1.1488  0.9690
   54CHL1  H15B 3942   5.632   6.635   7.508 -0.5300 -1.9996  0.8666
   54CHL1   C16 3943   5.749   6.549   7.682  0.4964 -0.1210 -0.1442
   54CHL1  H16A 3944   5.822   6.621   7.725 -1.7699  1.2552  1.6473
   54CHL1  H16B 3945   5.655   6.556   7.740  1.7715 -1.5626  2.2442
   54CHL1   C17 3946   5.796   6.400   7.677  0.4253 -0.2912 -0.0100
   54CHL1   H17 3947   5.702   6.342   7.690  0.0645 -0.0180 -1.2224
   54CHL1   C13 3948   5.842   6.368   7.539  0.4632 -0.4530  0.4144
   54CHL1   C18 3949   5.981   6.421   7.520  0.1965  0.1859  0.2454
   54CHL1  H18A 3950   6.020   6.426   7.416 -0.5770  0.3485 -0.0365
   54CHL1  H18B 3951   5.983   6.515   7.580 -2.7526 -0.3391  1.3255
   54CHL1  H18C 3952   6.047   6.354   7.581 -1.9304 -0.5333  1.8731
   54CHL1   C12 3953   5.822   6.224   7.493  0.0202  0.1505 -1.0455
   54CHL1  H12A 3954   5.906   6.173   7.544 -0.0047  0.7014 -0.4449
   54CHL1  H12B 3955   5.731   6.174   7.532  0.4454 -0.6799 -1.0972
   54CHL1   C11 3956   5.830   6.209   7.336 -0.8044  0.0790  0.1316
   54CHL1  H11A 3957   5.938   6.214   7.313 -0.3793 -0.3977  1.8408
   54CHL1  H11B 3958   5.813   6.103   7.308 -0.5412  0.6502 -2.4214
   54CHL1    C9 3959   5.733   6.303   7.264 -0.3271  0.0710 -0.6061
   54CHL1    H9 3960   5.630   6.272   7.292  0.0933 -0.9388 -0.0850
   54CHL1   C10 3961   5.737   6.287   7.114  0.5570  0.0383 -0.4312
   54CHL1   C19 3962   5.883   6.295   7.058 -0.8487  0.5099  0.0274
   54CHL1  H19A 3963   5.929   6.202   7.098  1.7689 -0.0381 -3.7557
   54CHL1  H19B 3964   5.895   6.300   6.948 -0.3648  0.9911  0.1010
   54CHL1  H19C 3965   5.930   6.385   7.103 -4.4493  3.0019 -0.8206
   54CHL1    C1 3966   5.668   6.152   7.069 -0.0255 -0.5807 -0.4606
   54CHL1   H1A 3967   5.724   6.069   7.117  1.3115  0.9283  0.6822
   54CHL1   H1B 3968   5.569   6.152   7.119 -0.3593 -0.4355 -1.1163
   54CHL1    C2 3969   5.640   6.145   6.920  0.1071  0.5660  0.0599
   54CHL1   H2A 3970   5.588   6.049   6.897 -0.9556  1.2543 -0.5156
   54CHL1   H2B 3971   5.732   6.147   6.858  0.0539  0.5674 -0.0203
   54CHL1   C20 3972   5.885   6.362   7.802 -1.2166 -0.0613  0.2845
   54CHL1   H20 3973   5.981   6.418   7.789  0.1520 -2.0762  1.2291
   54CHL1   C21 3974   5.934   6.213   7.810  0.1423  0.2932  0.4676
   54CHL1  H21A 3975   5.842   6.151   7.816  2.0454 -2.7074  0.7017
   54CHL1  H21B 3976   6.002   6.201   7.897  0.4204  1.5960  0.4528
   54CHL1  H21C 3977   5.978   6.178   7.715 -0.8062 -1.9386  0.7816
   54CHL1   C22 3978   5.825   6.400   7.940 -0.4827 -0.3801 -0.1043
   54CHL1  H22A 3979   5.726   6.449   7.928 -0.6242 -0.4261  0.8334
   54CHL1  H22B 3980   5.816   6.310   8.005  1.7581 -1.8891 -1.7148
   54CHL1   C23 3981   5.914   6.505   8.009 -0.1161  0.5241  0.3739
   54CHL1  H23A 3982   6.014   6.458   8.020 -0.0172  0.9168  1.2746
   54CHL1  H23B 3983   5.918   6.596   7.946  1.6455 -0.3508 -0.8424
   54CHL1   C24 3984   5.884   6.527   8.160  0.3340 -0.2269  1.1440
   54CHL1  H24A 3985   5.909   6.440   8.224  1.0234 -1.1272 -0.2929
   54CHL1  H24B 3986   5.932   6.616   8.207 -0.0220  0.3864  0.3607
   54CHL1   C25 3987   5.738   6.544   8.196  0.6697 -0.6504  0.1250
   54CHL1   H25 3988   5.669   6.470   8.151  0.4007 -0.9765  1.0457
   54CHL1   C26 3989   5.721   6.527   8.343  0.0035  0.3293 -0.2762
   54CHL1  H26A 3990   5.752   6.430   8.387 -0.8921  0.1726  0.0356
   54CHL1  H26B 3991   5.778   6.613   8.384  0.7887 -0.0476 -0.5728
   54CHL1  H26C 3992   5.614   6.550   8.365 -0.4627  2.2844 -3.8565
   54CHL1   C27 3993   5.690   6.683   8.148  0.4778 -0.3231  0.1303
   54CHL1  H27A 3994   5.753   6.764   8.191 -0.4766  0.1707  0.6407
   54CHL1  H27B 3995   5.706   6.688   8.039  2.3238 -2.1825  0.2489
   54CHL1  H27C 3996   5.590   6.710   8.190  1.1659  0.8960  1.0548
   55CHL1    C3 3997   1.267   1.435   6.991  0.3915 -0.0434  0.2581
   55CHL1    H3 3998   1.181   1.366   7.000  0.4185 -0.2942 -1.2464
   55CHL1    O3 3999   1.285   1.461   6.850 -0.0479 -0.2438 -0.3167
   55CHL1   H3' 4000   1.364   1.516   6.850  0.8158 -1.4478 -0.0813
   55CHL1    C4 4001   1.245   1.570   7.057  0.3805 -0.0788  0.4578
   55CHL1   H4A 4002   1.321   1.641   7.019 -0.8347  0.0198 -2.0255
   55CHL1   H4B 4003   1.147   1.608   7.019  1.1519  2.1870  0.5650
   55CHL1    C5 4004   1.255   1.569   7.207 -0.0700 -0.4348  0.1176
   55CHL1    C6 4005   1.165   1.632   7.283  0.7445  0.5431  0.2494
   55CHL1    H6 4006   1.077   1.684   7.242 -0.0734 -0.9818  0.0311
   55CHL1    C7 4007   1.180   1.640   7.432  0.0787 -0.4877  0.3550
   55CHL1   H7A 4008   1.176   1.745   7.467 -0.0896  0.0402 -1.2044
   55CHL1   H7B 4009   1.095   1.587   7.481 -1.4795  0.8152 -0.8332
   55CHL1    C8 4010   1.321   1.593   7.479  0.0501  0.5928 -0.6371
   55CHL1    H8 4011   1.401   1.666   7.451  0.5508  0.6085  0.7733
   55CHL1   C14 4012   1.328   1.575   7.628  0.0390 -0.6655 -0.2336
   55CHL1   H14 4013   1.260   1.489   7.644 -0.8795 -0.0128 -0.5767
   55CHL1   C15 4014   1.284   1.692   7.710 -0.2103  0.2964  0.0782
   55CHL1  H15A 4015   1.323   1.777   7.649  0.0296 -1.3357 -2.1788
   55CHL1  H15B 4016   1.174   1.702   7.716 -0.3934 -1.0510 -0.6911
   55CHL1   C16 4017   1.366   1.687   7.838 -0.2514 -0.0002 -0.3075
   55CHL1  H16A 4018   1.435   1.774   7.847  1.0424 -1.0724  0.4666
   55CHL1  H16B 4019   1.293   1.680   7.921  0.8605 -1.1344  0.6190
   55CHL1   C17 4020   1.447   1.558   7.831  0.0388  0.0471 -0.0309
   55CHL1   H17 4021   1.371   1.484   7.863 -0.1348 -0.4218 -1.4538
   55CHL1   C13 4022   1.465   1.541   7.677 -0.0462  0.6981 -0.0787
   55CHL1   C18 4023   1.580   1.638   7.630 -0.1908  0.3774  0.3327
   55CHL1  H18A 4024   1.551   1.743   7.651  1.8733  0.8837  0.8686
   55CHL1  H18B 4025   1.676   1.612   7.681 -0.3710 -0.7309  0.1170
   55CHL1  H18C 4026   1.609   1.633   7.523  2.1298  1.4295  0.8349
   55CHL1   C12 4027   1.499   1.400   7.632  0.9393  0.6369  0.3065
   55CHL1  H12A 4028   1.597   1.362   7.667  0.0749 -1.1943  0.8867
   55CHL1  H12B 4029   1.421   1.335   7.679  0.3057 -0.4682 -2.1315
   55CHL1   C11 4030   1.492   1.395   7.482 -0.5535  0.2575  0.5189
   55CHL1  H11A 4031   1.588   1.436   7.443 -0.8984  0.3743 -0.2275
   55CHL1  H11B 4032   1.498   1.288   7.453  0.2279 -0.2014  2.2542
   55CHL1    C9 4033   1.361   1.463   7.416  0.2515  0.7039 -0.6459
   55CHL1    H9 4034   1.278   1.392   7.436 -0.9261  2.3632  0.6918
   55CHL1   C10 4035   1.369   1.482   7.263 -0.2004  0.0461  0.1040
   55CHL1   C19 4036   1.501   1.552   7.222 -0.0874  0.3465 -0.4722
   55CHL1  H19A 4037   1.514   1.637   7.293 -0.4790 -0.1127  0.1544
   55CHL1  H19B 4038   1.588   1.486   7.241 -1.4733 -1.3205  0.4082
   55CHL1  H19C 4039   1.516   1.597   7.122 -2.8508  1.8833 -0.3048
   55CHL1    C1 4040   1.371   1.341   7.193 -0.3634  0.5495  0.7309
   55CHL1   H1A 4041   1.455   1.277   7.228 -0.8959 -0.8103 -0.3874
   55CHL1   H1B 4042   1.278   1.289   7.221  0.6632 -0.4226  2.5064
   55CHL1    C2 4043   1.381   1.350   7.039 -0.0791 -0.0035  1.0312
   55CHL1   H2A 4044   1.371   1.250   6.991 -0.2918 -0.9373  2.9188
   55CHL1   H2B 4045   1.476   1.400   7.008  0.1729 -1.7653 -1.2940
   55CHL1   C20 4046   1.568   1.544   7.930  0.9583  0.1554 -0.3598
   55CHL1   H20 4047   1.663   1.588   7.892  1.8962 -1.9178 -0.5036
   55CHL1   C21 4048   1.603   1.393   7.946 -0.5319  0.3316 -0.0945
   55CHL1  H21A 4049   1.637   1.345   7.851  0.3817 -0.0595  0.4192
   55CHL1  H21B 4050   1.514   1.348   7.995  1.0323 -1.2885  1.4321
   55CHL1  H21C 4051   1.688   1.386   8.017  0.3786 -1.3577 -1.2551
   55CHL1   C22 4052   1.541   1.615   8.062  0.1193 -0.4715 -0.4280
   55CHL1  H22A 4053   1.532   1.725   8.049 -0.2513 -0.4048  0.3356
   55CHL1  H22B 4054   1.440   1.591   8.100 -0.9702  0.9116 -2.3424
   55CHL1   C23 4055   1.645   1.591   8.171  0.0117 -0.0084 -0.3515
   55CHL1  H23A 4056   1.650   1.484   8.201  1.6108  0.2110  0.2887
   55CHL1  H23B 4057   1.749   1.615   8.140 -0.7356  1.3321 -1.9591
   55CHL1   C24 4058   1.602   1.661   8.298  1.0690 -0.8538  0.9208
   55CHL1  H24A 4059   1.586   1.770   8.285  0.4340 -1.0731 -0.2327
   55CHL1  H24B 4060   1.509   1.616   8.338  0.5148 -1.1365 -0.6143
   55CHL1   C25 4061   1.703   1.649   8.407 -0.6944 -0.2485  0.6413
   55CHL1   H25 4062   1.727   1.542   8.428 -0.1989 -0.0867  0.9195
   55CHL1   C26 4063   1.836   1.713   8.363 -0.9904  0.1689 -0.4892
   55CHL1  H26A 4064   1.888   1.665   8.277 -1.5566  0.9487 -1.2927
   55CHL1  H26B 4065   1.820   1.821   8.341  1.9850  0.5212 -1.4634
   55CHL1  H26C 4066   1.906   1.722   8.449  0.1347 -1.0484 -1.2358
   55CHL1   C27 4067   1.664   1.703   8.545 -0.1349  0.4968  0.7813
   55CHL1  H27A 4068   1.653   1.814   8.535  1.2294  0.7075  1.3586
   55CHL1  H27B 4069   1.577   1.650   8.589 -0.0786  1.7095  2.4537
   55CHL1  H27C 4070   1.756   1.687   8.605  0.7541 -0.7772 -0.8390
   56CHL1    C3 4071   6.510   2.452   6.698  0.3776  0.4386  0.1901
   56CHL1    H3 4072   6.445   2.533   6.737 -0.2088  0.7938 -1.4238
   56CHL1    O3 4073   6.528   2.470   6.558 -0.5228 -0.5726 -0.0722
   56CHL1   H3' 4074   6.447   2.515   6.537 -0.7850 -1.0033 -0.0067
   56CHL1    C4 4075   6.646   2.437   6.768 -0.2605  0.9035  0.4096
   56CHL1   H4A 4076   6.698   2.363   6.703  0.2231  1.3113  0.3218
   56CHL1   H4B 4077   6.711   2.524   6.745  0.0618  0.5337 -0.1098
   56CHL1    C5 4078   6.632   2.392   6.918  0.6490 -0.1277  0.3424
   56CHL1    C6 4079   6.694   2.470   7.009 -0.8759  0.2109  0.6573
   56CHL1    H6 4080   6.757   2.555   6.981 -0.6727 -0.1772 -0.0717
   56CHL1    C7 4081   6.687   2.439   7.156  0.0821 -0.6096  0.3506
   56CHL1   H7A 4082   6.795   2.432   7.182  0.9063  0.3896 -2.4124
   56CHL1   H7B 4083   6.642   2.521   7.217  1.9492  1.3728 -0.7608
   56CHL1    C8 4084   6.621   2.302   7.176  0.8943  0.1521 -0.1982
   56CHL1    H8 4085   6.701   2.226   7.157  1.3578  0.2257  1.3567
   56CHL1   C14 4086   6.570   2.306   7.321  0.3444  0.2936  0.5171
   56CHL1   H14 4087   6.506   2.396   7.337  0.1563  0.3673 -0.5649
   56CHL1   C15 4088   6.676   2.323   7.435 -0.5024  0.2299 -0.5579
   56CHL1  H15A 4089   6.758   2.248   7.431 -0.7678 -0.0488 -0.8040
   56CHL1  H15B 4090   6.710   2.429   7.429 -1.8651  0.6000 -2.2566
   56CHL1   C16 4091   6.595   2.298   7.560  0.3993  0.7417  0.4934
   56CHL1  H16A 4092   6.658   2.221   7.609 -0.4772  0.6368  1.5019
   56CHL1  H16B 4093   6.581   2.391   7.620  0.2923  1.1410 -0.1411
   56CHL1   C17 4094   6.450   2.239   7.513 -0.4689 -0.5058  0.6853
   56CHL1   H17 4095   6.386   2.330   7.508 -0.3137 -0.4619 -3.9378
   56CHL1   C13 4096   6.484   2.187   7.368 -0.4455 -0.0108  0.8783
   56CHL1   C18 4097   6.570   2.055   7.385  0.5195 -0.5664 -0.0330
   56CHL1  H18A 4098   6.499   1.969   7.384  0.4073 -0.5029 -2.3555
   56CHL1  H18B 4099   6.638   2.053   7.297 -0.6163 -1.3682 -0.9345
   56CHL1  H18C 4100   6.626   2.037   7.479  0.6604 -1.5359 -0.2854
   56CHL1   C12 4101   6.365   2.171   7.269  0.0362 -0.2436 -0.5153
   56CHL1  H12A 4102   6.295   2.092   7.304  0.1529  0.5318  1.5856
   56CHL1  H12B 4103   6.310   2.268   7.263 -1.0844 -0.5782  2.6216
   56CHL1   C11 4104   6.416   2.145   7.130 -0.4017  0.5823  0.2241
   56CHL1  H11A 4105   6.469   2.047   7.130 -2.2392 -0.4912 -0.7141
   56CHL1  H11B 4106   6.318   2.123   7.080 -0.6113  1.6280  0.1550
   56CHL1    C9 4107   6.496   2.273   7.086 -0.1029 -0.5969  0.2239
   56CHL1    H9 4108   6.437   2.364   7.113  0.9921 -0.1554  1.2112
   56CHL1   C10 4109   6.527   2.280   6.940 -0.0620 -0.6347 -0.0411
   56CHL1   C19 4110   6.581   2.140   6.903  0.0626  0.1876  0.6597
   56CHL1  H19A 4111   6.634   2.141   6.805  0.0063 -1.1926  0.5834
   56CHL1  H19B 4112   6.661   2.120   6.977 -0.0705 -1.8702  0.3108
   56CHL1  H19C 4113   6.504   2.062   6.885  0.7936 -0.4085 -0.0011
   56CHL1    C1 4114   6.393   2.304   6.864 -0.3766 -0.1698  0.1139
   56CHL1   H1A 4115   6.331   2.211   6.867  1.6718 -1.6620 -1.0815
   56CHL1   H1B 4116   6.325   2.385   6.898  1.6473  1.8293 -0.3174
   56CHL1    C2 4117   6.426   2.328   6.717  0.0442  0.2686  0.2977
   56CHL1   H2A 4118   6.337   2.342   6.651  0.5721  0.5287 -0.3753
   56CHL1   H2B 4119   6.482   2.240   6.679 -0.4668 -0.4777  1.2403
   56CHL1   C20 4120   6.393   2.144   7.618  0.1314 -0.4850  0.6287
   56CHL1   H20 4121   6.446   2.048   7.605 -0.3400 -0.7613  0.7055
   56CHL1   C21 4122   6.242   2.131   7.596 -0.3617 -0.0829  0.5852
   56CHL1  H21A 4123   6.211   2.032   7.638  1.1790 -0.8311  0.0165
   56CHL1  H21B 4124   6.223   2.134   7.487 -0.3300 -0.5288  0.5656
   56CHL1  H21C 4125   6.180   2.206   7.650 -1.1570  1.2765 -2.0959
   56CHL1   C22 4126   6.428   2.182   7.770  0.0003 -0.4804  0.0101
   56CHL1  H22A 4127   6.537   2.200   7.785 -0.0671  0.9508 -1.0339
   56CHL1  H22B 4128   6.387   2.283   7.785  0.8860  0.0879 -1.1792
   56CHL1   C23 4129   6.380   2.073   7.869  0.4615  0.5474 -0.2971
   56CHL1  H23A 4130   6.269   2.080   7.862  0.5349  0.2424 -2.8656
   56CHL1  H23B 4131   6.411   1.970   7.842 -0.4413 -0.0093  0.7117
   56CHL1   C24 4132   6.415   2.117   8.011 -0.1116 -0.5232  0.0541
   56CHL1  H24A 4133   6.518   2.093   8.045 -0.9326 -1.2381  2.2675
   56CHL1  H24B 4134   6.411   2.228   8.007  1.3085 -0.4632 -0.2922
   56CHL1   C25 4135   6.326   2.060   8.123  0.1793 -0.2133  0.0871
   56CHL1   H25 4136   6.221   2.079   8.093 -0.5662 -0.4448  2.3643
   56CHL1   C26 4137   6.346   1.905   8.130  0.3181 -0.0413  0.3651
   56CHL1  H26A 4138   6.334   1.858   8.031  0.5599 -0.8205  0.6971
   56CHL1  H26B 4139   6.271   1.865   8.202  2.6043 -1.3294  2.1906
   56CHL1  H26C 4140   6.446   1.872   8.166  0.5200 -0.0788 -0.2174
   56CHL1   C27 4141   6.352   2.126   8.258  0.3590 -0.4531  0.4813
   56CHL1  H27A 4142   6.361   2.235   8.242  0.5543 -0.6486 -0.8780
   56CHL1  H27B 4143   6.277   2.118   8.339 -0.6887 -0.7943 -0.5022
   56CHL1  H27C 4144   6.455   2.089   8.282  0.9466 -0.7387 -2.1387
   57SAPC     N 4145   3.167   1.065  10.626 -0.0344 -0.0673  0.3729
   57SAPC   C12 4146   3.155   1.004  10.769  0.3058  1.5660  0.4547
   57SAPC  H12A 4147   3.110   1.073  10.839 -0.1635  1.3808  0.3427
   57SAPC  H12B 4148   3.253   0.982  10.808  0.4982  1.6175  0.0057
   57SAPC   C13 4149   3.254   1.192  10.627  0.2016  0.2326  0.0319
   57SAPC  H13A 4150   3.332   1.199  10.701  0.3430  2.4775 -0.2425
   57SAPC  H13B 4151   3.286   1.203  10.525 -2.9215 -1.0969 -1.2280
   57SAPC  H13C 4152   3.179   1.269  10.642 -2.4764 -2.2172  0.0296
   57SAPC   C14 4153   3.250   0.976  10.525  0.1500  0.1915 -0.0631
   57SAPC  H14A 4154   3.227   0.872  10.539  2.5414 -0.3720  0.0159
   57SAPC  H14B 4155   3.239   1.007  10.422  0.7072 -0.9730 -0.4776
   57SAPC  H14C 4156   3.354   0.983  10.551  0.2027  0.7803 -0.4233
   57SAPC   C15 4157   3.029   1.089  10.571 -0.5744 -0.0732  0.3318
   57SAPC  H15A 4158   2.979   0.994  10.561  0.6864 -0.6320 -0.9358
   57SAPC  H15B 4159   2.973   1.153  10.638  1.6464  1.9197  0.4152
   57SAPC  H15C 4160   3.044   1.149  10.483  0.4320  0.8096  1.0781
   57SAPC   C11 4161   3.089   0.864  10.776  0.5268 -0.5004  0.2297
   57SAPC  H11A 4162   2.983   0.878  10.746  0.2386 -1.5291  0.7402
   57SAPC  H11B 4163   3.084   0.828  10.880 -2.8240  1.2523  0.8131
   57SAPC     P 4164   3.265   0.683  10.759 -0.0735 -0.4665  0.2680
   57SAPC   O13 4165   3.385   0.768  10.785 -0.3218 -0.0222  0.6590
   57SAPC   O14 4166   3.207   0.606  10.872  0.0861 -0.5162 -0.7329
   57SAPC   O12 4167   3.154   0.768  10.691 -0.2070 -0.6107 -0.1491
   57SAPC   O11 4168   3.303   0.589  10.641  0.4227 -0.0489  0.2411
   57SAPC    C1 4169   3.210   0.538  10.544 -0.0947 -0.2910  0.4247
   57SAPC    HA 4170   3.137   0.463  10.583 -0.5310 -0.2270 -0.2551
   57SAPC    HB 4171   3.146   0.622  10.510 -1.2595 -0.7031  1.4924
   57SAPC    C2 4172   3.288   0.471  10.430 -0.2515 -0.2685 -0.2759
   57SAPC    HS 4173   3.372   0.541  10.410 -0.3387 -0.6383 -2.1187
   57SAPC   O21 4174   3.204   0.454  10.315 -0.0059  0.0812  0.5270
   57SAPC   C21 4175   3.186   0.561  10.242 -0.0295  0.0227  0.2248
   57SAPC   O22 4176   3.226   0.673  10.269 -0.3005 -0.0445  0.0317
   57SAPC   C22 4177   3.098   0.522  10.125  0.5509  0.2654  0.8551
   57SAPC   H2R 4178   3.162   0.446  10.075  2.2767  0.7181  2.2806
   57SAPC   H2S 4179   3.007   0.469  10.161  0.1360 -1.0896 -1.9020
   57SAPC    C3 4180   3.358   0.334  10.475  0.1331 -0.1052 -0.6890
   57SAPC    HX 4181   3.286   0.272  10.532  0.1695 -0.7410 -1.3165
   57SAPC    HY 4182   3.435   0.363  10.549 -1.0277 -0.0867  0.5517
   57SAPC   O31 4183   3.425   0.261  10.371 -0.3590  0.4727  0.0155
   57SAPC   C31 4184   3.418   0.132  10.374 -0.1206 -0.3648  0.6034
   57SAPC   O32 4185   3.347   0.070  10.453 -0.0652  0.0622  0.0843
   57SAPC   C32 4186   3.497   0.068  10.255 -0.4229  0.1256 -0.5430
   57SAPC   H2X 4187   3.512  -0.040  10.274 -1.8151  0.0412  0.2434
   57SAPC   H2Y 4188   3.585   0.133  10.236 -1.3193  0.9779 -1.9481
   57SAPC   C23 4189   3.071   0.645  10.032 -0.0290  0.1296  0.7601
   57SAPC   H3R 4190   3.164   0.699  10.005 -1.3209  1.7524 -0.7151
   57SAPC   H3S 4191   3.011   0.730  10.071 -0.2594  1.5788 -2.4182
   57SAPC   C24 4192   3.005   0.587   9.903 -0.4228 -0.6213 -0.0411
   57SAPC   H4R 4193   2.906   0.542   9.920 -0.6003 -0.1950  0.0779
   57SAPC   H4S 4194   3.075   0.514   9.857  1.2127  0.6874  0.2422
   57SAPC   C25 4195   2.990   0.710   9.805 -0.1132  0.4091  0.0140
   57SAPC   H5R 4196   3.078   0.775   9.799  1.7873 -2.0751 -1.2916
   57SAPC   C26 4197   2.891   0.735   9.721 -0.1305  0.1384 -0.0573
   57SAPC   H6R 4198   2.901   0.828   9.662 -0.1088 -0.8480 -1.6665
   57SAPC   C27 4199   2.771   0.636   9.702 -0.7824  0.0056  0.1084
   57SAPC   H7R 4200   2.699   0.662   9.783 -1.1156 -1.1880  0.2109
   57SAPC   H7S 4201   2.798   0.530   9.720  0.1219  0.3145  0.6533
   57SAPC   C28 4202   2.705   0.655   9.571 -0.3026 -0.0702  0.5151
   57SAPC   H8R 4203   2.599   0.682   9.560  0.3125  1.6205 -2.7898
   57SAPC   C29 4204   2.754   0.640   9.445  0.0072  0.3977  0.4543
   57SAPC   H9R 4205   2.693   0.666   9.358  1.7714  0.6908 -0.7484
   57SAPC  C210 4206   2.893   0.593   9.413 -0.6187  0.7108 -0.2535
   57SAPC  H10R 4207   2.870   0.522   9.330 -2.2152  0.5630  0.2727
   57SAPC  H10S 4208   2.933   0.526   9.491  0.9898 -0.8977 -2.3464
   57SAPC  C211 4209   2.986   0.709   9.379  0.0474  0.2700 -0.1175
   57SAPC  H11R 4210   3.072   0.704   9.447  0.4636 -1.6923 -0.7086
   57SAPC  C212 4211   2.974   0.796   9.276  0.2807  0.6057 -0.4505
   57SAPC  H12R 4212   3.049   0.876   9.266  0.1801  0.5197 -2.2620
   57SAPC  C213 4213   2.860   0.795   9.177 -0.8718 -0.3417 -0.2758
   57SAPC  H13R 4214   2.760   0.803   9.224  0.0354 -0.3133  1.7509
   57SAPC  H13S 4215   2.853   0.697   9.124 -0.6886 -0.6345  0.2389
   57SAPC  C214 4216   2.864   0.915   9.083 -0.0979 -0.5468  0.6959
   57SAPC  H14R 4217   2.795   0.992   9.118 -1.1169 -0.5046 -1.2404
   57SAPC  C215 4218   2.934   0.914   8.965  0.0270  0.1383  0.8545
   57SAPC  H15R 4219   2.931   1.008   8.908  1.6557  1.6620  3.0888
   57SAPC  C216 4220   3.025   0.816   8.890 -0.0766  0.4952  0.1121
   57SAPC  H16R 4221   2.967   0.725   8.863  0.0268  0.6844 -0.7542
   57SAPC  H16S 4222   3.103   0.784   8.963 -0.7580 -1.1437  0.1565
   57SAPC  C217 4223   3.080   0.876   8.765 -0.4367  0.2494  0.6546
   57SAPC  H17R 4224   3.162   0.809   8.732 -1.7177 -1.5837  1.1052
   57SAPC  H17S 4225   3.135   0.970   8.790 -2.2093  1.8083 -0.9136
   57SAPC  C218 4226   2.981   0.892   8.646  0.3882 -0.4434  0.6560
   57SAPC  H18R 4227   2.898   0.963   8.667  0.9783 -0.0737  1.8078
   57SAPC  H18S 4228   2.934   0.793   8.627 -0.1800 -0.2954  1.2418
   57SAPC  C219 4229   3.055   0.937   8.523 -0.2319 -0.0432 -0.1542
   57SAPC  H19R 4230   2.996   0.898   8.437 -0.0982  2.7463 -1.6319
   57SAPC  H19S 4231   3.150   0.881   8.508 -0.9563 -1.0460 -1.2354
   57SAPC  C220 4232   3.077   1.083   8.496 -0.3215 -0.4281  0.1528
   57SAPC  H20R 4233   3.118   1.139   8.582 -1.4532 -1.3463  1.3268
   57SAPC  H20S 4234   2.978   1.129   8.477  1.0492  2.5703 -0.3052
   57SAPC  H20T 4235   3.133   1.100   8.401  0.1467 -2.2512  0.0625
   57SAPC   C33 4236   3.402   0.063  10.129 -0.0609  0.1772 -0.0239
   57SAPC   H3X 4237   3.367   0.163  10.096 -0.9724 -0.5016 -1.1945
   57SAPC   H3Y 4238   3.316  -0.004  10.152  0.7644 -1.1424 -0.6561
   57SAPC   C34 4239   3.480   0.006  10.008  0.3224 -0.1926  0.1215
   57SAPC   H4X 4240   3.493  -0.102  10.032 -0.3842 -0.4615 -0.6637
   57SAPC   H4Y 4241   3.577   0.060  10.015  0.6201 -0.7715  0.6090
   57SAPC   C35 4242   3.396   0.014   9.878 -1.0106 -0.1167  0.1252
   57SAPC   H5X 4243   3.294  -0.016   9.909 -1.3500  1.6395  0.7878
   57SAPC   H5Y 4244   3.439  -0.057   9.804  1.3540  0.5181  0.8016
   57SAPC   C36 4245   3.385   0.148   9.811  0.1423 -0.7693 -0.1499
   57SAPC   H6X 4246   3.478   0.201   9.785  1.0804 -1.6187  1.2872
   57SAPC   H6Y 4247   3.334   0.214   9.884  0.3081  0.6070 -1.2506
   57SAPC   C37 4248   3.295   0.144   9.680 -1.0101  0.6415  0.6271
   57SAPC   H7X 4249   3.184   0.139   9.690 -1.0226  0.4064  0.3834
   57SAPC   H7Y 4250   3.332   0.050   9.634  0.7412  1.7520 -0.3479
   57SAPC   C38 4251   3.328   0.258   9.582  1.0940  0.4796 -0.4728
   57SAPC   H8X 4252   3.437   0.275   9.572  0.9608  2.3289  0.6574
   57SAPC   H8Y 4253   3.284   0.349   9.630  1.1974  0.7707 -0.9253
   57SAPC   C39 4254   3.270   0.254   9.443  0.4492  0.0930 -0.0019
   57SAPC   H9X 4255   3.161   0.235   9.449  0.5192 -0.6935 -1.0871
   57SAPC   H9Y 4256   3.308   0.175   9.375 -0.9330 -0.4001 -0.2266
   57SAPC  C310 4257   3.298   0.382   9.361 -0.1456  0.0624 -0.2258
   57SAPC  H10X 4258   3.402   0.409   9.389 -0.9039  2.5404  0.4412
   57SAPC  H10Y 4259   3.239   0.470   9.394  2.3756  1.6076  0.4068
   57SAPC  C311 4260   3.284   0.368   9.213  0.2734 -0.2860 -0.2683
   57SAPC  H11X 4261   3.347   0.286   9.174  0.4188  0.3840 -1.4930
   57SAPC  H11Y 4262   3.307   0.467   9.168 -0.6024  0.0640  0.0363
   57SAPC  C312 4263   3.138   0.342   9.167  0.1437 -0.2468  0.2659
   57SAPC  H12X 4264   3.063   0.404   9.221 -1.4955 -0.4067 -1.7179
   57SAPC  H12Y 4265   3.122   0.234   9.189 -1.1256 -0.4064 -1.2941
   57SAPC  C313 4266   3.116   0.359   9.015  0.2096 -0.0195  0.0016
   57SAPC  H13X 4267   3.186   0.295   8.957 -0.7758  0.3637 -1.6760
   57SAPC  H13Y 4268   3.140   0.466   8.999  0.1904 -0.1326 -0.8491
   57SAPC  C314 4269   2.976   0.333   8.967  0.3699  0.0877  0.0727
   57SAPC  H14X 4270   2.913   0.409   9.019  0.0410 -0.9704  1.2602
   57SAPC  H14Y 4271   2.944   0.229   8.989 -0.3454  0.2463 -0.1951
   57SAPC  C315 4272   2.951   0.358   8.817 -0.6851 -0.0922  0.2533
   57SAPC  H15X 4273   2.975   0.463   8.789 -0.8421 -0.2064 -0.3210
   57SAPC  H15Y 4274   2.847   0.350   8.780 -0.2027  1.8358 -1.8096
   57SAPC  C316 4275   3.047   0.278   8.724 -1.1078 -0.0485  0.2482
   57SAPC  H16X 4276   3.153   0.309   8.727 -0.9668 -0.1862 -1.8292
   57SAPC  H16Y 4277   3.004   0.293   8.623 -0.7706 -0.5066  0.0357
   57SAPC  C317 4278   3.046   0.125   8.754  0.3209 -0.0077 -0.0466
   57SAPC  H17X 4279   2.950   0.095   8.802  1.0566 -0.7555  1.0152
   57SAPC  H17Y 4280   3.121   0.095   8.830  0.7608  1.6744  0.2064
   57SAPC  C318 4281   3.066   0.032   8.633 -0.3115  0.3859 -0.8707
   57SAPC  H18X 4282   3.062  -0.072   8.673 -0.4788  0.0118 -1.8420
   57SAPC  H18Y 4283   3.170   0.044   8.596  0.5444  1.2470  1.6223
   57SAPC  H18Z 4284   2.980   0.036   8.564 -0.1333 -0.0416 -1.1241
   58SAPC     N 4285   6.711   6.373  10.926  0.1656 -0.1863 -0.8428
   58SAPC   C12 4286   6.729   6.297  10.798  0.1859  0.1861  0.3376
   58SAPC  H12A 4287   6.742   6.192  10.820  1.3749  0.1302 -0.5593
   58SAPC  H12B 4288   6.824   6.328  10.757  0.9930  0.3811  2.2492
   58SAPC   C13 4289   6.680   6.518  10.899  0.0291  0.2552 -0.5761
   58SAPC  H13A 4290   6.579   6.530  10.863  0.4120  0.0467 -1.7397
   58SAPC  H13B 4291   6.689   6.575  10.990  0.5545 -1.2727  0.3744
   58SAPC  H13C 4292   6.743   6.565  10.825  1.0819  0.1184  0.2024
   58SAPC   C14 4293   6.608   6.305  11.009  0.2972  0.5698 -0.0018
   58SAPC  H14A 4294   6.623   6.198  11.013  0.6121  0.6137 -0.0316
   58SAPC  H14B 4295   6.609   6.337  11.112  1.1546 -1.7883  0.7912
   58SAPC  H14C 4296   6.512   6.320  10.962 -1.1692 -0.5001  2.4784
   58SAPC   C15 4297   6.839   6.366  11.000  0.4732 -0.0035  0.4017
   58SAPC  H15A 4298   6.916   6.419  10.947  0.4371  0.5962  0.9434
   58SAPC  H15B 4299   6.828   6.407  11.099  1.3971  0.2410  0.4117
   58SAPC  H15C 4300   6.875   6.265  10.993 -3.0060 -1.2790 -3.3360
   58SAPC   C11 4301   6.616   6.323  10.691 -0.0513  0.3107 -0.0503
   58SAPC  H11A 4302   6.647   6.273  10.597 -0.2519  1.0476 -0.5196
   58SAPC  H11B 4303   6.615   6.433  10.674  0.3467  0.3945  0.4479
   58SAPC     P 4304   6.364   6.332  10.751  0.2289  0.1830 -0.1619
   58SAPC   O13 4305   6.274   6.246  10.833 -0.4561 -0.4447  0.1792
   58SAPC   O14 4306   6.382   6.473  10.792 -0.0474 -0.1973 -0.2003
   58SAPC   O12 4307   6.498   6.254  10.733 -0.3068  0.2916 -0.1133
   58SAPC   O11 4308   6.310   6.335  10.598 -0.0788 -0.0592 -0.0102
   58SAPC    C1 4309   6.349   6.231  10.508  0.6489 -0.8667  0.5904
   58SAPC    HA 4310   6.446   6.254  10.460  0.3254  0.5769  0.5991
   58SAPC    HB 4311   6.372   6.133  10.556 -0.2947 -0.8192  1.1595
   58SAPC    C2 4312   6.239   6.203  10.399  0.7701 -0.0552  0.0472
   58SAPC    HS 4313   6.274   6.114  10.342 -0.6817 -0.5161 -0.1817
   58SAPC   O21 4314   6.221   6.327  10.318  0.3367  0.5227  0.3853
   58SAPC   C21 4315   6.319   6.345  10.223 -0.4526  0.6697 -0.6971
   58SAPC   O22 4316   6.417   6.273  10.205 -0.0538 -0.3307  0.3698
   58SAPC   C22 4317   6.285   6.478  10.153 -0.3254  0.2634 -0.8440
   58SAPC   H2R 4318   6.177   6.492  10.128 -0.8428  0.5086  1.3192
   58SAPC   H2S 4319   6.307   6.553  10.231  0.8028 -1.2999  0.4045
   58SAPC    C3 4320   6.105   6.158  10.454  0.1631  0.1506  0.3892
   58SAPC    HX 4321   6.058   6.226  10.528  0.5670  2.0099 -0.9796
   58SAPC    HY 4322   6.136   6.066  10.508 -0.1391 -0.6915 -0.8311
   58SAPC   O31 4323   6.011   6.128  10.352  0.8720 -0.3596 -0.4419
   58SAPC   C31 4324   5.909   6.217  10.336  0.5863  0.8250  0.1543
   58SAPC   O32 4325   5.906   6.328  10.391 -0.1263  0.8513  0.4855
   58SAPC   C32 4326   5.791   6.159  10.247 -0.3083 -0.3179  0.4030
   58SAPC   H2X 4327   5.711   6.236  10.251 -0.3339 -0.3693  0.9048
   58SAPC   H2Y 4328   5.760   6.062  10.292  1.6761 -1.8300 -1.2887
   58SAPC   C23 4329   6.359   6.494  10.015  0.4453  0.4863  0.0830
   58SAPC   H3R 4330   6.464   6.459  10.029  0.3986  0.9939  2.1185
   58SAPC   H3S 4331   6.370   6.603  10.002 -0.8239  0.8901  1.9792
   58SAPC   C24 4332   6.297   6.427   9.900 -0.3091 -0.2238  0.2361
   58SAPC   H4R 4333   6.201   6.481   9.884 -0.3772 -0.1579  0.8296
   58SAPC   H4S 4334   6.276   6.322   9.931  0.9010  0.0814  2.3096
   58SAPC   C25 4335   6.384   6.429   9.783 -0.0257 -1.0373  0.6097
   58SAPC   H5R 4336   6.469   6.360   9.790  2.5942  1.6689 -1.8252
   58SAPC   C26 4337   6.366   6.491   9.670  0.7857 -0.2646  0.0333
   58SAPC   H6R 4338   6.444   6.466   9.596  2.0596 -4.6625  2.4705
   58SAPC   C27 4339   6.251   6.575   9.627  0.3251  0.0927 -0.2310
   58SAPC   H7R 4340   6.292   6.651   9.558  0.0023  1.3343  0.8904
   58SAPC   H7S 4341   6.201   6.632   9.709  1.8714  0.2548  0.6236
   58SAPC   C28 4342   6.149   6.481   9.566  1.3183  0.1946  1.1299
   58SAPC   H8R 4343   6.091   6.419   9.635  1.7346 -2.3842 -0.7059
   58SAPC   C29 4344   6.140   6.456   9.436  0.4733  0.4439 -1.0760
   58SAPC   H9R 4345   6.063   6.383   9.408 -0.8358  1.5936 -0.6028
   58SAPC  C210 4346   6.223   6.502   9.325 -0.4303 -0.1368  0.2856
   58SAPC  H10R 4347   6.236   6.415   9.257 -0.2535  0.9554 -1.1315
   58SAPC  H10S 4348   6.329   6.518   9.356  0.3551 -1.2389 -1.6557
   58SAPC  C211 4349   6.185   6.634   9.255 -0.1883  0.3457 -0.3778
   58SAPC  H11R 4350   6.141   6.707   9.325  1.0262  0.3177  0.4504
   58SAPC  C212 4351   6.199   6.652   9.121  0.2439  0.0412 -0.0444
   58SAPC  H12R 4352   6.155   6.743   9.077  0.3056  0.7917  1.3918
   58SAPC  C213 4353   6.236   6.546   9.019 -0.5555  0.0311 -0.5763
   58SAPC  H13R 4354   6.322   6.492   9.063  0.1162  1.5519  0.0480
   58SAPC  H13S 4355   6.284   6.599   8.933  1.1809  0.7671  0.7966
   58SAPC  C214 4356   6.136   6.445   8.977 -0.0511  0.3915 -0.2046
   58SAPC  H14R 4357   6.098   6.376   9.054  1.4905 -1.1811 -0.7802
   58SAPC  C215 4358   6.084   6.432   8.860 -0.0226 -0.3553  0.4260
   58SAPC  H15R 4359   6.016   6.348   8.840  1.1913 -1.8080  2.0958
   58SAPC  C216 4360   6.106   6.526   8.742  0.3671  0.0628 -0.7283
   58SAPC  H16R 4361   6.162   6.481   8.657  1.1215  0.2459 -0.3404
   58SAPC  H16S 4362   6.166   6.615   8.772  0.0828 -0.5077  1.8320
   58SAPC  C217 4363   5.971   6.583   8.691 -0.3971 -0.1276  0.0442
   58SAPC  H17R 4364   5.923   6.629   8.780  0.7663 -0.0722  0.6742
   58SAPC  H17S 4365   5.911   6.506   8.638  1.0302 -1.6015  0.4828
   58SAPC  C218 4366   6.000   6.693   8.590  0.3270  0.8340 -1.1157
   58SAPC  H18R 4367   5.998   6.636   8.495 -2.2609 -1.0702 -0.0432
   58SAPC  H18S 4368   6.098   6.744   8.604 -1.0047  3.4721 -0.7107
   58SAPC  C219 4369   5.885   6.799   8.588  0.1647 -0.0327 -0.4207
   58SAPC  H19R 4370   5.894   6.840   8.691 -0.9131  0.4734 -0.5051
   58SAPC  H19S 4371   5.790   6.741   8.578 -0.0378  0.3054 -0.4955
   58SAPC  C220 4372   5.909   6.904   8.474  0.2864 -0.0981  0.0096
   58SAPC  H20R 4373   5.813   6.958   8.457  0.9092  0.9588 -0.2499
   58SAPC  H20S 4374   5.930   6.846   8.382 -0.0665  2.0637 -1.5021
   58SAPC  H20T 4375   5.990   6.975   8.501  0.0785  0.0052  0.3873
   58SAPC   C33 4376   5.856   6.134  10.105  0.7027  0.0391 -0.1606
   58SAPC   H3X 4377   5.778   6.089  10.040  0.3917 -1.4888  1.1848
   58SAPC   H3Y 4378   5.933   6.055  10.117 -0.4550 -1.5251 -2.4197
   58SAPC   C34 4379   5.905   6.260  10.034  0.2779  0.3765 -0.9580
   58SAPC   H4X 4380   5.962   6.326  10.101 -1.6547 -0.0478  1.2255
   58SAPC   H4Y 4381   5.815   6.316  10.000 -0.0813  1.5100  1.6327
   58SAPC   C35 4382   6.005   6.233   9.923 -0.2779 -0.1948 -0.3207
   58SAPC   H5X 4383   6.073   6.162   9.974  1.1416  0.6546 -0.9612
   58SAPC   H5Y 4384   6.060   6.327   9.904 -3.4443  1.9732  0.3765
   58SAPC   C36 4385   5.960   6.166   9.789 -0.2373  0.2927 -0.0815
   58SAPC   H6X 4386   5.892   6.234   9.732  0.4174  0.3329 -0.8420
   58SAPC   H6Y 4387   5.897   6.079   9.816  1.3754 -0.5454  1.1150
   58SAPC   C37 4388   6.063   6.111   9.685  0.0495 -0.4717 -0.2484
   58SAPC   H7X 4389   6.139   6.042   9.728 -1.6585 -2.5366 -0.3814
   58SAPC   H7Y 4390   6.111   6.208   9.659  0.5403 -0.3643  1.0068
   58SAPC   C38 4391   6.006   6.045   9.563 -0.4688 -0.0234 -0.4659
   58SAPC   H8X 4392   5.920   6.104   9.525 -0.7325 -0.7764 -1.0721
   58SAPC   H8Y 4393   5.966   5.945   9.590 -0.2932 -0.1228 -0.5744
   58SAPC   C39 4394   6.104   6.025   9.447  0.5419  0.0549 -0.8029
   58SAPC   H9X 4395   6.153   5.926   9.453 -0.4040 -0.4952 -1.9926
   58SAPC   H9Y 4396   6.176   6.111   9.451 -1.3817  1.6998  0.4833
   58SAPC  C310 4397   6.042   6.037   9.312 -0.6450 -0.1222 -0.0761
   58SAPC  H10X 4398   5.992   6.135   9.291 -0.1502 -0.2531 -2.0191
   58SAPC  H10Y 4399   5.961   5.961   9.306 -0.5335 -0.2949  0.4788
   58SAPC  C311 4400   6.149   6.022   9.199 -0.2142  0.2582 -0.3711
   58SAPC  H11X 4401   6.201   5.925   9.208  1.2236  1.1780  2.0178
   58SAPC  H11Y 4402   6.225   6.101   9.218 -1.1479  1.5687 -1.7706
   58SAPC  C312 4403   6.064   6.045   9.065 -0.5518 -0.4841  0.1992
   58SAPC  H12X 4404   6.023   6.148   9.053 -1.8799 -0.9061  0.8915
   58SAPC  H12Y 4405   5.976   5.979   9.051  1.2324 -2.3587 -3.8765
   58SAPC  C313 4406   6.157   6.025   8.938 -1.0680 -0.1429 -0.6303
   58SAPC  H13X 4407   6.196   5.922   8.950  0.5299  0.6796  2.0256
   58SAPC  H13Y 4408   6.237   6.101   8.947  2.0005 -3.1564 -0.4181
   58SAPC  C314 4409   6.086   6.037   8.802  0.5907  0.7720 -0.6598
   58SAPC  H14X 4410   6.031   6.134   8.799 -0.2066  0.5199  2.3246
   58SAPC  H14Y 4411   6.018   5.950   8.788  1.1973  0.4377 -1.6501
   58SAPC  C315 4412   6.167   6.025   8.673 -0.3416  0.3840  0.4581
   58SAPC  H15X 4413   6.188   5.918   8.651 -0.7871  0.4528 -0.3774
   58SAPC  H15Y 4414   6.265   6.076   8.677 -0.7997  1.3380 -0.1387
   58SAPC  C316 4415   6.089   6.077   8.554 -0.2731 -0.9961 -0.1153
   58SAPC  H16X 4416   6.058   6.183   8.569  0.8275 -0.7078  0.2023
   58SAPC  H16Y 4417   5.996   6.017   8.544  1.0660 -3.6323  1.9153
   58SAPC  C317 4418   6.168   6.066   8.420  0.0237 -0.1655 -0.1736
   58SAPC  H17X 4419   6.184   5.960   8.391 -2.8992 -1.3009  1.8792
   58SAPC  H17Y 4420   6.263   6.124   8.419 -0.8636  1.3510  0.8448
   58SAPC  C318 4421   6.088   6.139   8.310 -0.0706  0.7925 -0.2106
   58SAPC  H18X 4422   5.978   6.122   8.312  0.3004 -1.8940  0.8995
   58SAPC  H18Y 4423   6.137   6.101   8.217 -1.0537 -1.1924  0.0390
   58SAPC  H18Z 4424   6.094   6.249   8.320 -2.5772  0.8575  1.2368
   59SAPC     N 4425   4.755   0.990  10.889  0.0244  0.2678 -0.1493
   59SAPC   C12 4426   4.732   0.913  11.013  0.0505 -0.3728  0.2330
   59SAPC  H12A 4427   4.627   0.890  11.022 -0.5180  2.2486  1.3810
   59SAPC  H12B 4428   4.736   0.980  11.097 -2.5244 -2.2677  2.0193
   59SAPC   C13 4429   4.756   0.912  10.765  0.0503 -0.0224 -0.0478
   59SAPC  H13A 4430   4.841   0.845  10.766 -1.4888 -2.1528  2.5419
   59SAPC  H13B 4431   4.671   0.846  10.759 -0.1094  0.1500  0.3193
   59SAPC  H13C 4432   4.761   0.979  10.680  1.7617  1.0765  0.8683
   59SAPC   C14 4433   4.657   1.104  10.868 -0.1564 -0.1134 -0.5047
   59SAPC  H14A 4434   4.667   1.176  10.948  0.7792  0.5266 -1.1750
   59SAPC  H14B 4435   4.684   1.155  10.776  0.3908 -1.0145 -0.8584
   59SAPC  H14C 4436   4.558   1.068  10.843  0.0804 -1.4233  0.3593
   59SAPC   C15 4437   4.888   1.057  10.909 -0.2041 -0.0256  0.3802
   59SAPC  H15A 4438   4.955   0.973  10.921  0.0670  0.2279  0.6783
   59SAPC  H15B 4439   4.911   1.119  10.824 -0.3923  3.1941  2.4797
   59SAPC  H15C 4440   4.881   1.129  10.989  0.2178  0.2417  0.1782
   59SAPC   C11 4441   4.820   0.787  11.037 -0.2633 -0.7224  0.1755
   59SAPC  H11A 4442   4.788   0.710  10.964  3.2922  0.1196 -2.6002
   59SAPC  H11B 4443   4.805   0.747  11.139 -1.0409 -2.1963 -0.4771
   59SAPC     P 4444   5.064   0.709  11.006 -0.0640 -0.1432 -0.3608
   59SAPC   O13 4445   5.178   0.761  11.083 -0.8122  0.1061 -0.0328
   59SAPC   O14 4446   5.002   0.582  11.061  0.0181 -0.2507 -0.3229
   59SAPC   O12 4447   4.957   0.815  11.026 -0.0537 -0.5900  0.2556
   59SAPC   O11 4448   5.092   0.707  10.850  0.3027  0.2175  0.0001
   59SAPC    C1 4449   5.128   0.821  10.771 -0.7816 -0.0952 -0.7246
   59SAPC    HA 4450   5.049   0.855  10.701  0.8827  0.1698 -2.5600
   59SAPC    HB 4451   5.162   0.902  10.838  0.9424  1.5484 -3.3858
   59SAPC    C2 4452   5.254   0.788  10.687  0.3052  0.1208  0.4060
   59SAPC    HS 4453   5.284   0.873  10.622  0.5232  0.1167  0.5024
   59SAPC   O21 4454   5.240   0.671  10.605 -0.4447 -0.2583  0.0107
   59SAPC   C21 4455   5.166   0.679  10.489  0.4754 -0.0396 -0.3343
   59SAPC   O22 4456   5.097   0.776  10.457 -0.4058 -0.5218 -0.2739
   59SAPC   C22 4457   5.188   0.548  10.415  0.5474 -0.3227 -0.4534
   59SAPC   H2R 4458   5.273   0.501  10.469  1.8844  2.7474  0.3372
   59SAPC   H2S 4459   5.093   0.493  10.430  0.6497 -0.4846 -0.4043
   59SAPC    C3 4460   5.372   0.770  10.785  0.2036  0.0944  0.0223
   59SAPC    HX 4461   5.358   0.691  10.861 -1.0454  0.6238  0.3697
   59SAPC    HY 4462   5.385   0.861  10.848 -0.9551  0.7135 -0.6027
   59SAPC   O31 4463   5.488   0.737  10.712 -0.4450  0.0198 -0.2893
   59SAPC   C31 4464   5.545   0.836  10.649 -0.0863 -0.3591  0.6333
   59SAPC   O32 4465   5.487   0.945  10.625  0.1036  0.0317 -0.0621
   59SAPC   C32 4466   5.690   0.797  10.605 -0.1945 -0.6528  0.6631
   59SAPC   H2X 4467   5.688   0.718  10.527  0.4630  0.2288 -0.2746
   59SAPC   H2Y 4468   5.735   0.755  10.697  0.1432 -1.6198  0.0638
   59SAPC   C23 4469   5.215   0.573  10.270  0.1627  0.0949 -0.4411
   59SAPC   H3R 4470   5.147   0.652  10.231  0.2731  0.4131  0.0074
   59SAPC   H3S 4471   5.192   0.477  10.219  0.9361 -0.5397  0.3692
   59SAPC   C24 4472   5.363   0.605  10.242  0.3703  0.1440  0.1467
   59SAPC   H4R 4473   5.372   0.558  10.141 -1.9210  0.4240 -0.2382
   59SAPC   H4S 4474   5.415   0.538  10.314 -1.7619 -1.6160  0.1942
   59SAPC   C25 4475   5.411   0.746  10.240  0.2971  0.3353  0.2357
   59SAPC   H5R 4476   5.433   0.793  10.336 -1.1971 -1.1041  1.3378
   59SAPC   C26 4477   5.414   0.815  10.121  0.5284 -0.3121 -0.7289
   59SAPC   H6R 4478   5.437   0.922  10.124  0.2521 -0.2490  2.2398
   59SAPC   C27 4479   5.380   0.769   9.982 -0.4193  0.0828  0.0244
   59SAPC   H7R 4480   5.383   0.659   9.963  0.4206 -0.0074  0.6200
   59SAPC   H7S 4481   5.455   0.813   9.912 -0.2429  0.6174  0.5411
   59SAPC   C28 4482   5.239   0.807   9.954  0.0572  0.4038 -0.5385
   59SAPC   H8R 4483   5.200   0.885  10.020  0.0103  0.0128 -0.0966
   59SAPC   C29 4484   5.166   0.750   9.861  0.2137  0.1089 -0.2348
   59SAPC   H9R 4485   5.060   0.777   9.855  0.7879  2.3766 -1.8620
   59SAPC  C210 4486   5.197   0.634   9.761 -0.3944 -0.1153 -0.4797
   59SAPC  H10R 4487   5.277   0.563   9.791  0.4866  1.8601  2.1234
   59SAPC  H10S 4488   5.216   0.688   9.666 -3.2451  3.7012  0.8899
   59SAPC  C211 4489   5.070   0.543   9.742  0.5646  0.3719  0.2617
   59SAPC  H11R 4490   5.041   0.477   9.825  2.5813 -1.2041 -0.2133
   59SAPC  C212 4491   4.985   0.548   9.639  0.2075 -0.1775 -0.1368
   59SAPC  H12R 4492   4.915   0.463   9.628 -0.8638  0.6827 -0.1510
   59SAPC  C213 4493   4.998   0.640   9.517  0.0747  0.3614 -0.1515
   59SAPC  H13R 4494   5.021   0.745   9.545  1.9906  0.5929 -2.2628
   59SAPC  H13S 4495   4.895   0.660   9.482  0.1191  2.6845  0.8856
   59SAPC  C214 4496   5.093   0.597   9.409  0.2750 -0.5327 -0.4570
   59SAPC  H14R 4497   5.157   0.513   9.441  0.7962 -1.1027 -2.8435
   59SAPC  C215 4498   5.109   0.635   9.281 -0.4598 -0.3864 -0.2459
   59SAPC  H15R 4499   5.191   0.588   9.225  0.5674  0.3793  0.5833
   59SAPC  C216 4500   5.026   0.744   9.212  0.2189  0.0305  0.1159
   59SAPC  H16R 4501   5.083   0.840   9.210 -1.5397  1.1219 -1.2093
   59SAPC  H16S 4502   4.935   0.775   9.269  0.2643 -0.3066  0.3708
   59SAPC  C217 4503   4.982   0.707   9.072  0.1719  0.0069 -0.2364
   59SAPC  H17R 4504   5.076   0.719   9.012  0.3353 -0.6485 -0.1219
   59SAPC  H17S 4505   4.921   0.788   9.028  1.4047  1.0306 -0.1409
   59SAPC  C218 4506   4.920   0.566   9.062  0.1769 -0.4544 -0.5566
   59SAPC  H18R 4507   4.859   0.550   9.153  3.6516 -0.7199  1.9344
   59SAPC  H18S 4508   4.998   0.487   9.066  1.8866  1.2182  0.8826
   59SAPC  C219 4509   4.825   0.541   8.943 -0.4958 -0.3282  0.3470
   59SAPC  H19R 4510   4.774   0.444   8.963  0.0173 -0.2118  2.4890
   59SAPC  H19S 4511   4.887   0.531   8.852  0.7646 -1.9671  1.3239
   59SAPC  C220 4512   4.710   0.645   8.906 -0.8115  0.0412 -0.0134
   59SAPC  H20R 4513   4.767   0.735   8.874  0.6880 -0.6573  0.6184
   59SAPC  H20S 4514   4.639   0.651   8.991 -0.1920 -1.2673  0.6236
   59SAPC  H20T 4515   4.662   0.603   8.815 -0.4858  0.1961 -0.2570
   59SAPC   C33 4516   5.771   0.921  10.540  0.4368 -0.3098 -0.7486
   59SAPC   H3X 4517   5.878   0.894  10.550  0.5784  0.5082  0.0270
   59SAPC   H3Y 4518   5.745   0.994  10.619  1.1022  0.3153 -1.1003
   59SAPC   C34 4519   5.731   0.955  10.403  0.1617 -0.1607 -0.0392
   59SAPC   H4X 4520   5.623   0.955  10.377  0.1869  1.1599 -0.2053
   59SAPC   H4Y 4521   5.786   0.898  10.325 -0.5589 -1.0465  0.0766
   59SAPC   C35 4522   5.776   1.099  10.369  0.2108 -0.0298  0.5505
   59SAPC   H5X 4523   5.884   1.123  10.385  0.4151  0.1369 -0.9699
   59SAPC   H5Y 4524   5.715   1.165  10.434 -0.0006  0.8548 -0.5226
   59SAPC   C36 4525   5.760   1.141  10.225  0.3750 -0.2286  0.2969
   59SAPC   H6X 4526   5.653   1.119  10.204  0.0582  1.9165 -0.6993
   59SAPC   H6Y 4527   5.829   1.082  10.161 -0.2026 -0.1215 -0.4421
   59SAPC   C37 4528   5.804   1.284  10.199 -0.3917 -0.0557 -0.5306
   59SAPC   H7X 4529   5.842   1.323  10.296 -1.3867 -1.6609  0.5382
   59SAPC   H7Y 4530   5.718   1.350  10.178  0.3544  1.0052 -0.3525
   59SAPC   C38 4531   5.912   1.299  10.098 -0.3438 -0.3902 -0.2978
   59SAPC   H8X 4532   5.999   1.232  10.116  1.1464  1.5111 -0.1792
   59SAPC   H8Y 4533   5.957   1.400  10.103  1.6259 -1.1572 -1.3778
   59SAPC   C39 4534   5.880   1.289   9.950  0.3601  0.0852  0.0439
   59SAPC   H9X 4535   5.832   1.195   9.914 -2.0498  1.8354 -1.6411
   59SAPC   H9Y 4536   5.982   1.293   9.907  0.1944  2.4654 -0.2329
   59SAPC  C310 4537   5.785   1.395   9.897 -0.0438 -0.7663 -0.3904
   59SAPC  H10X 4538   5.817   1.498   9.926 -0.2506 -0.2969 -1.7568
   59SAPC  H10Y 4539   5.679   1.387   9.930 -0.0886  1.8994  0.3314
   59SAPC  C311 4540   5.796   1.388   9.749 -0.5480 -0.0026 -0.2867
   59SAPC  H11X 4541   5.765   1.283   9.733 -3.1581  0.5018  1.0237
   59SAPC  H11Y 4542   5.900   1.394   9.708 -1.4279 -1.1957 -2.8797
   59SAPC  C312 4543   5.699   1.483   9.672  0.4534  0.2175  0.8604
   59SAPC  H12X 4544   5.743   1.584   9.685  2.5514 -0.7573  1.9932
   59SAPC  H12Y 4545   5.599   1.485   9.719 -0.1778  2.7670 -0.4097
   59SAPC  C313 4546   5.698   1.436   9.519  0.3315  0.0185  1.6581
   59SAPC  H13X 4547   5.660   1.332   9.518  2.5685 -0.8635  0.4885
   59SAPC  H13Y 4548   5.804   1.437   9.487  1.4104  0.4355  4.9673
   59SAPC  C314 4549   5.610   1.525   9.422  0.3681  0.0918  0.2165
   59SAPC  H14X 4550   5.645   1.630   9.435  1.8138 -0.1552 -1.3744
   59SAPC  H14Y 4551   5.503   1.526   9.452 -0.5895 -0.0680 -2.8109
   59SAPC  C315 4552   5.611   1.476   9.273  0.0510  0.1254  0.4478
   59SAPC  H15X 4553   5.581   1.369   9.278 -1.1677  0.4122 -0.2828
   59SAPC  H15Y 4554   5.714   1.484   9.233  1.3114 -2.5610  2.7637
   59SAPC  C316 4555   5.512   1.564   9.190 -0.8765  0.4249  0.1467
   59SAPC  H16X 4556   5.527   1.672   9.212 -1.6827  0.1934  2.0539
   59SAPC  H16Y 4557   5.406   1.539   9.215 -1.3253  1.3864 -0.7074
   59SAPC  C317 4558   5.545   1.556   9.043 -0.2322  0.2106 -0.4420
   59SAPC  H17X 4559   5.515   1.451   9.022 -2.4210  0.6218  0.3349
   59SAPC  H17Y 4560   5.654   1.561   9.025  0.0417  0.7452  1.2333
   59SAPC  C318 4561   5.470   1.652   8.956 -0.4903  0.5332  0.1204
   59SAPC  H18X 4562   5.361   1.637   8.971 -0.1225 -1.1660  1.2974
   59SAPC  H18Y 4563   5.489   1.637   8.847  0.3159  2.8298 -0.1135
   59SAPC  H18Z 4564   5.502   1.757   8.975 -0.9088  0.8985 -1.0859
   60SAPC     N 4565   2.707   1.197  11.304 -0.1613  0.4077  0.1249
   60SAPC   C12 4566   2.774   1.318  11.237 -0.4780 -0.2522  0.0221
   60SAPC  H12A 4567   2.878   1.292  11.221 -0.7493 -2.8428  1.9198
   60SAPC  H12B 4568   2.772   1.396  11.312  0.0367  1.0807 -1.3019
   60SAPC   C13 4569   2.805   1.151  11.406  0.3378 -0.4623 -0.3560
   60SAPC  H13A 4570   2.782   1.050  11.438 -1.4517  0.7990  2.8701
   60SAPC  H13B 4571   2.910   1.161  11.381  0.1508 -2.2164 -2.0925
   60SAPC  H13C 4572   2.783   1.207  11.496 -2.3730  0.3299 -1.4178
   60SAPC   C14 4573   2.579   1.236  11.362 -0.6030  0.2713  0.2909
   60SAPC  H14A 4574   2.506   1.260  11.287  1.4256  0.4965 -1.7115
   60SAPC  H14B 4575   2.548   1.159  11.431  2.2295 -0.1844  1.1894
   60SAPC  H14C 4576   2.575   1.327  11.421  1.6457  1.4596 -1.2399
   60SAPC   C15 4577   2.684   1.078  11.213 -0.3804  0.0893  0.1413
   60SAPC  H15A 4578   2.666   1.102  11.109 -0.7913  0.1371  0.2231
   60SAPC  H15B 4579   2.776   1.021  11.218 -0.4674 -0.1192 -0.4747
   60SAPC  H15C 4580   2.606   1.008  11.239 -0.3582 -0.6287 -1.5682
   60SAPC   C11 4581   2.719   1.364  11.097 -0.6625  0.1666  0.0262
   60SAPC  H11A 4582   2.748   1.468  11.071  2.2614 -0.2706  1.1372
   60SAPC  H11B 4583   2.609   1.358  11.115 -0.7632 -0.1665 -0.6819
   60SAPC     P 4584   2.890   1.266  10.923  0.0348  0.1143 -0.2204
   60SAPC   O13 4585   2.957   1.399  10.933 -0.2042  0.1578 -0.2776
   60SAPC   O14 4586   2.976   1.156  10.965  0.1171  0.1619 -0.4735
   60SAPC   O12 4587   2.756   1.261  11.000 -0.2289 -0.5493  0.1811
   60SAPC   O11 4588   2.843   1.233  10.777  0.4541  0.0981  0.4574
   60SAPC    C1 4589   2.728   1.312  10.724  0.2750 -0.3167 -0.1875
   60SAPC    HA 4590   2.635   1.253  10.734  0.6329 -1.0770 -1.1688
   60SAPC    HB 4591   2.712   1.401  10.789  3.3322  0.0705  0.1892
   60SAPC    C2 4592   2.740   1.358  10.574 -0.2155 -0.0373  0.2166
   60SAPC    HS 4593   2.647   1.413  10.548 -0.1531 -0.4242 -0.8886
   60SAPC   O21 4594   2.765   1.254  10.484  0.3188 -0.0180  0.7204
   60SAPC   C21 4595   2.671   1.162  10.465 -0.7166  0.2733 -0.1116
   60SAPC   O22 4596   2.562   1.168  10.514 -0.0479  0.0573  0.1874
   60SAPC   C22 4597   2.725   1.051  10.370 -0.2875 -0.2759 -0.2033
   60SAPC   H2R 4598   2.764   1.103  10.280  2.1842  0.5257  1.2238
   60SAPC   H2S 4599   2.816   1.005  10.416 -0.0430  0.3522 -0.0423
   60SAPC    C3 4600   2.849   1.461  10.556  0.2095  0.0359 -0.0850
   60SAPC    HX 4601   2.949   1.415  10.576 -0.7915 -0.9502  3.1041
   60SAPC    HY 4602   2.835   1.539  10.633  1.2170 -0.2831  0.4378
   60SAPC   O31 4603   2.844   1.515  10.418  0.1061  0.5591 -0.6874
   60SAPC   C31 4604   2.786   1.633  10.398 -0.0751  0.8044 -0.1574
   60SAPC   O32 4605   2.737   1.696  10.486 -0.2712 -0.2021 -0.0347
   60SAPC   C32 4606   2.789   1.665  10.250 -0.6802 -0.2620  0.3402
   60SAPC   H2X 4607   2.736   1.580  10.200  1.2639 -0.3981 -1.6629
   60SAPC   H2Y 4608   2.896   1.671  10.221 -0.2529  0.0443  1.8823
   60SAPC   C23 4609   2.619   0.951  10.306  0.2495  0.0906 -0.1930
   60SAPC   H3R 4610   2.539   1.009  10.255  2.0919  1.6803 -1.4710
   60SAPC   H3S 4611   2.560   0.898  10.383 -0.6450  1.1314 -0.1437
   60SAPC   C24 4612   2.677   0.851  10.205 -1.1591  0.1659 -0.6826
   60SAPC   H4R 4613   2.600   0.773  10.187  0.1500 -1.7857  1.5201
   60SAPC   H4S 4614   2.768   0.795  10.236 -1.2340 -0.7662 -2.0807
   60SAPC   C25 4615   2.724   0.925  10.083  0.2290  0.1561 -0.8303
   60SAPC   H5R 4616   2.831   0.938  10.060  0.5627  0.2882  0.7122
   60SAPC   C26 4617   2.629   0.950   9.981 -0.0863  1.1941 -0.2888
   60SAPC   H6R 4618   2.665   0.996   9.888  1.2558  1.3935  0.3220
   60SAPC   C27 4619   2.477   0.919   9.977 -0.1718  0.2449 -0.3991
   60SAPC   H7R 4620   2.420   1.010   9.947 -0.8124 -0.1330 -0.3402
   60SAPC   H7S 4621   2.427   0.913  10.076 -1.8834  2.3717 -1.0275
   60SAPC   C28 4622   2.438   0.802   9.887 -0.1169  0.1247  0.0105
   60SAPC   H8R 4623   2.468   0.708   9.935  1.9253  1.0356  0.6001
   60SAPC   C29 4624   2.387   0.806   9.768  0.9746  0.1834  0.8054
   60SAPC   H9R 4625   2.383   0.708   9.718  2.2699  0.9179 -0.8355
   60SAPC  C210 4626   2.342   0.919   9.685  0.2945  0.1215 -0.2073
   60SAPC  H10R 4627   2.367   0.898   9.579 -0.8743 -2.7749 -0.0084
   60SAPC  H10S 4628   2.403   1.005   9.720 -0.0393 -0.2517  1.3660
   60SAPC  C211 4629   2.194   0.949   9.705 -0.3557 -0.5729  0.6759
   60SAPC  H11R 4630   2.173   0.983   9.807 -1.1559  1.4207 -0.0959
   60SAPC  C212 4631   2.097   0.948   9.617 -0.3229 -0.3274 -0.0180
   60SAPC  H12R 4632   1.998   0.986   9.649 -0.4495  0.8785 -1.6943
   60SAPC  C213 4633   2.103   0.914   9.471  0.1369 -0.2760 -0.2322
   60SAPC  H13R 4634   2.004   0.902   9.422 -0.4865 -0.0419  0.9462
   60SAPC  H13S 4635   2.147   0.813   9.458 -0.8984 -1.0215  1.6986
   60SAPC  C214 4636   2.176   1.028   9.401  0.3860  0.4959  0.8874
   60SAPC  H14R 4637   2.171   1.128   9.447  1.5778  0.7187  0.5676
   60SAPC  C215 4638   2.257   1.013   9.288 -0.1459  0.1794 -0.6798
   60SAPC  H15R 4639   2.311   1.096   9.242  1.1591 -0.3015 -0.0650
   60SAPC  C216 4640   2.292   0.884   9.215 -0.1303 -0.4214 -0.4648
   60SAPC  H16R 4641   2.256   0.908   9.113 -1.3421  0.2567  0.1009
   60SAPC  H16S 4642   2.235   0.796   9.250  1.1987 -1.3453 -0.5203
   60SAPC  C217 4643   2.444   0.863   9.222 -0.5250  0.6084  0.5760
   60SAPC  H17R 4644   2.474   0.836   9.326  1.2917 -1.6100 -0.4267
   60SAPC  H17S 4645   2.500   0.958   9.206  0.1230  0.3355  1.1424
   60SAPC  C218 4646   2.495   0.748   9.135  0.2384 -0.4689 -1.0510
   60SAPC  H18R 4647   2.423   0.664   9.143 -0.5089  0.3536  2.0446
   60SAPC  H18S 4648   2.593   0.706   9.167  0.7641  0.1269 -1.8318
   60SAPC  C219 4649   2.515   0.787   8.984  0.1146  0.5947  0.2116
   60SAPC  H19R 4650   2.582   0.871   8.955  2.4318 -0.7724  1.3063
   60SAPC  H19S 4651   2.420   0.815   8.933 -0.4736 -0.4950  0.6731
   60SAPC  C220 4652   2.578   0.663   8.910  0.6558 -0.4680 -0.2844
   60SAPC  H20R 4653   2.601   0.695   8.806  3.1175  0.3389  0.4290
   60SAPC  H20S 4654   2.513   0.573   8.922 -0.4247  0.4530  1.1803
   60SAPC  H20T 4655   2.674   0.641   8.961  0.5377  0.9072  0.5790
   60SAPC   C33 4656   2.719   1.800  10.211 -0.0791 -0.5091  0.2003
   60SAPC   H3X 4657   2.761   1.881  10.273  0.2211 -0.9894  0.6380
   60SAPC   H3Y 4658   2.612   1.785  10.235 -0.4524  0.9710 -0.4495
   60SAPC   C34 4659   2.725   1.828  10.060  0.2968  0.4175  0.3954
   60SAPC   H4X 4660   2.698   1.735  10.005 -1.7009  0.9235  0.4492
   60SAPC   H4Y 4661   2.832   1.841  10.031  0.2298  0.5378  0.2076
   60SAPC   C35 4662   2.632   1.942  10.019 -0.2849  0.0395 -0.8371
   60SAPC   H5X 4663   2.660   2.040  10.065  0.0490 -0.6537  0.4955
   60SAPC   H5Y 4664   2.528   1.928  10.055  0.5659 -1.0052  1.4800
   60SAPC   C36 4665   2.604   1.953   9.871  0.0389  0.4687  0.4254
   60SAPC   H6X 4666   2.539   2.041   9.854 -0.4188 -0.1958 -1.4799
   60SAPC   H6Y 4667   2.553   1.858   9.844 -0.4022  0.5019  1.1105
   60SAPC   C37 4668   2.727   1.986   9.783  0.3689  0.6346  0.6127
   60SAPC   H7X 4669   2.815   1.931   9.823  0.6408 -1.3075 -2.4041
   60SAPC   H7Y 4670   2.744   2.096   9.776 -0.2251  0.6405 -1.0530
   60SAPC   C38 4671   2.713   1.932   9.639  0.6584  0.0695 -0.2620
   60SAPC   H8X 4672   2.607   1.951   9.611  0.4784  0.9237  0.9311
   60SAPC   H8Y 4673   2.725   1.821   9.644 -3.4303 -0.4640  1.9108
   60SAPC   C39 4674   2.809   1.984   9.530  0.4286  0.4770 -0.2125
   60SAPC   H9X 4675   2.913   1.977   9.566  0.1348  2.2644  1.1856
   60SAPC   H9Y 4676   2.788   2.092   9.511  0.6605  0.5685  0.0506
   60SAPC  C310 4677   2.786   1.904   9.396  0.5653  0.0200 -0.5476
   60SAPC  H10X 4678   2.679   1.917   9.369  0.8244  0.5900 -1.3403
   60SAPC  H10Y 4679   2.792   1.795   9.414 -0.9279 -0.1527 -0.9317
   60SAPC  C311 4680   2.881   1.946   9.281  0.5510 -0.2758 -0.0617
   60SAPC  H11X 4681   2.878   1.857   9.215 -0.8869 -0.3906  0.1242
   60SAPC  H11Y 4682   2.983   1.959   9.324  0.2536 -2.5473  1.4543
   60SAPC  C312 4683   2.849   2.078   9.214 -0.5262 -0.3163 -0.0799
   60SAPC  H12X 4684   2.935   2.120   9.159 -1.3515 -0.2639 -1.3572
   60SAPC  H12Y 4685   2.815   2.150   9.292 -0.6808 -2.1444  1.6430
   60SAPC  C313 4686   2.723   2.066   9.122  0.3902 -0.6082 -0.0762
   60SAPC  H13X 4687   2.641   2.017   9.179 -0.0252  0.5370  0.3490
   60SAPC  H13Y 4688   2.762   2.002   9.040  1.5427 -0.1846  0.1179
   60SAPC  C314 4689   2.669   2.194   9.067 -0.1427 -0.8104 -0.3827
   60SAPC  H14X 4690   2.743   2.265   9.025  0.4134 -0.8621  0.4955
   60SAPC  H14Y 4691   2.625   2.252   9.151 -0.5348  0.0112 -1.1420
   60SAPC  C315 4692   2.546   2.171   8.973 -0.0758  0.7784 -0.2321
   60SAPC  H15X 4693   2.502   2.271   8.952 -1.1544  0.2825 -0.3831
   60SAPC  H15Y 4694   2.483   2.093   9.020 -0.3708  1.1577  0.0096
   60SAPC  C316 4695   2.585   2.124   8.826 -0.0481  0.0854  0.2755
   60SAPC  H16X 4696   2.637   2.026   8.823 -0.2554 -0.0956  1.8691
   60SAPC  H16Y 4697   2.650   2.207   8.790  1.4464  0.0136  2.5953
   60SAPC  C317 4698   2.454   2.121   8.751  0.1117  0.1467  0.5196
   60SAPC  H17X 4699   2.406   2.221   8.752 -2.8223 -1.1203 -0.5931
   60SAPC  H17Y 4700   2.385   2.054   8.806 -0.1041  0.4403  0.6076
   60SAPC  C318 4701   2.471   2.072   8.604  0.4405  0.0045 -0.6437
   60SAPC  H18X 4702   2.512   1.969   8.607  0.5350  0.0637  0.2289
   60SAPC  H18Y 4703   2.544   2.141   8.555 -0.3920  1.1583 -0.3048
   60SAPC  H18Z 4704   2.369   2.077   8.560 -0.8417  1.0786  2.2610
   61SAPC     N 4705   1.297   0.126  10.960  0.2462  0.0923 -0.5454
   61SAPC   C12 4706   1.345   0.091  10.820 -0.2294 -0.0785 -0.7041
   61SAPC  H12A 4707   1.264   0.063  10.754  0.6480  1.7842 -2.7030
   61SAPC  H12B 4708   1.394  -0.005  10.823 -0.2152 -0.0341  1.3899
   61SAPC   C13 4709   1.212   0.020  11.022  0.3399 -0.2667 -0.3469
   61SAPC  H13A 4710   1.189   0.040  11.125  1.8007  3.9813 -0.6418
   61SAPC  H13B 4711   1.122   0.000  10.965 -0.2878  0.4174  0.3841
   61SAPC  H13C 4712   1.268  -0.070  11.041  3.2497  1.3450 -0.7222
   61SAPC   C14 4713   1.415   0.144  11.051 -0.1436 -0.1008 -0.1259
   61SAPC  H14A 4714   1.479   0.224  11.019  0.4492 -1.1900 -1.7841
   61SAPC  H14B 4715   1.383   0.160  11.153 -2.7598  1.2035 -1.0721
   61SAPC  H14C 4716   1.474   0.054  11.053 -0.2239 -0.1620 -0.4502
   61SAPC   C15 4717   1.219   0.251  10.946  0.0923 -0.6346 -0.3720
   61SAPC  H15A 4718   1.286   0.332  10.924 -0.8228 -0.4107 -2.6497
   61SAPC  H15B 4719   1.139   0.247  10.874  0.2386 -2.4392 -0.4785
   61SAPC  H15C 4720   1.171   0.278  11.039  3.0483  3.3966  0.2497
   61SAPC   C11 4721   1.435   0.191  10.743  0.9459  0.2111  0.0375
   61SAPC  H11A 4722   1.384   0.289  10.732  0.1540 -0.4317 -2.5898
   61SAPC  H11B 4723   1.436   0.161  10.636  3.8483  1.3601 -0.3537
   61SAPC     P 4724   1.674   0.093  10.757  0.0985 -0.4058  0.0782
   61SAPC   O13 4725   1.722   0.031  10.883 -0.2935  0.2853  0.4451
   61SAPC   O14 4726   1.619   0.006  10.652  0.2403 -0.2346 -0.6414
   61SAPC   O12 4727   1.564   0.206  10.793  0.2444  0.5204  0.0361
   61SAPC   O11 4728   1.792   0.176  10.690  0.6678 -0.7873 -0.0787
   61SAPC    C1 4729   1.794   0.319  10.662  0.6446 -0.0565 -0.8687
   61SAPC    HA 4730   1.744   0.376  10.743 -0.9792  1.3745 -2.7478
   61SAPC    HB 4731   1.899   0.356  10.664  1.1343 -1.4167 -0.3793
   61SAPC    C2 4732   1.716   0.362  10.536 -0.2087  0.6342 -0.2751
   61SAPC    HS 4733   1.618   0.318  10.566 -0.1552  1.0392  0.5158
   61SAPC   O21 4734   1.774   0.305  10.423  0.6091  0.4371  0.4587
   61SAPC   C21 4735   1.692   0.267  10.321 -0.3405  0.3204  0.1132
   61SAPC   O22 4736   1.569   0.274  10.325 -0.5894 -0.0321  0.2896
   61SAPC   C22 4737   1.773   0.212  10.202  0.3959  0.5841  0.0759
   61SAPC   H2R 4738   1.853   0.276  10.158  1.1291 -1.0883 -1.1609
   61SAPC   H2S 4739   1.835   0.132  10.248  0.9433  1.1622  0.3683
   61SAPC    C3 4740   1.687   0.513  10.534  0.0613  0.5732  0.7609
   61SAPC    HX 4741   1.788   0.559  10.528 -0.0807  0.6698 -2.6356
   61SAPC    HY 4742   1.636   0.534  10.630 -2.9484  0.4851 -0.7102
   61SAPC   O31 4743   1.608   0.553  10.419 -0.0668 -0.7057 -0.1888
   61SAPC   C31 4744   1.476   0.566  10.431  0.0393 -0.0001 -0.3793
   61SAPC   O32 4745   1.413   0.552  10.536 -0.2120  0.3545  0.3834
   61SAPC   C32 4746   1.416   0.618  10.305 -0.4903 -0.5475  0.1809
   61SAPC   H2X 4747   1.488   0.598  10.223  1.2718 -1.4536  1.8748
   61SAPC   H2Y 4748   1.402   0.726  10.328 -2.3352 -0.7617  0.2275
   61SAPC   C23 4749   1.696   0.145  10.080 -0.3476  0.3049  0.4024
   61SAPC   H3R 4750   1.623   0.214  10.034  1.1583  1.5342 -0.2401
   61SAPC   H3S 4751   1.634   0.057  10.105 -1.4448  0.4177 -1.6935
   61SAPC   C24 4752   1.792   0.096   9.972  0.3391  0.4774 -0.2190
   61SAPC   H4R 4753   1.863   0.023  10.017 -0.5698 -1.8946 -2.3984
   61SAPC   H4S 4754   1.849   0.181   9.929  0.1523  0.0866 -1.2769
   61SAPC   C25 4755   1.711   0.019   9.870  0.2882 -0.5034 -0.2457
   61SAPC   H5R 4756   1.626  -0.034   9.914  0.7458 -0.8791  0.1999
   61SAPC   C26 4757   1.724   0.023   9.736 -0.7626 -0.7402  0.1048
   61SAPC   H6R 4758   1.649  -0.039   9.686 -1.0143  0.3110 -0.8419
   61SAPC   C27 4759   1.838   0.095   9.659  0.3990  0.1616 -0.3505
   61SAPC   H7R 4760   1.920   0.022   9.647  0.6740  0.4911 -0.5121
   61SAPC   H7S 4761   1.873   0.177   9.726 -0.0350  0.5537 -0.5900
   61SAPC   C28 4762   1.791   0.159   9.526  0.4541  0.1415  0.5079
   61SAPC   H8R 4763   1.766   0.266   9.533  3.5407  0.8591  2.5792
   61SAPC   C29 4764   1.787   0.090   9.411  1.1005 -0.8419  0.4298
   61SAPC   H9R 4765   1.742   0.145   9.327  1.3271  1.2433  1.6265
   61SAPC  C210 4766   1.832  -0.053   9.394  0.1398  0.5962  0.3499
   61SAPC  H10R 4767   1.754  -0.120   9.352  0.7643 -1.4370  2.2359
   61SAPC  H10S 4768   1.847  -0.109   9.489  0.3505  0.3909  0.1971
   61SAPC  C211 4769   1.965  -0.061   9.319 -0.9034  0.5450 -0.6327
   61SAPC  H11R 4770   2.044  -0.008   9.373 -2.2374  1.5517  0.4008
   61SAPC  C212 4771   2.002  -0.131   9.212  0.3208 -0.2127  0.7820
   61SAPC  H12R 4772   2.101  -0.116   9.165 -0.1388 -1.9236 -0.8631
   61SAPC  C213 4773   1.902  -0.223   9.136 -0.1997  0.3359 -1.1609
   61SAPC  H13R 4774   1.806  -0.168   9.135  0.3273  1.5342  2.0617
   61SAPC  H13S 4775   1.879  -0.314   9.195 -0.0191  1.2859  0.4365
   61SAPC  C214 4776   1.923  -0.258   8.994  0.1812 -0.5414  0.9719
   61SAPC  H14R 4777   1.940  -0.363   8.966 -0.0351 -0.6083  1.0893
   61SAPC  C215 4778   1.917  -0.164   8.892  0.0359  0.0616  0.2622
   61SAPC  H15R 4779   1.917  -0.199   8.788  0.1090 -0.3071  0.3835
   61SAPC  C216 4780   1.902  -0.014   8.901  0.5478  0.4459 -0.3427
   61SAPC  H16R 4781   1.991   0.038   8.943  0.9186  0.2788 -0.9197
   61SAPC  H16S 4782   1.821   0.011   8.972  0.1774 -0.7307 -0.3236
   61SAPC  C217 4783   1.871   0.048   8.760  0.7015  0.6023  0.0395
   61SAPC  H17R 4784   1.832   0.150   8.780  2.4091  1.5936 -1.4667
   61SAPC  H17S 4785   1.786  -0.008   8.715 -0.0879 -0.4006  2.5536
   61SAPC  C218 4786   1.993   0.060   8.671 -0.0187  0.3160  0.0079
   61SAPC  H18R 4787   1.971   0.089   8.566 -1.5329  0.2963  0.2961
   61SAPC  H18S 4788   2.034  -0.043   8.669 -2.0577 -0.5317 -0.2539
   61SAPC  C219 4789   2.106   0.144   8.726  0.0497 -0.2270 -0.3973
   61SAPC  H19R 4790   2.146   0.092   8.816 -0.7402 -1.1595 -0.5640
   61SAPC  H19S 4791   2.071   0.242   8.765 -1.4233 -1.4169  1.5034
   61SAPC  C220 4792   2.228   0.156   8.626  0.6518 -0.4062 -0.1795
   61SAPC  H20R 4793   2.308   0.225   8.663 -0.9967  1.3279  0.3093
   61SAPC  H20S 4794   2.198   0.208   8.532  3.6895  0.2619 -0.8922
   61SAPC  H20T 4795   2.270   0.059   8.594  2.1812 -0.5500  2.0298
   61SAPC   C33 4796   1.279   0.563  10.264  0.5763 -0.2134 -0.0484
   61SAPC   H3X 4797   1.236   0.610  10.174  1.1375 -0.8479 -0.6618
   61SAPC   H3Y 4798   1.215   0.587  10.351  2.1153  2.2702  0.5108
   61SAPC   C34 4799   1.270   0.414  10.223  0.9059  0.6321 -0.7020
   61SAPC   H4X 4800   1.163   0.389  10.204  0.8355 -2.2961  2.6310
   61SAPC   H4Y 4801   1.303   0.353  10.310 -2.3159 -1.5680 -0.8446
   61SAPC   C35 4802   1.354   0.363  10.102  0.2358 -0.4040 -0.2921
   61SAPC   H5X 4803   1.355   0.252  10.103 -1.9445 -0.5291 -2.2074
   61SAPC   H5Y 4804   1.460   0.396  10.108 -0.2167  0.9035  1.0899
   61SAPC   C36 4805   1.294   0.407   9.967  0.2111  0.8241  0.0926
   61SAPC   H6X 4806   1.313   0.516   9.955  1.4534  0.5696 -0.4262
   61SAPC   H6Y 4807   1.185   0.387   9.976  0.5680 -0.4747  2.6293
   61SAPC   C37 4808   1.346   0.335   9.850  0.0625 -0.2218  0.1152
   61SAPC   H7X 4809   1.305   0.233   9.831  1.5780 -0.3000 -3.3010
   61SAPC   H7Y 4810   1.455   0.321   9.861  0.1036 -1.0368 -1.2505
   61SAPC   C38 4811   1.303   0.409   9.722  0.5057 -0.1469  0.0786
   61SAPC   H8X 4812   1.308   0.520   9.730 -1.3326 -0.0933  0.9231
   61SAPC   H8Y 4813   1.193   0.396   9.713  0.3545  1.1250 -0.1354
   61SAPC   C39 4814   1.387   0.359   9.600 -0.8253 -0.2020  0.3368
   61SAPC   H9X 4815   1.399   0.249   9.598  2.8531  0.0806 -0.0105
   61SAPC   H9Y 4816   1.484   0.408   9.620 -0.5307 -0.9589  0.7954
   61SAPC  C310 4817   1.329   0.390   9.459 -0.1879  1.0829 -0.1763
   61SAPC  H10X 4818   1.343   0.499   9.442  1.3805  0.7987 -0.9252
   61SAPC  H10Y 4819   1.226   0.349   9.455  0.5512 -0.9785  0.6673
   61SAPC  C311 4820   1.405   0.335   9.342 -0.1432 -0.1442  0.2168
   61SAPC  H11X 4821   1.510   0.332   9.378  0.3786 -1.5054 -1.3223
   61SAPC  H11Y 4822   1.392   0.415   9.266 -1.0135  1.5109  1.9916
   61SAPC  C312 4823   1.365   0.202   9.282  0.5474  0.2054 -0.6434
   61SAPC  H12X 4824   1.272   0.215   9.224 -0.2040  0.6180  0.6132
   61SAPC  H12Y 4825   1.339   0.136   9.368  0.0154  2.7236  1.2566
   61SAPC  C313 4826   1.468   0.133   9.192  0.1912  0.2527  0.8962
   61SAPC  H13X 4827   1.537   0.064   9.243 -0.5235 -3.2575 -2.4027
   61SAPC  H13Y 4828   1.527   0.209   9.136  1.3351 -0.3768  1.2222
   61SAPC  C314 4829   1.386   0.050   9.091  0.4360  0.1600  0.7960
   61SAPC  H14X 4830   1.291   0.090   9.049 -0.1037  0.3783  2.1735
   61SAPC  H14Y 4831   1.362  -0.047   9.139  3.2016 -0.7940  0.4578
   61SAPC  C315 4832   1.475   0.006   8.967  1.1587  0.2123 -0.9190
   61SAPC  H15X 4833   1.566  -0.046   9.003  1.8242  0.2022 -2.5495
   61SAPC  H15Y 4834   1.504   0.094   8.905 -1.1976  1.7290  0.0040
   61SAPC  C316 4835   1.396  -0.081   8.866 -0.6966  0.0997 -0.2040
   61SAPC  H16X 4836   1.302  -0.032   8.832 -1.4555 -0.7292  0.6466
   61SAPC  H16Y 4837   1.359  -0.172   8.916  0.9502 -0.4577  0.0516
   61SAPC  C317 4838   1.471  -0.105   8.735  0.2662  0.0505 -0.7519
   61SAPC  H17X 4839   1.548  -0.183   8.752  2.3715  2.2588  0.5322
   61SAPC  H17Y 4840   1.519  -0.008   8.709 -0.7515  1.0771  1.0017
   61SAPC  C318 4841   1.377  -0.147   8.621  0.8274 -0.3760 -0.2154
   61SAPC  H18X 4842   1.312  -0.058   8.604  0.8697 -0.1893  0.5668
   61SAPC  H18Y 4843   1.319  -0.237   8.650  1.5131 -1.4290 -1.9437
   61SAPC  H18Z 4844   1.434  -0.166   8.528  0.2862 -0.5172 -0.5206
   62SAPC     N 4845   1.064   5.798  10.568 -0.5692 -0.2758  0.4715
   62SAPC   C12 4846   1.004   5.920  10.499  0.5655 -0.0385  0.0375
   62SAPC  H12A 4847   0.960   5.982  10.576  1.0857 -1.4610  1.5315
   62SAPC  H12B 4848   0.916   5.897  10.442 -0.9721  2.2127  1.3197
   62SAPC   C13 4849   0.962   5.713  10.630  0.2675  0.1517 -0.0206
   62SAPC  H13A 4850   1.014   5.642  10.692  0.5286  0.1940 -0.1901
   62SAPC  H13B 4851   0.914   5.767  10.710 -1.4109 -2.1817  0.6451
   62SAPC  H13C 4852   0.899   5.661  10.558 -0.3683  0.9399 -0.0508
   62SAPC   C14 4853   1.140   5.725  10.466 -0.3575 -0.0203 -0.2469
   62SAPC  H14A 4854   1.190   5.644  10.516 -1.9490 -0.3745  0.8536
   62SAPC  H14B 4855   1.088   5.699  10.375  0.3192  2.1693 -1.3081
   62SAPC  H14C 4856   1.209   5.795  10.421  1.0258  0.1734  2.0335
   62SAPC   C15 4857   1.163   5.841  10.683  0.7114  0.3393 -0.6424
   62SAPC  H15A 4858   1.119   5.908  10.755  1.7890  0.3719 -0.0020
   62SAPC  H15B 4859   1.185   5.753  10.742 -0.2761 -0.4075 -1.3475
   62SAPC  H15C 4860   1.248   5.887  10.635  1.7332 -2.3481 -1.5981
   62SAPC   C11 4861   1.098   6.008  10.408  0.0505 -0.3000  0.1333
   62SAPC  H11A 4862   1.039   6.089  10.361 -0.5554 -0.1575  1.1254
   62SAPC  H11B 4863   1.144   5.944  10.329  0.4516  0.3335 -0.1570
   62SAPC     P 4864   1.186   6.186  10.572  0.7386  0.4343 -0.4068
   62SAPC   O13 4865   1.055   6.171  10.643  0.2618  0.3429 -0.4835
   62SAPC   O14 4866   1.301   6.204  10.657 -0.1317  0.7727  0.2649
   62SAPC   O12 4867   1.205   6.068  10.476 -0.0914 -0.5752  0.2985
   62SAPC   O11 4868   1.171   6.312  10.467  0.1462  0.2917  0.3699
   62SAPC    C1 4869   1.291   6.357  10.401  0.9038 -0.7316 -0.2902
   62SAPC    HA 4870   1.325   6.444  10.460 -1.3706  0.0212  0.0119
   62SAPC    HB 4871   1.376   6.287  10.406  1.6266  0.2108  1.5938
   62SAPC    C2 4872   1.263   6.394  10.255 -0.1208  1.0279  0.2191
   62SAPC    HS 4873   1.158   6.430  10.250  0.0390  1.4193 -0.4588
   62SAPC   O21 4874   1.284   6.284  10.170  0.3566  0.3216 -0.2581
   62SAPC   C21 4875   1.200   6.281  10.059  0.3456 -0.6256 -0.6498
   62SAPC   O22 4876   1.121   6.367  10.030  0.3617  0.1403 -0.3663
   62SAPC   C22 4877   1.212   6.150   9.988  0.6226  0.2848 -0.0655
   62SAPC   H2R 4878   1.201   6.074  10.068 -0.4727  0.8591  0.3462
   62SAPC   H2S 4879   1.141   6.130   9.905 -0.5178 -0.7578  1.1138
   62SAPC    C3 4880   1.359   6.509  10.203  0.3560  0.4058  0.1480
   62SAPC    HX 4881   1.466   6.513  10.232  0.1595  2.2025  0.7847
   62SAPC    HY 4882   1.314   6.599  10.252 -0.3231 -0.8093  1.8485
   62SAPC   O31 4883   1.340   6.520  10.059  0.0780 -0.1848  0.2757
   62SAPC   C31 4884   1.365   6.634   9.997  0.0910 -0.6077 -0.5031
   62SAPC   O32 4885   1.399   6.738  10.049 -0.2853 -0.0378  0.6255
   62SAPC   C32 4886   1.328   6.624   9.851  0.9594 -1.1276 -0.8138
   62SAPC   H2X 4887   1.296   6.722   9.810  1.3150 -0.7412 -0.1806
   62SAPC   H2Y 4888   1.237   6.559   9.850 -2.0029  2.6449 -2.3026
   62SAPC   C23 4889   1.345   6.135   9.912 -0.3791  0.2089  0.2780
   62SAPC   H3R 4890   1.389   6.033   9.922 -3.3694 -1.1888  0.1036
   62SAPC   H3S 4891   1.414   6.213   9.950 -0.4659  0.8153 -0.7559
   62SAPC   C24 4892   1.331   6.167   9.760 -0.1821 -0.0234  0.2547
   62SAPC   H4R 4893   1.283   6.266   9.746  0.4860  0.1860 -0.7389
   62SAPC   H4S 4894   1.259   6.099   9.709  1.4401 -0.7245 -1.2466
   62SAPC   C25 4895   1.464   6.165   9.696 -0.2830  0.1678  0.1892
   62SAPC   H5R 4896   1.541   6.220   9.752 -0.9878  0.3718  0.9738
   62SAPC   C26 4897   1.509   6.102   9.581 -0.3841  0.0846 -0.6141
   62SAPC   H6R 4898   1.617   6.090   9.564  0.0707  2.4996  0.1729
   62SAPC   C27 4899   1.422   6.014   9.500 -0.4738  0.0384  0.6100
   62SAPC   H7R 4900   1.317   6.031   9.531 -0.7869  0.6640 -0.7246
   62SAPC   H7S 4901   1.437   5.905   9.512 -0.1002 -0.1561 -1.3006
   62SAPC   C28 4902   1.435   6.048   9.355  0.4651 -0.5533  0.2016
   62SAPC   H8R 4903   1.512   6.123   9.331  1.6452 -2.2411 -1.6337
   62SAPC   C29 4904   1.379   5.987   9.250 -0.3602  0.5158  0.2643
   62SAPC   H9R 4905   1.407   6.019   9.149  0.0281  2.9310  1.0723
   62SAPC  C210 4906   1.286   5.866   9.257 -0.6682 -0.6941 -0.1053
   62SAPC  H10R 4907   1.285   5.838   9.364 -1.0007  4.3575  1.4831
   62SAPC  H10S 4908   1.323   5.786   9.190  2.6708  2.4921 -2.4547
   62SAPC  C211 4909   1.146   5.906   9.223  0.5328  0.2316  0.3068
   62SAPC  H11R 4910   1.086   5.968   9.291  0.6510  1.6733 -0.8422
   62SAPC  C212 4911   1.076   5.881   9.107  0.6325  0.1207  0.0391
   62SAPC  H12R 4912   0.977   5.925   9.087  2.1469  3.2772 -1.2431
   62SAPC  C213 4913   1.130   5.792   8.990  0.1160 -1.1388  0.3871
   62SAPC  H13R 4914   1.155   5.691   9.029  0.9095 -1.3293 -0.5771
   62SAPC  H13S 4915   1.221   5.846   8.958 -1.0420 -0.4156 -1.8977
   62SAPC  C214 4916   1.038   5.773   8.864 -0.2332 -0.0764  0.4133
   62SAPC  H14R 4917   1.077   5.828   8.777 -0.3251  0.9933  1.0198
   62SAPC  C215 4918   0.931   5.692   8.848 -0.6170 -1.0374  0.7217
   62SAPC  H15R 4919   0.876   5.691   8.753  0.6943  1.0804 -0.1180
   62SAPC  C216 4920   0.876   5.617   8.963  0.3324  0.3227 -0.5447
   62SAPC  H16R 4921   0.768   5.641   8.973  1.0106  5.2182 -2.3481
   62SAPC  H16S 4922   0.923   5.648   9.059  1.4307 -3.4113  0.2890
   62SAPC  C217 4923   0.885   5.462   8.956 -0.2689 -0.3670 -0.6598
   62SAPC  H17R 4924   0.992   5.440   8.936  0.2009  1.2580 -0.1068
   62SAPC  H17S 4925   0.817   5.429   8.875 -0.9567 -1.0749  0.1795
   62SAPC  C218 4926   0.856   5.387   9.086 -0.0454 -0.6959 -0.5766
   62SAPC  H18R 4927   0.920   5.432   9.165 -0.1459 -0.9971 -0.3221
   62SAPC  H18S 4928   0.886   5.280   9.082  0.4526 -0.6497  1.0716
   62SAPC  C219 4929   0.711   5.416   9.145  0.2951  0.2840 -0.0981
   62SAPC  H19R 4930   0.636   5.402   9.064 -0.6809 -0.4838  0.9014
   62SAPC  H19S 4931   0.683   5.521   9.164 -3.7846 -0.6545  0.0277
   62SAPC  C220 4932   0.667   5.333   9.266 -0.2949  0.0829 -0.2610
   62SAPC  H20R 4933   0.561   5.355   9.289 -1.5625 -1.9459 -3.4081
   62SAPC  H20S 4934   0.737   5.345   9.352  2.1857 -2.0077 -1.8187
   62SAPC  H20T 4935   0.673   5.226   9.236 -0.1490  0.5540 -2.0240
   62SAPC   C33 4936   1.437   6.562   9.763  0.0698  0.1277  0.3686
   62SAPC   H3X 4937   1.437   6.453   9.783  1.2842  0.0102 -0.1493
   62SAPC   H3Y 4938   1.531   6.616   9.787  0.3907  0.2630 -1.0657
   62SAPC   C34 4939   1.393   6.580   9.618  0.2229 -0.1201 -0.1003
   62SAPC   H4X 4940   1.373   6.686   9.593 -2.4229 -0.2919  0.9299
   62SAPC   H4Y 4941   1.303   6.519   9.596  0.2663 -1.0217  1.9647
   62SAPC   C35 4942   1.493   6.506   9.519 -0.1434  0.0627  0.5430
   62SAPC   H5X 4943   1.522   6.409   9.565 -0.4805 -0.3905 -0.1801
   62SAPC   H5Y 4944   1.593   6.555   9.525  1.1736 -2.4419  0.4491
   62SAPC   C36 4945   1.431   6.489   9.379  0.8817  0.5086 -0.1964
   62SAPC   H6X 4946   1.393   6.588   9.347 -0.9471  0.0743  0.5017
   62SAPC   H6Y 4947   1.340   6.426   9.390  0.4318  1.2336  0.2936
   62SAPC   C37 4948   1.537   6.421   9.293  0.1543 -0.0951  0.3620
   62SAPC   H7X 4949   1.581   6.334   9.346 -1.7434 -1.7359 -0.6161
   62SAPC   H7Y 4950   1.612   6.502   9.283 -0.4647  0.5705  0.9206
   62SAPC   C38 4951   1.481   6.370   9.164 -0.0774 -0.6731 -0.5472
   62SAPC   H8X 4952   1.430   6.459   9.121  0.4301  1.0020  2.0778
   62SAPC   H8Y 4953   1.398   6.296   9.170  0.8882 -1.7487 -0.0331
   62SAPC   C39 4954   1.592   6.339   9.066 -0.3356 -0.2883  0.6145
   62SAPC   H9X 4955   1.659   6.259   9.101  0.6000  0.1666 -0.0828
   62SAPC   H9Y 4956   1.647   6.435   9.054 -0.7515 -0.2148 -1.0444
   62SAPC  C310 4957   1.541   6.296   8.929 -0.3742 -0.3459  0.2607
   62SAPC  H10X 4958   1.444   6.345   8.903 -0.7092 -0.5207  1.1439
   62SAPC  H10Y 4959   1.523   6.187   8.929  1.9336 -0.7647 -0.5836
   62SAPC  C311 4960   1.653   6.314   8.822 -0.1170  1.2498  0.0275
   62SAPC  H11X 4961   1.739   6.256   8.859  0.4349 -0.1937 -3.1326
   62SAPC  H11Y 4962   1.695   6.416   8.807 -0.9901  1.5204 -0.7176
   62SAPC  C312 4963   1.624   6.259   8.683 -0.3886  0.1125 -0.1949
   62SAPC  H12X 4964   1.549   6.322   8.629 -0.4895  0.5190  0.4137
   62SAPC  H12Y 4965   1.586   6.155   8.686  2.5457 -1.1652 -2.3133
   62SAPC  C313 4966   1.749   6.245   8.599 -0.2850 -0.1032 -0.3678
   62SAPC  H13X 4967   1.828   6.193   8.656  0.0663 -0.9491 -1.5885
   62SAPC  H13Y 4968   1.788   6.344   8.566 -0.2683  0.1445  0.3824
   62SAPC  C314 4969   1.724   6.161   8.468  0.4852  0.2975 -0.6439
   62SAPC  H14X 4970   1.673   6.227   8.396  2.2315  0.5774 -1.6919
   62SAPC  H14Y 4971   1.651   6.081   8.490  0.4880  0.3849 -0.3081
   62SAPC  C315 4972   1.843   6.083   8.408 -0.4860  0.3852 -0.0628
   62SAPC  H15X 4973   1.922   6.155   8.380  2.6392 -2.5485  0.4590
   62SAPC  H15Y 4974   1.808   6.032   8.316  0.4182 -1.0678  0.3489
   62SAPC  C316 4975   1.904   5.979   8.511 -1.0280 -0.2999  0.2030
   62SAPC  H16X 4976   1.917   6.013   8.616 -1.6804 -1.2819  0.6135
   62SAPC  H16Y 4977   2.004   5.967   8.465 -1.5219  0.0570 -0.9905
   62SAPC  C317 4978   1.832   5.840   8.519  0.4845  0.1289  0.2084
   62SAPC  H17X 4979   1.809   5.817   8.412  0.9203 -0.6431  0.2741
   62SAPC  H17Y 4980   1.736   5.851   8.575  0.2001  2.5953 -0.6265
   62SAPC  C318 4981   1.922   5.737   8.588 -1.2745  0.3046 -0.3789
   62SAPC  H18X 4982   2.001   5.780   8.653  0.2096  0.2406 -2.0587
   62SAPC  H18Y 4983   1.977   5.678   8.511  1.5180  1.3418  0.6946
   62SAPC  H18Z 4984   1.853   5.668   8.640 -1.8928  1.6811  0.6748
   63SAPC     N 4985   4.048   1.859   6.431  0.4881  0.5114 -0.3546
   63SAPC   C12 4986   4.015   1.984   6.521 -0.3990 -0.4792 -0.7051
   63SAPC  H12A 4987   4.033   1.963   6.625  0.7427  0.7021 -0.6440
   63SAPC  H12B 4988   3.907   1.996   6.519 -0.2549  1.1540 -0.3367
   63SAPC   C13 4989   3.986   1.734   6.480  0.2605 -0.4253  0.3602
   63SAPC  H13A 4990   3.883   1.756   6.505 -0.3874 -0.1356 -2.3136
   63SAPC  H13B 4991   3.987   1.668   6.395  0.4715  0.6636 -0.5020
   63SAPC  H13C 4992   4.030   1.689   6.568  0.3349  0.8236  0.9835
   63SAPC   C14 4993   3.994   1.881   6.290  0.6962 -0.2955 -0.8319
   63SAPC  H14A 4994   3.887   1.892   6.298  0.5104 -1.8058 -0.9703
   63SAPC  H14B 4995   4.029   1.974   6.247 -1.4305  0.6517 -0.6245
   63SAPC  H14C 4996   4.024   1.799   6.226 -2.2007 -1.2175 -1.1421
   63SAPC   C15 4997   4.199   1.828   6.439 -0.6975 -0.1992 -0.3278
   63SAPC  H15A 4998   4.247   1.916   6.399 -1.0154 -0.0248 -0.3265
   63SAPC  H15B 4999   4.229   1.794   6.537  0.4172 -1.2774 -1.0191
   63SAPC  H15C 5000   4.231   1.748   6.375 -0.0776  1.3560 -2.0455
   63SAPC   C11 5001   4.089   2.107   6.483 -0.5992 -0.5798  0.2246
   63SAPC  H11A 5002   4.199   2.092   6.485 -0.4918  0.0776 -0.3298
   63SAPC  H11B 5003   4.076   2.185   6.561 -1.1104  0.0164 -0.4375
   63SAPC     P 5004   4.000   2.268   6.287  0.0218 -0.0699  0.3195
   63SAPC   O13 5005   4.090   2.313   6.173  0.3460  0.4334 -0.0663
   63SAPC   O14 5006   3.853   2.265   6.264  0.3013 -0.0377  0.0521
   63SAPC   O12 5007   4.049   2.134   6.351  0.1029 -0.2408 -0.7727
   63SAPC   O11 5008   4.030   2.374   6.395 -0.1905  0.1174 -0.0447
   63SAPC    C1 5009   4.171   2.413   6.427  0.1653  0.0116  0.5542
   63SAPC    HA 5010   4.233   2.322   6.437  0.2957 -0.0266 -0.4732
   63SAPC    HB 5011   4.209   2.476   6.344 -0.4070  1.2229  1.1779
   63SAPC    C2 5012   4.174   2.492   6.555 -0.0264 -0.9557 -0.0040
   63SAPC    HS 5013   4.271   2.526   6.597 -1.1020  0.1345  1.7574
   63SAPC   O21 5014   4.112   2.416   6.665 -0.3035 -0.1473  0.8381
   63SAPC   C21 5015   4.203   2.339   6.727 -0.7332  0.2046  0.0647
   63SAPC   O22 5016   4.318   2.317   6.687  0.0697 -1.0861 -0.4705
   63SAPC   C22 5017   4.127   2.274   6.844 -0.1911  0.0463  0.4096
   63SAPC   H2R 5018   4.025   2.318   6.854  0.3514  1.3895  0.1729
   63SAPC   H2S 5019   4.113   2.166   6.824 -0.0432  0.1051 -0.0030
   63SAPC    C3 5020   4.101   2.635   6.537 -1.0066  0.2846 -0.4358
   63SAPC    HX 5021   4.010   2.603   6.481 -0.3547 -2.2969 -0.1273
   63SAPC    HY 5022   4.168   2.702   6.479 -0.2210 -0.1591 -0.0465
   63SAPC   O31 5023   4.070   2.702   6.665 -0.0238  0.5751  0.2134
   63SAPC   C31 5024   3.939   2.741   6.672 -0.4167 -0.1105  0.4423
   63SAPC   O32 5025   3.849   2.680   6.621  0.6086  0.3544 -0.3903
   63SAPC   C32 5026   3.932   2.863   6.756  0.4062 -0.3483 -0.5024
   63SAPC   H2X 5027   3.837   2.917   6.736 -0.0774 -1.5556 -1.6293
   63SAPC   H2Y 5028   4.008   2.933   6.716  0.2136 -0.2818 -0.7562
   63SAPC   C23 5029   4.214   2.281   6.971 -0.0489  0.1862  0.0223
   63SAPC   H3R 5030   4.317   2.250   6.943  0.0260  0.8255 -0.4255
   63SAPC   H3S 5031   4.166   2.208   7.040  0.2856  0.9750  1.1311
   63SAPC   C24 5032   4.225   2.415   7.035 -0.1949  0.2425 -0.2121
   63SAPC   H4R 5033   4.303   2.478   6.988 -1.8697  2.9502  0.4532
   63SAPC   H4S 5034   4.266   2.398   7.137  1.6613 -3.3765 -1.3936
   63SAPC   C25 5035   4.090   2.489   7.047  0.1071  0.8075 -0.3410
   63SAPC   H5R 5036   4.042   2.528   6.957 -0.4117  1.4928  0.2186
   63SAPC   C26 5037   4.016   2.507   7.162 -0.2960 -0.4432 -0.3700
   63SAPC   H6R 5038   3.925   2.567   7.145  0.3546  1.1526  1.4171
   63SAPC   C27 5039   4.052   2.456   7.299 -0.6840 -0.7672  0.3561
   63SAPC   H7R 5040   4.082   2.350   7.299  2.0144 -0.0709 -0.1532
   63SAPC   H7S 5041   3.955   2.463   7.352 -0.7454 -1.8654  0.3973
   63SAPC   C28 5042   4.168   2.525   7.372 -0.0052 -0.4353  0.9301
   63SAPC   H8R 5043   4.241   2.574   7.306  1.8114 -0.5629  2.7082
   63SAPC   C29 5044   4.182   2.541   7.505 -0.0135  0.0706 -0.5595
   63SAPC   H9R 5045   4.276   2.577   7.549 -0.0648 -1.1270  0.6158
   63SAPC  C210 5046   4.097   2.502   7.622 -0.0866  0.2817 -0.5629
   63SAPC  H10R 5047   4.008   2.454   7.577  1.0777 -1.0485 -1.5642
   63SAPC  H10S 5048   4.062   2.600   7.662  0.6046  1.1899 -2.0472
   63SAPC  C211 5049   4.156   2.406   7.719  0.1423 -0.3111 -0.1811
   63SAPC  H11R 5050   4.162   2.299   7.692  1.7573 -0.0084 -1.1414
   63SAPC  C212 5051   4.210   2.443   7.841  0.4184 -0.0357 -0.3938
   63SAPC  H12R 5052   4.256   2.359   7.895 -0.0860  1.0117  1.7349
   63SAPC  C213 5053   4.212   2.578   7.902 -0.2119  0.0501 -0.3607
   63SAPC  H13R 5054   4.218   2.661   7.828 -0.5385  1.1424  0.7948
   63SAPC  H13S 5055   4.308   2.591   7.957  0.5072  2.4315 -2.0071
   63SAPC  C214 5056   4.095   2.612   7.988 -0.5812  0.9363 -0.5725
   63SAPC  H14R 5057   4.006   2.653   7.939 -0.1340  2.7176  0.0345
   63SAPC  C215 5058   4.088   2.605   8.126  0.3591  0.4371  0.5716
   63SAPC  H15R 5059   3.990   2.635   8.165 -0.3765 -0.9483 -0.1356
   63SAPC  C216 5060   4.200   2.568   8.214  0.0669  0.4225 -0.2688
   63SAPC  H16R 5061   4.194   2.632   8.305 -0.4417 -0.1697  0.1151
   63SAPC  H16S 5062   4.296   2.594   8.164 -0.0368  0.5863 -0.3857
   63SAPC  C217 5063   4.199   2.420   8.249  0.2371 -0.4144 -0.3083
   63SAPC  H17R 5064   4.170   2.353   8.166 -1.8179 -2.2637  1.7693
   63SAPC  H17S 5065   4.115   2.397   8.318  0.5132  1.6974  0.8357
   63SAPC  C218 5066   4.326   2.368   8.322  0.0512 -1.2422 -0.2050
   63SAPC  H18R 5067   4.374   2.441   8.391  0.3481 -1.8787  0.2729
   63SAPC  H18S 5068   4.408   2.356   8.247  0.2161 -0.4954 -0.1545
   63SAPC  C219 5069   4.308   2.244   8.415 -0.4635  1.0456  0.2170
   63SAPC  H19R 5070   4.256   2.156   8.372  1.6666 -0.1807  0.0216
   63SAPC  H19S 5071   4.231   2.283   8.484 -2.0064  0.7792 -1.2771
   63SAPC  C220 5072   4.438   2.183   8.475 -0.3206  0.2042 -0.1319
   63SAPC  H20R 5073   4.419   2.116   8.562 -0.9759  1.6710  0.9079
   63SAPC  H20S 5074   4.508   2.253   8.526 -0.1054 -1.9038  2.7580
   63SAPC  H20T 5075   4.485   2.121   8.396  0.6447 -1.9779  2.0380
   63SAPC   C33 5076   3.962   2.840   6.904  0.0465  1.0927 -0.3073
   63SAPC   H3X 5077   4.068   2.822   6.931 -0.0869  0.1480 -0.4048
   63SAPC   H3Y 5078   3.907   2.752   6.943  0.5049  0.2499 -1.4973
   63SAPC   C34 5079   3.924   2.960   7.004 -0.2725  0.0674  0.0202
   63SAPC   H4X 5080   3.822   2.982   6.965  0.8588  1.8829 -2.1690
   63SAPC   H4Y 5081   3.980   3.053   6.983  0.6030 -0.6670 -0.9854
   63SAPC   C35 5082   3.920   2.924   7.149  0.0780 -0.0716  0.5235
   63SAPC   H5X 5083   3.848   2.841   7.162  1.6362 -1.8980 -1.6963
   63SAPC   H5Y 5084   3.900   3.018   7.205 -0.5380  0.8352 -1.1569
   63SAPC   C36 5085   4.061   2.875   7.206 -0.0007  0.0779  0.1021
   63SAPC   H6X 5086   4.135   2.957   7.222 -0.9563  0.4250  3.6517
   63SAPC   H6Y 5087   4.092   2.794   7.137  1.6665 -1.0118  2.0243
   63SAPC   C37 5088   4.052   2.837   7.357 -0.2676  0.0255  0.8309
   63SAPC   H7X 5089   4.156   2.804   7.378 -0.2606 -1.6183 -1.4674
   63SAPC   H7Y 5090   3.980   2.755   7.379 -0.9282  0.1790 -0.6229
   63SAPC   C38 5091   4.038   2.969   7.432 -0.0594  0.7058  0.2826
   63SAPC   H8X 5092   3.951   3.033   7.410  0.5126  2.2067  2.1540
   63SAPC   H8Y 5093   4.129   3.028   7.408  1.3613 -0.8351  1.6147
   63SAPC   C39 5094   4.040   2.947   7.585 -0.4300  0.3916 -0.4534
   63SAPC   H9X 5095   4.059   3.045   7.635  2.5077  0.2574 -1.1300
   63SAPC   H9Y 5096   4.129   2.889   7.615 -0.5232  0.9134  0.8718
   63SAPC  C310 5097   3.918   2.877   7.635 -0.0340 -0.7483 -0.3826
   63SAPC  H10X 5098   3.903   2.786   7.573  0.8998 -0.2617 -1.3681
   63SAPC  H10Y 5099   3.837   2.953   7.624  0.3958  0.7496  4.6033
   63SAPC  C311 5100   3.926   2.852   7.788 -0.5866 -0.1949 -0.5875
   63SAPC  H11X 5101   4.032   2.834   7.815 -0.2664  1.9683 -0.1952
   63SAPC  H11Y 5102   3.872   2.757   7.808  0.4805 -0.3803  1.7647
   63SAPC  C312 5103   3.854   2.957   7.872 -0.2928  0.5917 -0.2152
   63SAPC  H12X 5104   3.755   2.971   7.825 -0.7122 -1.2211  0.0487
   63SAPC  H12Y 5105   3.908   3.053   7.859 -0.8624  1.1481  1.3966
   63SAPC  C313 5106   3.855   2.923   8.017 -0.2336  0.3325  0.6385
   63SAPC  H13X 5107   3.830   2.817   8.037  0.4669 -0.1200 -0.6918
   63SAPC  H13Y 5108   3.780   2.989   8.065  1.4772  1.5016  1.8093
   63SAPC  C314 5109   3.992   2.951   8.089 -0.6774 -0.0765  0.0212
   63SAPC  H14X 5110   4.023   3.058   8.087  1.5089 -0.4602  3.6550
   63SAPC  H14Y 5111   4.076   2.891   8.048 -1.0721  0.3758 -1.5043
   63SAPC  C315 5112   3.999   2.916   8.233  0.4644 -0.0435 -0.1167
   63SAPC  H15X 5113   4.098   2.939   8.278 -0.2416  2.5794  0.2773
   63SAPC  H15Y 5114   3.976   2.808   8.245 -0.8388  0.3653  1.3263
   63SAPC  C316 5115   3.902   2.974   8.335  0.1807 -0.2930 -0.5450
   63SAPC  H16X 5116   3.803   2.966   8.286 -0.4625 -0.4566  0.7394
   63SAPC  H16Y 5117   3.920   3.083   8.349  1.3100 -0.4145 -0.9678
   63SAPC  C317 5118   3.903   2.910   8.473  0.2256 -0.6111  0.7011
   63SAPC  H17X 5119   3.848   2.976   8.545 -0.0332 -0.0414  0.0009
   63SAPC  H17Y 5120   4.010   2.913   8.502  0.6750  0.2244 -0.9172
   63SAPC  C318 5121   3.855   2.763   8.487  0.5522 -0.1370  0.4917
   63SAPC  H18X 5122   3.883   2.727   8.589 -1.1934 -0.2764  0.9578
   63SAPC  H18Y 5123   3.897   2.686   8.419 -0.9054  1.7077 -2.7115
   63SAPC  H18Z 5124   3.745   2.753   8.473  0.6757 -0.7337 -0.1052
   64SAPC     N 5125   6.173   4.997   5.944 -0.0397 -0.0048  0.3270
   64SAPC   C12 5126   6.034   4.976   5.909 -0.8223 -0.0255  1.0412
   64SAPC  H12A 5127   6.010   5.035   5.821 -1.0357  2.3185  2.5696
   64SAPC  H12B 5128   5.975   5.032   5.980 -1.5467 -0.0336  0.4556
   64SAPC   C13 5129   6.201   5.144   5.962  0.3030  0.3763 -0.4687
   64SAPC  H13A 5130   6.305   5.161   5.983  0.6146  0.1511 -1.7567
   64SAPC  H13B 5131   6.183   5.207   5.877  0.5139  1.0127 -0.0514
   64SAPC  H13C 5132   6.136   5.175   6.043  3.6553  0.0731  2.6447
   64SAPC   C14 5133   6.200   4.943   6.085  0.5106  0.1134  0.4216
   64SAPC  H14A 5134   6.282   4.987   6.140  1.3699 -0.6167 -0.2389
   64SAPC  H14B 5135   6.112   4.957   6.146 -0.1772 -0.8719 -0.3145
   64SAPC  H14C 5136   6.227   4.839   6.077  1.5350  0.4456 -0.8106
   64SAPC   C15 5137   6.272   4.935   5.856 -0.0153  0.0910  0.9408
   64SAPC  H15A 5138   6.261   4.828   5.846  0.8341  0.1844 -1.9200
   64SAPC  H15B 5139   6.267   4.963   5.752 -1.9513 -1.8929  0.4136
   64SAPC  H15C 5140   6.372   4.948   5.896  0.9803 -2.4821 -0.4139
   64SAPC   C11 5141   5.973   4.834   5.880  0.5435 -0.4067 -0.4194
   64SAPC  H11A 5142   6.036   4.793   5.798 -1.5155  0.5615 -2.6247
   64SAPC  H11B 5143   5.868   4.845   5.846  0.2432  0.3745  0.6992
   64SAPC     P 5144   6.064   4.617   6.002 -0.0076  0.0311  0.2735
   64SAPC   O13 5145   6.000   4.507   5.930  0.6363  0.1861 -0.3664
   64SAPC   O14 5146   6.195   4.651   5.952  0.0915 -0.2622 -0.0806
   64SAPC   O12 5147   5.966   4.740   5.988 -0.4506 -0.3532 -0.2015
   64SAPC   O11 5148   6.073   4.607   6.152 -0.1587 -0.4750  0.1653
   64SAPC    C1 5149   5.989   4.681   6.238  0.4933  0.1536  0.4651
   64SAPC    HA 5150   6.017   4.789   6.237  1.6055 -0.1149  1.1024
   64SAPC    HB 5151   5.880   4.676   6.219  0.4286 -1.0958  1.1139
   64SAPC    C2 5152   6.021   4.631   6.382  0.4405 -0.1130 -0.6626
   64SAPC    HS 5153   5.965   4.689   6.459  0.0850 -2.6302  1.1153
   64SAPC   O21 5154   6.163   4.641   6.408  0.2835 -0.1859 -0.1004
   64SAPC   C21 5155   6.209   4.762   6.433 -0.4142  0.1719 -0.3358
   64SAPC   O22 5156   6.152   4.870   6.445  0.3105 -0.1988  0.1183
   64SAPC   C22 5157   6.361   4.751   6.464  0.3511  0.1989  0.6178
   64SAPC   H2R 5158   6.403   4.654   6.431 -0.0071 -0.5883  2.3201
   64SAPC   H2S 5159   6.419   4.823   6.402 -0.8614  0.5442 -0.1449
   64SAPC    C3 5160   5.962   4.489   6.400 -0.4059  0.2690 -0.2399
   64SAPC    HX 5161   5.990   4.436   6.306  2.8895  1.1747  0.1045
   64SAPC    HY 5162   5.851   4.484   6.405 -0.4194 -2.2736 -1.4968
   64SAPC   O31 5163   6.016   4.420   6.513  0.1061  0.1259  0.0166
   64SAPC   C31 5164   5.946   4.451   6.632 -0.1631 -0.1221 -0.0879
   64SAPC   O32 5165   5.866   4.542   6.637  0.3616  0.3468 -0.0229
   64SAPC   C32 5166   5.978   4.359   6.744 -0.0116 -0.2613  0.4005
   64SAPC   H2X 5167   6.073   4.301   6.736  0.4055  0.5237 -0.5034
   64SAPC   H2Y 5168   5.891   4.290   6.748 -0.0193 -0.7032 -3.4909
   64SAPC   C23 5169   6.381   4.773   6.618 -0.6289 -0.0042 -0.0097
   64SAPC   H3R 5170   6.343   4.874   6.646  2.0053  1.0828 -0.0222
   64SAPC   H3S 5171   6.490   4.772   6.637 -0.5602  2.2810  0.1022
   64SAPC   C24 5172   6.314   4.672   6.707 -0.2471  0.2954 -0.4014
   64SAPC   H4R 5173   6.206   4.684   6.684 -0.3700  0.1736  0.0868
   64SAPC   H4S 5174   6.328   4.699   6.814 -1.3806  1.2976 -0.4817
   64SAPC   C25 5175   6.355   4.534   6.674  0.2938 -0.1053  0.5678
   64SAPC   H5R 5176   6.342   4.510   6.568  0.6070  1.4443  0.1455
   64SAPC   C26 5177   6.392   4.438   6.761 -0.1243  0.6832 -0.2972
   64SAPC   H6R 5178   6.418   4.339   6.721  1.7142  0.8028  0.5113
   64SAPC   C27 5179   6.404   4.440   6.914  0.0030  0.1832  0.4441
   64SAPC   H7R 5180   6.449   4.342   6.944 -2.1477 -1.8599 -2.3748
   64SAPC   H7S 5181   6.299   4.441   6.948  0.0501 -1.0407  0.6699
   64SAPC   C28 5182   6.465   4.556   6.985 -0.0025 -0.1115  0.7119
   64SAPC   H8R 5183   6.531   4.628   6.935  0.3947 -1.1693 -0.3267
   64SAPC   C29 5184   6.456   4.576   7.117  0.6934 -1.2612  0.4818
   64SAPC   H9R 5185   6.507   4.664   7.159  0.4581  0.1103 -1.9469
   64SAPC  C210 5186   6.386   4.498   7.224 -0.7672 -0.1766  0.4949
   64SAPC  H10R 5187   6.471   4.457   7.281  0.9459 -1.4358 -2.6813
   64SAPC  H10S 5188   6.331   4.413   7.178 -1.1194  0.2862  0.0497
   64SAPC  C211 5189   6.284   4.573   7.307  0.1073  0.4774  0.0123
   64SAPC  H11R 5190   6.207   4.620   7.244  1.8922  1.0899 -1.8122
   64SAPC  C212 5191   6.288   4.573   7.443  0.3089  0.1006  1.0220
   64SAPC  H12R 5192   6.207   4.626   7.495  1.9767  0.2688  3.6624
   64SAPC  C213 5193   6.382   4.517   7.547 -0.5651 -0.0621  0.6225
   64SAPC  H13R 5194   6.418   4.603   7.607  0.9531 -1.2822  1.5334
   64SAPC  H13S 5195   6.475   4.481   7.498 -0.1241  2.2770 -0.3561
   64SAPC  C214 5196   6.346   4.393   7.634  0.3830  0.0721  0.2900
   64SAPC  H14R 5197   6.324   4.304   7.574  2.6363  0.6157 -1.4972
   64SAPC  C215 5198   6.339   4.390   7.766 -0.2112  0.5339  0.1684
   64SAPC  H15R 5199   6.346   4.296   7.821  1.2257  1.0182  0.8588
   64SAPC  C216 5200   6.366   4.506   7.855  0.1670  0.1113 -0.1130
   64SAPC  H16R 5201   6.282   4.507   7.928  1.5284  0.7609  1.5324
   64SAPC  H16S 5202   6.362   4.609   7.812 -1.7119 -0.1481 -0.6229
   64SAPC  C217 5203   6.484   4.489   7.952  0.2727 -0.0515  0.5393
   64SAPC  H17R 5204   6.501   4.591   7.993 -0.2897 -0.4730  1.8983
   64SAPC  H17S 5205   6.573   4.462   7.892  1.9521  0.2965  2.7672
   64SAPC  C218 5206   6.450   4.400   8.078  0.1168  0.4279 -0.7374
   64SAPC  H18R 5207   6.428   4.292   8.062 -0.2388  0.4298 -0.2803
   64SAPC  H18S 5208   6.355   4.439   8.119 -0.0632 -0.4402 -0.3023
   64SAPC  C219 5209   6.562   4.395   8.193  0.4635 -0.0142 -0.3060
   64SAPC  H19R 5210   6.648   4.331   8.162  1.3661  1.2554 -0.5066
   64SAPC  H19S 5211   6.510   4.340   8.275  0.6697 -0.1210 -0.2436
   64SAPC  C220 5212   6.614   4.529   8.259  0.0497 -0.0133  0.3282
   64SAPC  H20R 5213   6.681   4.499   8.343 -0.1912 -0.6151  0.3081
   64SAPC  H20S 5214   6.525   4.583   8.298  0.5423 -0.7184  2.6061
   64SAPC  H20T 5215   6.665   4.588   8.180 -2.3876  2.8946  0.7341
   64SAPC   C33 5216   5.975   4.434   6.879 -0.1731  0.0660  0.0252
   64SAPC   H3X 5217   5.874   4.476   6.900 -0.3478 -0.3276 -0.0245
   64SAPC   H3Y 5218   6.046   4.519   6.888  1.6325 -1.5163  1.8211
   64SAPC   C34 5219   6.006   4.340   7.002  0.4942  0.1989 -0.1926
   64SAPC   H4X 5220   6.111   4.306   6.985  0.6783  1.4627 -1.8380
   64SAPC   H4Y 5221   5.948   4.247   6.986 -1.8291  1.6253 -0.4889
   64SAPC   C35 5222   5.992   4.395   7.145  0.5088  0.2590  0.1073
   64SAPC   H5X 5223   5.886   4.426   7.163 -0.1938  0.1731 -3.1939
   64SAPC   H5Y 5224   6.049   4.489   7.157  1.7682 -0.7221  2.2702
   64SAPC   C36 5225   6.049   4.298   7.253 -0.2635  0.1722  0.0362
   64SAPC   H6X 5226   6.157   4.317   7.269 -1.0472  4.1511  1.7686
   64SAPC   H6Y 5227   6.034   4.195   7.213  3.0833 -0.4023  0.0414
   64SAPC   C37 5228   5.971   4.296   7.386  0.4308  0.2899 -0.1208
   64SAPC   H7X 5229   6.019   4.223   7.454 -1.9108 -0.2186  1.1036
   64SAPC   H7Y 5230   5.864   4.267   7.376  0.7280 -1.8455  1.9391
   64SAPC   C38 5231   5.951   4.435   7.459  0.4443  0.4806  0.0616
   64SAPC   H8X 5232   5.890   4.503   7.396 -1.6743 -1.0921  0.2897
   64SAPC   H8Y 5233   6.049   4.486   7.476  0.8888 -0.6651  1.1229
   64SAPC   C39 5234   5.890   4.427   7.608  0.2873  0.3711  0.4661
   64SAPC   H9X 5235   5.815   4.346   7.616  1.5848 -0.8177  1.0612
   64SAPC   H9Y 5236   5.849   4.527   7.633  2.1751  0.7842  2.2176
   64SAPC  C310 5237   5.993   4.375   7.718  0.0904 -0.4064 -0.1109
   64SAPC  H10X 5238   6.078   4.441   7.747  0.1775 -0.1908 -0.8406
   64SAPC  H10Y 5239   6.039   4.278   7.691  1.6864 -0.1038  1.3008
   64SAPC  C311 5240   5.919   4.344   7.848  0.1636  0.9130 -0.6200
   64SAPC  H11X 5241   5.869   4.246   7.836  1.4073  0.3360 -1.3129
   64SAPC  H11Y 5242   5.845   4.426   7.860 -0.2602  0.9955 -3.1579
   64SAPC  C312 5243   6.013   4.336   7.974 -0.3520  0.9448 -1.1336
   64SAPC  H12X 5244   6.037   4.443   7.994  2.5032  0.1668  0.0406
   64SAPC  H12Y 5245   6.110   4.288   7.951 -0.4008 -0.2421  0.9120
   64SAPC  C313 5246   5.944   4.273   8.097  0.0073  0.5821 -0.0405
   64SAPC  H13X 5247   6.017   4.245   8.176 -0.1517 -2.3696 -0.8225
   64SAPC  H13Y 5248   5.904   4.171   8.076  3.5279 -0.9492 -0.0023
   64SAPC  C314 5249   5.841   4.364   8.169  0.1368 -0.4465 -0.7203
   64SAPC  H14X 5250   5.767   4.403   8.096  0.4703 -0.0092 -0.8251
   64SAPC  H14Y 5251   5.896   4.450   8.212 -1.9414  0.1098  1.0571
   64SAPC  C315 5252   5.779   4.304   8.299 -0.1335 -0.1765  0.2022
   64SAPC  H15X 5253   5.856   4.262   8.368 -2.1280 -0.8317  2.1463
   64SAPC  H15Y 5254   5.729   4.209   8.272  0.8421 -1.3248  2.2185
   64SAPC  C316 5255   5.700   4.406   8.390  0.3678  0.0204  0.5536
   64SAPC  H16X 5256   5.630   4.460   8.323 -2.5599 -5.4296 -1.5109
   64SAPC  H16Y 5257   5.775   4.475   8.432  0.2421 -0.0093  0.8315
   64SAPC  C317 5258   5.612   4.340   8.496  0.3555  0.7490  0.1848
   64SAPC  H17X 5259   5.686   4.287   8.560  0.6143  1.4879  0.5091
   64SAPC  H17Y 5260   5.539   4.267   8.455 -1.5192  2.7132 -0.1290
   64SAPC  C318 5261   5.537   4.439   8.586 -0.0039  0.0941  0.3891
   64SAPC  H18X 5262   5.603   4.503   8.649 -2.0459  1.9252  0.7611
   64SAPC  H18Y 5263   5.474   4.380   8.656  0.6748  0.2075  1.1226
   64SAPC  H18Z 5264   5.476   4.507   8.523 -0.0751  0.3303  0.7080
   65SAPC     N 5265   1.902   5.728   5.885  0.1147 -0.4209  0.3060
   65SAPC   C12 5266   1.889   5.881   5.864  0.4070  0.2457 -0.1861
   65SAPC  H12A 5267   1.790   5.907   5.898 -0.5910 -3.6543  0.4661
   65SAPC  H12B 5268   1.889   5.897   5.757 -0.0617  0.2238 -0.1898
   65SAPC   C13 5269   2.025   5.682   5.829 -0.0421  0.1914 -0.4057
   65SAPC  H13A 5270   2.033   5.707   5.725  0.4856  0.8667 -0.2098
   65SAPC  H13B 5271   2.112   5.730   5.872  0.7810 -0.6919 -1.0433
   65SAPC  H13C 5272   2.041   5.580   5.862 -3.2207 -0.3653 -0.2330
   65SAPC   C14 5273   1.894   5.683   6.034  0.3525 -0.1769  0.2542
   65SAPC  H14A 5274   1.918   5.582   6.064 -1.4985 -1.2464 -1.6039
   65SAPC  H14B 5275   1.967   5.741   6.089 -0.3093 -0.4515  1.4842
   65SAPC  H14C 5276   1.806   5.725   6.082 -0.3084 -0.9706 -0.2435
   65SAPC   C15 5277   1.783   5.671   5.813  0.6689  0.3593  0.2259
   65SAPC  H15A 5278   1.780   5.563   5.820 -2.2606  0.2898 -0.6563
   65SAPC  H15B 5279   1.688   5.707   5.849 -0.9195 -3.1484 -0.0331
   65SAPC  H15C 5280   1.791   5.689   5.706  1.9592 -2.3105 -0.2234
   65SAPC   C11 5281   1.999   5.975   5.935 -0.0578  0.1822 -0.6262
   65SAPC  H11A 5282   1.997   6.084   5.915  0.8964  0.4526  0.6552
   65SAPC  H11B 5283   2.097   5.954   5.886 -0.5261  0.5604 -1.7587
   65SAPC     P 5284   1.886   6.018   6.169  0.2342  0.0655 -0.1477
   65SAPC   O13 5285   1.928   6.155   6.212 -0.9776  0.0620 -0.4923
   65SAPC   O14 5286   1.751   6.001   6.111 -0.6120  0.1429 -0.6394
   65SAPC   O12 5287   2.001   5.953   6.079  0.0711 -0.1154  0.2377
   65SAPC   O11 5288   1.888   5.914   6.291 -0.3357  0.0891  0.4516
   65SAPC    C1 5289   2.013   5.893   6.360 -0.2393  0.2248  0.6025
   65SAPC    HA 5290   2.103   5.908   6.295 -1.2596  0.5134 -0.7925
   65SAPC    HB 5291   2.025   5.954   6.452  0.3201 -0.2408  0.8418
   65SAPC    C2 5292   2.025   5.745   6.403  0.7476 -0.4007 -0.0305
   65SAPC    HS 5293   2.007   5.686   6.311  0.5655 -1.4379  0.6480
   65SAPC   O21 5294   1.922   5.722   6.506 -0.4126 -0.1403  0.8679
   65SAPC   C21 5295   1.869   5.602   6.516  0.8074  0.3362  0.3082
   65SAPC   O22 5296   1.890   5.499   6.454  0.3490 -0.2334  0.1123
   65SAPC   C22 5297   1.752   5.601   6.615  0.2053 -0.5759 -0.0242
   65SAPC   H2R 5298   1.713   5.701   6.644 -0.5981 -1.1019  0.7664
   65SAPC   H2S 5299   1.662   5.551   6.573 -0.6088 -1.6962  2.8332
   65SAPC    C3 5300   2.163   5.712   6.450 -0.6751  0.3323  0.0429
   65SAPC    HX 5301   2.199   5.765   6.541  1.6379 -1.4811  0.2667
   65SAPC    HY 5302   2.237   5.736   6.371  0.4202 -1.0599  0.6012
   65SAPC   O31 5303   2.165   5.572   6.486  0.3680 -1.0471 -0.9312
   65SAPC   C31 5304   2.286   5.530   6.519 -0.1755  0.6710  0.1931
   65SAPC   O32 5305   2.382   5.603   6.528  0.0943  0.5148 -0.3787
   65SAPC   C32 5306   2.278   5.382   6.550 -0.1049 -0.8330 -0.4569
   65SAPC   H2X 5307   2.380   5.340   6.559  0.1601  0.1335  1.5856
   65SAPC   H2Y 5308   2.221   5.340   6.464 -0.9498  0.9596 -0.8125
   65SAPC   C23 5309   1.793   5.518   6.740  0.1102 -0.2125 -1.3643
   65SAPC   H3R 5310   1.886   5.562   6.782 -0.6830  2.2471 -2.0291
   65SAPC   H3S 5311   1.802   5.412   6.707 -0.8458  0.1222 -2.7833
   65SAPC   C24 5312   1.670   5.532   6.841 -0.2135  0.4652  0.4527
   65SAPC   H4R 5313   1.621   5.433   6.839 -1.9812  1.3125 -0.3545
   65SAPC   H4S 5314   1.590   5.587   6.787 -1.5477 -1.1490  0.7304
   65SAPC   C25 5315   1.688   5.577   6.985  0.0432 -0.1133  0.7165
   65SAPC   H5R 5316   1.692   5.497   7.060  0.5956  0.8065  1.7021
   65SAPC   C26 5317   1.641   5.694   7.030 -0.2528 -0.1681  0.1280
   65SAPC   H6R 5318   1.655   5.713   7.138 -1.7901  0.3181  0.2749
   65SAPC   C27 5319   1.567   5.800   6.954 -0.1910 -0.7756  0.7097
   65SAPC   H7R 5320   1.464   5.759   6.955 -1.1451  1.4627  1.1880
   65SAPC   H7S 5321   1.602   5.805   6.849 -1.8292 -0.1293  0.1586
   65SAPC   C28 5322   1.576   5.933   7.020 -0.4406 -0.2771 -0.2118
   65SAPC   H8R 5323   1.642   6.007   6.972 -0.6138 -1.3728 -2.2249
   65SAPC   C29 5324   1.492   5.974   7.118  0.1877 -0.0753  0.0300
   65SAPC   H9R 5325   1.497   6.076   7.158  0.7139  0.3493 -1.0815
   65SAPC  C210 5326   1.382   5.891   7.184 -0.1610 -0.3528  0.3549
   65SAPC  H10R 5327   1.408   5.791   7.227  0.7689 -1.4750 -2.5699
   65SAPC  H10S 5328   1.316   5.861   7.099 -0.0436  0.6331 -0.0899
   65SAPC  C211 5329   1.289   5.967   7.275 -0.6186 -0.0109  0.7596
   65SAPC  H11R 5330   1.209   6.018   7.221  0.1926  0.2322 -0.2470
   65SAPC  C212 5331   1.324   5.978   7.405  0.1537  0.3951  0.1164
   65SAPC  H12R 5332   1.246   6.036   7.457 -0.5952 -0.5990  0.1265
   65SAPC  C213 5333   1.429   5.928   7.493 -0.3272  0.6151  0.1517
   65SAPC  H13R 5334   1.445   6.007   7.569 -1.4907  0.2626  0.7802
   65SAPC  H13S 5335   1.519   5.932   7.428 -1.8093  0.9817 -1.9929
   65SAPC  C214 5336   1.394   5.797   7.556 -0.5495 -0.0741 -0.0166
   65SAPC  H14R 5337   1.317   5.742   7.500 -1.6928  0.0377  1.3697
   65SAPC  C215 5338   1.446   5.754   7.672 -0.4524  0.7389 -0.7080
   65SAPC  H15R 5339   1.407   5.661   7.716  1.4786  1.2350  2.3966
   65SAPC  C216 5340   1.544   5.820   7.764 -0.7470 -0.5653 -0.3362
   65SAPC  H16R 5341   1.591   5.907   7.714 -1.6972  1.5648  2.2312
   65SAPC  H16S 5342   1.632   5.756   7.785 -0.3084  0.8542  2.6481
   65SAPC  C217 5343   1.490   5.875   7.897  0.3381  0.6188 -0.0985
   65SAPC  H17R 5344   1.482   5.786   7.963 -1.4434 -1.4779 -2.8979
   65SAPC  H17S 5345   1.385   5.906   7.879 -0.6726 -2.3024  0.1892
   65SAPC  C218 5346   1.592   5.981   7.952 -1.3273  0.9561  0.0230
   65SAPC  H18R 5347   1.609   6.054   7.871  0.6229  2.3521  1.5962
   65SAPC  H18S 5348   1.680   5.925   7.991 -0.9951  0.1509 -1.7776
   65SAPC  C219 5349   1.534   6.066   8.062  0.3711  0.6648  0.2320
   65SAPC  H19R 5350   1.517   6.013   8.158 -0.6498  0.8348  0.1531
   65SAPC  H19S 5351   1.431   6.093   8.031  0.3006 -0.6918 -0.7704
   65SAPC  C220 5352   1.603   6.203   8.084 -0.1490  0.6897  0.2315
   65SAPC  H20R 5353   1.583   6.252   7.986  0.3407  0.3416 -0.0479
   65SAPC  H20S 5354   1.714   6.205   8.093  0.0430  0.6135 -1.6274
   65SAPC  H20T 5355   1.560   6.258   8.170 -0.5732  1.9284 -0.7471
   65SAPC   C33 5356   2.211   5.355   6.684  0.1966 -0.5026  0.0326
   65SAPC   H3X 5357   2.165   5.255   6.670 -1.0233 -0.0241  0.5349
   65SAPC   H3Y 5358   2.115   5.408   6.701  0.4506 -0.4644  1.5156
   65SAPC   C34 5359   2.304   5.338   6.810  0.0543  0.7481 -0.5063
   65SAPC   H4X 5360   2.354   5.433   6.840  1.9200  0.3211 -2.0669
   65SAPC   H4Y 5361   2.392   5.276   6.783 -0.6867  0.1868 -1.6936
   65SAPC   C35 5362   2.229   5.266   6.935  0.0712  0.1312 -0.1494
   65SAPC   H5X 5363   2.177   5.172   6.903 -0.2474  0.3600 -0.3140
   65SAPC   H5Y 5364   2.153   5.340   6.968 -1.4623 -1.6021  0.4371
   65SAPC   C36 5365   2.312   5.235   7.059  0.3112 -0.2377  0.2492
   65SAPC   H6X 5366   2.340   5.336   7.097  0.3959 -0.0159 -0.3944
   65SAPC   H6Y 5367   2.406   5.176   7.051  0.7113  0.4265 -0.0192
   65SAPC   C37 5368   2.219   5.173   7.154 -0.3094  0.3136 -0.6687
   65SAPC   H7X 5369   2.183   5.075   7.115  2.5499 -1.0472 -0.1607
   65SAPC   H7Y 5370   2.131   5.232   7.189  0.6013  0.7079  1.0887
   65SAPC   C38 5371   2.288   5.111   7.273 -0.1138 -0.0989 -0.0882
   65SAPC   H8X 5372   2.380   5.060   7.239 -1.3020 -1.6553 -1.1108
   65SAPC   H8Y 5373   2.221   5.032   7.312  0.7732 -2.0926 -2.3165
   65SAPC   C39 5374   2.291   5.211   7.391  0.3116 -0.5710  0.2879
   65SAPC   H9X 5375   2.292   5.311   7.341 -2.1346  0.1783  1.5843
   65SAPC   H9Y 5376   2.384   5.190   7.449 -0.1502 -2.1237  0.5030
   65SAPC  C310 5377   2.164   5.213   7.477  0.0262  0.2053 -0.6025
   65SAPC  H10X 5378   2.135   5.120   7.532  0.3137  1.6351  2.1768
   65SAPC  H10Y 5379   2.084   5.218   7.401 -0.4031 -2.1551 -0.3886
   65SAPC  C311 5380   2.152   5.319   7.580  0.3227  0.4845  0.1238
   65SAPC  H11X 5381   2.049   5.328   7.621 -0.0708 -0.0208 -0.7111
   65SAPC  H11Y 5382   2.165   5.417   7.529  2.4196 -0.0240 -0.3950
   65SAPC  C312 5383   2.253   5.307   7.688 -0.3315 -0.5266 -0.5427
   65SAPC  H12X 5384   2.357   5.286   7.658  1.0008  1.3188  2.3352
   65SAPC  H12Y 5385   2.222   5.227   7.760 -2.9551  2.4994  2.0037
   65SAPC  C313 5386   2.259   5.430   7.773  0.5056  0.3427  0.6249
   65SAPC  H13X 5387   2.158   5.476   7.786 -0.7668 -1.2224 -2.6127
   65SAPC  H13Y 5388   2.322   5.503   7.717  1.5158 -1.6851 -1.0362
   65SAPC  C314 5389   2.330   5.425   7.911  0.6709  0.5056  0.4617
   65SAPC  H14X 5390   2.336   5.524   7.960  1.1406  0.4296  0.5625
   65SAPC  H14Y 5391   2.427   5.379   7.881 -0.1823 -0.3801 -1.0954
   65SAPC  C315 5392   2.266   5.321   8.017 -0.4349 -1.0905 -0.0587
   65SAPC  H15X 5393   2.345   5.323   8.096 -1.0460 -3.0620  0.6691
   65SAPC  H15Y 5394   2.253   5.216   7.982 -3.2416 -0.7551 -0.2186
   65SAPC  C316 5395   2.131   5.355   8.087  0.1260  0.9226  0.0203
   65SAPC  H16X 5396   2.044   5.340   8.019  0.4181  1.7686 -0.5675
   65SAPC  H16Y 5397   2.131   5.460   8.124 -0.7712  0.7508  0.5147
   65SAPC  C317 5398   2.107   5.251   8.197  0.3057  0.3864  0.2708
   65SAPC  H17X 5399   2.195   5.260   8.264  0.3157  1.6540  0.1258
   65SAPC  H17Y 5400   2.105   5.152   8.148 -0.8408  1.3343 -1.7201
   65SAPC  C318 5401   1.978   5.267   8.271 -0.3337 -0.0222  0.0620
   65SAPC  H18X 5402   1.882   5.232   8.228  0.5625 -4.6952  1.3705
   65SAPC  H18Y 5403   1.957   5.372   8.302  3.8765  1.2656 -0.8096
   65SAPC  H18Z 5404   1.982   5.207   8.364  1.4425  0.1391  0.1270
   66SAPC     N 5405   2.368   3.918   6.097 -0.1534 -0.0629 -0.0384
   66SAPC   C12 5406   2.279   4.039   6.089 -0.7332  0.1660  0.2300
   66SAPC  H12A 5407   2.240   4.072   6.185  0.3674 -1.3362  1.2291
   66SAPC  H12B 5408   2.192   4.015   6.029 -0.9009 -0.0546  0.5542
   66SAPC   C13 5409   2.388   3.866   5.959 -0.4149 -0.3744  0.0114
   66SAPC  H13A 5410   2.294   3.853   5.906 -1.1861  1.4411  0.8458
   66SAPC  H13B 5411   2.438   3.936   5.893  1.1387  0.7408  2.2370
   66SAPC  H13C 5412   2.448   3.777   5.972 -1.3466 -1.0600 -0.2957
   66SAPC   C14 5413   2.496   3.943   6.172 -0.9843 -0.2124 -0.1032
   66SAPC  H14A 5414   2.484   3.987   6.270 -0.5416  0.1631 -0.2158
   66SAPC  H14B 5415   2.563   3.859   6.175 -1.2489 -0.3878  1.1698
   66SAPC  H14C 5416   2.552   4.026   6.131  0.1572  0.4564  2.5905
   66SAPC   C15 5417   2.292   3.822   6.174  0.1060  0.7476 -0.7102
   66SAPC  H15A 5418   2.203   3.785   6.125  1.4382 -0.7260 -2.1621
   66SAPC  H15B 5419   2.355   3.737   6.198 -1.1758  0.2060  0.9092
   66SAPC  H15C 5420   2.273   3.862   6.272 -1.2105  0.1586 -0.7084
   66SAPC   C11 5421   2.341   4.149   6.005 -0.4150  0.6005 -0.7166
   66SAPC  H11A 5422   2.382   4.119   5.907  5.0870 -0.7662  1.5787
   66SAPC  H11B 5423   2.433   4.169   6.064 -1.6590 -0.9829  1.9454
   66SAPC     P 5424   2.302   4.410   6.025  0.0941 -0.0441  0.2343
   66SAPC   O13 5425   2.435   4.430   5.958 -0.3921 -0.4475  0.0813
   66SAPC   O14 5426   2.191   4.496   5.977  0.1412  0.0312  0.1162
   66SAPC   O12 5427   2.257   4.262   5.991 -0.0435 -0.5661 -0.1355
   66SAPC   O11 5428   2.325   4.416   6.183  0.0975 -0.5579 -0.1223
   66SAPC    C1 5429   2.347   4.537   6.249  0.2503  0.0305 -0.0648
   66SAPC    HA 5430   2.434   4.531   6.319 -0.3059  2.5755  0.9455
   66SAPC    HB 5431   2.357   4.626   6.184 -1.4938  1.4307  1.4919
   66SAPC    C2 5432   2.242   4.591   6.357 -0.3462  0.0443 -0.4127
   66SAPC    HS 5433   2.273   4.688   6.401 -2.2185  0.6839 -0.4239
   66SAPC   O21 5434   2.228   4.488   6.457  0.0943  0.8961  0.3947
   66SAPC   C21 5435   2.191   4.520   6.580  0.3720 -0.8416  0.3914
   66SAPC   O22 5436   2.189   4.636   6.617  0.0010 -0.0851  0.1152
   66SAPC   C22 5437   2.128   4.403   6.652  0.6519  0.1145 -0.2105
   66SAPC   H2R 5438   2.059   4.443   6.730  3.6210 -0.7544  3.0932
   66SAPC   H2S 5439   2.072   4.351   6.571  2.0031  0.7486 -1.5954
   66SAPC    C3 5440   2.103   4.621   6.295  0.8412  0.2142 -0.0514
   66SAPC    HX 5441   2.046   4.539   6.247 -3.4996 -0.7694  5.8007
   66SAPC    HY 5442   2.125   4.686   6.207 -0.4619 -0.4501 -0.9004
   66SAPC   O31 5443   2.019   4.667   6.399  0.0215 -0.4539  0.3625
   66SAPC   C31 5444   2.020   4.806   6.421  0.7810  0.0817  0.0404
   66SAPC   O32 5445   2.071   4.875   6.339 -0.0048 -0.2481  0.5519
   66SAPC   C32 5446   1.925   4.851   6.538  0.5092  0.3673  0.5137
   66SAPC   H2X 5447   1.931   4.781   6.624 -2.0225 -2.3003 -1.3117
   66SAPC   H2Y 5448   1.821   4.831   6.504  0.5529 -0.3917  0.8076
   66SAPC   C23 5449   2.212   4.310   6.743  0.1424 -1.0542 -0.0618
   66SAPC   H3R 5450   2.286   4.362   6.808  1.3071 -5.1067  2.2298
   66SAPC   H3S 5451   2.269   4.245   6.673 -0.5066 -0.8124 -0.8294
   66SAPC   C24 5452   2.131   4.233   6.845  0.2685  0.0804 -0.7886
   66SAPC   H4R 5453   2.186   4.137   6.856  2.1694  1.3304  1.9801
   66SAPC   H4S 5454   2.041   4.195   6.792  1.0508  0.3724 -2.3790
   66SAPC   C25 5455   2.094   4.293   6.980  0.3304 -0.1202 -0.1469
   66SAPC   H5R 5456   1.995   4.340   6.984  0.0210 -0.5538 -1.9100
   66SAPC   C26 5457   2.160   4.267   7.092  0.3121 -0.2614  0.5593
   66SAPC   H6R 5458   2.124   4.321   7.181 -0.2897 -1.9265  1.3668
   66SAPC   C27 5459   2.294   4.194   7.106  0.0438 -0.1711 -0.2501
   66SAPC   H7R 5460   2.367   4.249   7.170  1.0004 -1.0406 -0.5689
   66SAPC   H7S 5461   2.352   4.190   7.011  0.9127 -0.7616  0.2881
   66SAPC   C28 5462   2.273   4.053   7.145  0.3422  0.2725 -0.6836
   66SAPC   H8R 5463   2.248   4.001   7.051  1.4186  1.6498 -1.7808
   66SAPC   C29 5464   2.300   3.991   7.262 -0.1897 -0.0990  0.0921
   66SAPC   H9R 5465   2.280   3.883   7.267  1.3034 -0.4032  0.0004
   66SAPC  C210 5466   2.376   4.061   7.376 -0.0749  0.4719  0.2287
   66SAPC  H10R 5467   2.319   4.032   7.467 -0.4214  3.0806  0.9146
   66SAPC  H10S 5468   2.380   4.172   7.376 -1.0132  0.5171  0.1789
   66SAPC  C211 5469   2.520   4.020   7.375 -0.4037 -0.4268 -0.1040
   66SAPC  H11R 5470   2.554   3.974   7.281  0.6181 -0.8178  0.4473
   66SAPC  C212 5471   2.617   4.031   7.466  0.8222  0.6793 -0.0371
   66SAPC  H12R 5472   2.718   3.991   7.449 -0.6654 -2.8781 -1.4784
   66SAPC  C213 5473   2.597   4.090   7.607 -0.6741 -0.5725 -0.2279
   66SAPC  H13R 5474   2.631   4.011   7.677 -3.2546 -0.7980  0.8713
   66SAPC  H13S 5475   2.490   4.098   7.634 -0.8265 -1.7338 -0.4386
   66SAPC  C214 5476   2.685   4.211   7.622  0.0852 -1.2580 -0.1736
   66SAPC  H14R 5477   2.743   4.243   7.534 -0.1192  0.0773  0.1499
   66SAPC  C215 5478   2.681   4.289   7.733  0.5995 -0.2175  0.3477
   66SAPC  H15R 5479   2.751   4.374   7.732  0.7382 -0.3385 -0.4973
   66SAPC  C216 5480   2.596   4.267   7.857 -0.2243 -0.1909 -0.8550
   66SAPC  H16R 5481   2.615   4.173   7.913 -0.0820  0.3310 -0.0172
   66SAPC  H16S 5482   2.488   4.278   7.835 -0.1751 -0.0494 -1.0368
   66SAPC  C217 5483   2.635   4.364   7.976 -0.4425  0.2886  0.3865
   66SAPC  H17R 5484   2.599   4.469   7.962  1.2078  1.2119  2.3923
   66SAPC  H17S 5485   2.746   4.365   7.988 -0.5591 -2.1415  2.5436
   66SAPC  C218 5486   2.575   4.328   8.112 -0.6580  0.4268 -0.0463
   66SAPC  H18R 5487   2.633   4.245   8.158  0.9606  1.4959 -0.0824
   66SAPC  H18S 5488   2.471   4.290   8.099 -0.0067 -0.9853 -1.6474
   66SAPC  C219 5489   2.584   4.450   8.199  0.0473 -0.6607 -0.7833
   66SAPC  H19R 5490   2.521   4.524   8.145  1.1980 -0.1145 -1.4017
   66SAPC  H19S 5491   2.682   4.502   8.194  0.4290 -1.2392  0.2301
   66SAPC  C220 5492   2.545   4.428   8.343  0.0010  0.3244  0.7316
   66SAPC  H20R 5493   2.617   4.357   8.389 -0.9032  0.0619  1.7998
   66SAPC  H20S 5494   2.436   4.409   8.356  0.6440 -2.8908  2.5357
   66SAPC  H20T 5495   2.567   4.527   8.390  0.2627 -0.5303  2.5050
   66SAPC   C33 5496   1.946   5.002   6.579  0.9226 -0.0096  0.5953
   66SAPC   H3X 5497   1.930   5.055   6.483 -0.1198 -2.3258 -0.5835
   66SAPC   H3Y 5498   2.050   5.018   6.614  0.6373 -0.9179  1.9208
   66SAPC   C34 5499   1.848   5.058   6.679 -0.2109 -0.2180  0.1632
   66SAPC   H4X 5500   1.741   5.062   6.651 -0.0337 -2.2740 -0.9555
   66SAPC   H4Y 5501   1.870   5.167   6.689 -3.3718  0.3889  1.8433
   66SAPC   C35 5502   1.855   4.990   6.822  0.5554  0.4268  0.4604
   66SAPC   H5X 5503   1.961   4.972   6.849  0.1634 -0.1993  1.6891
   66SAPC   H5Y 5504   1.815   4.888   6.802 -1.2008  0.9159  1.2530
   66SAPC   C36 5505   1.767   5.062   6.933  0.1818 -0.1434 -0.7893
   66SAPC   H6X 5506   1.753   4.996   7.021  0.4137 -0.1863 -0.7838
   66SAPC   H6Y 5507   1.669   5.088   6.887  0.4841  0.7571 -0.9466
   66SAPC   C37 5508   1.840   5.179   6.979  0.5036 -0.7334 -0.3637
   66SAPC   H7X 5509   1.845   5.257   6.900  0.0801 -1.8214 -1.4994
   66SAPC   H7Y 5510   1.943   5.145   7.006  0.9864  2.3645  2.3470
   66SAPC   C38 5511   1.770   5.242   7.103 -0.0911 -0.4978  0.0953
   66SAPC   H8X 5512   1.660   5.252   7.090  0.0292  1.3235  0.2420
   66SAPC   H8Y 5513   1.810   5.346   7.099 -0.4423 -0.3485  0.3441
   66SAPC   C39 5514   1.800   5.171   7.238 -0.2999  0.3306 -0.1526
   66SAPC   H9X 5515   1.907   5.141   7.249 -0.5449 -0.3078  0.5755
   66SAPC   H9Y 5516   1.752   5.071   7.247 -0.5186  0.4983  0.6201
   66SAPC  C310 5517   1.750   5.266   7.353 -0.1025  0.1396 -0.1951
   66SAPC  H10X 5518   1.639   5.267   7.350 -0.1007  1.9498 -1.0332
   66SAPC  H10Y 5519   1.787   5.369   7.337  0.5996 -0.1712 -0.6335
   66SAPC  C311 5520   1.785   5.214   7.495  0.1731 -0.4734 -0.3726
   66SAPC  H11X 5521   1.889   5.237   7.528 -0.3264  0.5102  0.5875
   66SAPC  H11Y 5522   1.764   5.105   7.498 -0.2455 -0.4419 -1.5876
   66SAPC  C312 5523   1.691   5.277   7.603 -0.0664  0.5484 -0.0196
   66SAPC  H12X 5524   1.601   5.214   7.620 -0.0927  0.3592 -0.8058
   66SAPC  H12Y 5525   1.655   5.374   7.563  1.5329  1.2546  0.1801
   66SAPC  C313 5526   1.768   5.306   7.735  0.2638  0.0230  0.1495
   66SAPC  H13X 5527   1.846   5.383   7.717  0.2695 -0.6184 -3.3407
   66SAPC  H13Y 5528   1.836   5.223   7.760  1.1700  1.0517  1.2437
   66SAPC  C314 5529   1.663   5.331   7.846  0.2445  0.0142 -1.1132
   66SAPC  H14X 5530   1.605   5.239   7.869  0.9231  0.0256  0.8597
   66SAPC  H14Y 5531   1.591   5.411   7.821  0.4697  0.7750  0.5065
   66SAPC  C315 5532   1.724   5.387   7.981 -0.2412  0.3420  0.5192
   66SAPC  H15X 5533   1.809   5.452   7.950  0.2737 -0.9816 -0.9992
   66SAPC  H15Y 5534   1.767   5.306   8.043  1.2647  0.2779 -0.5548
   66SAPC  C316 5535   1.624   5.470   8.060 -0.6057 -0.1698  0.4263
   66SAPC  H16X 5536   1.541   5.402   8.088 -1.0831  1.0102  2.0637
   66SAPC  H16Y 5537   1.595   5.553   7.992  3.7788  0.6714 -0.7284
   66SAPC  C317 5538   1.688   5.531   8.186  0.0779  0.3778 -0.3229
   66SAPC  H17X 5539   1.771   5.600   8.159 -1.2581  1.6943 -1.1804
   66SAPC  H17Y 5540   1.719   5.452   8.258 -1.4489  1.3971  1.5376
   66SAPC  C318 5541   1.605   5.636   8.268 -0.4286  0.3434  0.1080
   66SAPC  H18X 5542   1.507   5.598   8.305 -0.3857 -1.4088 -1.4316
   66SAPC  H18Y 5543   1.571   5.716   8.198  2.6171  0.9265 -0.8441
   66SAPC  H18Z 5544   1.660   5.670   8.359 -2.3462 -1.1663  1.9397
   67SAPC     N 5545   2.273   3.274   6.100 -0.4805  0.2036 -0.0667
   67SAPC   C12 5546   2.181   3.272   6.215  0.9465  0.0576 -1.0499
   67SAPC  H12A 5547   2.195   3.183   6.274  2.5025 -0.1663 -1.7017
   67SAPC  H12B 5548   2.081   3.255   6.180  0.4557  2.3855 -0.9333
   67SAPC   C13 5549   2.238   3.386   6.009 -0.0943  0.1958  0.4150
   67SAPC  H13A 5550   2.243   3.482   6.059  3.7567 -0.6959  2.1724
   67SAPC  H13B 5551   2.319   3.389   5.938  0.6056 -0.5506  1.1600
   67SAPC  H13C 5552   2.143   3.366   5.962 -1.0784  0.4527  2.1964
   67SAPC   C14 5553   2.418   3.285   6.146 -0.0842 -1.1665  0.3187
   67SAPC  H14A 5554   2.473   3.309   6.056 -0.6105  2.1071  0.7411
   67SAPC  H14B 5555   2.434   3.371   6.209  0.7473 -0.6886 -0.5177
   67SAPC  H14C 5556   2.457   3.197   6.196  3.6420  0.7855  1.2587
   67SAPC   C15 5557   2.268   3.145   6.023 -0.5696 -0.0552 -0.2802
   67SAPC  H15A 5558   2.274   3.060   6.089  2.5474  0.8671  0.7627
   67SAPC  H15B 5559   2.190   3.141   5.948 -1.3922  0.6057  0.5188
   67SAPC  H15C 5560   2.349   3.140   5.952  1.0778 -1.7895  1.6258
   67SAPC   C11 5561   2.171   3.398   6.313 -0.8584 -0.2123  0.4136
   67SAPC  H11A 5562   2.272   3.428   6.348 -1.3635 -0.0696  1.7834
   67SAPC  H11B 5563   2.106   3.370   6.398 -3.0399  2.1836 -0.3008
   67SAPC     P 5564   1.963   3.528   6.226 -0.6096  0.4255 -0.6090
   67SAPC   O13 5565   1.932   3.636   6.126 -0.3768  0.0249  0.0663
   67SAPC   O14 5566   1.916   3.395   6.180 -0.4900 -0.3637 -0.0632
   67SAPC   O12 5567   2.118   3.512   6.252 -0.1016  0.2666 -0.4662
   67SAPC   O11 5568   1.907   3.573   6.372  0.1687  0.0121 -0.0533
   67SAPC    C1 5569   1.964   3.686   6.427  0.2393 -0.5174  0.1433
   67SAPC    HA 5570   2.072   3.701   6.405  0.1392  1.5956  0.8566
   67SAPC    HB 5571   1.917   3.777   6.383  0.2992 -0.5827 -0.0567
   67SAPC    C2 5572   1.958   3.693   6.592 -0.4989  0.3809  0.3197
   67SAPC    HS 5573   2.017   3.785   6.609 -0.3423  0.1116  1.3509
   67SAPC   O21 5574   2.014   3.574   6.650  0.4976 -0.4436 -0.5770
   67SAPC   C21 5575   2.142   3.553   6.625 -0.0325 -0.0676  0.3764
   67SAPC   O22 5576   2.223   3.638   6.589  0.1523 -0.1768 -0.3925
   67SAPC   C22 5577   2.178   3.407   6.664 -0.2192  0.4128  0.6567
   67SAPC   H2R 5578   2.133   3.392   6.765 -1.9628  0.0356 -0.1285
   67SAPC   H2S 5579   2.121   3.344   6.592  0.8164 -1.8638  1.7321
   67SAPC    C3 5580   1.813   3.701   6.639 -0.2851  0.1375 -0.4744
   67SAPC    HX 5581   1.761   3.614   6.594 -2.7277  0.8500  0.8119
   67SAPC    HY 5582   1.761   3.791   6.601  0.6738  0.8798 -0.0963
   67SAPC   O31 5583   1.801   3.692   6.788 -0.1411 -0.0036  0.6622
   67SAPC   C31 5584   1.845   3.788   6.849  0.1374 -0.5073  0.0906
   67SAPC   O32 5585   1.910   3.887   6.813 -0.0945  0.4308  0.1368
   67SAPC   C32 5586   1.806   3.771   6.995 -0.0393  0.3745  0.1840
   67SAPC   H2X 5587   1.807   3.664   7.024 -0.3039  0.1011 -0.8018
   67SAPC   H2Y 5588   1.704   3.817   7.003  0.1153  0.6474  0.6636
   67SAPC   C23 5589   2.332   3.376   6.662  0.5827  0.0890 -0.2064
   67SAPC   H3R 5590   2.370   3.402   6.561  3.0869  0.5782  0.7818
   67SAPC   H3S 5591   2.346   3.266   6.661 -0.2524 -0.0195 -0.2568
   67SAPC   C24 5592   2.417   3.450   6.767  0.7209  0.0082  0.1925
   67SAPC   H4R 5593   2.394   3.559   6.759 -2.6283 -0.6069  0.0574
   67SAPC   H4S 5594   2.524   3.445   6.736  0.2264  0.0657 -1.6051
   67SAPC   C25 5595   2.394   3.390   6.904 -0.3220 -0.6333  0.3565
   67SAPC   H5R 5596   2.412   3.282   6.906 -0.1093 -0.6548 -1.4315
   67SAPC   C26 5597   2.352   3.453   7.012  0.8059 -0.3331 -0.4111
   67SAPC   H6R 5598   2.330   3.391   7.101 -1.2470  3.2431  1.8169
   67SAPC   C27 5599   2.314   3.599   7.039  0.1035 -0.4114  0.2762
   67SAPC   H7R 5600   2.321   3.657   6.945  1.9241  0.3943  0.8642
   67SAPC   H7S 5601   2.390   3.642   7.108  0.1338 -1.3380  0.8331
   67SAPC   C28 5602   2.170   3.605   7.080 -0.5233  1.3440  0.5816
   67SAPC   H8R 5603   2.108   3.603   6.989  1.1643  1.1873 -0.6338
   67SAPC   C29 5604   2.113   3.606   7.199  0.3426 -0.2084  0.4626
   67SAPC   H9R 5605   2.003   3.596   7.196  0.3014  0.4418 -1.5338
   67SAPC  C210 5606   2.185   3.607   7.331  0.3592  0.4727  0.7176
   67SAPC  H10R 5607   2.268   3.680   7.342 -0.9562  1.7682  2.9476
   67SAPC  H10S 5608   2.240   3.511   7.329  0.0428  0.2977  0.1429
   67SAPC  C211 5609   2.096   3.596   7.457 -0.6073 -0.4479 -0.5654
   67SAPC  H11R 5610   1.989   3.582   7.436 -0.6590 -1.7649  0.4554
   67SAPC  C212 5611   2.134   3.607   7.591  0.4301  0.3124 -0.1623
   67SAPC  H12R 5612   2.055   3.593   7.666  0.9431  0.3890  0.4020
   67SAPC  C213 5613   2.270   3.642   7.649  0.0207 -0.2868 -0.5567
   67SAPC  H13R 5614   2.330   3.665   7.559 -0.8112 -1.1896 -1.3649
   67SAPC  H13S 5615   2.322   3.556   7.695 -3.0849 -0.8790  2.2270
   67SAPC  C214 5616   2.261   3.745   7.761  0.0470 -0.0119 -0.2200
   67SAPC  H14R 5617   2.159   3.779   7.782  0.2048 -0.9459  2.4439
   67SAPC  C215 5618   2.359   3.807   7.833 -0.7421  0.5996 -0.5900
   67SAPC  H15R 5619   2.335   3.887   7.904 -0.9519  0.5873 -0.6444
   67SAPC  C216 5620   2.508   3.770   7.820 -0.2205 -0.9137  0.3592
   67SAPC  H16R 5621   2.575   3.855   7.793 -2.1391  0.4914 -0.2057
   67SAPC  H16S 5622   2.522   3.691   7.743 -0.7174 -0.8125  0.1577
   67SAPC  C217 5623   2.563   3.711   7.953  0.4556  0.8367  0.5201
   67SAPC  H17R 5624   2.489   3.633   7.982  1.6853 -0.4125  0.4155
   67SAPC  H17S 5625   2.557   3.793   8.027  0.4980  0.0706  1.3854
   67SAPC  C218 5626   2.701   3.645   7.940 -0.5423  0.3681  0.4358
   67SAPC  H18R 5627   2.759   3.655   8.034  0.1310  0.7273 -0.0104
   67SAPC  H18S 5628   2.754   3.699   7.859  0.0714 -2.2345 -0.9991
   67SAPC  C219 5629   2.696   3.495   7.891 -0.3692 -0.4514  0.1061
   67SAPC  H19R 5630   2.632   3.494   7.800  1.5357  0.6754 -1.3344
   67SAPC  H19S 5631   2.644   3.444   7.975 -2.1685 -1.7406 -1.6858
   67SAPC  C220 5632   2.830   3.444   7.868  0.8127  0.3327 -0.1181
   67SAPC  H20R 5633   2.870   3.495   7.777  0.0319 -0.1873 -0.7670
   67SAPC  H20S 5634   2.818   3.335   7.850 -1.5399  0.4497  0.4606
   67SAPC  H20T 5635   2.892   3.477   7.954  1.5502  1.1000 -0.9194
   67SAPC   C33 5636   1.889   3.857   7.084  0.4406  0.3818 -1.0779
   67SAPC   H3X 5637   1.882   3.962   7.046  1.2163  0.7785 -0.1673
   67SAPC   H3Y 5638   1.998   3.842   7.071  0.3613 -0.4721 -0.7705
   67SAPC   C34 5639   1.841   3.849   7.230 -0.1727 -1.0355  0.2579
   67SAPC   H4X 5640   1.826   3.745   7.266 -0.5598 -1.2250 -0.4193
   67SAPC   H4Y 5641   1.736   3.885   7.234  0.4787  0.9155  1.2546
   67SAPC   C35 5642   1.911   3.936   7.327 -0.4707 -0.9106  0.5211
   67SAPC   H5X 5643   1.905   4.041   7.290 -0.3255 -0.7739  0.8732
   67SAPC   H5Y 5644   2.020   3.916   7.321 -0.1665  0.6872  0.2351
   67SAPC   C36 5645   1.861   3.927   7.457  0.5381 -0.4737 -0.5290
   67SAPC   H6X 5646   1.915   3.849   7.516  0.5091  0.8660  1.3643
   67SAPC   H6Y 5647   1.753   3.901   7.458  0.6547 -0.9790  0.4013
   67SAPC   C37 5648   1.866   4.054   7.547 -0.0988 -0.7611  0.0046
   67SAPC   H7X 5649   1.821   4.135   7.486 -1.6701 -1.3474  0.3186
   67SAPC   H7Y 5650   1.968   4.074   7.586  0.5020 -2.4129 -0.6442
   67SAPC   C38 5651   1.774   4.040   7.669  0.5246  0.3658 -0.4062
   67SAPC   H8X 5652   1.671   4.004   7.650  0.1258  2.1026 -1.8517
   67SAPC   H8Y 5653   1.765   4.138   7.721  2.5651 -0.3688  1.5243
   67SAPC   C39 5654   1.825   3.919   7.754  0.4819  0.0576  0.4121
   67SAPC   H9X 5655   1.933   3.896   7.739  1.4874  2.7114  2.7751
   67SAPC   H9Y 5656   1.772   3.830   7.713  2.8854 -0.7508 -1.1676
   67SAPC  C310 5657   1.809   3.948   7.902 -0.2604  0.0094 -0.2475
   67SAPC  H10X 5658   1.701   3.937   7.924  0.5724 -4.2860  3.1235
   67SAPC  H10Y 5659   1.844   4.051   7.924  1.0493  0.1668 -2.6932
   67SAPC  C311 5660   1.893   3.861   7.998 -0.1489  0.3942 -0.3520
   67SAPC  H11X 5661   2.001   3.881   7.978  0.7166 -1.8894  1.5635
   67SAPC  H11Y 5662   1.879   3.753   7.975  0.4496  0.2320  0.0144
   67SAPC  C312 5663   1.860   3.884   8.144  0.4891 -0.2474 -0.1544
   67SAPC  H12X 5664   1.750   3.884   8.160  0.0286  1.2900 -2.8020
   67SAPC  H12Y 5665   1.892   3.981   8.187  2.0030 -1.0112  0.5452
   67SAPC  C313 5666   1.927   3.778   8.249  0.2054  0.5907 -0.0698
   67SAPC  H13X 5667   2.037   3.769   8.237  0.0986  0.8846 -1.3674
   67SAPC  H13Y 5668   1.888   3.678   8.220  0.1854  1.4464 -3.3808
   67SAPC  C314 5669   1.876   3.809   8.389 -0.4273 -0.0973 -0.1545
   67SAPC  H14X 5670   1.765   3.808   8.390 -0.4369 -1.3691 -0.1336
   67SAPC  H14Y 5671   1.910   3.908   8.426  1.2833 -0.1142 -1.5353
   67SAPC  C315 5672   1.928   3.696   8.479 -0.2421 -0.6738 -0.5652
   67SAPC  H15X 5673   1.892   3.596   8.444  1.6368 -1.2303 -1.0150
   67SAPC  H15Y 5674   1.887   3.716   8.580  3.7038  1.5765  0.7816
   67SAPC  C316 5675   2.080   3.704   8.497  0.4161 -0.3450  0.6812
   67SAPC  H16X 5676   2.112   3.811   8.498  1.4956 -0.6576  0.8799
   67SAPC  H16Y 5677   2.127   3.653   8.410  0.2520 -2.0799  1.5865
   67SAPC  C317 5678   2.145   3.625   8.609  0.7333  0.9990 -0.7010
   67SAPC  H17X 5679   2.251   3.598   8.589  0.3781 -1.4402  0.3533
   67SAPC  H17Y 5680   2.095   3.526   8.613  1.9918  0.3700  1.5461
   67SAPC  C318 5681   2.131   3.685   8.752 -0.4792 -0.1604  0.1969
   67SAPC  H18X 5682   2.025   3.696   8.784 -0.0450 -0.6704  1.9350
   67SAPC  H18Y 5683   2.173   3.787   8.751 -0.6975 -0.0670 -0.5774
   67SAPC  H18Z 5684   2.181   3.626   8.831  1.6626  0.1184 -0.8868
   68SAPC     N 5685   1.494   6.323   6.067 -0.0704 -0.3385  0.0122
   68SAPC   C12 5686   1.611   6.273   6.148  0.0925 -0.1650  0.2432
   68SAPC  H12A 5687   1.705   6.311   6.111  0.2249 -0.6597  0.0604
   68SAPC  H12B 5688   1.603   6.165   6.138  0.0973 -0.2177  0.7571
   68SAPC   C13 5689   1.500   6.269   5.925  0.4359 -0.5489  0.7970
   68SAPC  H13A 5690   1.592   6.300   5.879  0.6916  0.6875  2.0918
   68SAPC  H13B 5691   1.496   6.161   5.921 -1.4351 -0.5291  1.1157
   68SAPC  H13C 5692   1.423   6.301   5.856 -0.0879 -0.2077  1.5361
   68SAPC   C14 5693   1.364   6.275   6.131  0.3766  0.2950 -0.5457
   68SAPC  H14A 5694   1.332   6.328   6.219  0.7147 -0.4779  0.0608
   68SAPC  H14B 5695   1.283   6.291   6.061 -0.5421 -0.0344  0.4223
   68SAPC  H14C 5696   1.364   6.167   6.142  0.6277  0.0548 -2.4861
   68SAPC   C15 5697   1.505   6.476   6.068  0.3213 -0.5105  0.3759
   68SAPC  H15A 5698   1.508   6.514   6.169  2.5014 -1.4750  0.7080
   68SAPC  H15B 5699   1.597   6.516   6.029 -0.0916  0.4129  0.3009
   68SAPC  H15C 5700   1.423   6.531   6.022  0.5392  2.0281  2.7614
   68SAPC   C11 5701   1.621   6.301   6.305 -0.4450 -0.1727  0.8999
   68SAPC  H11A 5702   1.709   6.244   6.343 -1.4557 -2.1839  0.3756
   68SAPC  H11B 5703   1.535   6.245   6.347  0.2810 -0.4127  2.1215
   68SAPC     P 5704   1.755   6.535   6.329  0.6413 -0.2802 -0.0225
   68SAPC   O13 5705   1.820   6.520   6.199  0.1314  1.1229  0.2041
   68SAPC   O14 5706   1.718   6.667   6.369 -0.0198 -0.7139  0.1485
   68SAPC   O12 5707   1.624   6.439   6.341 -0.2387 -0.1295  0.4217
   68SAPC   O11 5708   1.848   6.468   6.432  0.4978  0.4424  0.1564
   68SAPC    C1 5709   1.836   6.503   6.572 -0.4091 -0.5302  0.1068
   68SAPC    HA 5710   1.931   6.547   6.609  0.9637 -1.4843 -2.0787
   68SAPC    HB 5711   1.758   6.579   6.591  0.3505 -0.1879  2.1853
   68SAPC    C2 5712   1.803   6.386   6.661  0.7448 -0.4106 -0.3157
   68SAPC    HS 5713   1.711   6.332   6.628 -0.8146  2.1281 -0.4034
   68SAPC   O21 5714   1.785   6.436   6.797 -0.9671 -0.3513 -0.3848
   68SAPC   C21 5715   1.701   6.367   6.873 -0.6507 -0.2903 -0.4338
   68SAPC   O22 5716   1.635   6.268   6.839 -0.0700 -0.3260 -0.5277
   68SAPC   C22 5717   1.703   6.436   7.011 -0.1975  0.0222 -0.6703
   68SAPC   H2R 5718   1.792   6.405   7.069 -0.0742  0.1621 -0.7849
   68SAPC   H2S 5719   1.692   6.545   6.993  0.3296  0.0989 -0.5540
   68SAPC    C3 5720   1.920   6.288   6.668  0.0211 -0.4129  0.0775
   68SAPC    HX 5721   2.009   6.340   6.709 -0.4819  1.5255 -1.1815
   68SAPC    HY 5722   1.927   6.257   6.561 -1.3095 -0.4058 -0.0312
   68SAPC   O31 5723   1.894   6.167   6.747  0.1731 -0.8600  0.0040
   68SAPC   C31 5724   1.999   6.101   6.780 -0.6890  0.3258 -0.4928
   68SAPC   O32 5725   2.116   6.127   6.754 -0.2105 -0.2409 -0.1836
   68SAPC   C32 5726   1.965   5.975   6.855  0.9196  0.6014  0.2969
   68SAPC   H2X 5727   1.887   5.926   6.793  1.8444  1.7818 -1.8913
   68SAPC   H2Y 5728   1.923   6.004   6.954 -2.2198 -1.6181 -0.2181
   68SAPC   C23 5729   1.586   6.403   7.109  0.0360 -0.5283  0.8052
   68SAPC   H3R 5730   1.577   6.293   7.124 -0.2067 -0.2891  2.5669
   68SAPC   H3S 5731   1.499   6.442   7.052  0.3055 -0.3817  0.4901
   68SAPC   C24 5732   1.587   6.473   7.244  0.3667  0.1460  0.6932
   68SAPC   H4R 5733   1.501   6.441   7.307  2.8469 -1.2459  3.6278
   68SAPC   H4S 5734   1.565   6.581   7.231  0.8857  0.1376 -0.3250
   68SAPC   C25 5735   1.722   6.461   7.314  0.1928  0.1001  0.3998
   68SAPC   H5R 5736   1.794   6.538   7.280 -0.5709  0.0350 -1.5065
   68SAPC   C26 5737   1.751   6.382   7.415  0.3004 -0.2746  0.7309
   68SAPC   H6R 5738   1.836   6.398   7.483 -0.2200 -0.0052  1.3268
   68SAPC   C27 5739   1.666   6.271   7.468  0.4085 -0.1849 -0.4646
   68SAPC   H7R 5740   1.740   6.191   7.489  1.8442  0.6317 -2.2250
   68SAPC   H7S 5741   1.608   6.228   7.383  2.4841  1.4962 -2.8492
   68SAPC   C28 5742   1.569   6.298   7.585 -0.0088 -0.2709  0.9733
   68SAPC   H8R 5743   1.468   6.265   7.555 -0.6205  2.1279  0.1862
   68SAPC   C29 5744   1.585   6.371   7.696  0.8567 -0.2937  0.1723
   68SAPC   H9R 5745   1.499   6.387   7.763  1.1971  0.5785  0.4057
   68SAPC  C210 5746   1.714   6.430   7.745  0.1694 -1.1308  0.1608
   68SAPC  H10R 5747   1.746   6.489   7.656 -1.7935 -0.1409  0.0549
   68SAPC  H10S 5748   1.788   6.352   7.769  0.6246 -1.2067 -1.3597
   68SAPC  C211 5749   1.708   6.519   7.866 -0.7591 -0.8523  0.7273
   68SAPC  H11R 5750   1.754   6.485   7.960 -0.9101  2.2155  2.0483
   68SAPC  C212 5751   1.654   6.646   7.872  0.4661  0.0283  0.0697
   68SAPC  H12R 5752   1.641   6.695   7.969  0.9157  1.0437 -0.3703
   68SAPC  C213 5753   1.593   6.725   7.759 -0.0694  0.0364  0.3941
   68SAPC  H13R 5754   1.590   6.674   7.661 -2.6209  0.7202  0.0278
   68SAPC  H13S 5755   1.656   6.815   7.740 -0.9400  0.5422 -0.1630
   68SAPC  C214 5756   1.454   6.762   7.809 -0.2752 -0.4445  0.2985
   68SAPC  H14R 5757   1.435   6.815   7.903  1.1805 -0.3565  0.5641
   68SAPC  C215 5758   1.339   6.747   7.740 -0.0464  0.0746 -0.2599
   68SAPC  H15R 5759   1.240   6.777   7.777 -1.1877 -0.2542 -2.8423
   68SAPC  C216 5760   1.324   6.682   7.603 -0.7859  0.5363  0.5659
   68SAPC  H16R 5761   1.231   6.624   7.589 -0.6095  0.3964 -0.0755
   68SAPC  H16S 5762   1.408   6.614   7.577 -0.2269  0.9857  1.1374
   68SAPC  C217 5763   1.329   6.794   7.501 -0.4591 -0.0121  0.3704
   68SAPC  H17R 5764   1.422   6.855   7.506  0.0181 -0.6598 -0.3628
   68SAPC  H17S 5765   1.251   6.871   7.520  0.8865  1.5319 -0.0835
   68SAPC  C218 5766   1.319   6.740   7.363 -0.8148  0.5086 -0.7041
   68SAPC  H18R 5767   1.215   6.703   7.365 -1.5641  2.2918  3.0872
   68SAPC  H18S 5768   1.396   6.660   7.363  0.1155  1.2566  2.6869
   68SAPC  C219 5769   1.337   6.838   7.239  0.1947 -0.0298 -0.1748
   68SAPC  H19R 5770   1.423   6.905   7.254  0.5037 -0.9368  2.6625
   68SAPC  H19S 5771   1.246   6.901   7.225 -1.6469 -2.1834  1.2597
   68SAPC  C220 5772   1.364   6.763   7.106 -0.1427 -0.3272 -0.1007
   68SAPC  H20R 5773   1.468   6.730   7.084 -0.4472 -0.3151 -1.7023
   68SAPC  H20S 5774   1.331   6.833   7.027  0.3968  2.2344  1.8022
   68SAPC  H20T 5775   1.300   6.673   7.101  1.2134 -1.3409  0.3238
   68SAPC   C33 5776   2.088   5.882   6.881 -0.1630 -0.1670 -0.1884
   68SAPC   H3X 5777   2.157   5.935   6.949 -0.7463  1.2166 -0.6438
   68SAPC   H3Y 5778   2.142   5.871   6.785 -0.4011  0.1264 -0.3561
   68SAPC   C34 5779   2.062   5.741   6.945 -0.4589  0.5731  0.3526
   68SAPC   H4X 5780   2.140   5.666   6.920 -0.4321  0.9220 -0.6374
   68SAPC   H4Y 5781   1.959   5.716   6.911  0.5472 -2.1486 -0.9913
   68SAPC   C35 5782   2.043   5.751   7.098 -0.0036 -0.0242  0.4696
   68SAPC   H5X 5783   1.955   5.814   7.124  0.4831  1.5313 -1.3946
   68SAPC   H5Y 5784   2.131   5.805   7.140  1.8927 -2.4713 -0.1813
   68SAPC   C36 5785   2.025   5.608   7.156 -0.3410  0.9329 -0.5452
   68SAPC   H6X 5786   2.098   5.530   7.126  1.0505  2.4504 -1.2380
   68SAPC   H6Y 5787   1.934   5.571   7.104  1.0855 -1.3997 -1.5335
   68SAPC   C37 5788   2.013   5.600   7.310  0.4934 -0.2954  0.5457
   68SAPC   H7X 5789   2.098   5.653   7.358  1.5641 -0.8815 -0.6468
   68SAPC   H7Y 5790   2.037   5.494   7.331 -0.6972 -0.4407  1.2428
   68SAPC   C38 5791   1.883   5.658   7.367 -0.6360  0.2179  0.1234
   68SAPC   H8X 5792   1.807   5.609   7.304  3.1309 -1.5797 -3.4595
   68SAPC   H8Y 5793   1.884   5.768   7.350  0.0639  0.1142 -0.5426
   68SAPC   C39 5794   1.872   5.636   7.525  0.4978 -0.0329  0.2977
   68SAPC   H9X 5795   1.873   5.527   7.550 -1.4401  0.1229  1.2613
   68SAPC   H9Y 5796   1.777   5.683   7.558  1.5058  2.2939  0.0421
   68SAPC  C310 5797   1.981   5.705   7.608  0.4646  0.0132  0.2609
   68SAPC  H10X 5798   1.994   5.806   7.563  0.3979  0.1977  0.6582
   68SAPC  H10Y 5799   2.078   5.652   7.601  1.2229  1.4145 -0.2775
   68SAPC  C311 5800   1.940   5.720   7.761  0.6569 -0.6233 -0.6833
   68SAPC  H11X 5801   1.901   5.619   7.783  0.3774 -0.6783 -1.4162
   68SAPC  H11Y 5802   1.869   5.801   7.790  2.0591  0.6691 -0.7418
   68SAPC  C312 5803   2.059   5.758   7.851 -0.1946  0.1116 -0.1617
   68SAPC  H12X 5804   2.078   5.864   7.823 -0.7380 -0.0257 -1.0864
   68SAPC  H12Y 5805   2.144   5.689   7.834 -1.5485 -1.9099  0.9055
   68SAPC  C313 5806   2.004   5.757   7.999 -0.2357  0.0279 -0.0967
   68SAPC  H13X 5807   1.992   5.651   8.029  3.5275 -0.4445  0.2366
   68SAPC  H13Y 5808   1.915   5.821   8.007  0.5080  1.2229 -0.9708
   68SAPC  C314 5809   2.108   5.824   8.088  0.6886 -0.3419 -0.4660
   68SAPC  H14X 5810   2.121   5.929   8.054 -0.1791 -0.4608 -1.1791
   68SAPC  H14Y 5811   2.201   5.768   8.065  0.0423 -1.6350 -0.0377
   68SAPC  C315 5812   2.091   5.821   8.240 -0.4146 -0.2108  0.7836
   68SAPC  H15X 5813   2.049   5.724   8.273  3.7068 -1.4335  3.2094
   68SAPC  H15Y 5814   2.009   5.888   8.273 -0.2597 -0.7661  2.3730
   68SAPC  C316 5815   2.229   5.838   8.304  0.3940 -0.3364  0.7300
   68SAPC  H16X 5816   2.210   5.898   8.395  0.7160 -1.2688  1.4226
   68SAPC  H16Y 5817   2.285   5.912   8.242  0.8292 -0.7024  0.6841
   68SAPC  C317 5818   2.305   5.703   8.325  0.6079 -0.1229  0.1551
   68SAPC  H17X 5819   2.412   5.722   8.350  0.6853  1.2950 -1.0827
   68SAPC  H17Y 5820   2.291   5.631   8.241  0.1521 -2.3168  2.0183
   68SAPC  C318 5821   2.259   5.621   8.447  1.0726  0.5049 -0.0964
   68SAPC  H18X 5822   2.232   5.688   8.531 -1.8588 -0.9902  0.2795
   68SAPC  H18Y 5823   2.349   5.560   8.468  0.3593 -0.2962  0.7273
   68SAPC  H18Z 5824   2.167   5.565   8.421  0.4845  0.6642  1.4909
   69SLPC     N 5825   4.735   4.465  10.947 -0.0172 -0.4889  0.6713
   69SLPC   C13 5826   4.772   4.324  10.910  0.8817 -0.5577  0.4795
   69SLPC  H13A 5827   4.713   4.292  10.826 -0.1015 -0.2771  1.0546
   69SLPC  H13B 5828   4.878   4.306  10.894  0.4795 -0.5951 -2.6798
   69SLPC  H13C 5829   4.750   4.252  10.988 -1.2392 -0.4588  0.0100
   69SLPC   C14 5830   4.798   4.557  10.845 -0.1735  0.6537 -0.4217
   69SLPC  H14A 5831   4.802   4.663  10.863  1.2913  0.7558 -1.1731
   69SLPC  H14B 5832   4.902   4.531  10.830 -0.7063 -0.3038 -2.9908
   69SLPC  H14C 5833   4.751   4.553  10.747  0.3999  0.4852 -0.6971
   69SLPC   C15 5834   4.797   4.497  11.081  0.4520 -0.6592 -0.2997
   69SLPC  H15A 5835   4.902   4.473  11.086  0.9580  1.0356 -1.6976
   69SLPC  H15B 5836   4.795   4.601  11.109 -1.1092 -0.5672 -0.6310
   69SLPC  H15C 5837   4.740   4.442  11.155  0.3575  0.4244  0.4508
   69SLPC   C12 5838   4.588   4.502  10.953 -0.4389  0.1895 -0.3052
   69SLPC  H12A 5839   4.542   4.496  10.856  0.8414 -1.0609 -0.8817
   69SLPC  H12B 5840   4.585   4.605  10.984  0.1392  0.0085  0.4003
   69SLPC   C11 5841   4.516   4.417  11.059 -0.1092 -0.4493  0.4255
   69SLPC  H11A 5842   4.418   4.468  11.071  0.3165  0.6231 -0.5043
   69SLPC  H11B 5843   4.559   4.434  11.160  0.9431  0.4115 -0.1484
   69SLPC     P 5844   4.419   4.225  10.907 -0.2177 -0.2275 -0.1752
   69SLPC   O13 5845   4.336   4.115  10.962 -0.1889 -0.5951 -0.3402
   69SLPC   O14 5846   4.341   4.339  10.847 -0.0129 -0.2242  0.1998
   69SLPC   O12 5847   4.511   4.278  11.024 -0.6853 -0.2070 -0.0030
   69SLPC   O11 5848   4.524   4.166  10.805  0.0150 -0.6591 -1.0210
   69SLPC    C1 5849   4.478   4.096  10.694 -0.2871  0.4197 -0.3933
   69SLPC    HA 5850   4.552   4.015  10.676 -0.3130 -0.2909  2.2380
   69SLPC    HB 5851   4.377   4.050  10.703 -0.5218  0.5457 -2.0066
   69SLPC    C2 5852   4.472   4.201  10.572 -0.0128  0.2496 -0.5470
   69SLPC    HS 5853   4.370   4.244  10.581  0.9444  2.2489  1.9937
   69SLPC   O21 5854   4.485   4.124  10.456 -0.1050  0.7490  0.5434
   69SLPC   C21 5855   4.391   4.034  10.416 -0.7687  0.1995 -1.2844
   69SLPC   O22 5856   4.280   4.029  10.470 -0.2773 -0.1973 -0.0336
   69SLPC   C22 5857   4.434   3.938  10.305  0.2548  0.4053 -0.3132
   69SLPC   H2R 5858   4.541   3.952  10.278  0.1326 -2.1571 -2.5271
   69SLPC   H2S 5859   4.414   3.831  10.327 -0.8870  0.6953  0.1395
   69SLPC    C3 5860   4.577   4.311  10.575  0.5960 -0.4392  0.3149
   69SLPC    HX 5861   4.679   4.271  10.590  1.0148  0.4290 -0.1383
   69SLPC    HY 5862   4.566   4.372  10.668 -3.7052 -0.2066 -0.1448
   69SLPC   O31 5863   4.570   4.403  10.457 -0.2620 -0.3313  0.3329
   69SLPC   C31 5864   4.629   4.522  10.463 -0.1423  0.2203  0.2811
   69SLPC   O32 5865   4.664   4.584  10.561 -0.9334 -0.5025 -0.1220
   69SLPC   C32 5866   4.634   4.592  10.323 -0.4739  0.0277 -0.1219
   69SLPC   H2X 5867   4.692   4.685  10.342 -0.8480 -0.1204  2.0235
   69SLPC   H2Y 5868   4.526   4.612  10.304 -0.8083  0.3039  1.8317
   69SLPC   C23 5869   4.356   3.977  10.181 -0.1544 -0.5789 -0.5315
   69SLPC   H3R 5870   4.339   4.087  10.170 -0.4316 -0.5300  0.3190
   69SLPC   H3S 5871   4.260   3.922  10.181 -0.2690 -0.4119 -1.9044
   69SLPC   C24 5872   4.438   3.942  10.058 -0.3650  0.0781 -0.3029
   69SLPC   H4R 5873   4.486   3.842  10.070  0.1769  0.3777  0.0746
   69SLPC   H4S 5874   4.516   4.020  10.043  1.3741 -1.7068 -1.0017
   69SLPC   C25 5875   4.357   3.948   9.929 -0.3429 -0.2592  0.0500
   69SLPC   H5R 5876   4.316   4.050   9.919 -1.3773 -0.6316  0.4059
   69SLPC   H5S 5877   4.279   3.869   9.940 -0.1082 -0.4904  0.0731
   69SLPC   C26 5878   4.431   3.901   9.805 -0.3773  0.0551  0.1325
   69SLPC   H6R 5879   4.457   3.795   9.822 -0.1604 -0.0111 -0.5813
   69SLPC   H6S 5880   4.528   3.955   9.807 -0.3901  0.0588  0.8709
   69SLPC   C27 5881   4.350   3.924   9.673 -0.2479  0.6393 -0.1440
   69SLPC   H7R 5882   4.291   4.017   9.686  0.3931  0.9173  0.8465
   69SLPC   H7S 5883   4.281   3.838   9.659  2.1674 -1.6324  1.1697
   69SLPC   C28 5884   4.438   3.934   9.547  0.2241 -1.1187  0.3036
   69SLPC   H8R 5885   4.484   3.834   9.533  1.1609 -1.1818  3.2058
   69SLPC   H8S 5886   4.520   4.004   9.572 -0.4905 -0.7550  1.8008
   69SLPC   C29 5887   4.367   3.980   9.423  0.6442 -0.6490  0.4838
   69SLPC   H9R 5888   4.333   4.084   9.434  1.1996 -0.3928 -0.1420
   69SLPC  C210 5889   4.350   3.917   9.312  0.0682 -0.4229  0.4984
   69SLPC  H10R 5890   4.312   3.966   9.221  0.7829 -0.5913  0.0980
   69SLPC  C211 5891   4.389   3.768   9.292 -0.1893  0.1155  0.0488
   69SLPC  H11R 5892   4.300   3.725   9.242 -0.4548  0.8185 -0.1008
   69SLPC  H11S 5893   4.384   3.722   9.393  0.2350  0.9267  0.4490
   69SLPC  C212 5894   4.516   3.738   9.223  0.5357  0.3092  0.0716
   69SLPC  H12R 5895   4.589   3.818   9.241  0.4633  0.3474  0.2026
   69SLPC  C213 5896   4.535   3.636   9.136 -0.3657 -0.6494  0.1735
   69SLPC  H13R 5897   4.635   3.633   9.089 -0.7900 -1.6386 -0.7009
   69SLPC  C214 5898   4.439   3.529   9.084  0.6973 -0.0515 -0.7001
   69SLPC  H14R 5899   4.352   3.501   9.147  0.8917 -1.6794 -1.0851
   69SLPC  H14S 5900   4.496   3.433   9.082 -1.1903 -1.2274 -0.7335
   69SLPC  C215 5901   4.385   3.562   8.938 -0.2487 -0.1095  0.1301
   69SLPC  H15R 5902   4.465   3.576   8.862  1.2917 -2.9913  1.0641
   69SLPC  H15S 5903   4.319   3.651   8.941 -0.1787 -0.0849  1.5370
   69SLPC  C216 5904   4.302   3.441   8.894 -0.4027 -0.1952  1.0930
   69SLPC  H16R 5905   4.213   3.491   8.850  2.0348  2.7171 -0.9475
   69SLPC  H16S 5906   4.272   3.383   8.983 -2.2210  2.4123  2.2750
   69SLPC  C217 5907   4.348   3.359   8.774 -0.4219  0.2143 -0.3737
   69SLPC  H17R 5908   4.455   3.344   8.800 -0.8845  1.3707  2.6130
   69SLPC  H17S 5909   4.345   3.421   8.681  1.3378 -0.1927 -0.7479
   69SLPC  C218 5910   4.279   3.226   8.771 -0.1173  0.2216 -0.3289
   69SLPC  H18R 5911   4.174   3.242   8.741 -0.4946  1.6315  1.5547
   69SLPC  H18S 5912   4.285   3.159   8.859  0.1912  0.8186  0.1126
   69SLPC  H18T 5913   4.327   3.163   8.692 -1.2047 -0.3250 -0.5702
   69SLPC   C33 5914   4.693   4.514  10.201  0.6986  0.4015  0.7055
   69SLPC   H3X 5915   4.735   4.419  10.239 -1.8405 -1.2854 -0.4203
   69SLPC   H3Y 5916   4.769   4.578  10.152  0.8181 -0.4259 -0.2231
   69SLPC   C34 5917   4.571   4.466  10.116 -0.6485  0.0765  0.6136
   69SLPC   H4X 5918   4.507   4.547  10.074 -1.2023 -1.2488 -1.2092
   69SLPC   H4Y 5919   4.509   4.392  10.171 -2.7812  1.1066 -0.2905
   69SLPC   C35 5920   4.620   4.390   9.994 -0.2211  0.1671  0.0115
   69SLPC   H5X 5921   4.688   4.310  10.031 -0.4456 -0.5577 -1.1013
   69SLPC   H5Y 5922   4.688   4.462   9.943  0.9209 -1.7492 -1.3020
   69SLPC   C36 5923   4.511   4.337   9.903  0.2545  0.0069  0.0272
   69SLPC   H6X 5924   4.422   4.296   9.955 -1.7980  1.0112 -2.4967
   69SLPC   H6Y 5925   4.560   4.256   9.846  1.5270  0.0311  1.0477
   69SLPC   C37 5926   4.465   4.435   9.804  0.0556 -0.9527 -0.3366
   69SLPC   H7X 5927   4.549   4.492   9.758  0.4564 -0.9698  0.3590
   69SLPC   H7Y 5928   4.399   4.500   9.866  1.4165  0.1192  0.0287
   69SLPC   C38 5929   4.361   4.386   9.699 -0.2451  0.7981  0.9433
   69SLPC   H8X 5930   4.304   4.476   9.665  0.2041  0.4537 -0.8079
   69SLPC   H8Y 5931   4.299   4.309   9.750  0.4722  1.3368  2.6973
   69SLPC   C39 5932   4.432   4.329   9.578  0.4584  0.4160 -0.2643
   69SLPC   H9X 5933   4.365   4.298   9.495  1.3420  0.6526 -1.0830
   69SLPC   H9Y 5934   4.484   4.236   9.608 -0.3837  0.5083  1.5572
   69SLPC  C310 5935   4.546   4.412   9.518 -0.3623 -0.2250  1.1824
   69SLPC  H10X 5936   4.632   4.407   9.588 -1.3249 -0.0791  2.4075
   69SLPC  H10Y 5937   4.506   4.515   9.528  0.3866  0.3546 -1.1471
   69SLPC  C311 5938   4.585   4.383   9.368  0.3638  0.1927 -0.6131
   69SLPC  H11X 5939   4.657   4.464   9.344 -0.1218  0.6151 -0.6714
   69SLPC  H11Y 5940   4.498   4.392   9.299 -0.5781 -1.0143  0.3567
   69SLPC  C312 5941   4.654   4.249   9.360  0.1668 -0.2493 -0.4756
   69SLPC  H12X 5942   4.575   4.171   9.349  0.8583 -0.9594 -0.4928
   69SLPC  H12Y 5943   4.713   4.235   9.453  0.7051 -2.0495 -1.0345
   69SLPC  C313 5944   4.748   4.240   9.242  0.2764  0.2446 -0.2380
   69SLPC  H13X 5945   4.809   4.147   9.244  1.4052  0.8807 -2.2232
   69SLPC  H13Y 5946   4.815   4.328   9.248  0.4867  0.0740 -0.0496
   69SLPC  C314 5947   4.664   4.246   9.114 -0.1835  0.5017 -0.1196
   69SLPC  H14X 5948   4.740   4.261   9.035  1.3558 -1.7142  0.8504
   69SLPC  H14Y 5949   4.588   4.327   9.102 -0.4279  0.2249 -0.4934
   69SLPC  C315 5950   4.595   4.112   9.071 -0.2968 -0.3494  0.5617
   69SLPC  H15X 5951   4.504   4.102   9.135  0.4446 -0.2759  1.6561
   69SLPC  H15Y 5952   4.660   4.026   9.099 -0.7943 -0.6612  0.7767
   69SLPC  C316 5953   4.573   4.112   8.920 -0.0127 -0.1945 -0.2915
   69SLPC  H16X 5954   4.673   4.133   8.876  0.6031  0.4126  1.3356
   69SLPC  H16Y 5955   4.515   4.206   8.903  0.2382  0.1862  0.8926
   69SLPC  C317 5956   4.509   3.988   8.873  0.1863 -0.1567  0.2798
   69SLPC  H17X 5957   4.563   3.895   8.901  0.1603  0.0909  1.1915
   69SLPC  H17Y 5958   4.506   3.989   8.762 -1.9153  0.2790  0.3135
   69SLPC  C318 5959   4.363   3.965   8.916 -1.4036 -0.7450  0.0402
   69SLPC  H18X 5960   4.307   4.057   8.891 -1.5073 -1.0654 -0.9633
   69SLPC  H18Y 5961   4.358   3.944   9.025 -0.3717  2.7970  0.8837
   69SLPC  H18Z 5962   4.320   3.881   8.856  3.0965 -2.4918 -1.2098
   70SLPC     N 5963   5.185   0.308  10.878  0.4077  0.4221  0.2239
   70SLPC   C13 5964   5.040   0.295  10.921 -0.1497 -0.2774 -0.1749
   70SLPC  H13A 5965   5.003   0.388  10.963 -0.7462 -1.8872  3.2221
   70SLPC  H13B 5966   4.975   0.267  10.840 -2.2512 -2.6066  2.1197
   70SLPC  H13C 5967   5.031   0.221  10.999  1.3507 -0.9562 -0.6201
   70SLPC   C14 5968   5.268   0.343  11.000  0.5147 -0.5906 -0.5299
   70SLPC  H14A 5969   5.230   0.434  11.043  1.2566 -1.4242  2.0549
   70SLPC  H14B 5970   5.251   0.268  11.076 -1.3294 -1.3366 -1.6068
   70SLPC  H14C 5971   5.373   0.345  10.974  0.8398 -1.4060  0.6561
   70SLPC   C15 5972   5.202   0.417  10.775  0.3110  0.1255 -0.1067
   70SLPC  H15A 5973   5.167   0.381  10.679  1.7270 -1.0423 -0.2262
   70SLPC  H15B 5974   5.148   0.507  10.801 -1.1905 -0.6053 -0.5818
   70SLPC  H15C 5975   5.309   0.432  10.776  0.2121  0.9469  1.5404
   70SLPC   C12 5976   5.221   0.172  10.819  0.0617 -0.3376 -0.4767
   70SLPC  H12A 5977   5.179   0.093  10.880 -0.5951  0.7138  0.4651
   70SLPC  H12B 5978   5.329   0.161  10.821  0.1452  0.5241  0.8342
   70SLPC   C11 5979   5.176   0.153  10.675 -0.2115  0.2918 -0.1403
   70SLPC  H11A 5980   5.230   0.065  10.632  0.2505  0.3434  0.3249
   70SLPC  H11B 5981   5.204   0.231  10.601 -0.1887 -0.4428 -0.9258
   70SLPC     P 5982   4.966  -0.001  10.658  0.1757  0.1567 -0.4469
   70SLPC   O13 5983   5.008  -0.093  10.767  0.3927 -0.3801  0.0686
   70SLPC   O14 5984   4.823   0.028  10.654 -0.1741 -0.6745  0.7374
   70SLPC   O12 5985   5.041   0.127  10.677 -0.0878 -0.1183  0.3468
   70SLPC   O11 5986   5.020  -0.057  10.522 -0.2561  0.2462  0.0851
   70SLPC    C1 5987   4.966  -0.023  10.395  0.5508 -0.8721  0.4252
   70SLPC    HA 5988   4.858  -0.002  10.384  0.8379  1.0191  0.8907
   70SLPC    HB 5989   5.025   0.070  10.380  0.4221 -0.8411  0.1013
   70SLPC    C2 5990   5.020  -0.119  10.279 -0.9336  0.4112 -0.3374
   70SLPC    HS 5991   5.013  -0.068  10.181 -1.2491 -1.9977 -1.6543
   70SLPC   O21 5992   4.941  -0.239  10.286  0.3314  0.3812 -0.1907
   70SLPC   C21 5993   4.920  -0.306  10.174 -1.0081  0.2032  0.1728
   70SLPC   O22 5994   4.969  -0.273  10.069 -0.1328 -0.9538  0.1294
   70SLPC   C22 5995   4.825  -0.427  10.199 -0.5824 -0.2401  0.1808
   70SLPC   H2R 5996   4.891  -0.516  10.193  0.0018  0.0444  1.8869
   70SLPC   H2S 5997   4.786  -0.411  10.302  0.3169  1.1691  0.3198
   70SLPC    C3 5998   5.177  -0.150  10.307  0.3790  0.2855  0.1830
   70SLPC    HX 5999   5.171  -0.217  10.396 -1.0706 -0.6754 -0.5890
   70SLPC    HY 6000   5.218  -0.051  10.337  1.2187  0.0422 -0.1501
   70SLPC   O31 6001   5.251  -0.196  10.197 -0.1797 -0.0542 -0.2532
   70SLPC   C31 6002   5.262  -0.326  10.184  0.4745  0.1395 -0.0230
   70SLPC   O32 6003   5.209  -0.416  10.250 -0.5440  0.1459 -0.1823
   70SLPC   C32 6004   5.337  -0.350  10.054 -0.0175  0.5151  0.8843
   70SLPC   H2X 6005   5.324  -0.454  10.017  1.3294  0.1499  1.3908
   70SLPC   H2Y 6006   5.445  -0.345  10.082  0.1282 -1.8066  0.9444
   70SLPC   C23 6007   4.713  -0.426  10.101  0.2889  0.4203 -0.4187
   70SLPC   H3R 6008   4.744  -0.404   9.996 -0.0045  1.1466 -0.3577
   70SLPC   H3S 6009   4.663  -0.332  10.133  0.5930  0.1342  0.9495
   70SLPC   C24 6010   4.615  -0.547  10.122  0.3488 -0.6754 -0.0250
   70SLPC   H4R 6011   4.523  -0.528  10.063  1.1648 -0.6381 -1.3330
   70SLPC   H4S 6012   4.579  -0.545  10.227 -0.0397  3.2437 -0.0654
   70SLPC   C25 6013   4.666  -0.692  10.099 -0.0875  0.9293  0.2009
   70SLPC   H5R 6014   4.602  -0.771  10.144 -1.2626  1.3180 -0.7198
   70SLPC   H5S 6015   4.766  -0.712  10.143 -0.3585  2.4376  1.6317
   70SLPC   C26 6016   4.690  -0.732   9.955 -0.5296  0.3294 -0.7045
   70SLPC   H6R 6017   4.731  -0.835   9.956 -3.2541 -0.9327  2.6833
   70SLPC   H6S 6018   4.759  -0.664   9.901  1.5851 -1.3869 -0.3181
   70SLPC   C27 6019   4.564  -0.761   9.877  0.1352 -0.1196 -0.1739
   70SLPC   H7R 6020   4.498  -0.681   9.916  1.2635  0.4741  0.5737
   70SLPC   H7S 6021   4.519  -0.857   9.910 -0.2482  0.4831  1.1011
   70SLPC   C28 6022   4.578  -0.755   9.728  0.4655  0.0878  1.1629
   70SLPC   H8R 6023   4.487  -0.794   9.679 -0.4534 -1.1174  3.6189
   70SLPC   H8S 6024   4.661  -0.828   9.716 -0.4506 -0.7015 -0.6990
   70SLPC   C29 6025   4.623  -0.620   9.667 -0.4039  0.2985  0.2128
   70SLPC   H9R 6026   4.614  -0.538   9.740  2.7554  0.3776  0.6117
   70SLPC  C210 6027   4.658  -0.593   9.538  0.4004  0.4005  0.7581
   70SLPC  H10R 6028   4.687  -0.492   9.506  1.3486  0.3944  1.5485
   70SLPC  C211 6029   4.665  -0.697   9.427 -0.8531  0.6390  0.6045
   70SLPC  H11R 6030   4.720  -0.781   9.475 -0.4541 -0.2830 -1.3386
   70SLPC  H11S 6031   4.725  -0.667   9.338 -1.3402  1.0533  0.4135
   70SLPC  C212 6032   4.536  -0.746   9.377  0.5298  0.0790 -0.5765
   70SLPC  H12R 6033   4.443  -0.713   9.424  1.0072  0.3504  0.1999
   70SLPC  C213 6034   4.515  -0.840   9.289 -1.1245 -0.0249  0.3787
   70SLPC  H13R 6035   4.413  -0.866   9.257 -1.0251  0.9488 -0.7693
   70SLPC  C214 6036   4.635  -0.908   9.219 -0.2883  0.0569  0.2563
   70SLPC  H14R 6037   4.636  -1.015   9.250  2.7088 -0.6456 -1.8601
   70SLPC  H14S 6038   4.731  -0.868   9.255 -0.4054  0.5975 -0.0305
   70SLPC  C215 6039   4.644  -0.889   9.066 -0.2628 -0.6166 -0.3457
   70SLPC  H15R 6040   4.744  -0.925   9.035  0.5881  2.4645 -1.5084
   70SLPC  H15S 6041   4.635  -0.779   9.050  1.8574 -0.3426  0.0514
   70SLPC  C216 6042   4.535  -0.956   8.972 -0.4237 -0.3228  0.6002
   70SLPC  H16R 6043   4.437  -0.904   8.980 -0.1984 -0.0770  2.0814
   70SLPC  H16S 6044   4.530  -1.060   9.011 -0.8382 -1.4570 -2.2728
   70SLPC  C217 6045   4.562  -0.965   8.827 -0.1806 -0.2914 -0.5423
   70SLPC  H17R 6046   4.601  -0.865   8.797 -0.6046 -0.3717 -1.3846
   70SLPC  H17S 6047   4.467  -0.969   8.769 -0.4450  0.9304 -0.2148
   70SLPC  C218 6048   4.668  -1.061   8.774  0.2095  0.3473 -0.0987
   70SLPC  H18R 6049   4.632  -1.163   8.799 -0.2775  0.9165  1.6551
   70SLPC  H18S 6050   4.771  -1.041   8.810  0.4859  1.3524 -1.3681
   70SLPC  H18T 6051   4.670  -1.060   8.663  0.5560 -0.7571 -0.1179
   70SLPC   C33 6052   5.297  -0.265   9.932 -0.1258 -0.0465 -0.0269
   70SLPC   H3X 6053   5.323  -0.158   9.947 -1.6857  0.2133  0.9757
   70SLPC   H3Y 6054   5.188  -0.264   9.910 -0.0357  0.5172 -0.4879
   70SLPC   C34 6055   5.350  -0.326   9.796  0.4560 -0.4958 -0.1402
   70SLPC   H4X 6056   5.299  -0.421   9.768  0.8883 -0.2681 -1.8112
   70SLPC   H4Y 6057   5.460  -0.343   9.800  0.7371 -0.1102 -3.4970
   70SLPC   C35 6058   5.329  -0.224   9.680 -0.0378  0.6529  0.0193
   70SLPC   H5X 6059   5.405  -0.143   9.684  0.4120  0.1717  1.4800
   70SLPC   H5Y 6060   5.222  -0.196   9.684 -0.2785 -0.2184 -0.1043
   70SLPC   C36 6061   5.355  -0.277   9.536  0.8870  0.1643  0.3342
   70SLPC   H6X 6062   5.302  -0.373   9.520  2.5247 -0.6634 -0.3235
   70SLPC   H6Y 6063   5.462  -0.307   9.528  1.5607  1.0768  3.9574
   70SLPC   C37 6064   5.322  -0.169   9.436  0.1652  0.8505 -0.3153
   70SLPC   H7X 6065   5.366  -0.069   9.459  0.5062  1.0629 -1.7779
   70SLPC   H7Y 6066   5.217  -0.146   9.464  0.3226  0.6546  0.4826
   70SLPC   C38 6067   5.351  -0.212   9.291  0.1660 -0.4267 -0.2931
   70SLPC   H8X 6068   5.444  -0.270   9.277 -0.0343 -0.5588 -1.1022
   70SLPC   H8Y 6069   5.376  -0.113   9.246 -0.8331 -0.1453 -0.2599
   70SLPC   C39 6070   5.224  -0.259   9.221  0.3323 -0.0202  0.2669
   70SLPC   H9X 6071   5.144  -0.183   9.236 -0.0596  0.0179 -1.7940
   70SLPC   H9Y 6072   5.182  -0.356   9.258 -0.7328  1.1115  2.2289
   70SLPC  C310 6073   5.256  -0.266   9.071  0.0443 -0.1986 -0.3969
   70SLPC  H10X 6074   5.328  -0.351   9.060 -1.5374 -1.7015  0.4025
   70SLPC  H10Y 6075   5.312  -0.175   9.042  1.3616 -1.6929 -2.9324
   70SLPC  C311 6076   5.138  -0.276   8.993  0.5053  1.2242  0.6480
   70SLPC  H11X 6077   5.085  -0.181   9.013 -1.2081  0.1404  1.5416
   70SLPC  H11Y 6078   5.062  -0.350   9.028 -0.7623  3.4843  2.9717
   70SLPC  C312 6079   5.153  -0.291   8.839 -0.1368 -0.0830 -0.6518
   70SLPC  H12X 6080   5.210  -0.384   8.821 -1.4052 -0.7753 -1.2339
   70SLPC  H12Y 6081   5.207  -0.204   8.796 -0.4771  1.0538  1.1215
   70SLPC  C313 6082   5.009  -0.296   8.766 -0.1929 -0.5413  0.1508
   70SLPC  H13X 6083   4.958  -0.205   8.805 -1.6184 -0.6149 -1.4202
   70SLPC  H13Y 6084   4.950  -0.376   8.814 -0.2609 -0.4646  0.1968
   70SLPC  C314 6085   5.013  -0.301   8.614  0.0829  0.6120  0.4353
   70SLPC  H14X 6086   5.071  -0.390   8.581 -0.5156 -0.0422  1.1119
   70SLPC  H14Y 6087   5.070  -0.213   8.577  0.7644 -0.9744 -2.6430
   70SLPC  C315 6088   4.869  -0.299   8.551 -0.0605 -0.3463 -0.4443
   70SLPC  H15X 6089   4.816  -0.205   8.574  0.3403  0.5159 -2.7512
   70SLPC  H15Y 6090   4.814  -0.381   8.601  0.9748 -0.5108  0.4776
   70SLPC  C316 6091   4.865  -0.327   8.403 -0.8298 -0.6260  0.7533
   70SLPC  H16X 6092   4.879  -0.436   8.390 -1.0395 -0.5144 -0.4871
   70SLPC  H16Y 6093   4.961  -0.288   8.363 -1.8955 -0.8886 -2.3615
   70SLPC  C317 6094   4.753  -0.272   8.315  0.0564 -0.1190 -0.8199
   70SLPC  H17X 6095   4.659  -0.296   8.370  0.4424  1.7927  0.7673
   70SLPC  H17Y 6096   4.747  -0.327   8.218 -1.0031  0.9760 -1.4055
   70SLPC  C318 6097   4.755  -0.122   8.291  0.0244 -0.1530 -0.0634
   70SLPC  H18X 6098   4.858  -0.090   8.265 -0.4552 -0.1276 -2.1867
   70SLPC  H18Y 6099   4.724  -0.066   8.381 -0.3760  0.3827 -0.5238
   70SLPC  H18Z 6100   4.682  -0.086   8.215 -1.7840  0.1202  1.7378
   71SLPC     N 6101   6.622   5.376  10.504 -1.4425  0.2672 -0.0871
   71SLPC   C13 6102   6.485   5.396  10.551  0.0131 -0.0463 -0.0058
   71SLPC  H13A 6103   6.421   5.379  10.466  0.3950  0.4898 -0.4050
   71SLPC  H13B 6104   6.455   5.329  10.630 -0.7994  0.4930  0.1609
   71SLPC  H13C 6105   6.469   5.501  10.575 -0.3949  0.9405 -3.8878
   71SLPC   C14 6106   6.718   5.391  10.626  0.3113  0.4180 -0.5396
   71SLPC  H14A 6107   6.721   5.488  10.672 -0.7645  1.0849 -1.7881
   71SLPC  H14B 6108   6.682   5.324  10.702 -1.4056  3.5599  1.6357
   71SLPC  H14C 6109   6.813   5.345  10.602 -0.6819 -1.5146 -1.0273
   71SLPC   C15 6110   6.663   5.472  10.399 -0.4610 -0.1125  0.0584
   71SLPC  H15A 6111   6.767   5.460  10.374 -0.8019 -1.5629 -0.7426
   71SLPC  H15B 6112   6.607   5.458  10.308 -1.8355 -0.1878  0.8937
   71SLPC  H15C 6113   6.652   5.577  10.423 -0.3493 -0.0469 -0.1732
   71SLPC   C12 6114   6.637   5.234  10.453 -0.2369 -0.5542 -0.3687
   71SLPC  H12A 6115   6.643   5.169  10.539 -3.0715 -1.4014 -0.7038
   71SLPC  H12B 6116   6.733   5.232  10.403 -0.6267  1.3257 -1.2684
   71SLPC   C11 6117   6.534   5.180  10.347  0.3439 -0.0310 -0.8006
   71SLPC  H11A 6118   6.570   5.079  10.318  0.2895 -0.8411  1.6643
   71SLPC  H11B 6119   6.538   5.256  10.266  0.2263  1.0293  0.1660
   71SLPC     P 6120   6.345   5.065  10.486  0.4103 -0.1346 -0.0653
   71SLPC   O13 6121   6.464   5.020  10.558 -0.0686  0.4709  0.3962
   71SLPC   O14 6122   6.234   5.119  10.563 -0.3660  0.0218  0.1475
   71SLPC   O12 6123   6.395   5.177  10.392  0.3552  0.0367 -0.2265
   71SLPC   O11 6124   6.285   4.948  10.391 -0.3161 -0.1832 -0.4922
   71SLPC    C1 6125   6.351   4.898  10.274 -0.1283 -0.2285 -0.2143
   71SLPC    HA 6126   6.461   4.893  10.290  0.1282  1.3912 -1.2422
   71SLPC    HB 6127   6.315   4.795  10.250 -1.0449  0.1890 -0.6851
   71SLPC    C2 6128   6.330   4.977  10.150  0.2925  0.8189  0.5734
   71SLPC    HS 6129   6.375   5.078  10.162  0.0264  0.8111  1.7095
   71SLPC   O21 6130   6.193   4.971  10.105  0.4496  0.5179  0.1488
   71SLPC   C21 6131   6.128   5.080  10.068  0.2504 -0.1973 -0.2762
   71SLPC   O22 6132   6.172   5.193  10.070 -0.1846 -0.0888  0.0143
   71SLPC   C22 6133   5.991   5.045   9.998  0.4410 -0.2247 -0.0845
   71SLPC   H2R 6134   5.952   4.961  10.060  0.9808 -1.7830 -1.7610
   71SLPC   H2S 6135   5.930   5.137  10.008 -1.6021 -1.5181  0.0400
   71SLPC    C3 6136   6.413   4.913  10.033  0.3230 -0.0295 -0.3686
   71SLPC    HX 6137   6.357   4.824   9.996 -1.0698  0.0330  1.4284
   71SLPC    HY 6138   6.515   4.875  10.052 -0.7731 -2.0005  2.3147
   71SLPC   O31 6139   6.414   5.008   9.925  0.1622  0.0981 -0.2921
   71SLPC   C31 6140   6.475   5.125   9.935 -0.9413  0.1828 -0.9456
   71SLPC   O32 6141   6.544   5.166  10.027 -0.5214  0.2068  0.1035
   71SLPC   C32 6142   6.429   5.208   9.811 -0.3671  0.9413  0.0377
   71SLPC   H2X 6143   6.410   5.312   9.844  3.1169  1.2727  1.4510
   71SLPC   H2Y 6144   6.342   5.150   9.773  0.8342 -4.4119  4.1750
   71SLPC   C23 6145   6.000   4.987   9.856  0.0877 -0.3967  0.4161
   71SLPC   H3R 6146   5.905   4.943   9.821  0.0159  0.8498 -1.0512
   71SLPC   H3S 6147   6.064   4.897   9.866  0.9715  0.2501  0.7607
   71SLPC   C24 6148   6.050   5.091   9.752  0.3382  0.1500 -0.3362
   71SLPC   H4R 6149   6.131   5.149   9.802 -1.3452  0.0129  2.7719
   71SLPC   H4S 6150   5.962   5.158   9.739 -0.1898  0.0460  2.2713
   71SLPC   C25 6151   6.108   5.037   9.617  0.3355 -0.4772  0.0868
   71SLPC   H5R 6152   6.164   5.115   9.561  0.4594 -2.0364 -2.1155
   71SLPC   H5S 6153   6.030   5.013   9.541 -0.3142  1.6601  0.0104
   71SLPC   C26 6154   6.197   4.909   9.633 -0.6195 -0.0760 -1.4598
   71SLPC   H6R 6155   6.148   4.823   9.683 -0.0768 -0.3787 -1.4404
   71SLPC   H6S 6156   6.282   4.943   9.697 -0.9959 -2.2392  0.3273
   71SLPC   C27 6157   6.253   4.856   9.498  0.5897  0.6396 -0.1796
   71SLPC   H7R 6158   6.305   4.936   9.442 -0.0454 -0.7787 -3.0091
   71SLPC   H7S 6159   6.169   4.827   9.431  0.7205 -1.9431  0.6349
   71SLPC   C28 6160   6.353   4.744   9.519 -0.1298  0.0880 -0.6664
   71SLPC   H8R 6161   6.364   4.710   9.414 -2.8631  0.0788 -1.0109
   71SLPC   H8S 6162   6.314   4.654   9.571  3.2126 -1.9243 -1.3203
   71SLPC   C29 6163   6.486   4.787   9.585 -0.0262 -0.2986 -0.0336
   71SLPC   H9R 6164   6.482   4.812   9.692 -1.6475  4.5887 -0.9467
   71SLPC  C210 6165   6.599   4.802   9.520 -0.4493  0.5301  0.3872
   71SLPC  H10R 6166   6.694   4.821   9.571 -0.6339  1.5484  0.3653
   71SLPC  C211 6167   6.616   4.773   9.369 -0.6364  0.5670  0.0122
   71SLPC  H11R 6168   6.521   4.787   9.314 -0.3760 -2.1229 -1.2350
   71SLPC  H11S 6169   6.624   4.664   9.353 -0.9054  0.6176 -0.4499
   71SLPC  C212 6170   6.737   4.836   9.305 -0.2736 -0.2505  0.2226
   71SLPC  H12R 6171   6.825   4.771   9.310  0.1254  0.0993 -1.7050
   71SLPC  C213 6172   6.749   4.952   9.237 -0.0455  0.0716 -0.2313
   71SLPC  H13R 6173   6.844   4.980   9.188  1.2969 -0.3154  2.0125
   71SLPC  C214 6174   6.636   5.045   9.207 -0.0638 -0.1999 -0.3106
   71SLPC  H14R 6175   6.675   5.147   9.225 -0.3845 -0.0729 -0.3436
   71SLPC  H14S 6176   6.550   5.019   9.272 -0.4588 -0.6953 -1.0169
   71SLPC  C215 6177   6.583   5.045   9.063 -0.8129 -0.2694  0.1443
   71SLPC  H15R 6178   6.565   4.939   9.037 -1.1819 -0.4212  1.0029
   71SLPC  H15S 6179   6.665   5.080   8.996 -0.1534 -0.5590  0.7815
   71SLPC  C216 6180   6.454   5.132   9.063 -0.4793  0.3412 -0.2098
   71SLPC  H16R 6181   6.431   5.190   8.971 -1.3837  1.2740  0.5771
   71SLPC  H16S 6182   6.469   5.213   9.137 -0.0667  0.3600 -0.3111
   71SLPC  C217 6183   6.331   5.048   9.102 -0.0382 -0.4750 -0.4204
   71SLPC  H17R 6184   6.353   4.994   9.196 -0.7363 -0.3669 -0.1920
   71SLPC  H17S 6185   6.315   4.970   9.025  1.7328 -2.0662  0.7279
   71SLPC  C218 6186   6.211   5.142   9.124 -0.2105 -0.1945  0.0912
   71SLPC  H18R 6187   6.205   5.209   9.036  1.3368  0.2493  0.3074
   71SLPC  H18S 6188   6.221   5.203   9.217  1.3990 -0.2410 -0.0371
   71SLPC  H18T 6189   6.116   5.083   9.129 -1.3027  1.5515  2.5613
   71SLPC   C33 6190   6.532   5.207   9.696  0.1888 -0.2079 -0.0554
   71SLPC   H3X 6191   6.580   5.107   9.683  0.6768 -0.2020  1.5125
   71SLPC   H3Y 6192   6.612   5.276   9.729  0.3992 -0.7522  0.5957
   71SLPC   C34 6193   6.468   5.263   9.569  0.0840 -0.5450  0.6700
   71SLPC   H4X 6194   6.408   5.348   9.606  1.8517  1.3169 -0.5323
   71SLPC   H4Y 6195   6.397   5.186   9.530 -1.3391  0.9488  0.1676
   71SLPC   C35 6196   6.562   5.322   9.474  0.0689 -0.0420 -0.4576
   71SLPC   H5X 6197   6.628   5.258   9.413  0.2270 -1.0014  0.6874
   71SLPC   H5Y 6198   6.632   5.396   9.519 -1.1290  0.6668  0.3160
   71SLPC   C36 6199   6.485   5.384   9.364 -0.4666  0.1278  0.0526
   71SLPC   H6X 6200   6.426   5.464   9.414 -1.8438 -2.0289  2.0952
   71SLPC   H6Y 6201   6.419   5.316   9.306 -2.8244  1.5877  0.8795
   71SLPC   C37 6202   6.577   5.449   9.262 -0.5850 -0.7472  0.4891
   71SLPC   H7X 6203   6.657   5.378   9.230  1.3891  1.8825 -0.7796
   71SLPC   H7Y 6204   6.618   5.537   9.315 -1.6830  0.1014 -0.0294
   71SLPC   C38 6205   6.506   5.512   9.138  0.4593 -0.3323  0.1501
   71SLPC   H8X 6206   6.445   5.599   9.172  2.0941  0.7204  0.5297
   71SLPC   H8Y 6207   6.435   5.436   9.102 -0.8400  0.0852  1.7023
   71SLPC   C39 6208   6.592   5.576   9.026 -0.3806  0.3376  0.3957
   71SLPC   H9X 6209   6.635   5.496   8.961  2.9886  1.2900  1.2661
   71SLPC   H9Y 6210   6.676   5.633   9.071 -0.0322  0.5609 -0.5117
   71SLPC  C310 6211   6.514   5.677   8.945 -0.0127 -0.0243  0.2606
   71SLPC  H10X 6212   6.588   5.730   8.880  1.6274 -1.9155  0.4843
   71SLPC  H10Y 6213   6.460   5.752   9.007  1.8240  1.5052  0.1044
   71SLPC  C311 6214   6.405   5.622   8.845  0.3235  0.4458 -0.4449
   71SLPC  H11X 6215   6.341   5.705   8.807  0.1727  1.5291  1.9347
   71SLPC  H11Y 6216   6.335   5.552   8.896 -0.6053  0.8956 -1.0651
   71SLPC  C312 6217   6.471   5.538   8.737 -0.4432 -0.1917  0.5166
   71SLPC  H12X 6218   6.507   5.437   8.765  0.0131  0.2069  1.4168
   71SLPC  H12Y 6219   6.559   5.590   8.693 -0.0896 -0.9021  0.3660
   71SLPC  C313 6220   6.379   5.533   8.614 -0.5914 -0.0665 -0.0441
   71SLPC  H13X 6221   6.382   5.633   8.564 -0.2682  0.3911  0.8687
   71SLPC  H13Y 6222   6.272   5.525   8.642 -0.4528  2.0515  1.3438
   71SLPC  C314 6223   6.414   5.416   8.516  0.5871 -0.5993  0.1222
   71SLPC  H14X 6224   6.418   5.323   8.578 -0.3545 -0.5199  0.3165
   71SLPC  H14Y 6225   6.517   5.432   8.476  1.0807  0.6759  1.8046
   71SLPC  C315 6226   6.315   5.401   8.398  0.5308  0.2207  0.1066
   71SLPC  H15X 6227   6.308   5.496   8.341  0.9741 -0.4932 -1.1914
   71SLPC  H15Y 6228   6.211   5.384   8.435 -1.0639 -0.0844 -3.9922
   71SLPC  C316 6229   6.359   5.276   8.312 -0.4315 -0.3449 -0.2166
   71SLPC  H16X 6230   6.470   5.282   8.313 -0.3757 -1.0458  1.1835
   71SLPC  H16Y 6231   6.312   5.288   8.212  2.8092 -2.0493 -2.1261
   71SLPC  C317 6232   6.308   5.148   8.376  0.3328  0.6914 -0.2292
   71SLPC  H17X 6233   6.197   5.149   8.381  0.2953 -1.1555  0.1136
   71SLPC  H17Y 6234   6.348   5.132   8.478  3.0185 -1.6110 -1.4866
   71SLPC  C318 6235   6.350   5.030   8.292 -0.5356  0.2094  0.3029
   71SLPC  H18X 6236   6.458   5.038   8.268 -0.7295 -0.6220 -0.9516
   71SLPC  H18Y 6237   6.283   5.049   8.205  0.8550 -0.5281 -0.9688
   71SLPC  H18Z 6238   6.334   4.931   8.340 -0.7356  0.0666 -0.0536
   72SLPC     N 6239   0.043   3.438  11.034  0.2035  0.6267 -0.3517
   72SLPC   C13 6240   0.090   3.294  11.044  1.1053 -0.2361 -0.3909
   72SLPC  H13A 6241   0.198   3.290  11.043  1.1204 -0.0486 -1.9115
   72SLPC  H13B 6242   0.059   3.251  11.138  2.2500  0.7796  0.4875
   72SLPC  H13C 6243   0.044   3.227  10.974  1.1514 -0.6719 -0.0074
   72SLPC   C14 6244   0.096   3.514  11.155  0.7487  0.2510 -1.2190
   72SLPC  H14A 6245   0.058   3.472  11.247 -0.4961  1.6165 -1.0795
   72SLPC  H14B 6246   0.204   3.518  11.148  0.8095 -0.6200 -0.8789
   72SLPC  H14C 6247   0.057   3.615  11.152 -1.4460 -0.3429  2.2413
   72SLPC   C15 6248  -0.105   3.434  11.044  0.4073  0.5184 -0.7013
   72SLPC  H15A 6249  -0.150   3.532  11.038 -0.5055  0.1779  0.2580
   72SLPC  H15B 6250  -0.140   3.379  10.958 -0.6941 -1.1224  0.7297
   72SLPC  H15C 6251  -0.155   3.385  11.127  0.3070  0.6366 -0.6921
   72SLPC   C12 6252   0.098   3.496  10.902  0.0630 -0.5885 -0.1399
   72SLPC  H12A 6253   0.202   3.469  10.895 -0.3567 -2.2932 -0.3145
   72SLPC  H12B 6254   0.091   3.602  10.916 -0.0947 -0.9692  3.7699
   72SLPC   C11 6255   0.028   3.434  10.775 -0.5092  0.0485  0.3000
   72SLPC  H11A 6256   0.025   3.324  10.788  0.6532 -0.4543 -2.7769
   72SLPC  H11B 6257   0.092   3.456  10.687 -1.5616 -0.4716 -0.6197
   72SLPC     P 6258  -0.125   3.637  10.705 -0.2369  0.4009 -0.0764
   72SLPC   O13 6259  -0.265   3.678  10.712  0.1240 -0.0512  0.2336
   72SLPC   O14 6260  -0.034   3.735  10.770  0.1278 -0.0701 -0.4031
   72SLPC   O12 6261  -0.101   3.488  10.763  0.1924  0.2555 -0.1729
   72SLPC   O11 6262  -0.078   3.621  10.557  0.3727 -0.5307 -0.5629
   72SLPC    C1 6263  -0.151   3.523  10.472  0.3040  0.5609  0.0009
   72SLPC    HA 6264  -0.096   3.427  10.477 -0.2616  0.2225 -0.0911
   72SLPC    HB 6265  -0.258   3.509  10.499  0.2472 -0.3912 -0.6452
   72SLPC    C2 6266  -0.158   3.577  10.320 -0.4020 -0.9429  0.1232
   72SLPC    HS 6267  -0.244   3.523  10.274 -1.9785  0.7455  0.9429
   72SLPC   O21 6268  -0.026   3.576  10.266 -0.2630  0.6261  0.0674
   72SLPC   C21 6269  -0.001   3.452  10.231 -0.5117 -0.2509  0.2962
   72SLPC   O22 6270  -0.085   3.363  10.235 -0.0442 -0.1519 -0.6674
   72SLPC   C22 6271   0.140   3.430  10.178  0.1729 -0.1677 -0.4477
   72SLPC   H2R 6272   0.204   3.515  10.206  0.1697 -1.5812  4.9460
   72SLPC   H2S 6273   0.178   3.350  10.245  1.0237 -0.2750 -1.0407
   72SLPC    C3 6274  -0.221   3.721  10.323 -0.4946  0.1562  0.6943
   72SLPC    HX 6275  -0.168   3.802  10.378 -1.9961  0.9442  1.0503
   72SLPC    HY 6276  -0.321   3.706  10.370 -0.5806 -0.7476  0.2322
   72SLPC   O31 6277  -0.238   3.788  10.196 -0.3634  0.1938 -0.1600
   72SLPC   C31 6278  -0.339   3.751  10.122 -0.2128  0.0844 -0.4710
   72SLPC   O32 6279  -0.426   3.670  10.151 -0.8495 -0.4420  0.3293
   72SLPC   C32 6280  -0.323   3.810   9.980  0.0769  0.1269 -0.2440
   72SLPC   H2X 6281  -0.331   3.920   9.991  2.4154  0.1740  2.2297
   72SLPC   H2Y 6282  -0.400   3.761   9.917 -0.0702  2.2839 -1.8834
   72SLPC   C23 6283   0.140   3.395  10.029 -0.8678  0.5470  0.0360
   72SLPC   H3R 6284   0.060   3.321  10.010 -0.0380 -0.9006  1.8077
   72SLPC   H3S 6285   0.234   3.339  10.011 -0.8552  0.2045  1.0992
   72SLPC   C24 6286   0.112   3.512   9.934  0.3572 -0.0768 -0.2553
   72SLPC   H4R 6287   0.197   3.580   9.956  0.0138  0.2546  0.0566
   72SLPC   H4S 6288   0.019   3.564   9.965 -0.0870  0.1365 -1.8388
   72SLPC   C25 6289   0.107   3.486   9.783 -0.7101 -0.3358  0.0754
   72SLPC   H5R 6290  -0.000   3.472   9.757 -0.0206 -1.8461 -2.3008
   72SLPC   H5S 6291   0.161   3.397   9.744 -1.6263 -1.0574  0.4080
   72SLPC   C26 6292   0.145   3.608   9.701  0.4603 -0.2799 -0.1798
   72SLPC   H6R 6293   0.255   3.620   9.693  0.5523 -0.7728  0.2522
   72SLPC   H6S 6294   0.112   3.702   9.750  3.9571  0.0476  1.8745
   72SLPC   C27 6295   0.096   3.600   9.554 -0.5900 -0.3052 -0.3315
   72SLPC   H7R 6296   0.104   3.701   9.510  0.3738  0.3530  1.2639
   72SLPC   H7S 6297  -0.012   3.574   9.558 -0.6430 -0.1259 -0.5881
   72SLPC   C28 6298   0.176   3.502   9.465  0.4576  0.0246 -0.6116
   72SLPC   H8R 6299   0.170   3.398   9.505  0.3125  0.6256  1.0303
   72SLPC   H8S 6300   0.283   3.527   9.477  0.9666 -1.8043 -0.9442
   72SLPC   C29 6301   0.136   3.513   9.320  0.0134  0.4648 -0.5839
   72SLPC   H9R 6302   0.028   3.510   9.303 -0.5647 -0.0251  2.5731
   72SLPC  C210 6303   0.223   3.538   9.223  0.2005 -0.1078  0.3088
   72SLPC  H10R 6304   0.190   3.558   9.120 -1.4138  0.5585  0.9253
   72SLPC  C211 6305   0.374   3.563   9.232  0.3599 -0.0063  0.7051
   72SLPC  H11R 6306   0.415   3.540   9.131 -4.4713 -1.6402 -1.1618
   72SLPC  H11S 6307   0.412   3.474   9.286 -1.1779  0.1259  2.0794
   72SLPC  C212 6308   0.424   3.697   9.288  0.0397 -0.7744  0.0382
   72SLPC  H12R 6309   0.416   3.721   9.395  0.4289  0.9237 -0.2840
   72SLPC  C213 6310   0.464   3.798   9.210 -0.5996 -0.8478 -0.0903
   72SLPC  H13R 6311   0.516   3.882   9.260  0.7145 -0.9897 -1.1617
   72SLPC  C214 6312   0.472   3.804   9.060  0.6239 -0.3839 -0.6885
   72SLPC  H14R 6313   0.413   3.888   9.018  1.2711  0.3482 -0.1610
   72SLPC  H14S 6314   0.423   3.720   9.005 -1.0560  0.4292 -0.4816
   72SLPC  C215 6315   0.621   3.813   9.025 -0.1739  0.4710 -0.3199
   72SLPC  H15R 6316   0.690   3.738   9.068  2.0205  2.0750 -0.8718
   72SLPC  H15S 6317   0.655   3.914   9.055 -2.6594  0.7108  2.0356
   72SLPC  C216 6318   0.636   3.792   8.879 -0.3345  0.9500  1.8340
   72SLPC  H16R 6319   0.743   3.797   8.851 -0.3189 -0.0333  1.6897
   72SLPC  H16S 6320   0.586   3.870   8.818  0.9510  0.2142 -0.2504
   72SLPC  C217 6321   0.589   3.652   8.823 -0.4606 -0.1870 -0.8615
   72SLPC  H17R 6322   0.480   3.637   8.839 -0.5619 -2.7090 -3.2547
   72SLPC  H17S 6323   0.642   3.587   8.897 -2.3810  0.0119  0.7734
   72SLPC  C218 6324   0.623   3.641   8.665 -0.8100  0.8623  0.6700
   72SLPC  H18R 6325   0.605   3.535   8.636  0.6570  0.8449 -0.2349
   72SLPC  H18S 6326   0.731   3.658   8.650 -0.1984 -1.5519  1.8624
   72SLPC  H18T 6327   0.560   3.707   8.601 -2.0704 -1.9167 -1.1790
   72SLPC   C33 6328  -0.190   3.775   9.910 -0.0020 -0.1286 -0.2103
   72SLPC   H3X 6329  -0.182   3.664   9.913 -0.0874 -0.1285  0.1358
   72SLPC   H3Y 6330  -0.110   3.813   9.977 -0.2543 -1.1933  0.7426
   72SLPC   C34 6331  -0.175   3.824   9.762  0.3483  0.0061 -0.0289
   72SLPC   H4X 6332  -0.088   3.783   9.706  0.7980  1.8018 -0.6894
   72SLPC   H4Y 6333  -0.148   3.931   9.766  2.2557 -0.3846 -1.1935
   72SLPC   C35 6334  -0.296   3.801   9.673  0.5038  0.4018  0.1451
   72SLPC   H5X 6335  -0.264   3.847   9.577  2.0734 -0.7896  0.0686
   72SLPC   H5Y 6336  -0.392   3.846   9.708  0.2528  0.9057 -1.1173
   72SLPC   C36 6337  -0.330   3.647   9.644 -0.1213  0.6061  0.9508
   72SLPC   H6X 6338  -0.396   3.615   9.728 -1.9799  1.7814  0.0062
   72SLPC   H6Y 6339  -0.240   3.582   9.637 -0.7853 -0.1272 -2.5011
   72SLPC   C37 6340  -0.414   3.619   9.513 -0.1704  0.6931 -0.0525
   72SLPC   H7X 6341  -0.507   3.677   9.530 -1.5419 -1.5390  0.5133
   72SLPC   H7Y 6342  -0.454   3.515   9.514 -1.7686  1.2763  0.7455
   72SLPC   C38 6343  -0.333   3.658   9.391 -0.2674  0.6425  0.9310
   72SLPC   H8X 6344  -0.233   3.613   9.404 -1.5463 -2.3909  1.0654
   72SLPC   H8Y 6345  -0.323   3.769   9.391  1.4169  0.5053  1.9101
   72SLPC   C39 6346  -0.387   3.607   9.263  0.3720 -1.0181 -0.1482
   72SLPC   H9X 6347  -0.479   3.666   9.243  1.0900  0.4710  0.8655
   72SLPC   H9Y 6348  -0.407   3.497   9.265 -3.1357 -0.5467 -2.0584
   72SLPC  C310 6349  -0.298   3.640   9.130  0.5434  0.9102 -0.5779
   72SLPC  H10X 6350  -0.198   3.598   9.155 -0.9560 -2.3526  0.3877
   72SLPC  H10Y 6351  -0.284   3.750   9.123  2.0633  0.9476  1.8777
   72SLPC  C311 6352  -0.341   3.568   8.998  0.1326  0.0799 -0.1738
   72SLPC  H11X 6353  -0.447   3.595   8.980 -0.5925 -1.9035  0.8363
   72SLPC  H11Y 6354  -0.340   3.460   9.023 -1.8511 -0.1827 -1.0371
   72SLPC  C312 6355  -0.255   3.594   8.878 -0.5198  0.0353  1.2669
   72SLPC  H12X 6356  -0.264   3.702   8.856  0.4275  0.1256  1.2814
   72SLPC  H12Y 6357  -0.288   3.532   8.791 -0.8733  0.9601  0.7311
   72SLPC  C313 6358  -0.107   3.564   8.894 -0.0070  0.1191 -0.3989
   72SLPC  H13X 6359  -0.106   3.455   8.913  2.3712  0.1825  0.1672
   72SLPC  H13Y 6360  -0.079   3.611   8.991 -0.7836 -3.5948  1.7986
   72SLPC  C314 6361  -0.037   3.614   8.765 -0.1786 -0.2996 -0.2241
   72SLPC  H14X 6362  -0.035   3.725   8.768 -0.8224 -0.3000  1.5873
   72SLPC  H14Y 6363  -0.095   3.583   8.675 -0.4481 -2.6934  0.7112
   72SLPC  C315 6364   0.110   3.561   8.749  0.2366  0.5113 -0.5689
   72SLPC  H15X 6365   0.114   3.452   8.767 -1.1862  0.7295  1.5981
   72SLPC  H15Y 6366   0.175   3.620   8.817  1.0301 -1.0742  0.0995
   72SLPC  C316 6367   0.165   3.585   8.611  0.2491  0.5500  0.5129
   72SLPC  H16X 6368   0.197   3.691   8.619  1.5898  0.0734  1.8529
   72SLPC  H16Y 6369   0.076   3.576   8.546 -1.0153 -0.9218  2.3273
   72SLPC  C317 6370   0.275   3.484   8.573 -0.5423  0.1978 -0.1260
   72SLPC  H17X 6371   0.242   3.381   8.599  1.7161 -0.2507  1.2881
   72SLPC  H17Y 6372   0.360   3.489   8.644 -0.3875 -1.5209 -0.1376
   72SLPC  C318 6373   0.314   3.492   8.430 -0.0260  0.0919  0.2390
   72SLPC  H18X 6374   0.231   3.484   8.357  2.1887 -0.9731 -2.3265
   72SLPC  H18Y 6375   0.388   3.410   8.413  1.4204  1.0556  1.5417
   72SLPC  H18Z 6376   0.361   3.590   8.410 -2.5656  1.3978  0.2785
   73SLPC     N 6377   5.539   3.234  11.024 -0.0884  0.3718 -0.4974
   73SLPC   C13 6378   5.454   3.116  11.082  0.0619 -0.1836  0.1490
   73SLPC  H13A 6379   5.352   3.112  11.048 -0.2207  1.4043  0.7542
   73SLPC  H13B 6380   5.498   3.023  11.048 -2.9172 -1.1278 -1.5343
   73SLPC  H13C 6381   5.448   3.126  11.189 -1.1261  2.0533 -0.0687
   73SLPC   C14 6382   5.656   3.252  11.110 -0.2716  0.3231 -0.9187
   73SLPC  H14A 6383   5.719   3.329  11.068  2.2842  0.0491  2.0873
   73SLPC  H14B 6384   5.632   3.261  11.215 -0.9116 -0.6116 -0.9737
   73SLPC  H14C 6385   5.710   3.159  11.100 -3.0300 -1.5981  0.7359
   73SLPC   C15 6386   5.457   3.357  11.026 -0.1713  0.3232 -0.8674
   73SLPC  H15A 6387   5.387   3.370  10.945 -1.2780 -1.3413 -0.2383
   73SLPC  H15B 6388   5.405   3.353  11.121  0.1531  1.6358 -0.6077
   73SLPC  H15C 6389   5.520   3.445  11.035 -1.4173  1.1409  0.4430
   73SLPC   C12 6390   5.582   3.200  10.885  0.3624 -0.7018 -0.0001
   73SLPC  H12A 6391   5.633   3.291  10.856 -0.0021 -1.1215 -2.1454
   73SLPC  H12B 6392   5.502   3.191  10.813 -1.3106 -0.1492  1.7137
   73SLPC   C11 6393   5.665   3.067  10.870  0.0142 -0.1887  0.7879
   73SLPC  H11A 6394   5.768   3.092  10.904  0.5270 -0.1117 -0.7518
   73SLPC  H11B 6395   5.666   3.062  10.759 -2.5172  0.1111  0.6742
   73SLPC     P 6396   5.721   2.818  10.907 -0.0987 -0.0143 -0.5754
   73SLPC   O13 6397   5.856   2.845  10.970  0.4824 -0.3162 -0.2642
   73SLPC   O14 6398   5.646   2.694  10.947 -0.1041  0.3279  0.5335
   73SLPC   O12 6399   5.623   2.948  10.926 -0.1802 -0.2945 -0.6118
   73SLPC   O11 6400   5.732   2.808  10.749  0.5079  0.4349  0.1236
   73SLPC    C1 6401   5.655   2.708  10.686 -0.1497  0.7412 -0.4529
   73SLPC    HA 6402   5.702   2.609  10.706  1.7708  2.0586  1.9555
   73SLPC    HB 6403   5.547   2.712  10.713 -0.6116 -1.7150 -1.5843
   73SLPC    C2 6404   5.637   2.733  10.535  0.3156  1.3106  0.5210
   73SLPC    HS 6405   5.738   2.760  10.498  0.1250  0.2921 -0.8316
   73SLPC   O21 6406   5.539   2.834  10.503  0.0913  0.1378  0.1237
   73SLPC   C21 6407   5.586   2.948  10.472 -0.6302 -0.3753 -0.1493
   73SLPC   O22 6408   5.711   2.973  10.474  0.5163  0.1604  0.2166
   73SLPC   C22 6409   5.487   3.050  10.444  0.7835 -0.2403  0.2386
   73SLPC   H2R 6410   5.386   3.009  10.422 -0.0680 -0.0241  3.3369
   73SLPC   H2S 6411   5.478   3.109  10.538 -0.4634  0.3685 -0.2359
   73SLPC    C3 6412   5.591   2.608  10.462 -0.0871  0.2850 -0.0415
   73SLPC    HX 6413   5.492   2.576  10.502  0.5094  2.1171  3.1369
   73SLPC    HY 6414   5.657   2.530  10.506 -2.8223 -1.8456  0.5941
   73SLPC   O31 6415   5.610   2.618  10.322  0.4589 -0.1878 -0.0145
   73SLPC   C31 6416   5.505   2.645  10.246  0.0018 -0.1110 -1.4019
   73SLPC   O32 6417   5.397   2.676  10.292  0.2526  0.4436  0.1701
   73SLPC   C32 6418   5.527   2.645  10.094 -0.3120  0.3827  0.0290
   73SLPC   H2X 6419   5.521   2.541  10.056 -1.8256  0.3195  0.3794
   73SLPC   H2Y 6420   5.627   2.688  10.073  0.5076 -1.1008  0.7101
   73SLPC   C23 6421   5.524   3.151  10.332 -0.3552  0.6114  0.2793
   73SLPC   H3R 6422   5.614   3.206  10.364  1.4190 -1.4625 -0.8694
   73SLPC   H3S 6423   5.441   3.225  10.326  1.2751  2.5360  0.5762
   73SLPC   C24 6424   5.544   3.094  10.193 -0.7363  0.7717  0.5024
   73SLPC   H4R 6425   5.455   3.032  10.172 -1.1542  0.6573  2.4006
   73SLPC   H4S 6426   5.640   3.037  10.195 -0.7616  0.7328  1.6836
   73SLPC   C25 6427   5.563   3.199  10.080 -0.5091 -0.4031  0.2854
   73SLPC   H5R 6428   5.643   3.263  10.121 -0.5698 -0.0862 -0.0840
   73SLPC   H5S 6429   5.473   3.264  10.070 -0.1950  0.0239  0.2143
   73SLPC   C26 6430   5.616   3.141   9.948  0.0551 -0.1633 -0.6313
   73SLPC   H6R 6431   5.535   3.072   9.916  0.3327 -0.9373  0.2995
   73SLPC   H6S 6432   5.714   3.091   9.964 -0.3914 -0.8370  0.0312
   73SLPC   C27 6433   5.626   3.241   9.831  0.1932  0.4258 -0.5821
   73SLPC   H7R 6434   5.690   3.324   9.867 -0.4933  0.4211  0.7240
   73SLPC   H7S 6435   5.521   3.275   9.820  0.0308  0.1709  0.1386
   73SLPC   C28 6436   5.671   3.185   9.695  0.0586 -0.2069 -0.0320
   73SLPC   H8R 6437   5.615   3.096   9.660 -0.4035  0.7269 -1.8221
   73SLPC   H8S 6438   5.776   3.152   9.703 -0.5723 -2.6839 -1.2011
   73SLPC   C29 6439   5.648   3.294   9.596 -0.1935 -0.0210  0.0600
   73SLPC   H9R 6440   5.568   3.368   9.615 -0.4032 -0.1456 -0.3317
   73SLPC  C210 6441   5.724   3.330   9.489  0.3463 -0.7127  0.1708
   73SLPC  H10R 6442   5.690   3.412   9.424  0.7653  0.9301  1.9345
   73SLPC  C211 6443   5.851   3.259   9.448 -0.3778 -0.1614  0.4813
   73SLPC  H11R 6444   5.825   3.166   9.393  0.0160  0.2960 -0.5067
   73SLPC  H11S 6445   5.905   3.224   9.538  0.0724 -1.0687 -0.1234
   73SLPC  C212 6446   5.954   3.345   9.372  0.0983  0.1443  0.3734
   73SLPC  H12R 6447   5.998   3.303   9.280  0.6413 -0.8428  1.0695
   73SLPC  C213 6448   6.018   3.459   9.421 -0.2536 -0.2323  0.5040
   73SLPC  H13R 6449   6.086   3.508   9.349  0.7733 -2.3783 -0.0625
   73SLPC  C214 6450   5.996   3.521   9.549  0.4847 -0.2138  0.2101
   73SLPC  H14R 6451   5.888   3.533   9.570  1.0471  0.0823  3.5437
   73SLPC  H14S 6452   6.052   3.617   9.547 -0.8641  0.7406  2.9664
   73SLPC  C215 6453   6.051   3.440   9.666  0.6041  0.8349 -1.0002
   73SLPC  H15R 6454   6.158   3.413   9.649  0.2315 -1.1151 -0.4290
   73SLPC  H15S 6455   5.998   3.342   9.668  0.6901  0.7951 -0.6117
   73SLPC  C216 6456   6.051   3.522   9.800  0.2950  0.4647  0.0667
   73SLPC  H16R 6457   6.139   3.590   9.808 -0.5054  1.5539 -0.0623
   73SLPC  H16S 6458   6.063   3.440   9.873  0.6427 -0.7045 -1.2624
   73SLPC  C217 6459   5.918   3.585   9.838  0.1754  0.1429  0.6871
   73SLPC  H17R 6460   5.836   3.514   9.817 -0.9564  1.4373  0.6052
   73SLPC  H17S 6461   5.919   3.668   9.764  0.0530 -0.9444 -0.5587
   73SLPC  C218 6462   5.922   3.631   9.982 -0.6501  0.2756  0.7854
   73SLPC  H18R 6463   5.822   3.638  10.029 -0.5767 -1.7693  1.3265
   73SLPC  H18S 6464   5.974   3.730   9.986 -0.0211  0.1426 -2.0722
   73SLPC  H18T 6465   5.977   3.555  10.041  0.4218 -0.5602 -1.1957
   73SLPC   C33 6466   5.429   2.733  10.025 -0.2850  0.4046  0.5058
   73SLPC   H3X 6467   5.426   2.832  10.076 -3.1597 -0.3480  2.0085
   73SLPC   H3Y 6468   5.330   2.683  10.033 -0.0145 -0.3171 -0.5243
   73SLPC   C34 6469   5.460   2.759   9.871 -0.1652 -0.2660 -0.0576
   73SLPC   H4X 6470   5.479   2.662   9.822  0.3713  0.5350 -1.5029
   73SLPC   H4Y 6471   5.550   2.823   9.857  0.9427 -1.7707  0.0470
   73SLPC   C35 6472   5.326   2.822   9.809 -0.3042  0.3421  0.3604
   73SLPC   H5X 6473   5.297   2.910   9.870  1.0951  1.5158 -0.5870
   73SLPC   H5Y 6474   5.247   2.745   9.818 -1.4656  1.7807  4.5944
   73SLPC   C36 6475   5.327   2.861   9.656  0.1478  0.2454 -0.1204
   73SLPC   H6X 6476   5.379   2.959   9.643  1.9135 -0.8853 -2.2858
   73SLPC   H6Y 6477   5.221   2.873   9.628  0.1536  1.6322  0.3621
   73SLPC   C37 6478   5.404   2.761   9.568 -1.0841 -0.1127 -0.2991
   73SLPC   H7X 6479   5.344   2.667   9.575 -2.9203  1.0772  0.9015
   73SLPC   H7Y 6480   5.509   2.747   9.602 -0.7665  2.6669  0.0750
   73SLPC   C38 6481   5.414   2.808   9.413  0.2200 -0.9088  0.2279
   73SLPC   H8X 6482   5.489   2.887   9.391 -0.9871  0.0476 -0.5876
   73SLPC   H8Y 6483   5.312   2.848   9.393  0.2504 -0.7509  0.3868
   73SLPC   C39 6484   5.444   2.691   9.328  0.4239 -0.0409 -0.3342
   73SLPC   H9X 6485   5.378   2.607   9.356  3.0373 -2.1805 -0.1105
   73SLPC   H9Y 6486   5.545   2.653   9.356  0.4283  0.5434  0.4848
   73SLPC  C310 6487   5.437   2.712   9.172  0.7003  0.1707 -0.3170
   73SLPC  H10X 6488   5.515   2.785   9.143  1.8030 -0.5144  0.8609
   73SLPC  H10Y 6489   5.339   2.758   9.145  1.0218  0.5749 -0.7959
   73SLPC  C311 6490   5.459   2.591   9.084 -0.6409  0.0686 -0.1059
   73SLPC  H11X 6491   5.364   2.534   9.081 -0.3838 -0.4224  0.7762
   73SLPC  H11Y 6492   5.535   2.523   9.127 -1.7610 -0.5711  0.9362
   73SLPC  C312 6493   5.506   2.623   8.945  0.5071 -0.0142 -0.5953
   73SLPC  H12X 6494   5.541   2.533   8.891 -0.0431  0.6581 -2.1344
   73SLPC  H12Y 6495   5.592   2.694   8.937 -0.0017  0.5138 -1.6547
   73SLPC  C313 6496   5.384   2.678   8.864 -0.2092 -0.3902 -0.8871
   73SLPC  H13X 6497   5.321   2.737   8.935  0.7843 -1.0557  0.6076
   73SLPC  H13Y 6498   5.329   2.588   8.829 -0.7722  0.0135 -1.0536
   73SLPC  C314 6499   5.416   2.771   8.744  0.0172 -0.0890 -1.1287
   73SLPC  H14X 6500   5.483   2.702   8.689  1.5059 -1.1727  1.8255
   73SLPC  H14Y 6501   5.472   2.861   8.778  0.4330 -1.1608  1.2400
   73SLPC  C315 6502   5.287   2.812   8.666  0.0728  0.4409  0.0430
   73SLPC  H15X 6503   5.201   2.765   8.719 -0.4926 -0.5056 -1.6503
   73SLPC  H15Y 6504   5.303   2.778   8.562  3.3718  0.4786  0.4303
   73SLPC  C316 6505   5.246   2.954   8.663 -0.0516 -0.3043 -0.0351
   73SLPC  H16X 6506   5.256   2.983   8.770 -1.3080 -2.2862  0.6700
   73SLPC  H16Y 6507   5.144   2.977   8.627  0.1690  0.3647 -0.2459
   73SLPC  C317 6508   5.338   3.040   8.574 -0.2712 -0.0614 -0.0770
   73SLPC  H17X 6509   5.439   3.043   8.621 -1.0920 -0.5367  1.8142
   73SLPC  H17Y 6510   5.290   3.140   8.580 -1.4263 -0.4568 -2.0030
   73SLPC  C318 6511   5.357   2.997   8.429 -0.6923 -0.0398 -0.1281
   73SLPC  H18X 6512   5.434   2.918   8.417  0.1942  0.5188  1.5319
   73SLPC  H18Y 6513   5.393   3.087   8.375  1.6287 -1.9984 -2.0710
   73SLPC  H18Z 6514   5.258   2.978   8.381  0.1584  0.9163 -2.3761
   74SLPC     N 6515   0.652   4.801  10.653 -0.1862 -0.1116  0.0802
   74SLPC   C13 6516   0.676   4.686  10.745  0.0678 -1.1323 -0.1623
   74SLPC  H13A 6517   0.591   4.620  10.738 -1.2749  0.4182  0.7729
   74SLPC  H13B 6518   0.767   4.633  10.722  1.1558  1.2922 -1.8973
   74SLPC  H13C 6519   0.689   4.722  10.846  1.3544  1.4829 -1.1505
   74SLPC   C14 6520   0.772   4.886  10.635  0.1908  0.3336 -0.1405
   74SLPC  H14A 6521   0.763   4.976  10.577  1.3380 -0.0173 -0.9011
   74SLPC  H14B 6522   0.811   4.910  10.733 -1.4861 -0.9254  0.8902
   74SLPC  H14C 6523   0.842   4.831  10.574 -1.0947  0.7202 -2.0447
   74SLPC   C15 6524   0.543   4.875  10.717  0.3817  0.2912  0.3397
   74SLPC  H15A 6525   0.472   4.799  10.745  0.5763 -0.5719 -1.4037
   74SLPC  H15B 6526   0.583   4.916  10.808  0.1183  1.5540 -0.0931
   74SLPC  H15C 6527   0.496   4.938  10.643 -2.0985 -1.5442  0.2391
   74SLPC   C12 6528   0.604   4.752  10.514  0.0098  0.3476 -0.0386
   74SLPC  H12A 6529   0.501   4.720  10.524  0.4126 -1.9159 -2.2020
   74SLPC  H12B 6530   0.667   4.667  10.492  1.5241  0.9477  1.7957
   74SLPC   C11 6531   0.602   4.849  10.394 -0.1814  0.3118 -0.0094
   74SLPC  H11A 6532   0.574   4.802  10.297 -0.3138 -1.1445  0.7039
   74SLPC  H11B 6533   0.701   4.898  10.395 -0.5718  1.1740 -1.2458
   74SLPC     P 6534   0.520   5.100  10.431  0.3141  0.0145 -0.1347
   74SLPC   O13 6535   0.417   5.157  10.512  0.8459 -0.1978 -0.2595
   74SLPC   O14 6536   0.662   5.127  10.472 -0.1316 -0.4913 -0.2808
   74SLPC   O12 6537   0.499   4.941  10.431  0.0974 -0.3233 -0.1269
   74SLPC   O11 6538   0.500   5.127  10.273 -0.3196 -0.4632 -0.3305
   74SLPC    C1 6539   0.392   5.059  10.202 -0.2052 -0.7816  0.5415
   74SLPC    HA 6540   0.431   4.970  10.147  2.7535  1.9380 -2.1837
   74SLPC    HB 6541   0.307   5.027  10.266  0.3612 -1.4970  0.9532
   74SLPC    C2 6542   0.334   5.152  10.092 -0.2430 -0.0418 -0.3892
   74SLPC    HS 6543   0.237   5.110  10.061 -1.3573  1.1698  1.2791
   74SLPC   O21 6544   0.431   5.186   9.983 -0.7268  0.6037 -0.2439
   74SLPC   C21 6545   0.426   5.098   9.885 -0.2939 -0.3047 -0.1326
   74SLPC   O22 6546   0.341   5.010   9.871 -0.4086 -0.8884  0.0426
   74SLPC   C22 6547   0.523   5.128   9.775  0.3450  0.1743 -0.2174
   74SLPC   H2R 6548   0.614   5.072   9.803 -0.5635 -1.0654  0.3263
   74SLPC   H2S 6549   0.477   5.107   9.676 -0.6663  1.5719 -0.0831
   74SLPC    C3 6550   0.291   5.281  10.158 -0.1248  0.1597 -0.4602
   74SLPC    HX 6551   0.386   5.320  10.200 -0.0691 -0.9040  0.4581
   74SLPC    HY 6552   0.222   5.253  10.241 -0.0127  0.6093 -0.2107
   74SLPC   O31 6553   0.234   5.378  10.070 -1.0128 -0.0905  0.4757
   74SLPC   C31 6554   0.170   5.491  10.109  0.0504  0.1441 -0.6482
   74SLPC   O32 6555   0.144   5.513  10.228  0.1725  0.3140 -0.4718
   74SLPC   C32 6556   0.147   5.588   9.998  0.1451  0.3157 -0.4654
   74SLPC   H2X 6557   0.221   5.566   9.917 -0.3046 -0.8957 -0.5611
   74SLPC   H2Y 6558   0.181   5.688  10.033  2.0750 -0.0622 -1.1172
   74SLPC   C23 6559   0.584   5.270   9.779 -0.9084 -0.2049 -0.3133
   74SLPC   H3R 6560   0.686   5.266   9.734 -0.4840 -0.0374  0.6187
   74SLPC   H3S 6561   0.601   5.312   9.880 -1.4343 -0.0874 -0.2704
   74SLPC   C24 6562   0.488   5.363   9.698  0.3005 -0.5886  0.5637
   74SLPC   H4R 6563   0.389   5.362   9.749  1.0044 -0.1395  2.0065
   74SLPC   H4S 6564   0.480   5.334   9.591  0.1427  0.6184  0.2302
   74SLPC   C25 6565   0.534   5.514   9.691 -1.0485  0.7698  0.2314
   74SLPC   H5R 6566   0.560   5.550   9.793  0.6936 -0.4047  0.2411
   74SLPC   H5S 6567   0.447   5.568   9.648 -1.9873 -1.4815 -0.8464
   74SLPC   C26 6568   0.664   5.530   9.609  0.1955  0.0609 -0.1615
   74SLPC   H6R 6569   0.665   5.456   9.526 -0.2504 -0.9320  0.6956
   74SLPC   H6S 6570   0.757   5.500   9.662 -0.6577 -0.9527  0.8197
   74SLPC   C27 6571   0.681   5.681   9.571 -0.0340 -0.4418  0.1498
   74SLPC   H7R 6572   0.666   5.743   9.662  1.5470  1.7865 -1.0278
   74SLPC   H7S 6573   0.599   5.703   9.499  0.4142 -1.5099 -0.7277
   74SLPC   C28 6574   0.818   5.705   9.506  1.2810 -0.2577 -1.1170
   74SLPC   H8R 6575   0.898   5.659   9.567 -0.7443 -0.5455  1.5146
   74SLPC   H8S 6576   0.836   5.813   9.527  0.0656 -0.4853  1.4698
   74SLPC   C29 6577   0.815   5.682   9.360 -0.0967  0.5237 -0.0525
   74SLPC   H9R 6578   0.883   5.601   9.330 -0.5943  0.8872 -2.3001
   74SLPC  C210 6579   0.772   5.769   9.266  0.3776 -0.1363  0.8058
   74SLPC  H10R 6580   0.781   5.750   9.158 -1.6781 -0.3466  0.6217
   74SLPC  C211 6581   0.705   5.897   9.294 -0.6816 -0.1309  0.1379
   74SLPC  H11R 6582   0.697   5.919   9.402 -0.7467  2.1386 -0.2705
   74SLPC  H11S 6583   0.602   5.880   9.257  0.2758 -2.2687 -1.7635
   74SLPC  C212 6584   0.765   6.012   9.223 -0.0370 -0.0835 -0.9114
   74SLPC  H12R 6585   0.833   6.066   9.290  0.0693  1.5212 -2.2540
   74SLPC  C213 6586   0.741   6.059   9.098  0.2647  0.1105  0.2282
   74SLPC  H13R 6587   0.794   6.145   9.054  3.4989 -1.5843  0.5063
   74SLPC  C214 6588   0.641   5.999   9.003  0.4347 -0.2349 -0.4782
   74SLPC  H14R 6589   0.551   6.063   9.010  1.0099  0.4113  4.3604
   74SLPC  H14S 6590   0.611   5.895   9.029  0.6919 -0.1964 -0.0145
   74SLPC  C215 6591   0.697   6.000   8.861 -0.6874  0.8287  0.6536
   74SLPC  H15R 6592   0.793   5.944   8.856 -0.3606  1.4356 -0.0236
   74SLPC  H15S 6593   0.709   6.107   8.831 -0.9658  0.9242  0.8756
   74SLPC  C216 6594   0.605   5.935   8.755 -0.2482 -0.6945 -0.5262
   74SLPC  H16R 6595   0.530   6.012   8.724 -1.3649 -1.9867 -1.1379
   74SLPC  H16S 6596   0.550   5.843   8.786 -1.4261  0.8950  2.5422
   74SLPC  C217 6597   0.672   5.901   8.623  0.0715  0.7475  0.5884
   74SLPC  H17R 6598   0.591   5.892   8.547 -2.0779 -0.3881  2.8758
   74SLPC  H17S 6599   0.714   5.799   8.634 -1.6200  0.1369  1.9485
   74SLPC  C218 6600   0.780   5.999   8.577  0.4276 -0.0464  0.2436
   74SLPC  H18R 6601   0.807   5.974   8.472 -0.2818  0.8097 -0.1618
   74SLPC  H18S 6602   0.868   6.003   8.645 -1.6786  1.4069  3.1084
   74SLPC  H18T 6603   0.734   6.100   8.579 -1.3717 -0.8125 -0.5003
   74SLPC   C33 6604   0.004   5.594   9.944  0.2149 -0.5111 -0.5804
   74SLPC   H3X 6605   0.001   5.685   9.881 -0.9374 -1.1259 -1.4630
   74SLPC   H3Y 6606  -0.066   5.627  10.025  0.5135  3.2733 -1.6822
   74SLPC   C34 6607  -0.036   5.468   9.860  0.0851  0.5736 -0.7678
   74SLPC   H4X 6608  -0.139   5.494   9.825  0.0503  1.6742  0.0761
   74SLPC   H4Y 6609  -0.041   5.372   9.916 -1.0748  1.4161  0.6746
   74SLPC   C35 6610   0.053   5.449   9.741  0.2667  0.1114  0.2443
   74SLPC   H5X 6611   0.015   5.355   9.698 -3.5126  2.4701 -2.0812
   74SLPC   H5Y 6612   0.158   5.431   9.773  1.0960  1.1532 -1.7611
   74SLPC   C36 6613   0.052   5.564   9.644 -0.5227  1.0064  0.0987
   74SLPC   H6X 6614   0.119   5.642   9.687  1.6287 -0.1839 -0.9141
   74SLPC   H6Y 6615  -0.047   5.613   9.641  0.0127  2.1406 -2.6597
   74SLPC   C37 6616   0.104   5.522   9.508 -0.1719  0.0363  0.0821
   74SLPC   H7X 6617   0.020   5.480   9.448 -1.5231  2.1279  0.4143
   74SLPC   H7Y 6618   0.183   5.446   9.528 -1.4341 -1.0023  1.3935
   74SLPC   C38 6619   0.165   5.637   9.422  0.6861  0.2770  0.0582
   74SLPC   H8X 6620   0.256   5.666   9.479  0.5038 -0.3678  0.6797
   74SLPC   H8Y 6621   0.086   5.715   9.412  0.4031 -0.2642 -2.8425
   74SLPC   C39 6622   0.226   5.585   9.287 -0.0986 -0.3623 -0.1454
   74SLPC   H9X 6623   0.140   5.535   9.238 -0.1887 -2.4464  1.9737
   74SLPC   H9Y 6624   0.311   5.515   9.305  0.7640  0.7725  0.3006
   74SLPC  C310 6625   0.248   5.695   9.181  0.1670  0.1521 -0.2471
   74SLPC  H10X 6626   0.337   5.754   9.212  0.6926 -1.6559  1.9555
   74SLPC  H10Y 6627   0.160   5.762   9.184  1.9751  2.6512  0.6275
   74SLPC  C311 6628   0.261   5.655   9.028 -0.0983  0.2524  0.2021
   74SLPC  H11X 6629   0.257   5.738   8.954 -1.5263 -0.1281 -0.1718
   74SLPC  H11Y 6630   0.165   5.603   9.007 -1.0358  1.3309  1.6945
   74SLPC  C312 6631   0.376   5.566   8.986 -0.2606  0.1938 -0.0340
   74SLPC  H12X 6632   0.360   5.469   9.038  1.4596  0.3344  0.8133
   74SLPC  H12Y 6633   0.467   5.606   9.035  0.2937  0.7199 -1.4310
   74SLPC  C313 6634   0.384   5.558   8.831  0.1263 -0.1729 -0.1747
   74SLPC  H13X 6635   0.403   5.662   8.799  0.3857  0.1370  0.9349
   74SLPC  H13Y 6636   0.287   5.529   8.786  0.1258  0.5089 -0.6160
   74SLPC  C314 6637   0.487   5.461   8.787  0.4457  0.3173  0.5057
   74SLPC  H14X 6638   0.471   5.358   8.827 -1.5617  0.1616 -0.5804
   74SLPC  H14Y 6639   0.584   5.497   8.829  0.9381  0.2622 -0.5548
   74SLPC  C315 6640   0.495   5.448   8.627 -0.1886  0.3706 -0.0457
   74SLPC  H15X 6641   0.498   5.546   8.575 -0.7181 -0.0232 -0.8380
   74SLPC  H15Y 6642   0.405   5.394   8.592 -0.6079  0.2884  1.1158
   74SLPC  C316 6643   0.627   5.379   8.590  0.5125 -0.6259 -0.2233
   74SLPC  H16X 6644   0.620   5.345   8.484  1.4033 -1.7625  0.0589
   74SLPC  H16Y 6645   0.649   5.293   8.656  1.7418  0.3766  0.7268
   74SLPC  C317 6646   0.754   5.467   8.610  0.5075 -0.0145  0.0935
   74SLPC  H17X 6647   0.774   5.519   8.706 -0.6107  0.1888  0.2286
   74SLPC  H17Y 6648   0.741   5.556   8.545 -0.7208  1.4845  2.2595
   74SLPC  C318 6649   0.886   5.387   8.573  0.2584 -0.2819  0.6344
   74SLPC  H18X 6650   0.906   5.310   8.651 -0.2185  0.2033  1.2457
   74SLPC  H18Y 6651   0.973   5.457   8.576  0.1949 -0.0611 -1.3326
   74SLPC  H18Z 6652   0.869   5.339   8.474 -0.6642  0.6556  0.3114
   75SLPC     N 6653   1.566   3.240   6.039  0.5721 -0.5686 -0.2110
   75SLPC   C13 6654   1.642   3.237   5.913  0.1252 -0.4620  0.5426
   75SLPC  H13A 6655   1.701   3.327   5.907 -0.8022  0.0299 -2.6320
   75SLPC  H13B 6656   1.711   3.155   5.903 -1.6191 -1.7316 -2.6204
   75SLPC  H13C 6657   1.578   3.220   5.828  0.3105 -1.1715  0.5371
   75SLPC   C14 6658   1.504   3.374   6.056 -0.2509  0.2907 -0.2430
   75SLPC  H14A 6659   1.574   3.454   6.075  0.4576 -0.5947  1.0903
   75SLPC  H14B 6660   1.437   3.403   5.977  0.9088  0.8806 -1.0448
   75SLPC  H14C 6661   1.440   3.367   6.142 -1.0374  1.6300 -0.6963
   75SLPC   C15 6662   1.664   3.216   6.154 -0.4252 -0.3748  0.0047
   75SLPC  H15A 6663   1.607   3.233   6.245  0.7410  2.5362  0.2953
   75SLPC  H15B 6664   1.712   3.119   6.154  1.2118  0.2621  3.4669
   75SLPC  H15C 6665   1.737   3.296   6.156 -0.8049 -0.0288  1.2524
   75SLPC   C12 6666   1.454   3.132   6.048 -0.2839  0.4079  0.2790
   75SLPC  H12A 6667   1.496   3.033   6.049 -1.6395 -0.2092  2.3280
   75SLPC  H12B 6668   1.398   3.137   5.956  0.4177 -0.5185 -0.2212
   75SLPC   C11 6669   1.345   3.150   6.170 -0.0266  0.9156 -0.0717
   75SLPC  H11A 6670   1.413   3.171   6.255  0.1138 -0.0737  0.0634
   75SLPC  H11B 6671   1.291   3.054   6.178  0.3419  0.8358  1.8810
   75SLPC     P 6672   1.136   3.261   6.267 -0.0710 -0.2907 -0.2907
   75SLPC   O13 6673   1.138   3.399   6.323  0.5921 -0.8775  0.3990
   75SLPC   O14 6674   1.011   3.204   6.209 -0.3206  0.5048 -0.0010
   75SLPC   O12 6675   1.257   3.261   6.170  0.5656  0.5397  0.5775
   75SLPC   O11 6676   1.196   3.169   6.388  0.2891 -0.1546 -0.0827
   75SLPC    C1 6677   1.161   3.189   6.524  0.2384  0.1022 -0.2392
   75SLPC    HA 6678   1.243   3.148   6.587  0.0292 -0.8309 -0.5579
   75SLPC    HB 6679   1.160   3.295   6.557 -0.0225 -0.2869  1.0739
   75SLPC    C2 6680   1.033   3.116   6.577 -0.3258  0.1902  0.1228
   75SLPC    HS 6681   0.937   3.163   6.545 -1.1989  2.0420  4.7066
   75SLPC   O21 6682   1.037   3.098   6.723 -0.4488  0.0923 -0.1640
   75SLPC   C21 6683   0.961   3.188   6.786  0.1665 -0.3727  0.3992
   75SLPC   O22 6684   0.876   3.256   6.729  0.1301  0.5224 -0.1921
   75SLPC   C22 6685   0.983   3.165   6.941  0.2237  0.8550  0.1820
   75SLPC   H2R 6686   0.911   3.082   6.959 -3.6156  2.4425 -5.2503
   75SLPC   H2S 6687   1.086   3.127   6.958  0.1400  0.6614  0.2650
   75SLPC    C3 6688   1.019   2.972   6.516  0.3409  0.1360  0.1705
   75SLPC    HX 6689   1.113   2.914   6.518 -0.2836 -0.9007  1.7129
   75SLPC    HY 6690   0.987   2.982   6.410 -1.4168  1.1076  0.7357
   75SLPC   O31 6691   0.919   2.894   6.586 -0.0924 -0.5427  0.2010
   75SLPC   C31 6692   0.885   2.778   6.531 -0.0699  0.1763 -0.4008
   75SLPC   O32 6693   0.914   2.734   6.422  0.1008 -0.7040  0.2213
   75SLPC   C32 6694   0.796   2.707   6.629  0.1220  0.0513 -0.4823
   75SLPC   H2X 6695   0.704   2.764   6.655 -1.3599 -2.6446  0.5412
   75SLPC   H2Y 6696   0.854   2.701   6.723 -2.8421  0.2808  1.5254
   75SLPC   C23 6697   0.947   3.285   7.028  0.3557  0.3439 -0.1791
   75SLPC   H3R 6698   0.850   3.324   6.990  0.8431  1.2078 -0.5708
   75SLPC   H3S 6699   1.026   3.364   7.024 -1.2201  2.0691  1.0054
   75SLPC   C24 6700   0.916   3.259   7.176 -0.3950  0.3673 -0.1009
   75SLPC   H4R 6701   1.003   3.204   7.217  1.2626  3.6733  1.1747
   75SLPC   H4S 6702   0.832   3.187   7.191 -0.3449  0.7485  2.5525
   75SLPC   C25 6703   0.877   3.365   7.269 -0.3736  0.0463 -0.0461
   75SLPC   H5R 6704   0.784   3.403   7.222  1.0452  0.8415 -2.3838
   75SLPC   H5S 6705   0.941   3.456   7.259 -0.7289  0.2535 -0.4904
   75SLPC   C26 6706   0.874   3.337   7.420  0.8063  0.1483 -0.3862
   75SLPC   H6R 6707   0.972   3.296   7.454  1.0437  1.3400  0.4262
   75SLPC   H6S 6708   0.801   3.258   7.446  0.1121  0.0259 -2.4573
   75SLPC   C27 6709   0.847   3.459   7.520 -0.0719  0.0096  0.4498
   75SLPC   H7R 6710   0.755   3.514   7.491 -0.1383 -0.7124 -0.7496
   75SLPC   H7S 6711   0.938   3.523   7.525  0.6105 -0.8669 -0.2453
   75SLPC   C28 6712   0.844   3.425   7.673 -0.3597  0.3066  0.8952
   75SLPC   H8R 6713   0.947   3.390   7.695 -1.2792 -3.0314  0.5084
   75SLPC   H8S 6714   0.781   3.334   7.689 -0.2035  0.0945  0.3145
   75SLPC   C29 6715   0.798   3.530   7.770  0.1987 -0.2378  0.2674
   75SLPC   H9R 6716   0.695   3.563   7.753  0.3191  0.2388  0.4692
   75SLPC  C210 6717   0.857   3.580   7.881 -1.6573 -0.5125 -0.4381
   75SLPC  H10R 6718   0.807   3.660   7.938 -0.7238 -0.3033  0.1201
   75SLPC  C211 6719   0.994   3.539   7.933 -0.4215  0.4559 -0.5756
   75SLPC  H11R 6720   1.052   3.478   7.862  0.5381  1.5218 -0.7470
   75SLPC  H11S 6721   0.971   3.477   8.023  2.2657  0.1358 -0.0491
   75SLPC  C212 6722   1.069   3.662   7.982 -0.0376 -1.3240 -0.8283
   75SLPC  H12R 6723   1.149   3.693   7.913  1.9557 -1.7200  1.1913
   75SLPC  C213 6724   1.034   3.736   8.092  0.1765  0.6437  0.6664
   75SLPC  H13R 6725   1.103   3.817   8.118 -0.3755  1.3870 -0.1407
   75SLPC  C214 6726   0.919   3.711   8.176  0.2536 -0.6774 -0.2806
   75SLPC  H14R 6727   0.892   3.604   8.182 -1.0665 -0.4417 -1.4658
   75SLPC  H14S 6728   0.839   3.775   8.134  2.6164  1.8860 -1.2097
   75SLPC  C215 6729   0.949   3.752   8.322  0.1377 -0.9093  0.0403
   75SLPC  H15R 6730   0.855   3.738   8.379 -1.0884 -0.1733 -1.7406
   75SLPC  H15S 6731   0.990   3.855   8.317 -0.2827 -0.8073 -2.4662
   75SLPC  C216 6732   1.049   3.664   8.384  0.3542 -0.4978  0.0141
   75SLPC  H16R 6733   1.131   3.647   8.310  0.5362  1.0831 -0.1941
   75SLPC  H16S 6734   1.008   3.567   8.419 -1.5812  0.0278 -0.6346
   75SLPC  C217 6735   1.104   3.719   8.515  0.2252  0.4383  0.1566
   75SLPC  H17R 6736   1.019   3.745   8.582 -1.0766 -1.6584 -0.5907
   75SLPC  H17S 6737   1.136   3.822   8.487 -2.7343  0.9790 -1.6556
   75SLPC  C218 6738   1.221   3.632   8.572 -0.2667 -0.3272  0.4957
   75SLPC  H18R 6739   1.171   3.536   8.594 -2.5394  0.5130 -0.6897
   75SLPC  H18S 6740   1.263   3.673   8.667  1.7341  2.2933 -1.3490
   75SLPC  H18T 6741   1.303   3.605   8.502 -2.1258  1.2497 -2.4963
   75SLPC   C33 6742   0.755   2.567   6.588 -0.3579 -0.1150  0.0094
   75SLPC   H3X 6743   0.685   2.578   6.502 -1.0943 -1.6355  0.3771
   75SLPC   H3Y 6744   0.845   2.510   6.556 -0.8266 -1.1478  0.5103
   75SLPC   C34 6745   0.677   2.478   6.691 -0.4603 -0.3050  0.1125
   75SLPC   H4X 6746   0.752   2.460   6.770 -1.1142 -2.0366  0.3809
   75SLPC   H4Y 6747   0.653   2.380   6.644 -1.9788 -0.1354  0.4832
   75SLPC   C35 6748   0.559   2.556   6.762 -0.0414  0.4625 -0.1511
   75SLPC   H5X 6749   0.455   2.534   6.729 -0.7457  0.3899  1.9644
   75SLPC   H5Y 6750   0.569   2.667   6.761 -0.1233  0.4724 -1.9487
   75SLPC   C36 6751   0.552   2.531   6.915  0.6462 -0.2274  0.2550
   75SLPC   H6X 6752   0.652   2.540   6.961 -0.4164  1.2883  2.4573
   75SLPC   H6Y 6753   0.512   2.428   6.926 -3.1164  1.2189  1.7792
   75SLPC   C37 6754   0.457   2.613   7.004 -0.2465 -0.3457  0.4241
   75SLPC   H7X 6755   0.350   2.598   6.979 -0.8345 -0.0487  2.5920
   75SLPC   H7Y 6756   0.473   2.722   6.989 -2.5369  0.1492  1.2164
   75SLPC   C38 6757   0.475   2.582   7.154 -0.3480  0.3346  0.4884
   75SLPC   H8X 6758   0.571   2.620   7.196  1.6908 -1.6508 -2.1122
   75SLPC   H8Y 6759   0.478   2.473   7.171 -2.2156  0.2173  0.2811
   75SLPC   C39 6760   0.367   2.655   7.234 -0.1553 -0.0156  0.6470
   75SLPC   H9X 6761   0.354   2.760   7.198 -1.7718  0.2517  1.8951
   75SLPC   H9Y 6762   0.418   2.664   7.332  1.3916  0.0918 -0.1392
   75SLPC  C310 6763   0.230   2.579   7.239  0.1477 -0.2039  0.1101
   75SLPC  H10X 6764   0.244   2.470   7.255 -1.2418 -0.3901  0.1219
   75SLPC  H10Y 6765   0.187   2.598   7.139  0.3613 -1.1500 -0.1705
   75SLPC  C311 6766   0.145   2.630   7.348 -0.9794 -0.3672 -0.3778
   75SLPC  H11X 6767   0.036   2.619   7.334 -1.1550 -2.7672  2.0409
   75SLPC  H11Y 6768   0.170   2.738   7.349 -0.2956 -0.4938  2.2647
   75SLPC  C312 6769   0.184   2.569   7.487  0.9115  0.8333  0.1182
   75SLPC  H12X 6770   0.290   2.598   7.502  1.6280 -1.5807  0.1022
   75SLPC  H12Y 6771   0.176   2.458   7.483 -0.5916  0.9119  0.1669
   75SLPC  C313 6772   0.093   2.618   7.601 -0.0887 -0.0664 -0.4256
   75SLPC  H13X 6773  -0.006   2.629   7.553  0.7910  1.1870 -2.0596
   75SLPC  H13Y 6774   0.115   2.725   7.621 -0.2983 -0.2021  0.6102
   75SLPC  C314 6775   0.087   2.533   7.732  0.0881  0.0494  0.3084
   75SLPC  H14X 6776   0.183   2.542   7.787  0.1398  0.5991  0.1388
   75SLPC  H14Y 6777   0.068   2.427   7.708  2.5248 -1.3243  3.6557
   75SLPC  C315 6778  -0.022   2.575   7.835  0.0164 -0.6182 -0.1147
   75SLPC  H15X 6779  -0.120   2.553   7.786 -0.2868 -1.5056  0.8540
   75SLPC  H15Y 6780  -0.007   2.682   7.860  4.3232 -1.1974  0.4826
   75SLPC  C316 6781  -0.013   2.491   7.958 -0.4883  0.4187 -0.0888
   75SLPC  H16X 6782   0.068   2.528   8.025 -1.2451  0.5520  0.7775
   75SLPC  H16Y 6783   0.023   2.390   7.929  0.9724  0.9638 -0.2683
   75SLPC  C317 6784  -0.154   2.477   8.018 -0.3787 -0.5194  0.6122
   75SLPC  H17X 6785  -0.208   2.408   7.950 -1.5020 -1.6324  2.5535
   75SLPC  H17Y 6786  -0.194   2.580   8.010  1.8288  0.3314 -0.2957
   75SLPC  C318 6787  -0.149   2.434   8.169  0.0909  0.5937  0.1935
   75SLPC  H18X 6788  -0.252   2.419   8.206 -0.1113  1.1395 -0.1333
   75SLPC  H18Y 6789  -0.111   2.513   8.237 -1.7082  1.7431 -0.0621
   75SLPC  H18Z 6790  -0.094   2.340   8.192  0.0930  0.7476  0.8082
   76SLPC     N 6791   2.646   5.691   6.258 -0.2190  0.5057  0.3615
   76SLPC   C13 6792   2.715   5.629   6.138  0.6283  0.4585 -0.4522
   76SLPC  H13A 6793   2.754   5.710   6.079  2.3607  1.7531  2.2576
   76SLPC  H13B 6794   2.801   5.572   6.171  0.7725  2.1764  2.5223
   76SLPC  H13C 6795   2.642   5.564   6.092  0.4680  0.9190 -0.8399
   76SLPC   C14 6796   2.614   5.587   6.354  0.1983 -0.4969 -0.2566
   76SLPC  H14A 6797   2.585   5.623   6.451 -0.2111  0.2881 -0.6566
   76SLPC  H14B 6798   2.536   5.521   6.318  0.7084 -2.2630  1.7212
   76SLPC  H14C 6799   2.703   5.529   6.374  1.2099  1.4502  1.1611
   76SLPC   C15 6800   2.518   5.744   6.220  0.1511 -0.3680 -0.4706
   76SLPC  H15A 6801   2.444   5.666   6.215 -1.3287  1.0476 -1.6310
   76SLPC  H15B 6802   2.482   5.813   6.296  0.6159 -1.3895  0.7117
   76SLPC  H15C 6803   2.520   5.802   6.129  2.2344 -0.1893 -0.3761
   76SLPC   C12 6804   2.743   5.793   6.314  0.0320  0.2767 -0.1411
   76SLPC  H12A 6805   2.836   5.744   6.340 -0.0836 -0.1352 -0.4941
   76SLPC  H12B 6806   2.698   5.834   6.403  1.6887  3.3835 -0.5952
   76SLPC   C11 6807   2.773   5.908   6.221 -0.1900 -0.2815 -0.8444
   76SLPC  H11A 6808   2.677   5.954   6.189  0.3924  0.5495 -1.4286
   76SLPC  H11B 6809   2.820   5.868   6.129  0.5552 -1.4837  0.0227
   76SLPC     P 6810   2.847   6.149   6.297  0.1419  0.1417 -0.1789
   76SLPC   O13 6811   2.928   6.204   6.403  0.1691 -0.1366 -0.4860
   76SLPC   O14 6812   2.854   6.209   6.163  0.1203 -0.0348 -0.7196
   76SLPC   O12 6813   2.871   5.997   6.285  0.1692 -0.2339  0.0465
   76SLPC   O11 6814   2.691   6.159   6.344 -0.2124  0.4957 -0.0303
   76SLPC    C1 6815   2.649   6.222   6.466  0.2218  0.3198 -0.3754
   76SLPC    HA 6816   2.680   6.328   6.457 -2.0778  1.0717 -0.1738
   76SLPC    HB 6817   2.540   6.244   6.461  0.0701 -0.1507  0.6299
   76SLPC    C2 6818   2.665   6.146   6.596 -0.1228 -0.2850 -0.9857
   76SLPC    HS 6819   2.756   6.082   6.599  0.8761  1.0827  1.8523
   76SLPC   O21 6820   2.544   6.083   6.641 -0.2866 -0.2339 -0.2131
   76SLPC   C21 6821   2.550   5.952   6.657 -0.0826 -0.2882  0.1343
   76SLPC   O22 6822   2.640   5.883   6.613 -0.2976 -0.1827 -0.0076
   76SLPC   C22 6823   2.435   5.914   6.745  0.3761 -0.6933 -0.3001
   76SLPC   H2R 6824   2.415   5.982   6.830 -2.2826 -0.5970 -0.9170
   76SLPC   H2S 6825   2.344   5.919   6.682 -0.7635  0.0779  1.3457
   76SLPC    C3 6826   2.692   6.252   6.707 -0.1195  0.0516 -0.5337
   76SLPC    HX 6827   2.596   6.305   6.727  0.4715  2.0373 -2.5025
   76SLPC    HY 6828   2.766   6.325   6.667  1.3621  0.3835  2.4934
   76SLPC   O31 6829   2.748   6.200   6.833  0.6498 -0.0022  0.5940
   76SLPC   C31 6830   2.881   6.217   6.846 -0.0897 -0.2877  0.2393
   76SLPC   O32 6831   2.950   6.265   6.759  0.1598 -0.8404  0.4077
   76SLPC   C32 6832   2.928   6.167   6.978 -0.6433 -0.2243 -0.0541
   76SLPC   H2X 6833   2.913   6.237   7.063 -0.4589 -0.5847  0.2795
   76SLPC   H2Y 6834   3.039   6.167   6.982 -0.3537  3.3263 -2.8663
   76SLPC   C23 6835   2.458   5.770   6.803  0.1027 -0.5960 -0.0900
   76SLPC   H3R 6836   2.531   5.711   6.744 -1.4919 -1.5350 -1.2108
   76SLPC   H3S 6837   2.358   5.725   6.786  0.2843 -0.9675 -0.1884
   76SLPC   C24 6838   2.482   5.768   6.958  0.2073 -0.6181  0.6277
   76SLPC   H4R 6839   2.437   5.854   7.012  1.4616 -0.7686  1.9959
   76SLPC   H4S 6840   2.592   5.776   6.973 -0.0730  0.9768  2.1506
   76SLPC   C25 6841   2.427   5.641   7.024 -0.3117 -0.2539 -0.5827
   76SLPC   H5R 6842   2.464   5.549   6.975 -2.5067 -0.6769 -1.5888
   76SLPC   H5S 6843   2.316   5.646   7.023 -0.4951  0.0996  3.4971
   76SLPC   C26 6844   2.482   5.626   7.167 -0.0658 -0.4826  0.2381
   76SLPC   H6R 6845   2.593   5.636   7.165  0.0276 -1.4504  0.2771
   76SLPC   H6S 6846   2.460   5.524   7.204 -0.7460  0.3403  2.2628
   76SLPC   C27 6847   2.411   5.718   7.272 -0.2469  0.0110 -0.7470
   76SLPC   H7R 6848   2.314   5.744   7.225 -0.9930 -1.1877  0.0900
   76SLPC   H7S 6849   2.465   5.812   7.297 -0.7312  0.1423 -0.1642
   76SLPC   C28 6850   2.387   5.647   7.406  0.2452  0.2126 -0.2245
   76SLPC   H8R 6851   2.326   5.721   7.462  1.1250  0.6439  0.1684
   76SLPC   H8S 6852   2.329   5.554   7.390 -0.1652  0.4770 -0.2948
   76SLPC   C29 6853   2.513   5.628   7.481  0.0814  0.3952 -0.1384
   76SLPC   H9R 6854   2.568   5.540   7.444 -1.3797 -1.3118  1.5218
   76SLPC  C210 6855   2.552   5.695   7.594  0.2713  0.8287  0.3478
   76SLPC  H10R 6856   2.643   5.655   7.642  0.3938  1.5770  0.7513
   76SLPC  C211 6857   2.479   5.803   7.668 -0.0263  0.5323  0.3586
   76SLPC  H11R 6858   2.374   5.811   7.633  0.1320  1.5276  0.0973
   76SLPC  H11S 6859   2.527   5.899   7.640  0.5823  0.3341  0.7019
   76SLPC  C212 6860   2.476   5.764   7.813  0.6340 -0.7560  0.1942
   76SLPC  H12R 6861   2.462   5.656   7.834 -0.7173 -0.7891 -0.7527
   76SLPC  C213 6862   2.482   5.855   7.911 -0.6226  0.1563 -0.8679
   76SLPC  H13R 6863   2.484   5.818   8.015  2.1235  2.0632 -0.1535
   76SLPC  C214 6864   2.472   6.003   7.883 -0.5601 -0.5877  0.0929
   76SLPC  H14R 6865   2.418   6.014   7.787  0.3883  0.6017 -0.3344
   76SLPC  H14S 6866   2.572   6.046   7.860  0.1710 -1.6813  1.1132
   76SLPC  C215 6867   2.388   6.081   7.977 -0.2273 -0.0909 -0.7020
   76SLPC  H15R 6868   2.283   6.045   7.982 -0.1683 -0.1132  2.3500
   76SLPC  H15S 6869   2.388   6.183   7.933  2.4137 -0.3216 -1.3968
   76SLPC  C216 6870   2.445   6.091   8.118  0.1752  0.5415  0.1876
   76SLPC  H16R 6871   2.551   6.121   8.103  0.3184  1.1965  2.2677
   76SLPC  H16S 6872   2.453   5.993   8.170 -1.1568  1.0142  1.3609
   76SLPC  C217 6873   2.378   6.197   8.194 -0.4555 -0.6298 -0.7409
   76SLPC  H17R 6874   2.284   6.168   8.245  0.2827 -2.1646 -0.1889
   76SLPC  H17S 6875   2.347   6.272   8.118  0.5488 -0.1716 -0.7078
   76SLPC  C218 6876   2.479   6.275   8.287  0.4960 -0.0303  0.9489
   76SLPC  H18R 6877   2.586   6.274   8.255  1.1880  0.1153  3.0729
   76SLPC  H18S 6878   2.494   6.218   8.381  0.3812  0.3756  1.2151
   76SLPC  H18T 6879   2.438   6.378   8.292 -1.0004 -0.4694 -1.0306
   76SLPC   C33 6880   2.866   6.030   7.017  0.2825  0.0348  0.1909
   76SLPC   H3X 6881   2.850   5.978   6.921 -3.3480 -1.2567  1.3346
   76SLPC   H3Y 6882   2.769   6.053   7.066  0.3518  0.4555  0.1281
   76SLPC   C34 6883   2.954   5.951   7.109 -0.1254  0.6425  0.5187
   76SLPC   H4X 6884   3.049   5.923   7.060  0.0873 -0.8144  1.6835
   76SLPC   H4Y 6885   2.904   5.857   7.142  0.1458 -0.6357 -2.3689
   76SLPC   C35 6886   2.992   6.026   7.237  0.0303  0.4513 -0.2360
   76SLPC   H5X 6887   3.039   6.120   7.202  3.1425 -1.3161 -1.1980
   76SLPC   H5Y 6888   3.064   5.960   7.290  1.7213  2.2813 -0.1490
   76SLPC   C36 6889   2.870   6.041   7.334  0.5784  0.2967 -0.5812
   76SLPC   H6X 6890   2.847   5.937   7.368 -0.4860  0.9043  0.6410
   76SLPC   H6Y 6891   2.780   6.071   7.278 -0.4021  1.2996  1.4243
   76SLPC   C37 6892   2.891   6.127   7.455  0.4765 -0.4833 -0.5984
   76SLPC   H7X 6893   2.831   6.221   7.454 -0.8332 -1.2934 -0.5613
   76SLPC   H7Y 6894   2.998   6.155   7.456  0.3618  0.0034 -1.3922
   76SLPC   C38 6895   2.877   6.044   7.590 -0.0191  0.0140 -0.6287
   76SLPC   H8X 6896   2.934   5.949   7.579  0.2928  0.2061 -0.6867
   76SLPC   H8Y 6897   2.768   6.026   7.596 -0.0524 -0.7462 -2.7096
   76SLPC   C39 6898   2.931   6.106   7.720  0.4940 -0.5763  0.2441
   76SLPC   H9X 6899   2.893   6.209   7.737  0.3140 -0.2838 -1.7085
   76SLPC   H9Y 6900   3.042   6.116   7.712  0.4919 -1.3412 -1.2121
   76SLPC  C310 6901   2.902   6.015   7.842 -0.1064 -0.5906  0.0197
   76SLPC  H10X 6902   2.997   5.960   7.858 -0.2103 -0.2936  1.9188
   76SLPC  H10Y 6903   2.816   5.947   7.823 -0.3968 -0.1209 -0.3787
   76SLPC  C311 6904   2.863   6.097   7.972 -0.0043 -0.0199  0.6427
   76SLPC  H11X 6905   2.764   6.146   7.961  0.0368  0.0334  0.5090
   76SLPC  H11Y 6906   2.941   6.175   7.984  0.7086 -0.1053 -2.6265
   76SLPC  C312 6907   2.833   6.006   8.094  0.1055  0.0304  0.2238
   76SLPC  H12X 6908   2.913   5.931   8.110  0.0143  0.0828  0.9670
   76SLPC  H12Y 6909   2.737   5.951   8.079  0.9481 -1.1490 -1.1263
   76SLPC  C313 6910   2.839   6.093   8.217  0.0539 -0.7760 -0.0691
   76SLPC  H13X 6911   2.756   6.165   8.202  1.0585  0.0785 -1.9753
   76SLPC  H13Y 6912   2.935   6.148   8.215 -0.1906 -0.2048 -3.4838
   76SLPC  C314 6913   2.812   6.010   8.343 -0.1672  0.3043 -0.4472
   76SLPC  H14X 6914   2.886   5.933   8.376  0.7772  1.6789  0.7526
   76SLPC  H14Y 6915   2.713   5.960   8.335  0.2509 -0.5101 -0.7229
   76SLPC  C315 6916   2.792   6.097   8.470 -0.2945 -0.1738 -0.4706
   76SLPC  H15X 6917   2.726   6.185   8.452  0.1811 -0.0517 -1.6558
   76SLPC  H15Y 6918   2.888   6.149   8.491 -0.3620 -0.7318  1.4011
   76SLPC  C316 6919   2.756   6.024   8.595 -0.0122 -0.3543  0.4976
   76SLPC  H16X 6920   2.807   5.925   8.602 -1.0545 -0.8415  1.4221
   76SLPC  H16Y 6921   2.648   6.003   8.588 -0.2718  0.6805  1.2402
   76SLPC  C317 6922   2.767   6.095   8.729  0.7900 -0.4040  0.0686
   76SLPC  H17X 6923   2.727   6.197   8.708  3.6567  0.3825 -2.2258
   76SLPC  H17Y 6924   2.868   6.109   8.773  1.2880 -1.1690 -0.8095
   76SLPC  C318 6925   2.685   6.024   8.834 -0.4036 -0.1806  0.1317
   76SLPC  H18X 6926   2.742   5.931   8.858 -0.0158 -0.6092 -2.2223
   76SLPC  H18Y 6927   2.585   6.007   8.788 -0.6403  2.0483 -0.2757
   76SLPC  H18Z 6928   2.673   6.088   8.924 -0.2158  1.7691 -1.1940
   77SLPC     N 6929   6.762   2.380   5.839  0.2271  0.4034  0.0622
   77SLPC   C13 6930   6.701   2.506   5.790  0.0829  0.1376 -0.8069
   77SLPC  H13A 6931   6.595   2.493   5.769 -0.4034  0.8731  1.0067
   77SLPC  H13B 6932   6.698   2.579   5.869 -4.3306 -1.1117  0.4599
   77SLPC  H13C 6933   6.748   2.548   5.702 -0.5524  1.1837 -0.6671
   77SLPC   C14 6934   6.739   2.292   5.718  0.0066  0.1347 -0.3784
   77SLPC  H14A 6935   6.801   2.328   5.637 -0.4484 -0.3496 -0.9481
   77SLPC  H14B 6936   6.770   2.189   5.730  0.2047  0.4050  1.8621
   77SLPC  H14C 6937   6.632   2.294   5.705 -0.1035  1.2158  0.5847
   77SLPC   C15 6938   6.675   2.330   5.952  0.1518  0.0014  0.3194
   77SLPC  H15A 6939   6.692   2.392   6.039 -2.1363  1.2400 -0.0220
   77SLPC  H15B 6940   6.571   2.335   5.922  0.3735 -2.9389 -1.3809
   77SLPC  H15C 6941   6.696   2.227   5.977  0.5136  0.0396  0.1797
   77SLPC   C12 6942   6.909   2.399   5.867 -0.1542 -0.6599 -0.0407
   77SLPC  H12A 6943   6.973   2.398   5.780  0.3450 -1.5117  0.3228
   77SLPC  H12B 6944   6.951   2.317   5.923 -2.6215 -2.9371 -1.2827
   77SLPC   C11 6945   6.943   2.525   5.953 -0.0734  0.0611  0.3585
   77SLPC  H11A 6946   6.923   2.625   5.909  1.5682  1.1996  2.0607
   77SLPC  H11B 6947   7.052   2.515   5.973  0.2216  2.4387  0.2308
   77SLPC     P 6948   6.942   2.425   6.193  0.1967  0.0366  0.2633
   77SLPC   O13 6949   6.830   2.411   6.291 -0.7283 -0.2595 -0.2599
   77SLPC   O14 6950   6.996   2.298   6.137 -0.0109 -0.1007 -0.4473
   77SLPC   O12 6951   6.879   2.512   6.081 -0.0825 -0.4441  0.2715
   77SLPC   O11 6952   7.060   2.517   6.249  0.4990  0.3566 -0.0523
   77SLPC    C1 6953   7.038   2.643   6.302  0.4130  0.0901  0.1262
   77SLPC    HA 6954   7.091   2.724   6.247  2.1692 -0.3454  1.1126
   77SLPC    HB 6955   6.929   2.663   6.305  0.6336  1.2711  0.9895
   77SLPC    C2 6956   7.096   2.661   6.440  0.8457 -0.3418  0.0501
   77SLPC    HS 6957   7.207   2.656   6.449  0.7293 -1.4476  1.2129
   77SLPC   O21 6958   7.034   2.564   6.525  0.4058  0.3549  0.3492
   77SLPC   C21 6959   7.097   2.444   6.538  0.2815 -0.4555 -0.3965
   77SLPC   O22 6960   7.207   2.418   6.491  0.1443  0.1896 -0.1873
   77SLPC   C22 6961   6.994   2.350   6.593 -0.1719 -0.1849  0.0463
   77SLPC   H2R 6962   6.899   2.404   6.617 -0.3706  0.5730 -2.2468
   77SLPC   H2S 6963   6.967   2.286   6.507  1.5640 -0.6396 -0.1871
   77SLPC    C3 6964   7.051   2.809   6.485  0.0138  1.2528  0.0521
   77SLPC    HX 6965   6.953   2.836   6.440 -0.2252  0.7875  0.2816
   77SLPC    HY 6966   7.118   2.879   6.431  1.2381  0.4081  0.4349
   77SLPC   O31 6967   7.056   2.835   6.627  0.0461  0.2868  0.7117
   77SLPC   C31 6968   6.940   2.839   6.696 -0.1830 -0.0468  0.6670
   77SLPC   O32 6969   6.828   2.811   6.649  0.0193 -0.0306 -0.1478
   77SLPC   C32 6970   6.977   2.846   6.847  0.3404 -0.7091 -0.3624
   77SLPC   H2X 6971   7.077   2.895   6.850  0.2373 -0.5123 -0.1071
   77SLPC   H2Y 6972   6.977   2.745   6.892 -2.6774 -0.5015  0.3386
   77SLPC   C23 6973   7.035   2.253   6.703  0.0417 -0.0140 -0.6775
   77SLPC   H3R 6974   7.127   2.196   6.677 -2.6092 -3.7735 -2.7215
   77SLPC   H3S 6975   6.952   2.180   6.711 -0.1955  0.3807  0.6710
   77SLPC   C24 6976   7.036   2.317   6.846  0.4849 -0.4305 -0.0799
   77SLPC   H4R 6977   6.934   2.357   6.867  0.5599  0.7868 -1.8975
   77SLPC   H4S 6978   7.111   2.398   6.857  0.9629 -0.7518 -0.8636
   77SLPC   C25 6979   7.071   2.217   6.957 -0.6062  0.0567 -0.5604
   77SLPC   H5R 6980   7.177   2.187   6.939  0.2324  2.1370  0.5644
   77SLPC   H5S 6981   7.003   2.130   6.940  0.8874 -1.4340  0.7119
   77SLPC   C26 6982   7.071   2.259   7.107  0.4686  0.5939 -0.1078
   77SLPC   H6R 6983   6.977   2.317   7.114  0.4907  1.1712 -3.1923
   77SLPC   H6S 6984   7.155   2.329   7.129  0.3475  0.7467 -0.1345
   77SLPC   C27 6985   7.076   2.154   7.216  0.5171  0.1161 -0.3288
   77SLPC   H7R 6986   7.167   2.096   7.188  0.4991 -1.3783  2.3431
   77SLPC   H7S 6987   6.990   2.090   7.188 -0.4853  0.5403  1.6006
   77SLPC   C28 6988   7.079   2.198   7.362  0.0133  0.3859  0.3965
   77SLPC   H8R 6989   6.983   2.252   7.376 -0.2972 -0.4817  1.7841
   77SLPC   H8S 6990   7.158   2.275   7.379 -1.3010  1.9349 -0.2743
   77SLPC   C29 6991   7.101   2.071   7.444 -0.7288  0.6052 -0.4326
   77SLPC   H9R 6992   7.091   1.973   7.396 -1.1278  0.9490 -1.0773
   77SLPC  C210 6993   7.139   2.078   7.568 -0.4569 -0.2311 -0.2523
   77SLPC  H10R 6994   7.154   1.982   7.620  0.4818  0.0023 -0.0700
   77SLPC  C211 6995   7.169   2.202   7.657  0.6633  0.2830  0.2483
   77SLPC  H11R 6996   7.093   2.197   7.738  2.3089 -0.8921  1.8017
   77SLPC  H11S 6997   7.142   2.298   7.608 -0.8817  0.5359  1.5331
   77SLPC  C212 6998   7.309   2.204   7.708  0.1372  0.2347 -0.5979
   77SLPC  H12R 6999   7.367   2.113   7.691 -0.6487 -1.1114  2.9108
   77SLPC  C213 7000   7.361   2.292   7.791  0.4985  0.0895 -0.6529
   77SLPC  H13R 7001   7.460   2.274   7.835 -0.2025 -1.2356  0.4866
   77SLPC  C214 7002   7.293   2.412   7.849 -0.0114 -0.2444  0.0471
   77SLPC  H14R 7003   7.195   2.436   7.803 -0.1440 -1.3516 -0.2772
   77SLPC  H14S 7004   7.360   2.499   7.833 -0.1201 -0.4060 -1.3769
   77SLPC  C215 7005   7.270   2.401   8.000  0.6669 -0.2186 -0.6454
   77SLPC  H15R 7006   7.223   2.498   8.025  0.3856 -0.4213 -0.3701
   77SLPC  H15S 7007   7.366   2.407   8.055 -0.1324  1.9104  0.6216
   77SLPC  C216 7008   7.173   2.290   8.047 -0.0806  0.2850  0.0870
   77SLPC  H16R 7009   7.221   2.192   8.026 -1.0703  0.3315 -2.7413
   77SLPC  H16S 7010   7.076   2.301   7.994 -1.8823 -2.9528  2.2915
   77SLPC  C217 7011   7.146   2.296   8.194 -0.3780 -0.6379 -0.1676
   77SLPC  H17R 7012   7.234   2.251   8.245  1.2098  1.4420 -0.9336
   77SLPC  H17S 7013   7.053   2.237   8.209 -1.2099  0.6417 -0.1717
   77SLPC  C218 7014   7.104   2.427   8.263 -0.2804  0.8718  0.2836
   77SLPC  H18R 7015   7.188   2.497   8.249  0.1396 -0.0144 -2.0800
   77SLPC  H18S 7016   7.058   2.412   8.364 -3.2934 -0.3426 -1.1272
   77SLPC  H18T 7017   7.028   2.465   8.192  0.6689 -2.0212 -2.5401
   77SLPC   C33 7018   6.890   2.946   6.925 -0.2344 -0.9006 -0.2976
   77SLPC   H3X 7019   6.784   2.928   6.895 -0.5170  0.5679 -0.2814
   77SLPC   H3Y 7020   6.902   3.051   6.890  0.1477 -1.1587 -0.9492
   77SLPC   C34 7021   6.908   2.941   7.084  0.4679  0.8200  0.8261
   77SLPC   H4X 7022   6.993   3.006   7.115  1.7528 -0.4452  0.1147
   77SLPC   H4Y 7023   6.925   2.836   7.117  1.7270  0.2556 -1.3436
   77SLPC   C35 7024   6.774   3.003   7.141  0.6612 -0.1758 -0.1252
   77SLPC   H5X 7025   6.681   2.965   7.094  1.6256  0.1957 -2.4492
   77SLPC   H5Y 7026   6.780   3.113   7.121  2.5402 -0.1042  0.6855
   77SLPC   C36 7027   6.769   2.974   7.284  0.2801  1.1870  0.7809
   77SLPC   H6X 7028   6.812   2.872   7.298 -1.3934  0.6616  2.7126
   77SLPC   H6Y 7029   6.662   2.975   7.314  0.0357 -1.6044  0.3047
   77SLPC   C37 7030   6.848   3.070   7.376  0.3760 -0.3759  0.5846
   77SLPC   H7X 7031   6.802   3.170   7.361 -0.9764 -1.2107 -1.1511
   77SLPC   H7Y 7032   6.957   3.064   7.354  0.3411 -2.3534  0.7512
   77SLPC   C38 7033   6.838   3.034   7.529  0.7296  0.3170 -0.1256
   77SLPC   H8X 7034   6.907   3.097   7.589 -1.2290  1.3951  1.1255
   77SLPC   H8Y 7035   6.879   2.933   7.549 -1.3236 -0.1515  2.1639
   77SLPC   C39 7036   6.699   3.046   7.586  0.2365 -0.0402  0.6397
   77SLPC   H9X 7037   6.623   2.995   7.524 -0.5396  0.8032  0.8687
   77SLPC   H9Y 7038   6.665   3.151   7.600  1.8323  0.4949  0.6583
   77SLPC  C310 7039   6.693   2.977   7.730  0.7279  0.3686  1.4894
   77SLPC  H10X 7040   6.778   3.020   7.788 -1.0095  2.8139  2.3957
   77SLPC  H10Y 7041   6.704   2.869   7.706  0.8611  0.3201  1.7715
   77SLPC  C311 7042   6.568   3.011   7.808  0.0616  0.7809  0.0437
   77SLPC  H11X 7043   6.479   2.963   7.763  1.3889  0.5101 -2.4856
   77SLPC  H11Y 7044   6.547   3.121   7.810 -0.7983  0.6331 -0.4899
   77SLPC  C312 7045   6.570   2.960   7.958 -0.2219 -0.3695 -0.0509
   77SLPC  H12X 7046   6.646   3.025   8.006 -1.6529 -0.2337  2.1800
   77SLPC  H12Y 7047   6.598   2.853   7.968  0.1297 -0.4357 -1.4843
   77SLPC  C313 7048   6.433   2.982   8.034 -0.0064  0.0243 -0.5406
   77SLPC  H13X 7049   6.355   2.916   7.989  0.7994 -0.9762 -0.5007
   77SLPC  H13Y 7050   6.412   3.090   8.014 -0.8892  0.0476  0.4212
   77SLPC  C314 7051   6.441   2.944   8.177  0.5489  0.5741  0.4341
   77SLPC  H14X 7052   6.520   3.007   8.223  1.6800  1.7648 -2.8428
   77SLPC  H14Y 7053   6.466   2.836   8.177  3.1231  1.1018  0.3296
   77SLPC  C315 7054   6.307   2.985   8.240 -0.0671  0.5079 -0.2655
   77SLPC  H15X 7055   6.220   2.972   8.173  2.0735  0.2091 -3.1759
   77SLPC  H15Y 7056   6.315   3.095   8.258 -1.0876  0.4918  0.3887
   77SLPC  C316 7057   6.272   2.910   8.374 -0.0060  0.8962 -0.5971
   77SLPC  H16X 7058   6.360   2.913   8.442 -1.8718  0.5490  1.9893
   77SLPC  H16Y 7059   6.253   2.802   8.356  2.3606  0.1672  0.7375
   77SLPC  C317 7060   6.144   2.950   8.444 -0.4383  0.1712  0.1489
   77SLPC  H17X 7061   6.123   2.865   8.514 -1.2235 -0.8989 -1.3405
   77SLPC  H17Y 7062   6.066   2.948   8.366 -0.1399 -2.3147 -0.1809
   77SLPC  C318 7063   6.143   3.079   8.521  0.6072 -0.7325 -0.0793
   77SLPC  H18X 7064   6.159   3.154   8.441 -1.7996  0.4029  0.4057
   77SLPC  H18Y 7065   6.225   3.084   8.596  1.7274  1.0880 -1.3576
   77SLPC  H18Z 7066   6.044   3.092   8.570  0.8293  0.0081  0.1803
   78SLPC     N 7067   1.297   0.343   6.296 -0.1983 -0.1924  1.1625
   78SLPC   C13 7068   1.186   0.269   6.230  0.3898  0.2142  0.1028
   78SLPC  H13A 7069   1.129   0.208   6.298  0.5167 -1.6904 -1.4114
   78SLPC  H13B 7070   1.122   0.329   6.167 -1.8524  1.1391  3.0314
   78SLPC  H13C 7071   1.228   0.188   6.172 -0.5297 -1.0537  1.1411
   78SLPC   C14 7072   1.376   0.420   6.192 -0.6568 -0.2774  0.4249
   78SLPC  H14A 7073   1.429   0.354   6.125 -0.3728 -1.4054  1.7118
   78SLPC  H14B 7074   1.310   0.478   6.129  1.9509  0.2413 -2.0864
   78SLPC  H14C 7075   1.450   0.479   6.244 -0.2051 -0.9789  0.5903
   78SLPC   C15 7076   1.398   0.251   6.358 -0.8367  0.1902 -0.3379
   78SLPC  H15A 7077   1.354   0.207   6.447 -2.0313  0.9450 -0.5312
   78SLPC  H15B 7078   1.420   0.169   6.292 -1.3087  0.2335 -0.5521
   78SLPC  H15C 7079   1.484   0.308   6.389  0.0290 -0.8510 -0.7799
   78SLPC   C12 7080   1.247   0.439   6.407 -0.5320 -0.1693  0.0778
   78SLPC  H12A 7081   1.329   0.502   6.438 -1.5765  1.2790  0.0319
   78SLPC  H12B 7082   1.210   0.379   6.488 -0.9351 -2.2490 -1.5631
   78SLPC   C11 7083   1.130   0.540   6.365  0.1617 -0.9172  0.4522
   78SLPC  H11A 7084   1.074   0.570   6.456 -0.5761 -0.1443 -0.2450
   78SLPC  H11B 7085   1.056   0.484   6.304 -0.8809 -0.5689  1.3640
   78SLPC     P 7086   1.240   0.781   6.369 -0.4380 -0.1929 -0.3925
   78SLPC   O13 7087   1.294   0.873   6.268 -0.2007 -0.4004  0.3839
   78SLPC   O14 7088   1.135   0.829   6.457 -0.2456  0.1046 -0.2532
   78SLPC   O12 7089   1.176   0.654   6.294 -0.3743 -0.0351 -0.3763
   78SLPC   O11 7090   1.355   0.725   6.455  0.0423 -0.0714 -0.7445
   78SLPC    C1 7091   1.407   0.805   6.561  0.0049 -0.4319 -1.1885
   78SLPC    HA 7092   1.515   0.812   6.539  0.0917  0.3025 -0.5402
   78SLPC    HB 7093   1.375   0.911   6.567  1.1102 -0.1812  1.7618
   78SLPC    C2 7094   1.383   0.731   6.689  0.7277 -1.5062 -0.6727
   78SLPC    HS 7095   1.457   0.648   6.686  1.8178 -0.5535 -3.2029
   78SLPC   O21 7096   1.250   0.681   6.686  0.1260 -0.3328 -0.4532
   78SLPC   C21 7097   1.237   0.580   6.776 -0.1887  0.2756  0.2358
   78SLPC   O22 7098   1.329   0.507   6.809 -0.3839 -0.7589 -0.4761
   78SLPC   C22 7099   1.087   0.566   6.810 -0.2709 -0.3486  0.5960
   78SLPC   H2R 7100   1.059   0.659   6.864  1.7246  0.9231 -0.4165
   78SLPC   H2S 7101   1.027   0.559   6.716  1.8094 -0.5021 -0.7905
   78SLPC    C3 7102   1.394   0.820   6.813 -0.6090 -0.6002  0.8082
   78SLPC    HX 7103   1.326   0.907   6.806  1.4808  0.9907 -2.1879
   78SLPC    HY 7104   1.488   0.879   6.803 -0.7316 -0.2618  1.5860
   78SLPC   O31 7105   1.389   0.760   6.938  0.1419 -0.6147  0.1612
   78SLPC   C31 7106   1.497   0.688   6.976 -0.3766 -0.2624 -0.8279
   78SLPC   O32 7107   1.600   0.665   6.910 -0.2130 -0.8915 -0.0616
   78SLPC   C32 7108   1.468   0.639   7.116 -0.4361 -0.1768 -0.4825
   78SLPC   H2X 7109   1.372   0.583   7.108 -0.0131 -0.6314 -3.6842
   78SLPC   H2Y 7110   1.440   0.729   7.173  0.3191 -0.6709  0.7041
   78SLPC   C23 7111   1.048   0.456   6.902  0.4478  0.3256  0.4197
   78SLPC   H3R 7112   1.050   0.357   6.852 -0.9828  1.0112 -1.1039
   78SLPC   H3S 7113   0.939   0.464   6.925  0.1172  1.0864 -1.2777
   78SLPC   C24 7114   1.134   0.457   7.027 -0.2833 -0.4468  0.1983
   78SLPC   H4R 7115   1.149   0.564   7.051 -0.7103 -0.4505  0.4836
   78SLPC   H4S 7116   1.233   0.410   7.008  0.2057  0.3061  0.8515
   78SLPC   C25 7117   1.077   0.381   7.147 -0.5106  0.4929  0.0381
   78SLPC   H5R 7118   1.054   0.273   7.132 -2.1657  1.0377 -1.7856
   78SLPC   H5S 7119   0.975   0.423   7.157  0.0390  2.2515 -1.2457
   78SLPC   C26 7120   1.152   0.417   7.278 -0.3422  0.3368  0.2752
   78SLPC   H6R 7121   1.170   0.527   7.284  3.1007 -0.1930  3.3013
   78SLPC   H6S 7122   1.245   0.359   7.267 -0.1968  0.7042 -0.5049
   78SLPC   C27 7123   1.070   0.370   7.401 -0.5401  0.1247 -0.2354
   78SLPC   H7R 7124   1.063   0.259   7.403 -1.5826  0.1930 -0.0567
   78SLPC   H7S 7125   0.969   0.413   7.412 -0.4132  0.6156 -0.9161
   78SLPC   C28 7126   1.157   0.386   7.531 -0.9541  0.1499  0.6131
   78SLPC   H8R 7127   1.156   0.497   7.542  0.4292  0.1127  1.3984
   78SLPC   H8S 7128   1.258   0.350   7.504 -2.0821 -1.8973 -1.1841
   78SLPC   C29 7129   1.102   0.315   7.649  0.1455 -0.2820 -0.1473
   78SLPC   H9R 7130   1.048   0.221   7.630  0.3354 -0.6006  0.8387
   78SLPC  C210 7131   1.110   0.363   7.777  0.1779  0.7234  0.2097
   78SLPC  H10R 7132   1.064   0.301   7.855 -2.0689  0.6807 -1.0596
   78SLPC  C211 7133   1.172   0.490   7.827  0.9187 -0.2822 -0.0274
   78SLPC  H11R 7134   1.089   0.557   7.858 -0.5141 -2.4202  0.9759
   78SLPC  H11S 7135   1.225   0.531   7.739 -1.8184 -0.8213 -2.0544
   78SLPC  C212 7136   1.257   0.463   7.944 -0.3619 -1.0377  0.5334
   78SLPC  H12R 7137   1.342   0.395   7.926  0.1634 -0.2324 -0.1364
   78SLPC  C213 7138   1.249   0.512   8.063 -0.4264  0.7721 -0.6044
   78SLPC  H13R 7139   1.329   0.483   8.133 -0.8512  3.4978  1.2003
   78SLPC  C214 7140   1.149   0.611   8.119 -0.1122 -0.1781 -0.0971
   78SLPC  H14R 7141   1.057   0.549   8.136  0.8953 -1.6669  0.1384
   78SLPC  H14S 7142   1.125   0.682   8.037  0.2625 -1.2806 -1.1821
   78SLPC  C215 7143   1.187   0.685   8.245 -0.3302 -0.2985  0.4358
   78SLPC  H15R 7144   1.286   0.736   8.235 -0.7855  0.2972 -1.3431
   78SLPC  H15S 7145   1.207   0.608   8.323  0.7360 -0.7804 -0.2779
   78SLPC  C216 7146   1.076   0.776   8.300 -0.1661 -0.6592  0.3612
   78SLPC  H16R 7147   0.979   0.722   8.309 -0.3301 -0.5490 -0.6342
   78SLPC  H16S 7148   1.063   0.860   8.229  0.8089 -0.4405  0.4199
   78SLPC  C217 7149   1.095   0.828   8.440 -0.1908  0.1952 -0.3046
   78SLPC  H17R 7150   1.190   0.884   8.449  0.9779 -1.4191 -1.9638
   78SLPC  H17S 7151   1.094   0.744   8.513  2.3731 -0.1729 -0.6164
   78SLPC  C218 7152   0.978   0.915   8.493 -0.0930  0.7508  0.0445
   78SLPC  H18R 7153   0.978   1.020   8.458  0.5019  1.0365  0.8698
   78SLPC  H18S 7154   0.980   0.925   8.604 -2.7762 -2.7485  0.6000
   78SLPC  H18T 7155   0.875   0.875   8.480  0.1480 -0.3821  1.3681
   78SLPC   C33 7156   1.585   0.570   7.192  0.1702  0.2230 -0.5744
   78SLPC   H3X 7157   1.676   0.630   7.214  1.3789 -2.3166  2.0581
   78SLPC   H3Y 7158   1.599   0.486   7.121 -0.5520 -0.0380 -0.4253
   78SLPC   C34 7159   1.525   0.510   7.323 -0.1155  0.1406 -0.2192
   78SLPC   H4X 7160   1.456   0.428   7.293 -0.6659  0.2083  0.7957
   78SLPC   H4Y 7161   1.467   0.590   7.375 -0.1791 -1.1128  1.7523
   78SLPC   C35 7162   1.639   0.476   7.423  1.0977 -0.1593 -0.2308
   78SLPC   H5X 7163   1.736   0.466   7.369  0.8910 -1.7736 -0.3808
   78SLPC   H5Y 7164   1.627   0.374   7.467 -1.8734  0.6595  1.1576
   78SLPC   C36 7165   1.641   0.568   7.546  0.4819 -0.4107  0.3169
   78SLPC   H6X 7166   1.647   0.671   7.503 -1.5864  0.2322  1.4345
   78SLPC   H6Y 7167   1.731   0.558   7.611  1.1983  0.2140 -0.5556
   78SLPC   C37 7168   1.512   0.560   7.638 -0.0583  0.9383 -0.2572
   78SLPC   H7X 7169   1.506   0.457   7.680 -0.3210  0.2471 -1.8896
   78SLPC   H7Y 7170   1.422   0.587   7.579 -0.1322  0.3196 -0.4376
   78SLPC   C38 7171   1.516   0.669   7.759  0.8678  0.2646 -0.7469
   78SLPC   H8X 7172   1.419   0.657   7.811  1.4668 -1.0078  0.1281
   78SLPC   H8Y 7173   1.527   0.769   7.711  0.8682 -0.1709 -1.6778
   78SLPC   C39 7174   1.625   0.631   7.851 -0.5799  0.3876  0.3474
   78SLPC   H9X 7175   1.728   0.653   7.814 -0.2036  0.3697  1.3449
   78SLPC   H9Y 7176   1.627   0.523   7.876  1.9391  0.2200 -0.3028
   78SLPC  C310 7177   1.623   0.711   7.978  0.1578 -0.6196 -0.0845
   78SLPC  H10X 7178   1.541   0.658   8.031  2.0391 -2.3592  1.2145
   78SLPC  H10Y 7179   1.581   0.813   7.958  0.5731 -0.1805  1.1785
   78SLPC  C311 7180   1.753   0.707   8.063  0.5180  0.1796  0.0993
   78SLPC  H11X 7181   1.834   0.765   8.015  1.6880 -1.4790 -0.0118
   78SLPC  H11Y 7182   1.787   0.603   8.083 -0.7762 -0.3253 -0.1911
   78SLPC  C312 7183   1.721   0.773   8.203 -0.8998  0.2273 -0.3097
   78SLPC  H12X 7184   1.647   0.717   8.264 -0.0358 -0.1268  0.4362
   78SLPC  H12Y 7185   1.679   0.875   8.190 -0.9584 -0.0357 -2.6161
   78SLPC  C313 7186   1.857   0.775   8.280  0.3276  0.0776 -0.2784
   78SLPC  H13X 7187   1.926   0.840   8.221  0.6612 -0.3740 -0.3869
   78SLPC  H13Y 7188   1.901   0.673   8.281  1.9348  0.7448  0.0016
   78SLPC  C314 7189   1.834   0.810   8.425 -0.6239  0.2888  0.1884
   78SLPC  H14X 7190   1.785   0.729   8.483  0.7992  0.8540  2.3123
   78SLPC  H14Y 7191   1.780   0.907   8.431  1.4781  1.6489 -1.3583
   78SLPC  C315 7192   1.961   0.849   8.496  0.0839 -0.1771 -1.0936
   78SLPC  H15X 7193   2.006   0.936   8.445 -1.3363  0.4534 -1.2951
   78SLPC  H15Y 7194   2.037   0.768   8.488  1.7950  1.3168 -0.6884
   78SLPC  C316 7195   1.939   0.889   8.640 -0.6609  0.4730  0.1019
   78SLPC  H16X 7196   1.829   0.890   8.650 -0.6833 -1.3618  0.4778
   78SLPC  H16Y 7197   1.976   0.993   8.649 -0.7499  0.4744  0.4686
   78SLPC  C317 7198   2.014   0.805   8.738  0.3937  0.5406 -0.4907
   78SLPC  H17X 7199   2.005   0.698   8.708  0.3766  1.0145 -2.2693
   78SLPC  H17Y 7200   1.964   0.803   8.838  1.5681 -0.7797  0.1019
   78SLPC  C318 7201   2.156   0.853   8.748  0.7981  0.5357  0.2379
   78SLPC  H18X 7202   2.206   0.861   8.649 -0.1267 -1.0758 -0.3982
   78SLPC  H18Y 7203   2.218   0.779   8.803 -1.4075 -0.4809  1.5061
   78SLPC  H18Z 7204   2.160   0.950   8.803  0.1505  0.0234  1.2142
   79SLPC     N 7205   6.415   4.342   6.207  0.1815 -0.0054  0.7550
   79SLPC   C13 7206   6.301   4.427   6.167  0.5904 -0.5327  0.0540
   79SLPC  H13A 7207   6.291   4.510   6.236 -1.0141 -0.5372 -0.1413
   79SLPC  H13B 7208   6.318   4.473   6.070  1.1182  0.4142  0.5787
   79SLPC  H13C 7209   6.203   4.382   6.169  0.3318  0.0340  2.0438
   79SLPC   C14 7210   6.405   4.321   6.360  0.3436  0.0264  0.6581
   79SLPC  H14A 7211   6.306   4.287   6.386 -0.5209  2.0988  0.3517
   79SLPC  H14B 7212   6.477   4.245   6.385  0.9381  0.7208  1.1009
   79SLPC  H14C 7213   6.423   4.413   6.414  1.0040  1.4352 -1.7848
   79SLPC   C15 7214   6.544   4.412   6.179  0.4018 -0.3193 -0.3116
   79SLPC  H15A 7215   6.558   4.432   6.073 -0.1589  0.8769 -0.1755
   79SLPC  H15B 7216   6.549   4.503   6.237 -0.1019  0.7575 -1.8756
   79SLPC  H15C 7217   6.632   4.366   6.220 -0.5284 -0.2492  1.9023
   79SLPC   C12 7218   6.403   4.213   6.124 -0.9490 -0.2990 -0.4335
   79SLPC  H12A 7219   6.420   4.238   6.020 -1.0612  0.5171 -0.2571
   79SLPC  H12B 7220   6.303   4.174   6.134 -0.3793 -1.8054 -0.3314
   79SLPC   C11 7221   6.499   4.093   6.154  0.0678  0.4300 -0.0999
   79SLPC  H11A 7222   6.598   4.129   6.191 -0.2027  2.1264 -0.9648
   79SLPC  H11B 7223   6.518   4.039   6.059 -0.6056  2.5699 -1.5258
   79SLPC     P 7224   6.353   3.884   6.223  0.1719  0.5866  0.0397
   79SLPC   O13 7225   6.215   3.927   6.243  0.7772 -1.0737 -0.9208
   79SLPC   O14 7226   6.395   3.821   6.097  0.0718 -0.4248  0.1939
   79SLPC   O12 7227   6.444   4.008   6.251 -0.3750  0.1413  0.2880
   79SLPC   O11 7228   6.375   3.783   6.344 -0.2535 -0.6931 -0.3583
   79SLPC    C1 7229   6.502   3.742   6.396  0.1092 -0.5548  0.4887
   79SLPC    HA 7230   6.531   3.638   6.372 -0.5369 -0.4099 -1.0397
   79SLPC    HB 7231   6.589   3.805   6.369 -0.5455  1.7916  3.3007
   79SLPC    C2 7232   6.494   3.748   6.557  0.0014 -0.4102  0.0214
   79SLPC    HS 7233   6.415   3.674   6.581 -0.7055  0.9210  2.1013
   79SLPC   O21 7234   6.459   3.885   6.598 -0.0849  0.1666 -0.8000
   79SLPC   C21 7235   6.391   3.896   6.713 -0.1559  0.1349 -0.3281
   79SLPC   O22 7236   6.337   3.798   6.770 -0.0028  0.0195  0.0473
   79SLPC   C22 7237   6.391   4.046   6.747 -0.3276 -0.8847  0.1675
   79SLPC   H2R 7238   6.492   4.093   6.750 -0.8692  0.2582  2.1146
   79SLPC   H2S 7239   6.327   4.083   6.664  0.7980 -1.1830 -0.8687
   79SLPC    C3 7240   6.630   3.703   6.617 -0.7010  0.7483  1.0730
   79SLPC    HX 7241   6.714   3.765   6.579  1.0166 -1.2230  1.4579
   79SLPC    HY 7242   6.650   3.598   6.586  0.2888  1.3813 -0.5500
   79SLPC   O31 7243   6.628   3.720   6.758  0.2464  0.4830  0.3631
   79SLPC   C31 7244   6.594   3.611   6.821 -0.3500 -1.2833 -1.1041
   79SLPC   O32 7245   6.568   3.501   6.781 -0.3023  0.0133  0.3562
   79SLPC   C32 7246   6.572   3.645   6.968  0.0766  0.4963  0.3338
   79SLPC   H2X 7247   6.488   3.577   6.995  3.0298 -3.4367  0.4415
   79SLPC   H2Y 7248   6.533   3.748   6.983  1.0484  1.0551 -0.8171
   79SLPC   C23 7249   6.308   4.073   6.874  0.2884  0.3304 -0.5212
   79SLPC   H3R 7250   6.219   4.007   6.879  1.4646 -1.2587  1.4197
   79SLPC   H3S 7251   6.282   4.181   6.873  0.8635  0.4858  0.2697
   79SLPC   C24 7252   6.376   4.018   7.001  0.4332  0.5375 -0.5028
   79SLPC   H4R 7253   6.476   4.065   7.009  0.3177  0.5389  1.6556
   79SLPC   H4S 7254   6.377   3.907   7.009  1.1475  0.6712  3.8678
   79SLPC   C25 7255   6.305   4.072   7.126 -0.8054  0.6251  0.3878
   79SLPC   H5R 7256   6.203   4.033   7.146 -0.4814  0.1634  1.2099
   79SLPC   H5S 7257   6.304   4.183   7.117  0.0887  0.6957  1.0348
   79SLPC   C26 7258   6.370   4.027   7.261  0.3656 -0.1911  0.4999
   79SLPC   H6R 7259   6.452   4.099   7.284  0.4724 -0.5916  1.4204
   79SLPC   H6S 7260   6.421   3.928   7.253  2.6312  1.0467 -2.5458
   79SLPC   C27 7261   6.268   4.031   7.381 -0.4837 -0.5938  0.1017
   79SLPC   H7R 7262   6.191   3.953   7.364 -2.5206  1.5603 -1.0368
   79SLPC   H7S 7263   6.215   4.128   7.374  0.3307 -0.1983 -0.7411
   79SLPC   C28 7264   6.331   4.010   7.526 -0.4084  0.0757  0.2705
   79SLPC   H8R 7265   6.418   4.075   7.551 -0.5676  0.4488 -0.1389
   79SLPC   H8S 7266   6.380   3.911   7.517 -0.9717 -0.1711 -0.1324
   79SLPC   C29 7267   6.223   4.010   7.634  0.4151  0.5388  0.0578
   79SLPC   H9R 7268   6.120   4.047   7.624 -0.5234 -0.8459  3.3297
   79SLPC  C210 7269   6.248   3.985   7.766  0.2693 -0.2039  0.4078
   79SLPC  H10R 7270   6.169   3.969   7.841 -0.4069 -0.2055 -0.2949
   79SLPC  C211 7271   6.380   3.945   7.822 -0.0340  0.1954 -0.1454
   79SLPC  H11R 7272   6.447   4.034   7.827  0.8575 -0.2146 -2.8290
   79SLPC  H11S 7273   6.433   3.887   7.743  0.4796  0.7271 -0.2007
   79SLPC  C212 7274   6.377   3.875   7.959  0.0120  0.0909 -0.5669
   79SLPC  H12R 7275   6.432   3.780   7.953 -0.5280 -0.3479  0.8573
   79SLPC  C213 7276   6.329   3.915   8.080  0.2104  0.0256 -0.2242
   79SLPC  H13R 7277   6.324   3.837   8.157 -0.8180  0.5701  0.2836
   79SLPC  C214 7278   6.268   4.049   8.116 -0.0604 -0.0629  0.2896
   79SLPC  H14R 7279   6.157   4.047   8.123 -0.2043  0.0984 -1.4349
   79SLPC  H14S 7280   6.299   4.122   8.038  0.3930 -0.6311 -0.0677
   79SLPC  C215 7281   6.316   4.108   8.245 -0.3958  0.3160 -0.2510
   79SLPC  H15R 7282   6.296   4.217   8.242 -0.0507  0.4573  1.3403
   79SLPC  H15S 7283   6.426   4.099   8.259 -0.2609  2.2691  0.2606
   79SLPC  C216 7284   6.255   4.053   8.378  0.0157 -0.0658 -0.2013
   79SLPC  H16R 7285   6.302   3.961   8.419  0.3253  0.3825  0.4622
   79SLPC  H16S 7286   6.145   4.042   8.366  0.0683 -0.8708  0.0201
   79SLPC  C217 7287   6.269   4.157   8.485  0.5973  0.8403 -0.2849
   79SLPC  H17R 7288   6.208   4.123   8.571  2.7736 -3.4783 -0.1784
   79SLPC  H17S 7289   6.239   4.259   8.455 -0.4813  0.5849 -0.1035
   79SLPC  C218 7290   6.411   4.172   8.547 -1.6216 -0.3811  0.1638
   79SLPC  H18R 7291   6.438   4.084   8.609 -3.3546 -0.0872  1.4163
   79SLPC  H18S 7292   6.420   4.269   8.600  1.1527 -0.2887 -0.3599
   79SLPC  H18T 7293   6.482   4.179   8.462 -2.3408  3.9446 -0.2781
   79SLPC   C33 7294   6.692   3.619   7.052 -0.8313 -0.2069 -0.6619
   79SLPC   H3X 7295   6.672   3.675   7.145  0.3896 -0.4444 -0.2388
   79SLPC   H3Y 7296   6.785   3.657   7.003  0.2438 -2.9689 -0.9187
   79SLPC   C34 7297   6.713   3.467   7.080 -0.0324  1.0268  0.6645
   79SLPC   H4X 7298   6.750   3.415   6.989  0.4237  0.6689  1.0490
   79SLPC   H4Y 7299   6.624   3.414   7.120  0.4080 -1.2872 -1.1504
   79SLPC   C35 7300   6.825   3.438   7.180 -0.0406 -0.6175 -1.2034
   79SLPC   H5X 7301   6.925   3.474   7.149 -0.5174  0.2049 -1.8081
   79SLPC   H5Y 7302   6.841   3.330   7.200 -1.0432 -0.3007  1.7454
   79SLPC   C36 7303   6.788   3.521   7.307  0.0136  0.6645 -0.3896
   79SLPC   H6X 7304   6.680   3.510   7.331  0.2750  1.6424  1.4220
   79SLPC   H6Y 7305   6.798   3.631   7.294 -1.6918  0.6905 -1.9149
   79SLPC   C37 7306   6.873   3.481   7.432  0.4473  0.0684  0.4710
   79SLPC   H7X 7307   6.970   3.534   7.434  0.3831  0.3871 -1.8778
   79SLPC   H7Y 7308   6.912   3.377   7.424  1.7563  0.1463  4.0301
   79SLPC   C38 7309   6.804   3.508   7.566  0.1224 -0.3378  0.5047
   79SLPC   H8X 7310   6.695   3.497   7.545  0.5855 -0.5678 -2.1188
   79SLPC   H8Y 7311   6.828   3.614   7.587 -1.4039  1.0473 -3.7484
   79SLPC   C39 7312   6.862   3.422   7.667  0.0702  0.8881  0.2100
   79SLPC   H9X 7313   6.967   3.452   7.687  0.5573  1.0293 -2.3446
   79SLPC   H9Y 7314   6.854   3.314   7.643 -1.6872  0.7076  1.3979
   79SLPC  C310 7315   6.798   3.438   7.804 -0.5449  1.2022  0.2771
   79SLPC  H10X 7316   6.699   3.389   7.789  0.6446 -0.8194 -1.5383
   79SLPC  H10Y 7317   6.763   3.543   7.818  2.2045  2.2857 -0.3253
   79SLPC  C311 7318   6.867   3.368   7.922 -0.6849  0.1265  0.2600
   79SLPC  H11X 7319   6.952   3.433   7.952 -0.9238  0.0757  1.0824
   79SLPC  H11Y 7320   6.903   3.267   7.892 -1.0873 -0.0777  0.4562
   79SLPC  C312 7321   6.783   3.357   8.044 -0.5353 -0.2662 -0.9110
   79SLPC  H12X 7322   6.698   3.288   8.027  0.1140 -0.7108 -2.5233
   79SLPC  H12Y 7323   6.743   3.459   8.061  0.2391  0.1279 -1.3766
   79SLPC  C313 7324   6.857   3.305   8.165 -0.9484  1.1253  0.4818
   79SLPC  H13X 7325   6.805   3.305   8.264  2.4005 -1.1111  2.4810
   79SLPC  H13Y 7326   6.947   3.369   8.174 -1.9497  2.6474  0.0933
   79SLPC  C314 7327   6.897   3.152   8.154  0.0083  0.1468 -0.1961
   79SLPC  H14X 7328   6.949   3.138   8.057  0.5627 -1.9690  0.3715
   79SLPC  H14Y 7329   6.804   3.093   8.164 -0.8570  1.0079 -2.5321
   79SLPC  C315 7330   6.992   3.101   8.266 -0.3930 -0.5685  0.3309
   79SLPC  H15X 7331   6.937   3.100   8.362  0.3398 -1.3092  0.7602
   79SLPC  H15Y 7332   7.074   3.174   8.285 -0.3745 -1.0290  2.1956
   79SLPC  C316 7333   7.041   2.958   8.243 -0.4768 -1.0254 -0.0422
   79SLPC  H16X 7334   7.128   2.928   8.306  0.9506 -0.9980 -1.9147
   79SLPC  H16Y 7335   7.055   2.940   8.134 -1.5863  2.2473 -0.8357
   79SLPC  C317 7336   6.924   2.857   8.275  0.2718 -0.4378  0.7764
   79SLPC  H17X 7337   6.970   2.756   8.274  2.5976  0.5649  0.7292
   79SLPC  H17Y 7338   6.855   2.855   8.188  0.7206  2.2272  0.2690
   79SLPC  C318 7339   6.840   2.874   8.402 -0.6044 -0.1959  0.6043
   79SLPC  H18X 7340   6.795   2.774   8.418  2.1223 -1.0761  3.9325
   79SLPC  H18Y 7341   6.766   2.957   8.407 -0.9878 -0.4402 -0.5663
   79SLPC  H18Z 7342   6.903   2.884   8.493  0.0657  0.3698  0.0895
   80SLPC     N 7343   0.247   0.173   6.155  0.6682  0.4712 -0.0680
   80SLPC   C13 7344   0.146   0.278   6.173 -0.6036 -0.4142  0.0048
   80SLPC  H13A 7345   0.173   0.345   6.253 -0.2049 -0.9443  0.3269
   80SLPC  H13B 7346   0.139   0.344   6.088  1.1318 -2.1758 -1.6267
   80SLPC  H13C 7347   0.047   0.238   6.192 -0.2191 -2.9974 -2.6415
   80SLPC   C14 7348   0.208   0.098   6.033  0.2944  0.2859 -0.1542
   80SLPC  H14A 7349   0.202   0.164   5.948 -2.0096 -0.6327 -0.8063
   80SLPC  H14B 7350   0.259   0.007   6.005 -0.2657 -0.0717 -0.0422
   80SLPC  H14C 7351   0.107   0.060   6.044 -0.5149  2.7766  1.8064
   80SLPC   C15 7352   0.259   0.084   6.268 -0.2368 -0.3186  0.2505
   80SLPC  H15A 7353   0.165   0.066   6.318 -0.2602 -1.3690 -0.1479
   80SLPC  H15B 7354   0.299  -0.010   6.235 -0.2826  0.4537 -2.2439
   80SLPC  H15C 7355   0.324   0.130   6.342  1.5142 -1.2149 -0.6713
   80SLPC   C12 7356   0.381   0.227   6.122  0.1372  0.2974 -0.6619
   80SLPC  H12A 7357   0.404   0.304   6.194 -2.0495  1.2234 -0.8468
   80SLPC  H12B 7358   0.384   0.278   6.027  0.5881 -1.3877 -1.5829
   80SLPC   C11 7359   0.498   0.121   6.120 -0.2761 -0.1466  0.0263
   80SLPC  H11A 7360   0.585   0.169   6.070 -1.4425  2.1454  0.0353
   80SLPC  H11B 7361   0.473   0.034   6.056 -0.6291 -0.4818  0.6154
   80SLPC     P 7362   0.619   0.171   6.339 -0.1074  0.5750 -0.2098
   80SLPC   O13 7363   0.759   0.120   6.344 -0.3000 -0.1633  0.1180
   80SLPC   O14 7364   0.586   0.310   6.307  0.1148  0.5220  0.7053
   80SLPC   O12 7365   0.543   0.065   6.246 -0.2828  0.2176 -0.4642
   80SLPC   O11 7366   0.559   0.137   6.479  0.1599  0.1152  0.1028
   80SLPC    C1 7367   0.578   0.019   6.556 -0.4927 -0.3091 -0.3587
   80SLPC    HA 7368   0.472  -0.016   6.554 -0.0505 -1.6817 -1.5121
   80SLPC    HB 7369   0.638  -0.066   6.517 -1.5004 -1.3065  0.1938
   80SLPC    C2 7370   0.609   0.025   6.712  0.2998  0.2542 -0.5900
   80SLPC    HS 7371   0.599  -0.077   6.753 -1.7973  1.4049  2.0843
   80SLPC   O21 7372   0.520   0.117   6.782 -0.2313  0.1312 -0.1797
   80SLPC   C21 7373   0.401   0.054   6.811  0.6444  0.3333  0.3827
   80SLPC   O22 7374   0.371  -0.059   6.773 -0.1848  0.2426 -0.6850
   80SLPC   C22 7375   0.308   0.155   6.890  0.5178  0.2160 -0.5876
   80SLPC   H2R 7376   0.371   0.207   6.966 -2.5653  2.6296  0.4942
   80SLPC   H2S 7377   0.261   0.220   6.814 -1.2983 -0.1003  0.2225
   80SLPC    C3 7378   0.748   0.076   6.731  0.4127 -0.5199 -0.2051
   80SLPC    HX 7379   0.737   0.186   6.733 -0.0744 -0.5600 -0.4192
   80SLPC    HY 7380   0.806   0.060   6.638  0.8334  0.7590 -0.1791
   80SLPC   O31 7381   0.805   0.013   6.848 -0.6850  0.2037 -0.4504
   80SLPC   C31 7382   0.930  -0.003   6.834  0.2280  0.8209 -0.1583
   80SLPC   O32 7383   1.007   0.020   6.741  0.8124 -0.3258  0.2907
   80SLPC   C32 7384   0.975  -0.073   6.960  0.2826  0.1924  0.3556
   80SLPC   H2X 7385   1.086  -0.062   6.966  0.1128  1.6624  1.0809
   80SLPC   H2Y 7386   0.952  -0.181   6.949  0.2810  0.3236 -1.1486
   80SLPC   C23 7387   0.212   0.068   6.984 -0.6257 -1.1928  0.2315
   80SLPC   H3R 7388   0.130   0.018   6.929 -1.8451  1.0189 -0.0944
   80SLPC   H3S 7389   0.155   0.139   7.048  1.8161  1.4856 -0.3416
   80SLPC   C24 7390   0.277  -0.022   7.086  0.1959  0.0792 -0.5599
   80SLPC   H4R 7391   0.357  -0.083   7.038  1.3558  1.6185 -0.6359
   80SLPC   H4S 7392   0.205  -0.098   7.126  2.3179 -2.0264 -0.5182
   80SLPC   C25 7393   0.337   0.043   7.221 -0.3090  0.5726 -0.0903
   80SLPC   H5R 7394   0.252   0.085   7.279 -0.2097  0.9166 -0.1916
   80SLPC   H5S 7395   0.410   0.125   7.202  2.7722 -1.8982  0.2631
   80SLPC   C26 7396   0.411  -0.071   7.290  0.0543 -0.0883 -0.1237
   80SLPC   H6R 7397   0.505  -0.079   7.232  0.1677  2.1250 -0.3268
   80SLPC   H6S 7398   0.356  -0.168   7.295 -2.0879  1.1038  1.6384
   80SLPC   C27 7399   0.460  -0.035   7.433 -0.3911  0.0356  0.2029
   80SLPC   H7R 7400   0.540   0.042   7.430 -0.4266  0.1668  1.9343
   80SLPC   H7S 7401   0.519  -0.121   7.472  0.6578  1.1563  1.1517
   80SLPC   C28 7402   0.346   0.012   7.532  0.6768 -0.1591 -0.2646
   80SLPC   H8R 7403   0.290   0.102   7.499  3.8094  2.5121  1.1168
   80SLPC   H8S 7404   0.399   0.034   7.628 -1.1823  1.4247  0.4614
   80SLPC   C29 7405   0.247  -0.097   7.558 -0.2948  0.7400  0.1027
   80SLPC   H9R 7406   0.290  -0.198   7.569 -2.4883 -0.4530 -1.3146
   80SLPC  C210 7407   0.112  -0.085   7.584 -0.1721  0.1452 -0.1517
   80SLPC  H10R 7408   0.051  -0.174   7.605 -0.0580  0.3679  1.1924
   80SLPC  C211 7409   0.036   0.046   7.567 -0.4922 -0.1130  0.1668
   80SLPC  H11R 7410   0.066   0.085   7.467  0.8305 -0.9769  0.1916
   80SLPC  H11S 7411   0.058   0.119   7.648  0.3769 -2.3329  2.0574
   80SLPC  C212 7412  -0.106   0.026   7.562  0.1653 -0.2126  0.4447
   80SLPC  H12R 7413  -0.151   0.011   7.463 -1.3514  1.9491  0.7283
   80SLPC  C213 7414  -0.202   0.048   7.658  0.4027 -0.6518  0.2241
   80SLPC  H13R 7415  -0.307   0.025   7.632 -0.1491  2.4807 -0.7504
   80SLPC  C214 7416  -0.178   0.096   7.801 -0.0756  0.2199 -0.2838
   80SLPC  H14R 7417  -0.232   0.192   7.816 -2.4935 -0.8665 -1.4804
   80SLPC  H14S 7418  -0.071   0.122   7.807  0.1704 -0.5016 -1.4129
   80SLPC  C215 7419  -0.225  -0.008   7.904  0.5048  0.1324  0.5325
   80SLPC  H15R 7420  -0.178  -0.107   7.883  0.0724 -0.2343  1.2496
   80SLPC  H15S 7421  -0.330  -0.026   7.874  1.2881 -1.8114 -1.4047
   80SLPC  C216 7422  -0.211   0.032   8.054  0.1103 -0.6308  0.9241
   80SLPC  H16R 7423  -0.218  -0.059   8.118 -2.3935 -0.7005  0.6597
   80SLPC  H16S 7424  -0.300   0.091   8.083  0.2045 -0.5671  1.0775
   80SLPC  C217 7425  -0.079   0.109   8.081  0.1085 -0.2827  0.0965
   80SLPC  H17R 7426  -0.081   0.213   8.041 -1.0551  0.8005  2.6751
   80SLPC  H17S 7427  -0.002   0.063   8.016  1.3657  0.7399  0.8079
   80SLPC  C218 7428  -0.033   0.125   8.224  0.6608  0.3738  0.4740
   80SLPC  H18R 7429   0.052   0.195   8.212  0.3497  0.7811  0.6507
   80SLPC  H18S 7430  -0.002   0.028   8.267 -2.4731 -2.1306 -2.3255
   80SLPC  H18T 7431  -0.113   0.176   8.282 -1.6157  0.3543 -2.4029
   80SLPC   C33 7432   0.907  -0.008   7.085  0.4228  1.0315  0.3419
   80SLPC   H3X 7433   0.799   0.014   7.074  0.0244 -0.9893 -0.1828
   80SLPC   H3Y 7434   0.951   0.091   7.107  2.9600  0.1523 -0.3324
   80SLPC   C34 7435   0.928  -0.098   7.209  0.1890  0.1008  0.5469
   80SLPC   H4X 7436   1.039  -0.102   7.220  0.2580  1.1624  0.3781
   80SLPC   H4Y 7437   0.903  -0.206   7.205 -1.8500  0.4806  1.7396
   80SLPC   C35 7438   0.855  -0.032   7.327  0.1008 -0.1855 -0.3258
   80SLPC   H5X 7439   0.747  -0.056   7.315 -0.2966  1.2395  0.2444
   80SLPC   H5Y 7440   0.867   0.078   7.333  2.9027 -0.4827  1.4688
   80SLPC   C36 7441   0.908  -0.073   7.466  0.6449  0.3888 -0.1783
   80SLPC   H6X 7442   1.016  -0.055   7.485  0.4977 -1.1188  2.5338
   80SLPC   H6Y 7443   0.883  -0.179   7.488  0.3847  0.8357  1.8814
   80SLPC   C37 7444   0.828   0.008   7.573 -0.5674  0.0299 -0.2124
   80SLPC   H7X 7445   0.718   0.004   7.558 -0.7592 -0.5566  1.2342
   80SLPC   H7Y 7446   0.855   0.114   7.553  1.2098 -0.5141 -0.8970
   80SLPC   C38 7447   0.847  -0.038   7.716 -0.5794  0.1101 -1.1987
   80SLPC   H8X 7448   0.952  -0.071   7.727 -0.7528 -1.1143 -2.8088
   80SLPC   H8Y 7449   0.786  -0.131   7.724  3.0203 -2.3014  0.9562
   80SLPC   C39 7450   0.802   0.056   7.829 -0.1607  0.2136  0.2844
   80SLPC   H9X 7451   0.697   0.086   7.807 -0.1999 -1.5190 -2.3227
   80SLPC   H9Y 7452   0.867   0.145   7.818 -3.1186  3.1298  3.7114
   80SLPC  C310 7453   0.833  -0.002   7.969 -0.2438 -0.0603  0.4091
   80SLPC  H10X 7454   0.929  -0.058   7.966 -0.1474  0.1355 -1.1218
   80SLPC  H10Y 7455   0.755  -0.075   7.999 -0.5182  0.6167  1.3888
   80SLPC  C311 7456   0.832   0.099   8.085  1.0095 -0.2100  0.5258
   80SLPC  H11X 7457   0.909   0.178   8.072  0.3566  0.6256  1.4904
   80SLPC  H11Y 7458   0.848   0.052   8.184 -1.5650  1.5992  1.9376
   80SLPC  C312 7459   0.697   0.178   8.092 -0.1186 -0.1244  0.5595
   80SLPC  H12X 7460   0.628   0.119   8.156 -0.2991  1.1560  1.5809
   80SLPC  H12Y 7461   0.642   0.180   7.996 -2.1000 -0.0151  1.6463
   80SLPC  C313 7462   0.711   0.324   8.139  0.7099 -0.2336  0.1682
   80SLPC  H13X 7463   0.610   0.371   8.138  0.9949  0.3701 -0.3160
   80SLPC  H13Y 7464   0.778   0.376   8.068 -1.3873 -1.1365 -2.6802
   80SLPC  C314 7465   0.756   0.331   8.280 -0.5190  0.4439 -0.0495
   80SLPC  H14X 7466   0.851   0.275   8.296 -2.2505 -2.5609  0.4064
   80SLPC  H14Y 7467   0.680   0.283   8.345 -0.6947  0.3604 -0.3143
   80SLPC  C315 7468   0.778   0.472   8.337  0.3663  0.4182  0.6319
   80SLPC  H15X 7469   0.690   0.540   8.339  0.5701  1.0869 -3.7285
   80SLPC  H15Y 7470   0.849   0.532   8.277 -2.8105  1.0558 -2.8551
   80SLPC  C316 7471   0.847   0.462   8.477  0.4287  0.4648  0.2792
   80SLPC  H16X 7472   0.876   0.561   8.519 -0.5307  0.1969  1.6304
   80SLPC  H16Y 7473   0.950   0.428   8.454  0.9193  0.8960  1.7301
   80SLPC  C317 7474   0.773   0.379   8.584 -0.0046  0.0676  0.2405
   80SLPC  H17X 7475   0.757   0.273   8.554  0.2747  0.1362 -0.1643
   80SLPC  H17Y 7476   0.675   0.424   8.611 -0.7237 -1.4471  0.2887
   80SLPC  C318 7477   0.852   0.366   8.716 -0.2506 -0.2655 -1.0599
   80SLPC  H18X 7478   0.786   0.308   8.785 -1.1105  1.9879  0.1242
   80SLPC  H18Y 7479   0.856   0.458   8.778 -1.5701  0.1987 -1.6260
   80SLPC  H18Z 7480   0.946   0.306   8.709 -0.1987 -0.3833  0.3049
   81SAPS     N 7481   3.795   1.496  11.226  0.0031  0.4693  0.3624
   81SAPS   HN1 7482   3.780   1.591  11.266  1.3265  1.1466 -0.6743
   81SAPS   HN2 7483   3.803   1.494  11.123 -0.6635  0.7816  0.3027
   81SAPS   HN3 7484   3.729   1.422  11.259  1.0309 -0.8889 -0.4885
   81SAPS   C12 7485   3.918   1.455  11.296 -0.5283  0.3623 -0.2895
   81SAPS  H12A 7486   3.988   1.534  11.274 -1.1562  1.0484  0.1195
   81SAPS   C13 7487   3.905   1.453  11.451  0.0885 -0.1499 -0.0555
   81SAPS  O13A 7488   3.804   1.504  11.500  0.2807 -0.3846  0.0761
   81SAPS  O13B 7489   3.996   1.411  11.526 -0.2237 -0.3218 -0.8879
   81SAPS   C11 7490   3.967   1.307  11.262 -0.4083  0.4553  0.2840
   81SAPS  H11A 7491   3.953   1.233  11.344  3.5780  0.1457  0.8868
   81SAPS  H11B 7492   4.078   1.310  11.264 -0.4305  1.5910  2.4558
   81SAPS     P 7493   3.914   1.104  11.093  0.1347 -0.3576  0.0174
   81SAPS   O13 7494   3.893   1.014  11.211  0.4819 -0.3391  0.4120
   81SAPS   O14 7495   3.811   1.101  10.980 -0.3652  0.6284  0.2988
   81SAPS   O12 7496   3.911   1.253  11.138  0.2319 -0.9715 -0.3138
   81SAPS   O11 7497   4.063   1.081  11.048  0.0530  0.1946 -0.8219
   81SAPS    C1 7498   4.144   1.176  10.975  0.0929 -0.0175  0.3393
   81SAPS    HA 7499   4.094   1.275  10.963  1.7598  0.6736 -1.4313
   81SAPS    HB 7500   4.225   1.205  11.045 -0.9386 -0.8320  1.9105
   81SAPS    C2 7501   4.198   1.115  10.844  0.9609  0.0606  0.4985
   81SAPS    HS 7502   4.268   1.033  10.870 -0.3834 -2.2855 -2.7049
   81SAPS   O21 7503   4.251   1.223  10.755 -0.1434 -0.0376 -0.0188
   81SAPS   C21 7504   4.334   1.183  10.662  0.4158  0.0876  0.4609
   81SAPS   O22 7505   4.369   1.070  10.639  0.4028  0.1102  0.9084
   81SAPS   C22 7506   4.380   1.308  10.592 -0.4435  0.2342  0.2298
   81SAPS   H2R 7507   4.299   1.384  10.581  1.1646  2.0658  0.4972
   81SAPS   H2S 7508   4.455   1.337  10.668  0.0630 -2.7020  0.9685
   81SAPS    C3 7509   4.077   1.041  10.785 -0.3559  0.0697 -0.0770
   81SAPS    HX 7510   3.990   1.110  10.787 -0.2054  0.2617 -0.2173
   81SAPS    HY 7511   4.057   0.950  10.847 -1.1326  1.6500  2.1088
   81SAPS   O31 7512   4.110   1.007  10.648 -0.1053  0.1239 -0.2353
   81SAPS   C31 7513   4.015   1.034  10.558 -0.5719 -0.3812  0.2445
   81SAPS   O32 7514   3.903   1.082  10.577 -0.1280  0.4021 -0.4757
   81SAPS   C32 7515   4.065   1.004  10.411 -0.1586 -0.9308  1.3623
   81SAPS   H2X 7516   4.070   0.893  10.406  0.3902 -0.9227  1.5577
   81SAPS   H2Y 7517   4.174   1.026  10.401 -0.0402 -2.5097 -3.9923
   81SAPS   C23 7518   4.444   1.292  10.457  0.2565  0.0996 -0.1130
   81SAPS   H3R 7519   4.439   1.375  10.383  0.5209 -0.1636 -0.4305
   81SAPS   H3S 7520   4.373   1.215  10.421 -0.1244  0.0759  0.6834
   81SAPS   C24 7521   4.587   1.238  10.452  0.4397  0.1315  0.2690
   81SAPS   H4R 7522   4.601   1.191  10.352  1.3600 -1.1460  0.9585
   81SAPS   H4S 7523   4.609   1.159  10.527  2.0895  0.9360  0.6652
   81SAPS   C25 7524   4.687   1.349  10.477  0.7988  0.3848  0.4425
   81SAPS   H5R 7525   4.686   1.394  10.578  0.0987 -1.6576  1.3922
   81SAPS   C26 7526   4.778   1.393  10.387 -0.1213 -0.5551 -0.0638
   81SAPS   H6R 7527   4.836   1.484  10.406  2.2051 -1.0784 -3.6332
   81SAPS   C27 7528   4.779   1.353  10.235 -0.2878  0.0485 -0.1523
   81SAPS   H7R 7529   4.682   1.328  10.188 -0.1718  0.0780 -0.4104
   81SAPS   H7S 7530   4.845   1.265  10.222  0.3579  0.1902  1.7678
   81SAPS   C28 7531   4.837   1.468  10.153  0.0442  0.5027 -1.0208
   81SAPS   H8R 7532   4.872   1.558  10.205 -0.7676 -0.2614  0.9170
   81SAPS   C29 7533   4.854   1.477  10.022 -0.3815 -0.7155  0.6522
   81SAPS   H9R 7534   4.913   1.565   9.993 -0.7930 -0.8529 -0.6792
   81SAPS  C210 7535   4.814   1.374   9.919 -0.0615 -0.5283 -0.9280
   81SAPS  H10R 7536   4.836   1.272   9.958  1.0777  0.3440  0.8476
   81SAPS  H10S 7537   4.878   1.391   9.830  0.8047 -2.7202 -0.7982
   81SAPS  C211 7538   4.672   1.381   9.880 -0.5747  0.4678 -0.5990
   81SAPS  H11R 7539   4.597   1.400   9.958  0.5389 -1.7351  1.1319
   81SAPS  C212 7540   4.629   1.352   9.753  0.5853  0.1075  0.1315
   81SAPS  H12R 7541   4.521   1.359   9.734  0.7756  0.5181 -0.8798
   81SAPS  C213 7542   4.708   1.315   9.634  0.0617  0.5815 -0.3867
   81SAPS  H13R 7543   4.650   1.236   9.583 -0.0915 -1.6327  2.9060
   81SAPS  H13S 7544   4.805   1.267   9.658  0.8613  1.7071 -1.2177
   81SAPS  C214 7545   4.749   1.433   9.556  0.5605 -0.4908 -0.0630
   81SAPS  H14R 7546   4.800   1.507   9.620 -1.7559 -0.1176  1.4615
   81SAPS  C215 7547   4.723   1.463   9.423 -0.7015 -0.3100  0.3921
   81SAPS  H15R 7548   4.744   1.568   9.396 -0.4868 -0.2851  0.6494
   81SAPS  C216 7549   4.650   1.381   9.323 -0.8208  0.2331  0.8771
   81SAPS  H16R 7550   4.553   1.433   9.309  0.9002  3.2620 -0.8171
   81SAPS  H16S 7551   4.630   1.277   9.357  1.6194 -0.3655  0.6345
   81SAPS  C217 7552   4.727   1.372   9.191  0.6494 -0.1021 -0.3116
   81SAPS  H17R 7553   4.830   1.332   9.208  0.0456 -2.2766 -1.3214
   81SAPS  H17S 7554   4.729   1.470   9.140  1.3056 -0.6806 -1.4388
   81SAPS  C218 7555   4.662   1.275   9.096 -0.0226  0.0300 -0.3496
   81SAPS  H18R 7556   4.572   1.316   9.045 -0.4067 -0.9747 -0.5084
   81SAPS  H18S 7557   4.627   1.185   9.151 -1.2526  1.0741  0.6234
   81SAPS  C219 7558   4.748   1.228   8.978 -0.0405  0.8013  0.2982
   81SAPS  H19R 7559   4.854   1.228   9.011 -0.0811  0.3687  0.4349
   81SAPS  H19S 7560   4.736   1.292   8.888 -1.6242  0.2941  0.1069
   81SAPS  C220 7561   4.722   1.080   8.929  0.0082  0.0906 -0.7283
   81SAPS  H20R 7562   4.767   1.077   8.828 -0.4139  1.1099 -0.9606
   81SAPS  H20S 7563   4.613   1.065   8.914 -0.2095  0.0004  0.7756
   81SAPS  H20T 7564   4.769   1.008   8.998 -0.1001 -0.7475 -1.5171
   81SAPS   C33 7565   3.993   1.074  10.286 -0.7769 -0.3024 -0.8248
   81SAPS   H3X 7566   4.010   1.183  10.272 -0.6777 -0.1698  0.2156
   81SAPS   H3Y 7567   3.884   1.055  10.281 -1.3814  2.7806 -1.2400
   81SAPS   C34 7568   4.041   1.005  10.155  0.3235  0.0971 -0.3857
   81SAPS   H4X 7569   4.014   0.897  10.152 -1.6224  0.5105  0.6889
   81SAPS   H4Y 7570   4.152   1.011  10.154  0.2583  1.6739  0.2038
   81SAPS   C35 7571   3.986   1.083  10.035  0.1143 -0.2683  0.3830
   81SAPS   H5X 7572   4.022   1.187  10.053 -0.8731  0.2562 -0.5558
   81SAPS   H5Y 7573   3.876   1.082  10.052  0.1759  0.7524  0.9210
   81SAPS   C36 7574   4.007   1.017   9.900 -0.5288  0.4590 -0.8861
   81SAPS   H6X 7575   3.979   0.911   9.914  0.9827 -0.1742 -2.4081
   81SAPS   H6Y 7576   4.114   1.024   9.873 -0.1062  0.1168  0.6627
   81SAPS   C37 7577   3.917   1.069   9.785 -0.7840 -0.5590  0.0387
   81SAPS   H7X 7578   3.953   1.173   9.766  1.0431 -0.9184  1.2555
   81SAPS   H7Y 7579   3.811   1.083   9.816 -0.3986 -1.3064  1.8247
   81SAPS   C38 7580   3.929   0.990   9.660 -0.0429  0.0126 -0.1927
   81SAPS   H8X 7581   3.879   0.892   9.670  2.4439 -1.2766  0.3981
   81SAPS   H8Y 7582   4.036   0.977   9.633  0.0386 -0.2551  0.2516
   81SAPS   C39 7583   3.873   1.071   9.546 -0.3806 -0.1647  0.1633
   81SAPS   H9X 7584   3.887   1.181   9.543 -1.4558  0.1201  2.5833
   81SAPS   H9Y 7585   3.763   1.061   9.557 -0.3182 -1.0486  0.0839
   81SAPS  C310 7586   3.905   1.017   9.407  0.2128 -0.6007  0.3415
   81SAPS  H10X 7587   3.859   0.916   9.396 -2.6777  0.6300  0.2767
   81SAPS  H10Y 7588   4.015   1.015   9.390  0.1811 -0.7007  0.1459
   81SAPS  C311 7589   3.840   1.097   9.295  0.4373 -0.1573  0.3384
   81SAPS  H11X 7590   3.876   1.202   9.297 -1.8461  0.8625 -2.7667
   81SAPS  H11Y 7591   3.729   1.092   9.291  0.3346  1.6320  0.1040
   81SAPS  C312 7592   3.880   1.062   9.152  0.2148  0.0673  0.7673
   81SAPS  H12X 7593   3.864   0.956   9.124  1.2059  0.6859 -2.7149
   81SAPS  H12Y 7594   3.990   1.079   9.143  0.1205 -0.0373 -1.0149
   81SAPS  C313 7595   3.823   1.156   9.039  0.2035  0.7604  0.1230
   81SAPS  H13X 7596   3.868   1.256   9.061 -1.3785  1.3770  0.6679
   81SAPS  H13Y 7597   3.713   1.158   9.032  0.0514 -1.9795  0.6542
   81SAPS  C314 7598   3.868   1.118   8.898  0.2414  0.1024  0.2885
   81SAPS  H14X 7599   3.833   1.015   8.873 -1.1548  0.3974  0.9293
   81SAPS  H14Y 7600   3.979   1.118   8.899  0.2906  0.8803 -1.5920
   81SAPS  C315 7601   3.817   1.220   8.790  0.5053 -0.7003  0.2696
   81SAPS  H15X 7602   3.859   1.180   8.695  0.8572 -2.2159  1.0291
   81SAPS  H15Y 7603   3.867   1.313   8.824  0.0398 -0.9555  1.7455
   81SAPS  C316 7604   3.669   1.238   8.787  0.2341  0.4058  0.0562
   81SAPS  H16X 7605   3.652   1.333   8.733  1.8356 -0.2127 -1.6421
   81SAPS  H16Y 7606   3.618   1.237   8.886  0.7606 -1.2816  0.3509
   81SAPS  C317 7607   3.595   1.133   8.695 -0.1403 -0.4264 -0.2679
   81SAPS  H17X 7608   3.619   1.032   8.733  0.6785 -0.7701 -1.6566
   81SAPS  H17Y 7609   3.644   1.135   8.595 -1.2969  0.9836 -0.8485
   81SAPS  C318 7610   3.443   1.166   8.670 -0.1620  0.1884  0.0322
   81SAPS  H18X 7611   3.382   1.182   8.762 -0.9896  2.5633 -0.8448
   81SAPS  H18Y 7612   3.388   1.086   8.616  0.3671  0.4980 -0.9991
   81SAPS  H18Z 7613   3.423   1.258   8.610 -0.2280 -0.8303 -1.5430
   82SAPS     N 7614   3.848   6.342  10.862 -0.3741 -0.1160  0.4250
   82SAPS   HN1 7615   3.847   6.443  10.886 -0.8017  0.0506 -0.2581
   82SAPS   HN2 7616   3.837   6.325  10.759 -0.7035 -1.9928  0.7244
   82SAPS   HN3 7617   3.762   6.290  10.891 -0.0418 -0.8825  0.0672
   82SAPS   C12 7618   3.988   6.298  10.900  0.0766  0.5469 -0.0053
   82SAPS  H12A 7619   3.987   6.301  11.008 -2.2665 -1.3663  0.1191
   82SAPS   C13 7620   4.033   6.157  10.847  0.1798  0.6777  0.1921
   82SAPS  O13A 7621   3.944   6.082  10.788  0.3454  0.0507 -0.1974
   82SAPS  O13B 7622   4.141   6.108  10.896 -0.0562  0.3691 -0.0241
   82SAPS   C11 7623   4.082   6.405  10.854 -0.6907  0.1522 -0.1606
   82SAPS  H11A 7624   4.094   6.422  10.745  1.2958 -1.2013 -0.2177
   82SAPS  H11B 7625   4.188   6.374  10.867 -0.4690  1.2131  0.6648
   82SAPS     P 7626   4.049   6.663  10.867 -0.1753  0.1588  0.1248
   82SAPS   O13 7627   3.984   6.759  10.957  0.3726  0.2087  0.3178
   82SAPS   O14 7628   4.182   6.695  10.819 -0.3433 -0.4508  0.1263
   82SAPS   O12 7629   4.071   6.523  10.933  0.4026 -0.6442  0.5108
   82SAPS   O11 7630   3.959   6.641  10.746  0.1275 -0.4866  0.0358
   82SAPS    C1 7631   3.912   6.744  10.661 -0.2311 -0.5888  0.9034
   82SAPS    HA 7632   3.811   6.780  10.688 -1.0336 -0.1086 -2.3379
   82SAPS    HB 7633   3.969   6.839  10.663 -0.6730 -0.2532 -0.7494
   82SAPS    C2 7634   3.910   6.700  10.515  0.6228 -0.3631 -0.9050
   82SAPS    HS 7635   3.991   6.625  10.505  1.5796  0.5251  0.0189
   82SAPS   O21 7636   3.929   6.809  10.428 -0.1523  0.3418  0.5193
   82SAPS   C21 7637   4.000   6.778  10.314 -0.5603 -0.0138 -0.2046
   82SAPS   O22 7638   4.032   6.665  10.293  0.7337  0.3507  0.3079
   82SAPS   C22 7639   4.024   6.898  10.226 -0.5090 -0.5241 -0.4893
   82SAPS   H2R 7640   3.943   6.974  10.228  0.9371  1.0618  0.0812
   82SAPS   H2S 7641   4.106   6.948  10.281 -0.3961 -0.4674 -0.7098
   82SAPS    C3 7642   3.774   6.622  10.479 -0.5185  0.0433  0.7139
   82SAPS    HX 7643   3.692   6.678  10.529 -0.8986 -0.3679  0.5593
   82SAPS    HY 7644   3.763   6.524  10.532 -0.0710  0.3083  1.3141
   82SAPS   O31 7645   3.756   6.609  10.334  0.8229 -0.0312  0.1735
   82SAPS   C31 7646   3.786   6.487  10.278  0.0573 -0.4840 -0.0850
   82SAPS   O32 7647   3.823   6.386  10.341 -0.0094 -0.1674  0.2795
   82SAPS   C32 7648   3.759   6.507  10.128  0.6334 -0.2388  0.4309
   82SAPS   H2X 7649   3.856   6.510  10.075  1.0636 -1.5385  1.0935
   82SAPS   H2Y 7650   3.706   6.603  10.110 -0.1181 -0.5781  0.7637
   82SAPS   C23 7651   4.071   6.861  10.080 -0.1451 -0.5631 -0.3318
   82SAPS   H3R 7652   4.146   6.780  10.078  1.9661  1.0901  3.0932
   82SAPS   H3S 7653   4.104   6.950  10.023 -1.3968  1.0609  1.3523
   82SAPS   C24 7654   3.945   6.814  10.003 -0.7148 -0.7639 -0.6635
   82SAPS   H4R 7655   3.876   6.899   9.986  0.5615  0.1338 -1.5326
   82SAPS   H4S 7656   3.893   6.734  10.059 -1.4059 -1.3454 -2.0680
   82SAPS   C25 7657   3.984   6.766   9.865 -0.2723 -0.1164 -0.2266
   82SAPS   H5R 7658   3.963   6.658   9.852 -0.8859  0.0170 -0.3933
   82SAPS   C26 7659   4.034   6.834   9.766  0.4531 -0.5052  0.0441
   82SAPS   H6R 7660   4.062   6.772   9.680 -0.9957  1.3984 -1.9182
   82SAPS   C27 7661   4.079   6.974   9.753  0.2372  0.6707  1.6827
   82SAPS   H7R 7662   4.173   6.994   9.808  0.1427  2.5139  1.2645
   82SAPS   H7S 7663   4.004   7.038   9.806 -0.7945  0.4518  0.5383
   82SAPS   C28 7664   4.085   7.019   9.606 -0.4740  0.1156  0.9572
   82SAPS   H8R 7665   4.182   7.045   9.560 -1.0145 -0.2426 -0.4628
   82SAPS   C29 7666   3.980   7.054   9.538  0.6578 -0.2383  0.6655
   82SAPS   H9R 7667   3.998   7.091   9.435 -0.1490 -1.2733  0.1335
   82SAPS  C210 7668   3.840   7.060   9.582  0.3583  0.0418  0.3247
   82SAPS  H10R 7669   3.794   7.139   9.519  2.0360  0.5531 -0.3119
   82SAPS  H10S 7670   3.834   7.107   9.682 -1.5596 -0.2425  0.3784
   82SAPS  C211 7671   3.762   6.933   9.571  0.1646  0.6720 -0.5401
   82SAPS  H11R 7672   3.749   6.868   9.659 -1.2964  0.1842 -1.0789
   82SAPS  C212 7673   3.692   6.891   9.464  0.4408  0.3356 -0.2349
   82SAPS  H12R 7674   3.653   6.789   9.477  0.4778  0.5871  2.6831
   82SAPS  C213 7675   3.661   6.960   9.331  0.4546 -0.7941  0.2333
   82SAPS  H13R 7676   3.655   7.071   9.340  0.6993 -0.7875  0.3187
   82SAPS  H13S 7677   3.557   6.943   9.295  1.0615  0.7642 -2.5587
   82SAPS  C214 7678   3.760   6.920   9.220  0.2651 -0.0352  0.0479
   82SAPS  H14R 7679   3.847   6.855   9.237 -0.7998 -1.8690 -1.2863
   82SAPS  C215 7680   3.749   6.967   9.095 -0.1046  0.1662  0.0365
   82SAPS  H15R 7681   3.824   6.943   9.018  0.9970  3.3946 -0.0837
   82SAPS  C216 7682   3.639   7.055   9.050  0.4265  1.4513 -0.4525
   82SAPS  H16R 7683   3.674   7.140   8.988 -0.6636  1.9625 -0.4033
   82SAPS  H16S 7684   3.588   7.107   9.134  1.6262  3.2906 -0.7982
   82SAPS  C217 7685   3.526   6.992   8.969 -0.0600  0.0348 -0.1225
   82SAPS  H17R 7686   3.443   7.065   8.964  0.4807  0.6537 -0.2218
   82SAPS  H17S 7687   3.488   6.898   9.016  3.5768 -1.8651 -0.5793
   82SAPS  C218 7688   3.567   6.959   8.824  0.2269  0.6425 -0.0117
   82SAPS  H18R 7689   3.655   6.896   8.800  0.2856  1.8297 -3.4169
   82SAPS  H18S 7690   3.594   7.058   8.782  1.8055 -0.2004 -1.1054
   82SAPS  C219 7691   3.455   6.896   8.741  0.6335  0.7381 -0.3881
   82SAPS  H19R 7692   3.375   6.972   8.731 -0.8071 -0.6343  0.4242
   82SAPS  H19S 7693   3.403   6.808   8.785  0.6889  0.3131 -1.1635
   82SAPS  C220 7694   3.495   6.859   8.600 -0.2798 -0.4784 -0.4765
   82SAPS  H20R 7695   3.590   6.803   8.609 -1.1267 -2.0541 -1.0789
   82SAPS  H20S 7696   3.520   6.945   8.535  0.2892 -1.1090 -1.0994
   82SAPS  H20T 7697   3.413   6.810   8.543  0.2323  2.0135 -3.6104
   82SAPS   C33 7698   3.702   6.381  10.052  0.0086 -0.2592  0.0767
   82SAPS   H3X 7699   3.591   6.383  10.054 -0.1083  1.1186 -2.6175
   82SAPS   H3Y 7700   3.732   6.280  10.086 -2.4855 -0.3876  2.1412
   82SAPS   C34 7701   3.752   6.389   9.904 -0.0288 -0.1949  0.0315
   82SAPS   H4X 7702   3.712   6.300   9.852 -3.3547  0.9204  0.4075
   82SAPS   H4Y 7703   3.862   6.383   9.893 -0.0914 -3.4209  0.2948
   82SAPS   C35 7704   3.689   6.508   9.835  0.2211 -0.2774  0.3484
   82SAPS   H5X 7705   3.709   6.601   9.892  0.4133  1.0390 -1.7574
   82SAPS   H5Y 7706   3.580   6.487   9.835  0.3196 -0.8267  1.0361
   82SAPS   C36 7707   3.733   6.524   9.690 -0.4205 -0.7523 -0.3045
   82SAPS   H6X 7708   3.841   6.548   9.690 -0.7220  0.7620 -0.9029
   82SAPS   H6Y 7709   3.676   6.609   9.646 -0.3099  0.2918  1.4717
   82SAPS   C37 7710   3.725   6.411   9.594  0.1659  0.0995  0.2274
   82SAPS   H7X 7711   3.631   6.352   9.597  0.0405 -0.1463 -3.7375
   82SAPS   H7Y 7712   3.807   6.336   9.601 -0.2234 -0.3428  0.0828
   82SAPS   C38 7713   3.720   6.464   9.449  0.1342  0.6126 -0.1128
   82SAPS   H8X 7714   3.819   6.516   9.440  0.5579 -0.3541 -1.2917
   82SAPS   H8Y 7715   3.641   6.541   9.436 -1.1192 -0.6541 -0.2218
   82SAPS   C39 7716   3.736   6.349   9.344 -0.2177  0.5328  0.4431
   82SAPS   H9X 7717   3.660   6.269   9.354 -0.2245  0.3871 -0.6432
   82SAPS   H9Y 7718   3.831   6.301   9.376 -0.9756 -0.6100  1.0225
   82SAPS  C310 7719   3.749   6.402   9.200 -0.5581 -0.8571 -0.2157
   82SAPS  H10X 7720   3.773   6.322   9.127  1.1449  2.5225 -3.7018
   82SAPS  H10Y 7721   3.829   6.479   9.200 -0.6342 -0.7688  0.6859
   82SAPS  C311 7722   3.613   6.468   9.162 -0.6671 -0.0512  0.1186
   82SAPS  H11X 7723   3.610   6.558   9.227 -0.0161  0.8680 -1.0799
   82SAPS  H11Y 7724   3.527   6.398   9.167 -2.2568  1.6396 -1.5860
   82SAPS  C312 7725   3.619   6.533   9.026  0.1738  0.3824  0.0238
   82SAPS  H12X 7726   3.697   6.612   9.028  0.4487  0.1903 -1.8417
   82SAPS  H12Y 7727   3.526   6.595   9.021 -0.3881 -0.2604  1.8104
   82SAPS  C313 7728   3.659   6.440   8.907 -0.2032 -0.3533 -0.2963
   82SAPS  H13X 7729   3.584   6.359   8.899 -0.9438  0.2167  0.6745
   82SAPS  H13Y 7730   3.751   6.381   8.929  1.4049  2.9724  3.1217
   82SAPS  C314 7731   3.678   6.511   8.781 -0.2784  0.5217  0.4118
   82SAPS  H14X 7732   3.749   6.596   8.787 -0.2859  0.4678  1.3576
   82SAPS  H14Y 7733   3.584   6.560   8.749 -0.4761 -1.7374 -3.0613
   82SAPS  C315 7734   3.714   6.419   8.659 -0.2580  0.0000 -0.2500
   82SAPS  H15X 7735   3.625   6.360   8.632  0.3958  0.3707 -3.5611
   82SAPS  H15Y 7736   3.804   6.364   8.695 -0.7717  0.6987  2.2829
   82SAPS  C316 7737   3.730   6.500   8.533 -0.9564 -0.1524 -0.0050
   82SAPS  H16X 7738   3.774   6.602   8.545  0.9769 -0.6626 -1.9987
   82SAPS  H16Y 7739   3.631   6.513   8.485 -1.2556 -1.9741  0.0673
   82SAPS  C317 7740   3.822   6.443   8.423  0.0064  0.5132  0.2007
   82SAPS  H17X 7741   3.809   6.499   8.329 -2.8033 -1.0144 -0.4532
   82SAPS  H17Y 7742   3.801   6.337   8.397  0.2691  0.4163  0.3758
   82SAPS  C318 7743   3.964   6.449   8.467 -0.8597 -0.2299  0.0849
   82SAPS  H18X 7744   4.026   6.394   8.393  1.5981  0.4934  1.4652
   82SAPS  H18Y 7745   3.990   6.418   8.571 -0.1394  1.2091  0.3552
   82SAPS  H18Z 7746   4.000   6.554   8.465 -0.4494 -0.3794 -0.8842
   83SAPS     N 7747   4.117   2.116  11.162  0.1193 -0.1570 -0.3319
   83SAPS   HN1 7748   4.117   2.168  11.071 -1.2371  1.3920  0.4935
   83SAPS   HN2 7749   4.169   2.169  11.234  1.1358  1.1462 -1.9671
   83SAPS   HN3 7750   4.162   2.024  11.144  2.8621  1.0476 -0.1904
   83SAPS   C12 7751   3.970   2.115  11.181  0.0263 -0.0881 -0.3124
   83SAPS  H12A 7752   3.935   2.051  11.101  1.8104 -0.3166 -0.9483
   83SAPS   C13 7753   3.930   2.058  11.316  0.1448  0.4205 -0.5125
   83SAPS  O13A 7754   4.023   2.039  11.402  0.7168  0.2863  0.3315
   83SAPS  O13B 7755   3.805   2.031  11.331  0.2077 -0.6952  0.5061
   83SAPS   C11 7756   3.910   2.262  11.161  0.1843  0.6242  0.1279
   83SAPS  H11A 7757   3.945   2.322  11.248  0.0677  2.1933 -0.8605
   83SAPS  H11B 7758   3.800   2.249  11.171  0.3468 -1.6857 -0.5179
   83SAPS     P 7759   3.865   2.309  10.913 -0.3802  0.1706  0.2670
   83SAPS   O13 7760   3.779   2.196  10.924  0.0394 -0.6773 -0.0607
   83SAPS   O14 7761   3.794   2.434  10.895 -0.0405  0.1793  0.3147
   83SAPS   O12 7762   3.956   2.320  11.044 -0.3450 -0.0460  0.2361
   83SAPS   O11 7763   3.976   2.281  10.807  0.0472 -0.4445  0.4444
   83SAPS    C1 7764   4.094   2.363  10.803 -0.7573  0.0726  0.4855
   83SAPS    HA 7765   4.126   2.397  10.903  1.7210 -0.6685  0.0169
   83SAPS    HB 7766   4.176   2.305  10.756  2.4161  2.9863  1.9835
   83SAPS    C2 7767   4.063   2.489  10.715  0.2375 -0.6134 -1.0069
   83SAPS    HS 7768   4.005   2.563  10.774 -1.1365  0.9014 -4.0169
   83SAPS   O21 7769   3.988   2.455  10.597  0.3673 -0.1471 -0.6655
   83SAPS   C21 7770   3.904   2.536  10.545  0.6575 -0.1213 -0.2313
   83SAPS   O22 7771   3.875   2.646  10.592  0.0191 -0.2276 -0.0087
   83SAPS   C22 7772   3.854   2.477  10.419  0.0927 -0.0049  1.5066
   83SAPS   H2R 7773   3.946   2.462  10.358 -1.4811 -0.5076 -0.8915
   83SAPS   H2S 7774   3.808   2.378  10.440  0.9472 -0.6038  0.6609
   83SAPS    C3 7775   4.194   2.571  10.674  0.8992  0.2681  0.2269
   83SAPS    HX 7776   4.237   2.591  10.774 -0.4816 -0.2021  0.9444
   83SAPS    HY 7777   4.173   2.671  10.631 -2.0599 -1.0921 -1.9057
   83SAPS   O31 7778   4.285   2.497  10.586  0.2088  0.7541 -0.3288
   83SAPS   C31 7779   4.269   2.514  10.453  0.4328  0.5657  0.7794
   83SAPS   O32 7780   4.186   2.582  10.394  0.3974 -0.0917 -0.4595
   83SAPS   C32 7781   4.381   2.443  10.378  0.5389  0.3891  0.5508
   83SAPS   H2X 7782   4.437   2.378  10.449  3.1386  2.0497  0.1623
   83SAPS   H2Y 7783   4.445   2.528  10.347  0.2182 -0.1487 -1.7885
   83SAPS   C23 7784   3.765   2.567  10.336 -0.0365 -0.1130  0.3308
   83SAPS   H3R 7785   3.813   2.660  10.296 -1.8272  0.1445 -1.3862
   83SAPS   H3S 7786   3.689   2.604  10.409  1.3401 -0.0205  1.7701
   83SAPS   C24 7787   3.669   2.494  10.238 -0.5736  1.0767  0.0429
   83SAPS   H4R 7788   3.565   2.517  10.272 -0.9107  2.1058 -1.5898
   83SAPS   H4S 7789   3.680   2.384  10.238 -0.3667  1.0811 -1.8292
   83SAPS   C25 7790   3.688   2.551  10.102  0.3027  0.1531 -0.1839
   83SAPS   H5R 7791   3.789   2.522  10.071  0.8535  0.1615  1.5076
   83SAPS   C26 7792   3.610   2.631  10.027 -0.0342 -0.1634  0.5620
   83SAPS   H6R 7793   3.641   2.653   9.924 -0.8027 -0.8695  0.1620
   83SAPS   C27 7794   3.484   2.694  10.065 -0.2271 -0.0338 -0.0055
   83SAPS   H7R 7795   3.499   2.719  10.172 -0.9053 -2.5247  0.7492
   83SAPS   H7S 7796   3.404   2.618  10.081 -1.7282  1.5745  0.5280
   83SAPS   C28 7797   3.437   2.810   9.983  1.0895 -0.9468 -0.3229
   83SAPS   H8R 7798   3.440   2.909  10.030 -1.8466 -0.1589 -1.5758
   83SAPS   C29 7799   3.393   2.799   9.856 -0.0119 -0.5825 -0.4644
   83SAPS   H9R 7800   3.371   2.900   9.818  0.3707 -0.0356  0.7132
   83SAPS  C210 7801   3.372   2.675   9.777 -0.0475 -1.2924 -0.2490
   83SAPS  H10R 7802   3.353   2.582   9.836  1.4249 -0.7625  1.1469
   83SAPS  H10S 7803   3.469   2.648   9.732  0.3781 -2.0437  1.0771
   83SAPS  C211 7804   3.266   2.691   9.672 -0.0602  0.3410 -0.2742
   83SAPS  H11R 7805   3.167   2.726   9.706  0.1836 -0.7991  1.7853
   83SAPS  C212 7806   3.277   2.680   9.541  0.1795 -0.5020  0.0487
   83SAPS  H12R 7807   3.191   2.705   9.478  0.7114 -1.9870 -1.3098
   83SAPS  C213 7808   3.401   2.635   9.463  0.0260 -0.3865 -1.2053
   83SAPS  H13R 7809   3.493   2.672   9.512 -1.8994 -0.2788  2.7149
   83SAPS  H13S 7810   3.401   2.685   9.364  1.6352  1.0379 -0.5387
   83SAPS  C214 7811   3.420   2.490   9.442 -0.2336  0.3451  0.3845
   83SAPS  H14R 7812   3.367   2.438   9.362  1.5616 -1.2938  0.1849
   83SAPS  C215 7813   3.519   2.419   9.502  0.1594  0.1552  0.1767
   83SAPS  H15R 7814   3.518   2.310   9.486  0.8563 -0.1122  1.7631
   83SAPS  C216 7815   3.622   2.465   9.602 -0.4574  0.4751 -0.1821
   83SAPS  H16R 7816   3.587   2.483   9.705  2.6302 -0.6769  1.1991
   83SAPS  H16S 7817   3.670   2.560   9.569  1.1675 -0.0980  0.4005
   83SAPS  C217 7818   3.733   2.358   9.617  0.6271 -0.5178  0.5480
   83SAPS  H17R 7819   3.801   2.352   9.529  1.3067 -2.4021  1.1382
   83SAPS  H17S 7820   3.682   2.259   9.615  1.2409 -0.8700 -2.7707
   83SAPS  C218 7821   3.817   2.359   9.753 -1.4709 -0.0184  0.3951
   83SAPS  H18R 7822   3.871   2.262   9.761 -0.0841  0.4417 -2.1692
   83SAPS  H18S 7823   3.735   2.357   9.827 -1.3850  2.1228  0.6074
   83SAPS  C219 7824   3.917   2.478   9.772  0.6653  0.5457 -0.5567
   83SAPS  H19R 7825   3.860   2.573   9.782 -1.6280 -0.7506 -0.5673
   83SAPS  H19S 7826   3.979   2.490   9.681 -0.5112 -0.5151 -1.5354
   83SAPS  C220 7827   4.016   2.481   9.892  0.7505  0.3457 -0.0766
   83SAPS  H20R 7828   3.970   2.422   9.975  3.0200 -1.1021  0.2202
   83SAPS  H20S 7829   4.023   2.585   9.930  0.8113 -0.0044  0.9138
   83SAPS  H20T 7830   4.112   2.429   9.875  0.8125 -0.3088  1.9785
   83SAPS   C33 7831   4.323   2.353  10.264  0.2785 -0.1594 -0.1614
   83SAPS   H3X 7832   4.248   2.415  10.211 -0.3528  1.3022  2.2485
   83SAPS   H3Y 7833   4.256   2.275  10.305 -1.4848  1.2113 -0.3041
   83SAPS   C34 7834   4.428   2.305  10.165 -0.4337 -0.6578 -0.1313
   83SAPS   H4X 7835   4.509   2.244  10.209  1.0186  1.7719  0.7644
   83SAPS   H4Y 7836   4.475   2.398  10.125  1.0580 -1.5030 -0.3752
   83SAPS   C35 7837   4.377   2.236  10.041  0.5526 -0.3816 -0.0066
   83SAPS   H5X 7838   4.289   2.290  10.001  0.9050 -0.7365 -1.3063
   83SAPS   H5Y 7839   4.341   2.134  10.068 -0.8552  0.4086  1.2724
   83SAPS   C36 7840   4.483   2.226   9.933  0.3281  0.0130  0.2688
   83SAPS   H6X 7841   4.566   2.159   9.962  0.4577  0.3657  0.7143
   83SAPS   H6Y 7842   4.526   2.323   9.900 -2.2232  1.5639  1.2261
   83SAPS   C37 7843   4.426   2.162   9.807  0.3831 -0.0257  0.0765
   83SAPS   H7X 7844   4.386   2.061   9.830 -0.5035  0.5848  1.2852
   83SAPS   H7Y 7845   4.506   2.147   9.731 -1.0778  0.9496 -1.7399
   83SAPS   C38 7846   4.300   2.230   9.750 -0.1719 -0.1987  0.3566
   83SAPS   H8X 7847   4.323   2.338   9.737  1.4010 -0.5930 -0.2913
   83SAPS   H8Y 7848   4.228   2.220   9.834  0.8683 -2.0108  1.0928
   83SAPS   C39 7849   4.248   2.160   9.618 -0.6759 -0.3687  0.2540
   83SAPS   H9X 7850   4.226   2.057   9.653  0.6891  0.1549  2.9253
   83SAPS   H9Y 7851   4.326   2.148   9.540 -3.7861 -2.6169 -2.8344
   83SAPS  C310 7852   4.133   2.234   9.548  0.7059 -1.0234  0.0509
   83SAPS  H10X 7853   4.060   2.262   9.627  1.0109 -0.8550  0.2784
   83SAPS  H10Y 7854   4.080   2.167   9.477  2.7475 -1.8626 -0.7624
   83SAPS  C311 7855   4.179   2.363   9.472 -0.2078 -0.3278 -0.0813
   83SAPS  H11X 7856   4.257   2.334   9.398  2.3568  0.9181  1.9833
   83SAPS  H11Y 7857   4.234   2.427   9.544 -0.6940 -1.1814  1.0813
   83SAPS  C312 7858   4.065   2.441   9.414  0.1403 -0.5058 -0.3240
   83SAPS  H12X 7859   4.111   2.542   9.409 -1.9549  0.4612 -0.7658
   83SAPS  H12Y 7860   3.978   2.453   9.481 -0.5585  1.4341 -1.4880
   83SAPS  C313 7861   4.012   2.402   9.274 -0.1363 -0.3069  0.5661
   83SAPS  H13X 7862   3.919   2.459   9.257  0.9797  1.0317 -1.4930
   83SAPS  H13Y 7863   4.001   2.292   9.266 -1.6888 -0.2736  1.7161
   83SAPS  C314 7864   4.103   2.464   9.169  0.0962  0.2628 -0.3277
   83SAPS  H14X 7865   4.205   2.426   9.191  0.0978 -1.1308 -2.3654
   83SAPS  H14Y 7866   4.118   2.573   9.184  0.0909  0.2093  0.0714
   83SAPS  C315 7867   4.054   2.442   9.025 -0.1241 -0.8009  0.2002
   83SAPS  H15X 7868   3.949   2.477   9.026 -0.1057 -0.7104 -0.7483
   83SAPS  H15Y 7869   4.052   2.333   9.002 -1.3052 -0.4705 -1.3515
   83SAPS  C316 7870   4.129   2.533   8.922  0.0357  0.5233 -0.0594
   83SAPS  H16X 7871   4.237   2.507   8.917 -0.2392 -0.5465 -0.8444
   83SAPS  H16Y 7872   4.116   2.637   8.958 -1.0705  0.0633  0.9683
   83SAPS  C317 7873   4.076   2.505   8.783  0.4549 -0.2004 -0.4093
   83SAPS  H17X 7874   3.972   2.544   8.774  0.3048 -0.3972  0.3745
   83SAPS  H17Y 7875   4.063   2.398   8.756 -2.8013  0.2324 -0.9299
   83SAPS  C318 7876   4.153   2.599   8.687  0.5719 -0.0533  0.5804
   83SAPS  H18X 7877   4.251   2.549   8.669  2.0599  2.1783  2.0043
   83SAPS  H18Y 7878   4.179   2.698   8.730  1.4161  0.7607 -1.6537
   83SAPS  H18Z 7879   4.117   2.605   8.583  0.9151 -0.1524  0.4550
   84SAPS     N 7880   6.458   1.327  11.206  0.2036 -0.0693 -0.0392
   84SAPS   HN1 7881   6.500   1.295  11.295 -3.2429 -3.8978  0.4899
   84SAPS   HN2 7882   6.535   1.345  11.139  1.0871 -0.7793  0.7541
   84SAPS   HN3 7883   6.395   1.409  11.212 -1.5356 -1.3791  0.3476
   84SAPS   C12 7884   6.379   1.207  11.166  0.8071  0.2687  0.7075
   84SAPS  H12A 7885   6.449   1.125  11.173 -0.1063 -0.3822  3.0430
   84SAPS   C13 7886   6.261   1.173  11.266  0.1602 -0.0241  0.0519
   84SAPS  O13A 7887   6.205   1.265  11.331 -0.1127 -0.0324  0.6314
   84SAPS  O13B 7888   6.182   1.076  11.228 -0.2743 -0.0547  0.1092
   84SAPS   C11 7889   6.332   1.212  11.017 -0.0452 -0.2272  0.5556
   84SAPS  H11A 7890   6.256   1.293  11.015  0.4901  0.2778  0.5572
   84SAPS  H11B 7891   6.288   1.110  11.008  1.8152 -1.0591  0.4879
   84SAPS     P 7892   6.424   1.181  10.777 -0.0954  0.6277 -0.3161
   84SAPS   O13 7893   6.560   1.169  10.726 -0.6423  0.1268  0.0009
   84SAPS   O14 7894   6.353   1.050  10.791 -0.1056 -0.0423 -0.4221
   84SAPS   O12 7895   6.428   1.250  10.923 -0.0968 -0.2017  0.0411
   84SAPS   O11 7896   6.335   1.279  10.704  0.3656  0.0735  0.3058
   84SAPS    C1 7897   6.192   1.247  10.693 -0.2679  0.8167 -0.5653
   84SAPS    HA 7898   6.174   1.152  10.639  0.7945 -0.0426  0.5488
   84SAPS    HB 7899   6.146   1.246  10.794 -0.7076 -1.4828 -0.7439
   84SAPS    C2 7900   6.118   1.360  10.615 -0.2424  0.1752 -0.3368
   84SAPS    HS 7901   6.017   1.321  10.592  0.2834 -0.4453 -1.7091
   84SAPS   O21 7902   6.181   1.389  10.489  0.1357  0.0767  0.6138
   84SAPS   C21 7903   6.225   1.292  10.406 -0.0649 -0.5300  0.0244
   84SAPS   O22 7904   6.202   1.172  10.416 -0.2929  0.7831  0.9011
   84SAPS   C22 7905   6.303   1.355  10.292  0.5946  0.6269  0.6785
   84SAPS   H2R 7906   6.228   1.396  10.221 -0.5160  0.3096  1.6252
   84SAPS   H2S 7907   6.362   1.437  10.340  0.1729  1.1243  0.3559
   84SAPS    C3 7908   6.099   1.487  10.697  0.5163  0.2309  0.3630
   84SAPS    HX 7909   6.190   1.551  10.707 -0.7994  2.0101  1.5662
   84SAPS    HY 7910   6.058   1.457  10.795 -0.2755 -2.4649 -0.7069
   84SAPS   O31 7911   6.014   1.571  10.615  0.6234 -0.1934  0.0042
   84SAPS   C31 7912   5.887   1.565  10.629  0.5474  0.3589 -0.2996
   84SAPS   O32 7913   5.816   1.495  10.701 -0.1795  1.1491 -0.3763
   84SAPS   C32 7914   5.816   1.662  10.532 -0.0877 -0.5632 -0.0324
   84SAPS   H2X 7915   5.884   1.750  10.534  1.7415 -1.9294  0.3071
   84SAPS   H2Y 7916   5.723   1.702  10.580  1.0358  0.0594  1.7318
   84SAPS   C23 7917   6.399   1.256  10.226  0.2819 -0.3798  0.5219
   84SAPS   H3R 7918   6.342   1.178  10.170 -1.6094  0.8806  0.6122
   84SAPS   H3S 7919   6.448   1.197  10.306  1.5993 -2.6759 -1.8038
   84SAPS   C24 7920   6.507   1.312  10.133 -0.5013  0.6454 -0.0165
   84SAPS   H4R 7921   6.580   1.237  10.096 -0.5101  1.4027 -1.6584
   84SAPS   H4S 7922   6.565   1.389  10.189  0.1863  0.1354 -0.0308
   84SAPS   C25 7923   6.464   1.400  10.016 -0.3492 -0.1414 -0.2722
   84SAPS   H5R 7924   6.487   1.507  10.027  1.0385 -0.3291 -1.1634
   84SAPS   C26 7925   6.408   1.371   9.898  0.2666  0.4435 -0.4226
   84SAPS   H6R 7926   6.378   1.444   9.821 -0.3050 -0.0750 -0.7027
   84SAPS   C27 7927   6.384   1.227   9.857  0.8361  0.6800  0.6100
   84SAPS   H7R 7928   6.417   1.150   9.931  4.2996 -0.4382 -1.8244
   84SAPS   H7S 7929   6.455   1.214   9.772  0.3501  3.9664 -0.4365
   84SAPS   C28 7930   6.239   1.199   9.816 -0.4370  0.8178  0.3110
   84SAPS   H8R 7931   6.161   1.179   9.891 -0.8217 -3.1147 -0.9558
   84SAPS   C29 7932   6.187   1.212   9.692 -0.4172 -0.1090 -0.7540
   84SAPS   H9R 7933   6.087   1.170   9.673 -0.6751  0.9987 -1.9662
   84SAPS  C210 7934   6.263   1.248   9.567 -0.3237 -0.6669  0.3683
   84SAPS  H10R 7935   6.256   1.156   9.504  0.1799 -2.0523  2.2410
   84SAPS  H10S 7936   6.367   1.278   9.592 -0.7127  2.6320 -1.4177
   84SAPS  C211 7937   6.197   1.372   9.514  0.8884 -0.0886  0.3652
   84SAPS  H11R 7938   6.229   1.462   9.568 -2.3717  0.6001  1.3607
   84SAPS  C212 7939   6.109   1.385   9.413  0.0029  0.2643 -0.0500
   84SAPS  H12R 7940   6.071   1.483   9.379  0.5318  0.4956  0.0109
   84SAPS  C213 7941   6.073   1.267   9.331  0.0311 -0.3845 -0.1579
   84SAPS  H13R 7942   6.061   1.177   9.395 -2.2012  1.4474  2.2296
   84SAPS  H13S 7943   6.159   1.245   9.265  2.0438  1.1784  1.7930
   84SAPS  C214 7944   5.938   1.275   9.261  0.5823  0.5988 -0.4699
   84SAPS  H14R 7945   5.863   1.293   9.339  0.6962  0.8357 -0.4175
   84SAPS  C215 7946   5.913   1.265   9.126  0.4111  0.6046 -0.6362
   84SAPS  H15R 7947   5.808   1.274   9.097 -0.5428 -1.5147  1.8255
   84SAPS  C216 7948   6.015   1.241   9.017  0.2861  0.1887 -0.2950
   84SAPS  H16R 7949   6.028   1.134   8.991 -2.9551 -0.6630  1.0472
   84SAPS  H16S 7950   6.114   1.277   9.051 -0.7308  0.2470  2.9631
   84SAPS  C217 7951   5.975   1.309   8.887  0.0312  0.1601  0.1104
   84SAPS  H17R 7952   6.060   1.309   8.816 -0.5660  2.0895 -0.6690
   84SAPS  H17S 7953   5.944   1.416   8.888  1.4370  0.6796 -3.1402
   84SAPS  C218 7954   5.859   1.226   8.831  0.1569 -0.3114  0.2136
   84SAPS  H18R 7955   5.761   1.255   8.874 -1.7750 -1.6207 -2.9000
   84SAPS  H18S 7956   5.853   1.116   8.845 -2.4404 -0.6948 -2.7142
   84SAPS  C219 7957   5.854   1.216   8.671 -0.0241 -0.0790  0.0895
   84SAPS  H19R 7958   5.792   1.128   8.643 -0.2840  0.3805 -0.8181
   84SAPS  H19S 7959   5.958   1.190   8.643  0.4369  2.0524 -0.3350
   84SAPS  C220 7960   5.817   1.341   8.601 -0.5953 -0.0437 -0.9398
   84SAPS  H20R 7961   5.714   1.375   8.626  0.7251  2.5607  1.6209
   84SAPS  H20S 7962   5.836   1.320   8.494 -0.2673 -1.1229 -0.6809
   84SAPS  H20T 7963   5.892   1.419   8.624 -1.2085  0.5529 -0.9279
   84SAPS   C33 7964   5.792   1.610  10.390 -0.5929 -1.1158  0.7681
   84SAPS   H3X 7965   5.707   1.539  10.380 -0.4421 -1.1228 -0.7583
   84SAPS   H3Y 7966   5.879   1.551  10.355 -0.7640 -0.9749  0.0921
   84SAPS   C34 7967   5.765   1.729  10.304 -0.0605 -0.1634  0.5598
   84SAPS   H4X 7968   5.856   1.791  10.290  0.7019 -1.1744  0.8844
   84SAPS   H4Y 7969   5.670   1.775  10.338 -0.6040  0.2694 -1.4061
   84SAPS   C35 7970   5.737   1.701  10.150 -0.3599  0.3383 -1.1178
   84SAPS   H5X 7971   5.651   1.631  10.147  0.6137 -1.0127  0.7694
   84SAPS   H5Y 7972   5.828   1.651  10.112  0.3052  0.7052 -0.0739
   84SAPS   C36 7973   5.711   1.828  10.073 -0.5198  0.1456  0.0446
   84SAPS   H6X 7974   5.806   1.885  10.075 -0.9393  1.2731 -3.8564
   84SAPS   H6Y 7975   5.630   1.885  10.123 -0.1939  1.2617 -0.6588
   84SAPS   C37 7976   5.683   1.789   9.926 -0.1388  0.0454 -0.1426
   84SAPS   H7X 7977   5.586   1.735   9.930 -0.4247  0.6074  0.7770
   84SAPS   H7Y 7978   5.761   1.729   9.874  1.0208  1.1209  0.2871
   84SAPS   C38 7979   5.681   1.914   9.843 -0.0010  0.6157  0.6208
   84SAPS   H8X 7980   5.787   1.948   9.839 -0.0684  1.1872  2.7217
   84SAPS   H8Y 7981   5.613   1.988   9.890 -3.1181 -0.3908 -1.9225
   84SAPS   C39 7982   5.637   1.892   9.692 -1.1189 -0.6023 -0.9462
   84SAPS   H9X 7983   5.688   1.808   9.640  1.4562 -1.2817  2.3031
   84SAPS   H9Y 7984   5.677   1.979   9.637 -0.2068 -0.8371 -0.6761
   84SAPS  C310 7985   5.488   1.885   9.680  0.1073  0.2676 -0.1414
   84SAPS  H10X 7986   5.438   1.976   9.719  0.5719  1.3341 -1.8979
   84SAPS  H10Y 7987   5.457   1.805   9.751 -1.5749  1.5818  0.6599
   84SAPS  C311 7988   5.429   1.860   9.531  0.2464  0.4772 -0.6151
   84SAPS  H11X 7989   5.321   1.853   9.556  0.3399 -0.0923 -0.3657
   84SAPS  H11Y 7990   5.471   1.766   9.492  0.3531 -0.3912  1.4382
   84SAPS  C312 7991   5.456   1.984   9.445  0.2695  0.0527  0.2603
   84SAPS  H12X 7992   5.565   1.998   9.455  0.5699 -2.1170  0.4423
   84SAPS  H12Y 7993   5.405   2.066   9.501 -1.9424 -1.8735  1.2270
   84SAPS  C313 7994   5.421   1.972   9.294  0.2688  0.4562 -0.3133
   84SAPS  H13X 7995   5.313   1.958   9.274  0.5211 -1.8921 -0.3004
   84SAPS  H13Y 7996   5.467   1.877   9.257  2.4855  1.9747 -1.6956
   84SAPS  C314 7997   5.475   2.088   9.212  0.0257 -0.1861  0.3606
   84SAPS  H14X 7998   5.583   2.101   9.238  0.3196 -1.4887 -0.1338
   84SAPS  H14Y 7999   5.415   2.177   9.241 -2.1136 -0.3703 -3.0576
   84SAPS  C315 8000   5.449   2.059   9.065 -0.3481 -1.1969 -0.1224
   84SAPS  H15X 8001   5.342   2.041   9.043 -0.9410  1.6651 -0.0132
   84SAPS  H15Y 8002   5.499   1.965   9.035  3.1019  0.9934 -1.9135
   84SAPS  C316 8003   5.497   2.169   8.970  0.2982 -0.1571 -0.0757
   84SAPS  H16X 8004   5.602   2.204   8.984  0.1381  0.2773  0.0740
   84SAPS  H16Y 8005   5.440   2.261   8.996  1.3205  0.6510 -0.6298
   84SAPS  C317 8006   5.470   2.125   8.826  0.4209  0.1026  0.3282
   84SAPS  H17X 8007   5.363   2.138   8.798  0.2356  0.3553  1.1204
   84SAPS  H17Y 8008   5.501   2.020   8.812 -1.5724 -0.2790 -1.8146
   84SAPS  C318 8009   5.562   2.194   8.723  0.4099 -0.4852 -0.0946
   84SAPS  H18X 8010   5.537   2.148   8.625 -0.5837 -0.9221  0.3454
   84SAPS  H18Y 8011   5.663   2.162   8.756 -0.1919 -0.1694  2.2706
   84SAPS  H18Z 8012   5.547   2.302   8.705  1.4309 -0.6286 -2.0865
   85SAPS     N 8013   3.948   5.191  10.667 -0.6302  0.1391 -0.2730
   85SAPS   HN1 8014   3.892   5.278  10.662 -0.9010  0.0199  0.4960
   85SAPS   HN2 8015   3.945   5.153  10.571 -1.7091  0.0685 -0.2220
   85SAPS   HN3 8016   3.890   5.125  10.722 -1.4305  0.0632 -1.1899
   85SAPS   C12 8017   4.088   5.205  10.730 -0.6160  0.2409  0.2526
   85SAPS  H12A 8018   4.151   5.205  10.642 -0.2720 -0.2643  0.4915
   85SAPS   C13 8019   4.126   5.318  10.834  0.1369  0.2746  0.0673
   85SAPS  O13A 8020   4.029   5.393  10.855  0.3930 -0.1897  0.0227
   85SAPS  O13B 8021   4.227   5.296  10.904 -0.2458 -0.3173 -0.3290
   85SAPS   C11 8022   4.124   5.062  10.790 -0.3157 -0.5227 -0.3789
   85SAPS  H11A 8023   4.066   5.045  10.883 -0.1211 -0.5920 -0.2679
   85SAPS  H11B 8024   4.230   5.068  10.824 -0.3219  0.1523 -0.4528
   85SAPS     P 8025   4.085   4.810  10.753 -0.3676  0.1932 -0.1408
   85SAPS   O13 8026   4.208   4.755  10.813 -0.3436 -0.7050 -0.1262
   85SAPS   O14 8027   3.966   4.833  10.841 -0.0983 -0.0663  0.6304
   85SAPS   O12 8028   4.122   4.958  10.692 -0.1825  0.0908 -0.1535
   85SAPS   O11 8029   4.035   4.722  10.640 -0.2495 -0.0095 -0.2382
   85SAPS    C1 8030   3.961   4.764  10.524  0.1489 -0.2899 -0.7734
   85SAPS    HA 8031   3.869   4.820  10.551  1.4150  1.3064  0.3477
   85SAPS    HB 8032   4.028   4.832  10.466  2.1238 -1.6463 -0.1922
   85SAPS    C2 8033   3.921   4.640  10.432 -0.0345 -0.7398  0.0897
   85SAPS    HS 8034   3.848   4.568  10.474 -0.7929 -1.9641 -3.0368
   85SAPS   O21 8035   4.027   4.585  10.353 -0.0424 -0.0813  0.0151
   85SAPS   C21 8036   4.066   4.468  10.408  0.1617  0.7183  0.8752
   85SAPS   O22 8037   4.030   4.427  10.518  0.5213  0.2852 -0.5041
   85SAPS   C22 8038   4.189   4.418  10.320 -0.1766  0.7344 -0.3896
   85SAPS   H2R 8039   4.252   4.506  10.298 -0.8380  1.4698  0.5789
   85SAPS   H2S 8040   4.253   4.361  10.391 -0.2685  3.2014  1.7989
   85SAPS    C3 8041   3.818   4.698  10.330 -0.8533  0.5821 -0.3499
   85SAPS    HX 8042   3.872   4.782  10.284  1.4007 -1.3991 -1.5384
   85SAPS    HY 8043   3.736   4.747  10.387 -0.7597  1.1311 -0.6922
   85SAPS   O31 8044   3.775   4.609  10.220  0.6271  0.0049 -0.4124
   85SAPS   C31 8045   3.680   4.529  10.241 -0.2247 -0.0008  0.1985
   85SAPS   O32 8046   3.620   4.528  10.350  0.3639 -0.1193  0.4844
   85SAPS   C32 8047   3.655   4.436  10.123 -0.0740  0.4988 -0.5190
   85SAPS   H2X 8048   3.562   4.379  10.145 -0.1043  0.6649 -0.2204
   85SAPS   H2Y 8049   3.736   4.360  10.123  0.7299  1.3316 -0.5569
   85SAPS   C23 8050   4.158   4.354  10.185 -0.4654 -0.5477 -0.3154
   85SAPS   H3R 8051   4.084   4.271  10.190 -2.3619  1.1292  4.1123
   85SAPS   H3S 8052   4.250   4.306  10.145 -0.4459 -0.0657 -0.8754
   85SAPS   C24 8053   4.112   4.465  10.085 -1.1477 -0.4387 -0.1147
   85SAPS   H4R 8054   4.184   4.549  10.080 -0.9886 -0.6253 -1.7241
   85SAPS   H4S 8055   4.016   4.513  10.115 -2.1695 -1.4430 -1.6130
   85SAPS   C25 8056   4.102   4.419   9.948 -0.6933  0.3675 -0.2864
   85SAPS   H5R 8057   4.094   4.310   9.941  2.1970  0.1493 -1.7152
   85SAPS   C26 8058   4.085   4.499   9.836  0.1722  0.7211  0.4123
   85SAPS   H6R 8059   4.100   4.439   9.745  2.7610  0.4658  0.9194
   85SAPS   C27 8060   4.072   4.650   9.828 -0.0579 -0.7311  0.5298
   85SAPS   H7R 8061   4.147   4.696   9.896  1.2857 -1.5439 -0.3566
   85SAPS   H7S 8062   3.974   4.687   9.864 -0.7085  0.2452 -2.0643
   85SAPS   C28 8063   4.102   4.698   9.686  0.4665 -0.1255 -0.1992
   85SAPS   H8R 8064   4.207   4.726   9.666  0.4136 -0.7160 -1.3412
   85SAPS   C29 8065   4.023   4.685   9.578 -0.1546 -0.5977 -0.0635
   85SAPS   H9R 8066   4.069   4.711   9.481 -0.6572  1.0808  0.1084
   85SAPS  C210 8067   3.886   4.627   9.575 -0.1432 -0.1471  0.2446
   85SAPS  H10R 8068   3.864   4.580   9.673  0.5157  0.9819  0.9530
   85SAPS  H10S 8069   3.889   4.537   9.510 -3.0255 -0.2933  0.1747
   85SAPS  C211 8070   3.773   4.716   9.535 -0.1338  0.1855  0.3441
   85SAPS  H11R 8071   3.746   4.784   9.617  0.7589  1.3425 -0.3017
   85SAPS  C212 8072   3.706   4.707   9.416 -0.7062  0.1275  0.1236
   85SAPS  H12R 8073   3.614   4.763   9.394 -2.2449 -2.3631 -0.1140
   85SAPS  C213 8074   3.729   4.599   9.307  0.2004  0.3370 -0.2724
   85SAPS  H13R 8075   3.689   4.503   9.345 -0.1920  0.9875  1.0032
   85SAPS  H13S 8076   3.839   4.590   9.297  0.2492 -1.1741  1.1676
   85SAPS  C214 8077   3.676   4.653   9.181  0.1296  0.2015  0.3840
   85SAPS  H14R 8078   3.651   4.760   9.171  0.8038  0.2929 -0.4495
   85SAPS  C215 8079   3.647   4.576   9.076  0.2665 -0.0868 -0.4169
   85SAPS  H15R 8080   3.608   4.626   8.987  2.2328  3.1134  0.3304
   85SAPS  C216 8081   3.665   4.424   9.069  0.5398  0.5552 -0.3094
   85SAPS  H16R 8082   3.640   4.375   9.166  0.0974  0.9261 -0.2317
   85SAPS  H16S 8083   3.761   4.400   9.019  0.9303  2.3898 -0.5103
   85SAPS  C217 8084   3.562   4.356   8.970 -0.2728 -0.6582  0.0958
   85SAPS  H17R 8085   3.597   4.251   8.965 -1.1953 -0.9285 -3.2809
   85SAPS  H17S 8086   3.583   4.406   8.872  1.7341  1.5681  1.5327
   85SAPS  C218 8087   3.415   4.368   9.002  0.6179 -0.9703  0.6845
   85SAPS  H18R 8088   3.379   4.473   8.990 -1.7821 -1.9217 -1.2283
   85SAPS  H18S 8089   3.389   4.329   9.103 -1.0847 -0.3627  0.5150
   85SAPS  C219 8090   3.334   4.288   8.898  0.1401 -0.2500 -0.1148
   85SAPS  H19R 8091   3.230   4.298   8.936  0.0917  3.0290 -0.8572
   85SAPS  H19S 8092   3.370   4.182   8.901 -0.8132 -0.6030 -0.8063
   85SAPS  C220 8093   3.341   4.348   8.756 -0.0130  0.2881 -0.7171
   85SAPS  H20R 8094   3.280   4.440   8.749  0.7903  0.7846 -1.3635
   85SAPS  H20S 8095   3.287   4.280   8.686  2.9903 -0.2456 -2.7030
   85SAPS  H20T 8096   3.446   4.353   8.720  0.5451 -1.6056  0.5059
   85SAPS   C33 8097   3.634   4.513   9.987 -0.3363  0.3872 -0.5345
   85SAPS   H3X 8098   3.705   4.598   9.990 -1.1913  1.1048  0.7094
   85SAPS   H3Y 8099   3.530   4.550   9.999 -1.6365 -2.4269 -2.1940
   85SAPS   C34 8100   3.654   4.435   9.860 -0.0569  0.7211  0.6085
   85SAPS   H4X 8101   3.759   4.400   9.855 -0.3655 -0.0580 -2.0638
   85SAPS   H4Y 8102   3.627   4.509   9.782  1.3409  1.1978  0.5675
   85SAPS   C35 8103   3.560   4.313   9.856 -0.4664 -0.0296  0.2435
   85SAPS   H5X 8104   3.455   4.350   9.864  0.1879  1.8113  0.9695
   85SAPS   H5Y 8105   3.574   4.238   9.936 -1.0616  1.1777  1.5239
   85SAPS   C36 8106   3.569   4.223   9.727  0.3568 -0.5808 -0.0562
   85SAPS   H6X 8107   3.511   4.129   9.742  0.5124 -0.3836  2.1112
   85SAPS   H6Y 8108   3.676   4.198   9.710  0.8759  0.7104  1.1413
   85SAPS   C37 8109   3.502   4.307   9.609 -0.5497 -0.5270  0.2472
   85SAPS   H7X 8110   3.554   4.404   9.595 -0.1431 -0.8870 -0.8463
   85SAPS   H7Y 8111   3.399   4.331   9.642 -0.8238 -0.0606 -0.8992
   85SAPS   C38 8112   3.528   4.248   9.469  0.0110 -0.0552 -0.4275
   85SAPS   H8X 8113   3.638   4.247   9.453  0.4034 -0.7024  1.9376
   85SAPS   H8Y 8114   3.486   4.323   9.399 -0.0913  1.5750  1.2840
   85SAPS   C39 8115   3.480   4.108   9.455 -0.2410  0.5769  0.4176
   85SAPS   H9X 8116   3.375   4.085   9.483 -0.8162  1.0070 -1.2894
   85SAPS   H9Y 8117   3.542   4.037   9.515 -0.3753 -0.8367 -1.0460
   85SAPS  C310 8118   3.495   4.057   9.306 -0.0204 -0.6455  0.2706
   85SAPS  H10X 8119   3.602   4.030   9.294 -0.5349 -2.6135 -0.1746
   85SAPS  H10Y 8120   3.474   4.138   9.233  1.0307 -0.9079 -0.3392
   85SAPS  C311 8121   3.418   3.928   9.271 -0.1197 -0.6471 -0.1526
   85SAPS  H11X 8122   3.310   3.939   9.291  0.1360 -0.4439  1.2531
   85SAPS  H11Y 8123   3.443   3.842   9.336 -1.5706 -1.6265 -0.8438
   85SAPS  C312 8124   3.456   3.898   9.129  0.3170 -0.4189  0.3304
   85SAPS  H12X 8125   3.566   3.904   9.115  0.1187  2.0411 -0.8047
   85SAPS  H12Y 8126   3.413   3.985   9.073 -1.0915  0.1589  2.2224
   85SAPS  C313 8127   3.385   3.765   9.077 -0.8449 -1.0775  0.1801
   85SAPS  H13X 8128   3.278   3.787   9.056  0.2875  3.1285 -2.2829
   85SAPS  H13Y 8129   3.392   3.694   9.162 -0.4673 -0.1571  0.9490
   85SAPS  C314 8130   3.443   3.718   8.938  0.2576 -0.3417 -0.8794
   85SAPS  H14X 8131   3.432   3.798   8.862  0.1430 -0.3089 -0.8262
   85SAPS  H14Y 8132   3.387   3.625   8.910  0.0231  0.0032 -1.5910
   85SAPS  C315 8133   3.590   3.660   8.947  0.1431 -0.4476  1.0674
   85SAPS  H15X 8134   3.598   3.586   9.030  0.2193 -0.8709  0.6839
   85SAPS  H15Y 8135   3.664   3.739   8.973  0.3639 -0.4747  0.5345
   85SAPS  C316 8136   3.649   3.589   8.818 -0.0300  0.5281 -0.0249
   85SAPS  H16X 8137   3.676   3.649   8.728  1.2437 -1.3200 -0.9263
   85SAPS  H16Y 8138   3.569   3.523   8.778 -2.1420  2.2442  1.0899
   85SAPS  C317 8139   3.774   3.506   8.835  0.2300  0.4846 -0.4420
   85SAPS  H17X 8140   3.750   3.416   8.895 -1.1853  1.7740  1.0200
   85SAPS  H17Y 8141   3.855   3.566   8.882  1.1686 -0.3420 -0.9617
   85SAPS  C318 8142   3.834   3.452   8.709 -0.5368  0.7907  0.3218
   85SAPS  H18X 8143   3.764   3.387   8.652  1.5204 -0.1664 -1.2488
   85SAPS  H18Y 8144   3.910   3.383   8.752 -1.3949  0.4686  1.3923
   85SAPS  H18Z 8145   3.869   3.534   8.644 -3.2747  0.3447 -1.8905
   86SAPS     N 8146   6.054   4.984  10.712 -0.3903 -0.0430 -0.1948
   86SAPS   HN1 8147   5.968   4.945  10.669  0.3014 -0.8014 -0.9472
   86SAPS   HN2 8148   6.015   5.074  10.746  1.1316  0.9524 -0.9170
   86SAPS   HN3 8149   6.131   5.015  10.648 -0.5175 -2.4351 -1.6474
   86SAPS   C12 8150   6.125   4.909  10.817 -0.1257  0.0535  0.4812
   86SAPS  H12A 8151   6.200   4.977  10.855 -0.7393  2.1076 -1.6891
   86SAPS   C13 8152   6.021   4.878  10.923  0.0299  0.1297  0.4355
   86SAPS  O13A 8153   5.894   4.885  10.903 -0.3465  0.1395 -0.7162
   86SAPS  O13B 8154   6.064   4.839  11.033 -0.2847 -0.4062 -0.3539
   86SAPS   C11 8155   6.184   4.780  10.763  0.2034  0.2147  0.6949
   86SAPS  H11A 8156   6.242   4.718  10.835  1.1673 -1.7018 -1.5575
   86SAPS  H11B 8157   6.255   4.804  10.680  3.0487 -1.3703  2.5123
   86SAPS     P 8158   6.088   4.563  10.658  0.5075 -0.0284 -0.1572
   86SAPS   O13 8159   6.231   4.527  10.658 -0.2339  0.5247  0.1062
   86SAPS   O14 8160   6.000   4.476  10.745  0.3815 -0.3453 -0.3185
   86SAPS   O12 8161   6.076   4.706  10.709 -0.1774  0.7113  0.1500
   86SAPS   O11 8162   6.019   4.579  10.513 -0.6977  0.7389 -0.4581
   86SAPS    C1 8163   6.037   4.704  10.439 -0.0710 -0.2101 -0.4990
   86SAPS    HA 8164   5.975   4.783  10.486  2.1038  2.5241 -1.8923
   86SAPS    HB 8165   6.142   4.738  10.424 -0.0677 -0.6779 -1.6632
   86SAPS    C2 8166   5.980   4.688  10.294  0.3597 -0.1471 -0.2611
   86SAPS    HS 8167   5.990   4.789  10.249  0.9252 -0.4212 -0.7767
   86SAPS   O21 8168   5.841   4.629  10.301 -0.9227 -0.2662  0.3386
   86SAPS   C21 8169   5.737   4.711  10.320  0.2931 -0.3388  0.2492
   86SAPS   O22 8170   5.741   4.832  10.337 -0.3166 -0.6198  0.2258
   86SAPS   C22 8171   5.605   4.631  10.296  0.1715  0.0897 -0.4928
   86SAPS   H2R 8172   5.569   4.603  10.398 -0.1857 -1.6371 -1.0638
   86SAPS   H2S 8173   5.532   4.703  10.253  2.0453  3.5660  1.7258
   86SAPS    C3 8174   6.070   4.589  10.218 -0.6719  0.0596  0.2538
   86SAPS    HX 8175   6.034   4.487  10.243  0.3863 -0.0719  1.3718
   86SAPS    HY 8176   6.174   4.601  10.254 -0.4364 -1.9197  0.3287
   86SAPS   O31 8177   6.050   4.617  10.080  0.3825 -0.8057 -0.0989
   86SAPS   C31 8178   6.137   4.584   9.994  0.4149 -0.4662 -0.7977
   86SAPS   O32 8179   6.247   4.537  10.024  0.2425  0.1762  0.0146
   86SAPS   C32 8180   6.093   4.609   9.851  0.4265 -0.5364  0.5020
   86SAPS   H2X 8181   6.171   4.681   9.818 -1.3002  0.6755 -1.1677
   86SAPS   H2Y 8182   5.997   4.665   9.846  1.3503  1.4146  2.4846
   86SAPS   C23 8183   5.607   4.503  10.213  0.0718  0.1139 -0.5132
   86SAPS   H3R 8184   5.519   4.443  10.243 -1.0678  0.5158 -2.8727
   86SAPS   H3S 8185   5.704   4.450  10.224  0.4095  0.2214 -2.6014
   86SAPS   C24 8186   5.578   4.518  10.063  0.1828  0.8508  0.6862
   86SAPS   H4R 8187   5.472   4.550  10.049  0.5470  1.5171 -0.7623
   86SAPS   H4S 8188   5.580   4.424  10.004 -0.0156  1.2602  0.0181
   86SAPS   C25 8189   5.672   4.609   9.996  0.3651  0.2522 -0.5586
   86SAPS   H5R 8190   5.777   4.577  10.009  0.6789  1.6514  0.6579
   86SAPS   C26 8191   5.652   4.724   9.938 -0.3853 -0.4989  0.7323
   86SAPS   H6R 8192   5.732   4.787   9.897 -1.7009  0.0804 -1.0968
   86SAPS   C27 8193   5.515   4.784   9.915  0.3052 -0.5547 -0.0683
   86SAPS   H7R 8194   5.441   4.721   9.967  0.3007  0.7437  1.5949
   86SAPS   H7S 8195   5.497   4.789   9.806  0.2417 -0.4459 -0.0530
   86SAPS   C28 8196   5.513   4.922   9.978 -0.0573  0.2288  0.0485
   86SAPS   H8R 8197   5.442   4.935  10.061 -1.8278  1.2657 -1.5353
   86SAPS   C29 8198   5.544   5.039   9.914 -0.2580  0.2358  0.4837
   86SAPS   H9R 8199   5.513   5.132   9.965 -0.0982 -0.3224  1.6218
   86SAPS  C210 8200   5.606   5.056   9.784 -0.0525 -0.5851 -0.4018
   86SAPS  H10R 8201   5.686   4.979   9.778  1.0527  0.6146 -2.9785
   86SAPS  H10S 8202   5.657   5.155   9.788  0.9863 -1.0000 -2.2831
   86SAPS  C211 8203   5.519   5.047   9.665 -0.1710 -0.5721 -0.3922
   86SAPS  H11R 8204   5.412   5.066   9.684 -0.1405  0.0853 -0.8208
   86SAPS  C212 8205   5.559   5.032   9.540  0.0764  0.3928  0.0465
   86SAPS  H12R 8206   5.482   5.038   9.462  0.2467 -0.3292 -0.1824
   86SAPS  C213 8207   5.701   5.018   9.493  0.6135  0.2682 -0.0279
   86SAPS  H13R 8208   5.769   5.072   9.562  2.5281 -0.3309 -1.3690
   86SAPS  H13S 8209   5.709   5.075   9.398  1.2470  0.2370  0.0007
   86SAPS  C214 8210   5.734   4.874   9.487 -0.1660  0.5119  0.1065
   86SAPS  H14R 8211   5.688   4.818   9.570 -0.3803  2.6491  1.5293
   86SAPS  C215 8212   5.821   4.819   9.397  0.1209  0.6483 -0.8685
   86SAPS  H15R 8213   5.823   4.709   9.384  0.4350  0.5608 -0.1440
   86SAPS  C216 8214   5.884   4.887   9.285  0.1835  0.5500  0.6782
   86SAPS  H16R 8215   5.995   4.896   9.288  0.3110 -0.5810  0.0136
   86SAPS  H16S 8216   5.848   4.991   9.276 -2.3847 -0.4656 -2.3150
   86SAPS  C217 8217   5.842   4.828   9.144 -0.6559 -1.1819 -0.4537
   86SAPS  H17R 8218   5.850   4.918   9.079 -3.1168 -0.4790  0.1059
   86SAPS  H17S 8219   5.735   4.804   9.129 -0.6016 -0.2129 -2.7659
   86SAPS  C218 8220   5.936   4.726   9.098  0.3184  0.4807 -0.2055
   86SAPS  H18R 8221   5.945   4.641   9.168  0.4533  0.6695  0.0067
   86SAPS  H18S 8222   6.036   4.771   9.077  1.2727 -1.0672  0.7983
   86SAPS  C219 8223   5.887   4.656   8.972  0.3820 -0.8646  0.3581
   86SAPS  H19R 8224   5.784   4.615   8.979 -0.5286  1.1982 -0.1594
   86SAPS  H19S 8225   5.955   4.570   8.953  0.0758 -1.1232  0.4248
   86SAPS  C220 8226   5.867   4.758   8.856  0.3009  0.6758  0.4585
   86SAPS  H20R 8227   5.829   4.704   8.767 -0.0549  0.9741  0.4283
   86SAPS  H20S 8228   5.966   4.805   8.835  1.0122 -0.8219  0.3045
   86SAPS  H20T 8229   5.796   4.839   8.879 -0.7464 -0.2006  0.3948
   86SAPS   C33 8230   6.094   4.483   9.763 -0.7805  0.1989  0.0258
   86SAPS   H3X 8231   6.178   4.418   9.794 -1.9641 -1.6611 -0.4673
   86SAPS   H3Y 8232   6.131   4.513   9.662  3.8362  0.7189  1.6388
   86SAPS   C34 8233   5.958   4.411   9.751  0.3459 -0.9823 -0.5275
   86SAPS   H4X 8234   5.914   4.402   9.852 -0.3739  0.9311 -0.6306
   86SAPS   H4Y 8235   5.980   4.304   9.728  0.7962 -0.7119 -1.4245
   86SAPS   C35 8236   5.881   4.484   9.641  0.9106 -0.8815 -0.0365
   86SAPS   H5X 8237   5.936   4.491   9.545 -0.5352  1.9449 -0.7948
   86SAPS   H5Y 8238   5.868   4.592   9.663 -0.5929 -0.7834 -1.1969
   86SAPS   C36 8239   5.740   4.415   9.631  0.0946  0.0657  0.4451
   86SAPS   H6X 8240   5.683   4.436   9.724 -2.1869 -1.2381 -0.5715
   86SAPS   H6Y 8241   5.752   4.305   9.632  0.6749  0.0643 -1.4447
   86SAPS   C37 8242   5.667   4.446   9.488  0.3333  0.4042 -1.0087
   86SAPS   H7X 8243   5.668   4.556   9.472 -0.8541  0.7419  0.9031
   86SAPS   H7Y 8244   5.562   4.410   9.487 -0.0375  1.4412 -1.4754
   86SAPS   C38 8245   5.746   4.377   9.371 -0.1691  0.4883  0.1953
   86SAPS   H8X 8246   5.736   4.268   9.391 -1.2667  0.0919 -2.1415
   86SAPS   H8Y 8247   5.856   4.392   9.363  0.3097 -2.0219  1.1746
   86SAPS   C39 8248   5.672   4.399   9.233  0.3830 -0.1292  0.0786
   86SAPS   H9X 8249   5.727   4.490   9.200 -2.0008  0.6938 -1.9229
   86SAPS   H9Y 8250   5.565   4.420   9.254  0.3493 -1.6566  1.6037
   86SAPS  C310 8251   5.701   4.281   9.144  0.8393  0.7114 -0.2221
   86SAPS  H10X 8252   5.632   4.201   9.180 -0.3117  1.8372  0.1425
   86SAPS  H10Y 8253   5.807   4.248   9.153  0.4419 -0.0753  2.5784
   86SAPS  C311 8254   5.675   4.312   8.996  0.0221  0.3511 -0.4643
   86SAPS  H11X 8255   5.740   4.397   8.966  1.3007 -0.3791  0.1378
   86SAPS  H11Y 8256   5.572   4.353   8.992  0.4092  1.2813 -1.2997
   86SAPS  C312 8257   5.703   4.193   8.902 -0.0315 -1.0802 -0.4386
   86SAPS  H12X 8258   5.666   4.213   8.798 -0.8894 -0.1992  0.0117
   86SAPS  H12Y 8259   5.628   4.127   8.950 -0.9993  1.3598  1.6550
   86SAPS  C313 8260   5.840   4.134   8.908  0.0325 -0.2964 -0.1563
   86SAPS  H13X 8261   5.852   4.055   8.831 -0.7361 -1.1113  0.5498
   86SAPS  H13Y 8262   5.849   4.077   9.003 -1.2579 -1.2047 -0.5490
   86SAPS  C314 8263   5.940   4.243   8.883  0.1019  0.7750  0.0484
   86SAPS  H14X 8264   5.926   4.312   8.969  1.1866 -1.4828  2.1511
   86SAPS  H14Y 8265   5.924   4.293   8.785 -0.7996 -1.0318 -0.7654
   86SAPS  C315 8266   6.088   4.195   8.876  0.0875 -0.2530  0.2025
   86SAPS  H15X 8267   6.144   4.290   8.866  1.1551 -0.7853  0.8359
   86SAPS  H15Y 8268   6.113   4.129   8.790  0.5033 -2.4854  1.9231
   86SAPS  C316 8269   6.138   4.120   9.004  0.7439  0.0899  0.1267
   86SAPS  H16X 8270   6.088   4.022   9.015  2.6198 -0.9913 -0.4739
   86SAPS  H16Y 8271   6.118   4.174   9.099  0.7181  2.5177 -1.1675
   86SAPS  C317 8272   6.289   4.081   8.992 -0.2839 -0.7875  0.1054
   86SAPS  H17X 8273   6.353   4.172   8.995  1.6272 -2.1117  2.1937
   86SAPS  H17Y 8274   6.315   4.031   8.897  1.2839 -2.6790  1.4495
   86SAPS  C318 8275   6.342   3.993   9.108 -0.1809 -0.0118 -0.0607
   86SAPS  H18X 8276   6.266   3.912   9.119 -3.1876  2.5469 -0.5906
   86SAPS  H18Y 8277   6.364   4.047   9.203 -2.1203 -2.1717  1.7641
   86SAPS  H18Z 8278   6.431   3.934   9.080 -1.2082 -1.4045 -0.5257
   87SAPS     N 8279   6.131   4.263  10.875  0.2600  0.5128  0.4540
   87SAPS   HN1 8280   6.090   4.219  10.960 -0.9166 -0.5902 -0.6412
   87SAPS   HN2 8281   6.085   4.345  10.831 -1.4583 -1.3553 -1.4442
   87SAPS   HN3 8282   6.130   4.193  10.799  0.5315  0.6513  0.3197
   87SAPS   C12 8283   6.268   4.305  10.903 -0.0541  0.5261  0.3262
   87SAPS  H12A 8284   6.289   4.397  10.851 -0.7425  0.9911  0.8561
   87SAPS   C13 8285   6.292   4.353  11.049 -0.4276  1.2199 -0.1946
   87SAPS  O13A 8286   6.195   4.382  11.120  0.2143 -0.6278  0.4126
   87SAPS  O13B 8287   6.412   4.378  11.084  0.0326  0.4020  0.3790
   87SAPS   C11 8288   6.360   4.196  10.858 -0.5505 -0.1976  0.0706
   87SAPS  H11A 8289   6.357   4.116  10.935  0.7752 -0.7149 -0.3742
   87SAPS  H11B 8290   6.466   4.228  10.868 -0.8759  0.5913  1.1927
   87SAPS     P 8291   6.449   4.154  10.615  0.0072 -0.0027  0.2518
   87SAPS   O13 8292   6.486   4.289  10.574  0.4019 -0.0284 -0.8370
   87SAPS   O14 8293   6.564   4.070  10.644  0.0809 -0.1572  0.2289
   87SAPS   O12 8294   6.341   4.150  10.725  0.4282  0.4165 -0.0888
   87SAPS   O11 8295   6.382   4.102  10.487  0.1929  0.5870 -0.5785
   87SAPS    C1 8296   6.246   4.125  10.447  0.1000  0.0746 -0.6233
   87SAPS    HA 8297   6.198   4.025  10.454  1.7673 -0.7109  0.0294
   87SAPS    HB 8298   6.189   4.188  10.519  0.1504  1.4514 -1.7317
   87SAPS    C2 8299   6.238   4.191  10.308 -0.1684 -0.2201 -0.8492
   87SAPS    HS 8300   6.222   4.301  10.310 -1.7291 -0.4095 -1.6983
   87SAPS   O21 8301   6.119   4.142  10.247  0.3897 -0.0960 -0.3331
   87SAPS   C21 8302   6.000   4.176  10.298  0.0070 -0.1792 -0.3327
   87SAPS   O22 8303   5.981   4.237  10.401  0.1641 -0.2325 -0.4533
   87SAPS   C22 8304   5.884   4.124  10.216 -0.2064 -0.3676 -0.0509
   87SAPS   H2R 8305   5.894   4.013  10.214  0.3305 -0.3228 -1.7407
   87SAPS   H2S 8306   5.796   4.156  10.275 -0.7049 -0.6719 -0.6099
   87SAPS    C3 8307   6.358   4.149  10.219  0.1372  0.4108 -0.8982
   87SAPS    HX 8308   6.348   4.038  10.216  2.8069  0.0437  0.6154
   87SAPS    HY 8309   6.455   4.172  10.268  0.8996 -1.8697 -1.2089
   87SAPS   O31 8310   6.336   4.220  10.095 -0.2926 -0.8601  0.2454
   87SAPS   C31 8311   6.437   4.214  10.016  0.9508  0.0573 -0.3273
   87SAPS   O32 8312   6.551   4.182  10.054  0.5334  0.2978  0.3167
   87SAPS   C32 8313   6.386   4.251   9.875 -0.1693  0.4032  0.5854
   87SAPS   H2X 8314   6.416   4.355   9.851  0.8636 -0.0888 -0.3544
   87SAPS   H2Y 8315   6.278   4.231   9.857 -0.1126 -0.0788  0.7659
   87SAPS   C23 8316   5.894   4.168  10.071 -0.0727 -0.4289  0.5631
   87SAPS   H3R 8317   5.960   4.101  10.012 -0.8657 -1.1777  0.5140
   87SAPS   H3S 8318   5.933   4.272  10.072 -0.3465 -0.1958 -2.3156
   87SAPS   C24 8319   5.754   4.164  10.004 -0.6359  0.2099 -0.1326
   87SAPS   H4R 8320   5.775   4.213   9.907 -1.1152  0.3695 -0.1592
   87SAPS   H4S 8321   5.686   4.230  10.062  0.5612  3.1422 -1.8983
   87SAPS   C25 8322   5.715   4.014  10.002  0.1502 -0.2967  1.1469
   87SAPS   H5R 8323   5.667   3.990  10.098  0.6259  0.1176  1.4934
   87SAPS   C26 8324   5.734   3.930   9.897 -0.4237 -0.3956  0.8141
   87SAPS   H6R 8325   5.698   3.826   9.906 -0.3744 -0.2766  2.9701
   87SAPS   C27 8326   5.804   3.961   9.767 -0.4649 -0.3015  0.1116
   87SAPS   H7R 8327   5.802   4.071   9.750  0.2683 -0.4559 -1.1627
   87SAPS   H7S 8328   5.750   3.916   9.681 -1.0409  0.7516 -0.0954
   87SAPS   C28 8329   5.957   3.928   9.763  1.2944 -0.0342  0.1090
   87SAPS   H8R 8330   5.997   3.883   9.854 -0.5450 -0.0695  0.9486
   87SAPS   C29 8331   6.042   3.967   9.671 -0.6630  0.2731  0.7374
   87SAPS   H9R 8332   6.149   3.946   9.674 -0.5211  0.0400 -2.3012
   87SAPS  C210 8333   6.010   4.045   9.545 -0.2680  0.2280 -1.1155
   87SAPS  H10R 8334   6.038   4.152   9.552  0.2252  0.0308  0.0643
   87SAPS  H10S 8335   5.901   4.059   9.525 -0.1839  1.5451 -0.7272
   87SAPS  C211 8336   6.085   3.999   9.424  0.6438 -0.5040 -0.1145
   87SAPS  H11R 8337   6.186   4.042   9.416  0.0967  0.9153  0.3123
   87SAPS  C212 8338   6.043   3.914   9.329  0.1011  0.0907 -0.5269
   87SAPS  H12R 8339   6.105   3.906   9.239  0.6073 -1.4068 -0.0654
   87SAPS  C213 8340   5.912   3.840   9.320 -0.8726 -0.5911 -0.0193
   87SAPS  H13R 8341   5.844   3.870   9.402  0.2919  1.1545  0.3569
   87SAPS  H13S 8342   5.929   3.731   9.331  0.2261 -0.1405  4.6419
   87SAPS  C214 8343   5.851   3.860   9.184  0.9463 -0.5911  0.1592
   87SAPS  H14R 8344   5.765   3.929   9.190 -0.0139 -1.7414  0.1062
   87SAPS  C215 8345   5.867   3.793   9.070  0.0980  0.3801 -0.1482
   87SAPS  H15R 8346   5.818   3.824   8.977  2.1480 -0.1403 -1.4574
   87SAPS  C216 8347   5.984   3.694   9.049 -0.4294  0.1732 -0.1765
   87SAPS  H16R 8348   6.055   3.696   9.134  0.0061 -0.4960 -0.5226
   87SAPS  H16S 8349   6.043   3.735   8.964  1.8439 -1.9682  0.2886
   87SAPS  C217 8350   5.945   3.549   9.014  0.3616  0.3245  0.3228
   87SAPS  H17R 8351   5.908   3.550   8.909 -0.5793 -0.9948  0.6260
   87SAPS  H17S 8352   5.864   3.512   9.080  1.1926  1.8545  2.2966
   87SAPS  C218 8353   6.069   3.467   9.023  0.4892 -0.0720 -0.4233
   87SAPS  H18R 8354   6.100   3.470   9.130  3.6585  1.8165 -1.2534
   87SAPS  H18S 8355   6.148   3.511   8.959  0.3287 -1.5238 -1.6591
   87SAPS  C219 8356   6.056   3.318   8.989  0.4321  0.4499  0.2831
   87SAPS  H19R 8357   5.947   3.297   8.981  0.4135  1.1023 -1.7538
   87SAPS  H19S 8358   6.111   3.258   9.064  2.7894  1.6584 -0.3855
   87SAPS  C220 8359   6.112   3.291   8.843 -0.2954 -0.2926 -0.5823
   87SAPS  H20R 8360   6.060   3.357   8.770 -0.2745  0.4786  0.0916
   87SAPS  H20S 8361   6.089   3.194   8.795 -1.0082  0.3883 -1.6560
   87SAPS  H20T 8362   6.223   3.304   8.848 -0.4398  0.4604  2.9131
   87SAPS   C33 8363   6.466   4.162   9.768  0.1137 -0.0715  0.2988
   87SAPS   H3X 8364   6.458   4.056   9.801  2.3284 -0.5350 -0.4576
   87SAPS   H3Y 8365   6.576   4.180   9.764  0.2783 -1.1730 -2.3760
   87SAPS   C34 8366   6.407   4.176   9.627 -0.2553 -0.3631  0.5002
   87SAPS   H4X 8367   6.303   4.137   9.635 -1.6020  2.6273 -0.7966
   87SAPS   H4Y 8368   6.473   4.109   9.568 -0.9924  0.3684 -1.2389
   87SAPS   C35 8369   6.408   4.307   9.562  0.6569 -0.8442 -0.6483
   87SAPS   H5X 8370   6.510   4.352   9.561  0.4509 -0.2731  1.0614
   87SAPS   H5Y 8371   6.341   4.364   9.630 -0.2864 -0.5684 -1.7774
   87SAPS   C36 8372   6.353   4.306   9.421  0.0964  0.0218 -0.2727
   87SAPS   H6X 8373   6.247   4.272   9.419  0.0575  0.0768  0.5635
   87SAPS   H6Y 8374   6.405   4.235   9.353 -1.8712 -1.3124 -0.4531
   87SAPS   C37 8375   6.363   4.436   9.352  0.4417  0.2712  0.4919
   87SAPS   H7X 8376   6.465   4.477   9.370 -0.9454  3.5352  1.6595
   87SAPS   H7Y 8377   6.290   4.506   9.397 -1.0839 -1.0667  0.1998
   87SAPS   C38 8378   6.335   4.416   9.199 -0.4322 -0.5859  0.3773
   87SAPS   H8X 8379   6.226   4.434   9.189 -0.7278 -1.3525  1.8502
   87SAPS   H8Y 8380   6.352   4.312   9.166  1.0606  0.5788 -2.9234
   87SAPS   C39 8381   6.406   4.519   9.111 -0.0313  0.4153 -0.3044
   87SAPS   H9X 8382   6.513   4.495   9.122 -0.8183 -2.7248  2.0504
   87SAPS   H9Y 8383   6.393   4.618   9.161 -0.2719  0.0240  0.4306
   87SAPS  C310 8384   6.362   4.512   8.965  0.6856 -0.1708  0.0830
   87SAPS  H10X 8385   6.281   4.587   8.962  0.8534  0.0811  1.3267
   87SAPS  H10Y 8386   6.340   4.415   8.916  0.8312  1.3003 -3.1479
   87SAPS  C311 8387   6.469   4.572   8.875 -0.4899  0.3408 -0.0704
   87SAPS  H11X 8388   6.528   4.653   8.924 -0.1641  0.5165 -0.7410
   87SAPS  H11Y 8389   6.422   4.616   8.785 -1.8348  0.0827  0.4843
   87SAPS  C312 8390   6.557   4.464   8.817  0.5708 -0.2214 -0.4408
   87SAPS  H12X 8391   6.494   4.392   8.760 -0.2263 -1.0913  1.4445
   87SAPS  H12Y 8392   6.602   4.403   8.899 -0.6021  0.7220  0.9728
   87SAPS  C313 8393   6.665   4.523   8.728  0.3515 -0.3200 -0.2637
   87SAPS  H13X 8394   6.719   4.601   8.787  0.4063 -1.8415  1.8077
   87SAPS  H13Y 8395   6.620   4.581   8.645 -1.0942  0.0275  0.7288
   87SAPS  C314 8396   6.760   4.412   8.678  0.3002  0.8865  0.1763
   87SAPS  H14X 8397   6.706   4.329   8.627 -0.3691  1.0510  0.6049
   87SAPS  H14Y 8398   6.820   4.372   8.762  2.4987  1.6692 -0.9540
   87SAPS  C315 8399   6.862   4.469   8.580 -0.4164  1.2382  0.2041
   87SAPS  H15X 8400   6.936   4.532   8.634  2.5014  1.6288 -3.8072
   87SAPS  H15Y 8401   6.815   4.533   8.502 -0.6986  0.2575 -0.4481
   87SAPS  C316 8402   6.939   4.356   8.510  0.0716 -0.6035  0.2437
   87SAPS  H16X 8403   6.876   4.293   8.444  0.0761 -0.1449 -0.1974
   87SAPS  H16Y 8404   6.961   4.280   8.588  1.8007 -0.7120 -0.3094
   87SAPS  C317 8405   7.068   4.392   8.437 -0.1256  0.4621  0.2800
   87SAPS  H17X 8406   7.151   4.395   8.511  0.3573 -0.2789 -0.2163
   87SAPS  H17Y 8407   7.065   4.486   8.377 -0.9555  0.1944 -0.1076
   87SAPS  C318 8408   7.107   4.277   8.342  0.1970 -0.3046  0.3669
   87SAPS  H18X 8409   7.033   4.285   8.259  1.8634  1.1009 -1.0743
   87SAPS  H18Y 8410   7.094   4.181   8.397  3.1447 -1.7916 -1.2683
   87SAPS  H18Z 8411   7.212   4.293   8.310 -0.1787  1.3733 -0.1261
   88SAPS     N 8412   1.054   3.406  11.072  0.1798  0.0238 -0.3083
   88SAPS   HN1 8413   0.958   3.414  11.032 -0.0185  0.5540  0.2743
   88SAPS   HN2 8414   1.079   3.313  11.032  1.1026 -0.4130  1.2283
   88SAPS   HN3 8415   1.049   3.399  11.175 -1.3084  0.6943 -0.3191
   88SAPS   C12 8416   1.131   3.517  11.023 -0.7934  0.1991 -0.2021
   88SAPS  H12A 8417   1.111   3.536  10.919 -0.4129 -0.5095 -0.4172
   88SAPS   C13 8418   1.117   3.650  11.104  0.5112 -1.1121  0.2108
   88SAPS  O13A 8419   1.035   3.656  11.204  0.0358 -0.6230  0.6684
   88SAPS  O13B 8420   1.189   3.749  11.075 -0.3056 -1.0568 -0.3643
   88SAPS   C11 8421   1.286   3.471  11.020 -0.2368  0.3852 -0.3376
   88SAPS  H11A 8422   1.334   3.451  11.118  1.0962  1.8550 -0.6397
   88SAPS  H11B 8423   1.344   3.558  10.980 -1.1246  1.0121 -0.2833
   88SAPS     P 8424   1.459   3.333  10.893 -0.3024 -0.0965  0.4154
   88SAPS   O13 8425   1.490   3.454  10.815  0.0428  0.3713 -0.5962
   88SAPS   O14 8426   1.550   3.298  11.003 -0.6163  0.2289 -0.0411
   88SAPS   O12 8427   1.306   3.350  10.943  0.7253  0.0497  0.3149
   88SAPS   O11 8428   1.454   3.207  10.796  0.1565 -0.5836 -0.0979
   88SAPS    C1 8429   1.338   3.136  10.765 -0.1935 -0.8370 -0.4242
   88SAPS    HA 8430   1.368   3.029  10.763  3.1383 -0.0115  0.3017
   88SAPS    HB 8431   1.267   3.130  10.850  2.7266 -1.4327  2.1257
   88SAPS    C2 8432   1.273   3.158  10.625 -0.4102 -0.1677 -0.2839
   88SAPS    HS 8433   1.183   3.094  10.614 -0.1700 -0.5214 -0.1973
   88SAPS   O21 8434   1.367   3.136  10.514 -0.4433  0.2599 -0.6176
   88SAPS   C21 8435   1.408   3.015  10.492 -0.1344  0.3005  0.0536
   88SAPS   O22 8436   1.372   2.917  10.551  0.2833  0.3098  0.2211
   88SAPS   C22 8437   1.514   3.011  10.385 -0.1315 -0.2208  0.2591
   88SAPS   H2R 8438   1.542   3.118  10.374  1.4930 -0.6209  0.2035
   88SAPS   H2S 8439   1.602   2.958  10.428  1.8448  1.5771 -1.3135
   88SAPS    C3 8440   1.208   3.296  10.615  0.1274 -0.1430  0.0787
   88SAPS    HX 8441   1.289   3.367  10.639 -0.7915  0.2125  2.4095
   88SAPS    HY 8442   1.123   3.310  10.686  2.2728 -0.6739  2.9251
   88SAPS   O31 8443   1.154   3.316  10.479  0.2242  0.1437  0.0230
   88SAPS   C31 8444   1.192   3.418  10.405 -0.8537 -1.2352 -0.0913
   88SAPS   O32 8445   1.261   3.513  10.441  0.0117 -0.3190  1.0658
   88SAPS   C32 8446   1.132   3.414  10.262  0.6180  0.3779 -0.7707
   88SAPS   H2X 8447   1.067   3.503  10.248  1.3866  1.1150  0.1560
   88SAPS   H2Y 8448   1.077   3.318  10.253  1.6845 -0.2492 -0.7229
   88SAPS   C23 8449   1.467   2.944  10.258  1.1118  0.5651 -0.3332
   88SAPS   H3R 8450   1.376   2.990  10.212  0.8363  1.7871  1.3638
   88SAPS   H3S 8451   1.429   2.846  10.295 -0.7291  1.2925 -0.1833
   88SAPS   C24 8452   1.574   2.926  10.151 -0.2463  0.4255 -0.0058
   88SAPS   H4R 8453   1.646   2.853  10.194 -1.2034  0.9472  2.6750
   88SAPS   H4S 8454   1.637   3.016  10.169  0.4714 -0.4364  2.1599
   88SAPS   C25 8455   1.511   2.902  10.020  0.2398  0.4920  0.1128
   88SAPS   H5R 8456   1.402   2.894  10.026  0.4011 -2.3035  0.6410
   88SAPS   C26 8457   1.574   2.883   9.897 -0.6038  0.3361  0.0292
   88SAPS   H6R 8458   1.507   2.860   9.813  2.1583  0.4007 -2.3588
   88SAPS   C27 8459   1.725   2.887   9.872  0.1657 -0.5844 -0.4163
   88SAPS   H7R 8460   1.750   2.789   9.825 -1.9657 -0.8262 -1.1258
   88SAPS   H7S 8461   1.783   2.900   9.966 -1.0003 -1.4457  0.4549
   88SAPS   C28 8462   1.764   3.004   9.777 -0.3486  0.4864 -0.0061
   88SAPS   H8R 8463   1.782   3.097   9.833 -1.3172 -1.0032  3.0535
   88SAPS   C29 8464   1.763   2.999   9.647  0.1695  0.0466  0.2502
   88SAPS   H9R 8465   1.796   3.083   9.584  1.4049 -1.6815 -1.5196
   88SAPS  C210 8466   1.732   2.880   9.561  0.8192 -0.9182 -0.1765
   88SAPS  H10R 8467   1.678   2.809   9.627 -0.6004  0.5778  0.3280
   88SAPS  H10S 8468   1.826   2.827   9.535 -0.1588 -2.7467 -0.2232
   88SAPS  C211 8469   1.654   2.907   9.434 -0.1689  0.1311 -0.0208
   88SAPS  H11R 8470   1.560   2.852   9.424  0.1086 -0.0164 -2.6785
   88SAPS  C212 8471   1.696   2.971   9.320 -0.6753  0.1469  0.1251
   88SAPS  H12R 8472   1.609   2.986   9.253 -2.1487 -1.9119  1.4625
   88SAPS  C213 8473   1.824   3.041   9.281 -0.5065  0.8425 -0.2053
   88SAPS  H13R 8474   1.849   3.018   9.176 -0.0349  0.4264 -0.0088
   88SAPS  H13S 8475   1.903   3.016   9.355 -0.6723 -1.4455 -0.7040
   88SAPS  C214 8476   1.796   3.188   9.288 -0.2663 -0.3469 -0.0023
   88SAPS  H14R 8477   1.738   3.218   9.375  0.4171  1.7111 -0.2165
   88SAPS  C215 8478   1.855   3.289   9.210  0.4731 -0.0036  0.3291
   88SAPS  H15R 8479   1.827   3.391   9.239  0.6703  1.1615 -3.0956
   88SAPS  C216 8480   1.959   3.271   9.100 -0.0390 -0.0470  0.4257
   88SAPS  H16R 8481   1.935   3.337   9.013 -2.1687 -1.5705 -0.2154
   88SAPS  H16S 8482   1.971   3.163   9.080  2.9168  0.4603 -1.0609
   88SAPS  C217 8483   2.096   3.328   9.144 -0.3104 -0.1711 -0.0812
   88SAPS  H17R 8484   2.114   3.273   9.239 -3.1252 -3.2884 -1.1608
   88SAPS  H17S 8485   2.075   3.434   9.173 -0.6566 -0.1913 -0.2572
   88SAPS  C218 8486   2.207   3.337   9.044  0.3851  0.0529 -0.2076
   88SAPS  H18R 8487   2.282   3.397   9.100 -0.2514  2.3947 -1.7383
   88SAPS  H18S 8488   2.171   3.389   8.953 -2.3412 -1.4485 -0.1163
   88SAPS  C219 8489   2.267   3.204   9.002 -0.2613 -0.1905 -0.1903
   88SAPS  H19R 8490   2.192   3.129   8.970 -0.3252 -0.2308  0.0515
   88SAPS  H19S 8491   2.305   3.157   9.096 -0.3430 -1.7781 -0.9196
   88SAPS  C220 8492   2.372   3.210   8.893  0.1273 -0.1906 -0.5767
   88SAPS  H20R 8493   2.452   3.283   8.915 -0.8668  1.1454 -1.2778
   88SAPS  H20S 8494   2.321   3.245   8.801  0.4192  0.1995 -0.5883
   88SAPS  H20T 8495   2.419   3.112   8.869  1.4257  0.5925 -1.3139
   88SAPS   C33 8496   1.242   3.413  10.152 -0.2449 -0.2993 -0.3698
   88SAPS   H3X 8497   1.329   3.482  10.165 -0.4912  0.2038 -1.3179
   88SAPS   H3Y 8498   1.184   3.449  10.065  0.1896  0.1520 -0.4800
   88SAPS   C34 8499   1.300   3.277  10.116 -0.2314 -0.1329 -0.7283
   88SAPS   H4X 8500   1.214   3.217  10.079 -1.5079  1.8359 -1.1261
   88SAPS   H4Y 8501   1.352   3.233  10.204  0.0245 -1.4261 -1.4972
   88SAPS   C35 8502   1.410   3.276  10.004 -0.9993  0.1732 -0.2416
   88SAPS   H5X 8503   1.441   3.169  10.008  0.5330  0.6200  0.7429
   88SAPS   H5Y 8504   1.497   3.342  10.024 -0.3021 -1.2560  1.8075
   88SAPS   C36 8505   1.339   3.317   9.865  0.1806 -0.0294  0.6946
   88SAPS   H6X 8506   1.293   3.417   9.877  0.5642  0.0082  1.9751
   88SAPS   H6Y 8507   1.260   3.240   9.851 -1.4427  1.6926 -0.1221
   88SAPS   C37 8508   1.428   3.310   9.734 -0.0581 -0.1886 -0.7944
   88SAPS   H7X 8509   1.485   3.215   9.727 -1.2716 -0.9580 -0.5573
   88SAPS   H7Y 8510   1.489   3.401   9.718 -2.0984  1.5180  0.5244
   88SAPS   C38 8511   1.335   3.308   9.616  0.0750  0.2961 -0.5452
   88SAPS   H8X 8512   1.266   3.395   9.612 -0.7736 -0.2399  1.3312
   88SAPS   H8Y 8513   1.266   3.221   9.613  1.6627 -1.0401  0.0921
   88SAPS   C39 8514   1.418   3.311   9.491 -0.0709 -0.1150  0.0459
   88SAPS   H9X 8515   1.488   3.225   9.496  1.4895  1.1210 -0.0217
   88SAPS   H9Y 8516   1.488   3.396   9.481 -1.4399  1.0734  0.2453
   88SAPS  C310 8517   1.336   3.291   9.359  0.1759 -0.4023  0.2754
   88SAPS  H10X 8518   1.311   3.394   9.325  0.3058 -0.2259  0.7064
   88SAPS  H10Y 8519   1.244   3.235   9.386 -0.2099  0.3554  0.5909
   88SAPS  C311 8520   1.435   3.236   9.250  0.1740  0.0245  0.1303
   88SAPS  H11X 8521   1.441   3.127   9.272 -2.8442 -0.5004 -1.1080
   88SAPS  H11Y 8522   1.531   3.287   9.272 -0.4388  0.6907  1.3603
   88SAPS  C312 8523   1.401   3.255   9.103 -0.1775  0.0675 -0.8084
   88SAPS  H12X 8524   1.493   3.238   9.044 -0.4645 -1.3208 -0.8859
   88SAPS  H12Y 8525   1.377   3.364   9.095  2.1871  1.0449  2.8933
   88SAPS  C313 8526   1.289   3.164   9.056  0.0358  0.5188 -0.2064
   88SAPS  H13X 8527   1.205   3.186   9.126 -1.5445 -3.5722 -0.5171
   88SAPS  H13Y 8528   1.310   3.059   9.087 -1.1467 -0.5653 -2.7652
   88SAPS  C314 8529   1.255   3.179   8.908  0.1999 -0.4982 -0.0036
   88SAPS  H14X 8530   1.260   3.287   8.880 -0.2946 -0.8069 -1.3509
   88SAPS  H14Y 8531   1.151   3.140   8.903  0.8862 -2.4471  0.3285
   88SAPS  C315 8532   1.356   3.113   8.823  0.7437 -0.6217  0.6495
   88SAPS  H15X 8533   1.394   3.017   8.865  1.5939 -1.1013 -1.1002
   88SAPS  H15Y 8534   1.438   3.188   8.822  1.2197 -1.1206  1.0042
   88SAPS  C316 8535   1.304   3.102   8.679 -0.3227  0.7303  0.7597
   88SAPS  H16X 8536   1.392   3.113   8.612 -2.1225  3.4547 -1.3526
   88SAPS  H16Y 8537   1.226   3.178   8.661 -1.1305 -0.3529 -0.4325
   88SAPS  C317 8538   1.241   2.962   8.657  0.1818 -0.0286 -0.1763
   88SAPS  H17X 8539   1.141   2.956   8.706  0.0713 -2.8237 -0.6116
   88SAPS  H17Y 8540   1.312   2.885   8.693 -1.8683 -1.3562  1.1912
   88SAPS  C318 8541   1.210   2.927   8.512  0.3802 -0.0281 -0.0635
   88SAPS  H18X 8542   1.146   3.004   8.465  1.0205  1.1952  1.0086
   88SAPS  H18Y 8543   1.165   2.827   8.497 -2.0507  1.0677 -0.4739
   88SAPS  H18Z 8544   1.300   2.933   8.447 -0.1483 -1.1245 -0.9331
   89SAPS     N 8545   0.540   5.779  10.848  0.2882  0.3623  0.2149
   89SAPS   HN1 8546   0.637   5.757  10.880  0.4130  2.2003  1.2840
   89SAPS   HN2 8547   0.510   5.733  10.760 -1.1580 -0.1965  0.9717
   89SAPS   HN3 8548   0.540   5.882  10.832 -0.9498  0.3820  0.2445
   89SAPS   C12 8549   0.444   5.744  10.963  0.7180 -0.1938  0.2148
   89SAPS  H12A 8550   0.414   5.642  10.944  0.3957  0.1724 -1.3470
   89SAPS   C13 8551   0.520   5.745  11.097  0.2312  0.0201 -0.0711
   89SAPS  O13A 8552   0.640   5.785  11.101 -0.4682  0.0955  0.0163
   89SAPS  O13B 8553   0.454   5.736  11.205 -0.4509  0.4308 -0.2921
   89SAPS   C11 8554   0.331   5.851  10.976 -0.0692 -0.3029  0.3206
   89SAPS  H11A 8555   0.368   5.951  11.007 -0.3558  0.9588 -2.9868
   89SAPS  H11B 8556   0.279   5.817  11.069  1.2563 -2.6387  0.2908
   89SAPS     P 8557   0.139   5.970  10.835  0.0114 -0.3808  0.3498
   89SAPS   O13 8558   0.023   5.911  10.772  0.2425 -0.5697  0.5828
   89SAPS   O14 8559   0.118   6.035  10.966  0.2043  0.2154  0.6426
   89SAPS   O12 8560   0.241   5.845  10.861  0.0889  0.1609 -0.0699
   89SAPS   O11 8561   0.212   6.064  10.740  0.2428 -0.3802  0.2537
   89SAPS    C1 8562   0.307   6.020  10.640  0.1628  0.7175  0.0676
   89SAPS    HA 8563   0.396   6.085  10.623  1.5709 -1.2436 -0.4467
   89SAPS    HB 8564   0.368   5.930  10.663  0.3113  0.7376 -0.2434
   89SAPS    C2 8565   0.250   6.028  10.495 -0.0973 -0.3706  0.5248
   89SAPS    HS 8566   0.157   5.968  10.486  1.0879 -2.2611  0.4392
   89SAPS   O21 8567   0.347   5.984  10.399 -0.3213  0.0883 -0.0365
   89SAPS   C21 8568   0.300   5.909  10.301 -0.0012  0.2331 -0.0988
   89SAPS   O22 8569   0.184   5.863  10.300 -0.6717  0.4652  0.7175
   89SAPS   C22 8570   0.402   5.899  10.193  0.1390  0.3712 -0.4321
   89SAPS   H2R 8571   0.505   5.895  10.235 -0.2370 -1.4846  0.4027
   89SAPS   H2S 8572   0.370   5.801  10.152 -0.0573 -0.5493  1.7980
   89SAPS    C3 8573   0.214   6.174  10.465  0.0406  0.1579 -0.8099
   89SAPS    HX 8574   0.309   6.231  10.472 -0.3382  0.6534  0.5189
   89SAPS    HY 8575   0.149   6.207  10.549  1.4806 -3.5019  2.0156
   89SAPS   O31 8576   0.158   6.187  10.330 -0.1797  0.0515  0.6061
   89SAPS   C31 8577   0.027   6.162  10.331 -0.3927  0.0408  0.1807
   89SAPS   O32 8578  -0.038   6.127  10.423  0.3358  0.1392 -0.5075
   89SAPS   C32 8579  -0.031   6.170  10.191 -0.3827 -0.7897  0.5437
   89SAPS   H2X 8580  -0.134   6.208  10.207 -0.0777  0.7065 -0.7575
   89SAPS   H2Y 8581  -0.038   6.072  10.139 -0.3650 -0.5107  0.0052
   89SAPS   C23 8582   0.378   6.009  10.088 -0.0733  0.0160 -0.0470
   89SAPS   H3R 8583   0.477   6.041  10.049  0.7381 -1.4682  0.7389
   89SAPS   H3S 8584   0.335   6.098  10.139 -0.3210 -0.6273  0.8945
   89SAPS   C24 8585   0.281   5.981   9.967  0.1159  0.5646 -0.4128
   89SAPS   H4R 8586   0.278   6.079   9.916  1.6996  1.1369  0.5325
   89SAPS   H4S 8587   0.175   5.956   9.986  0.7615 -1.3375  1.0799
   89SAPS   C25 8588   0.339   5.875   9.871  0.3063 -0.9556 -0.5276
   89SAPS   H5R 8589   0.354   5.774   9.913  2.0601  0.0689  1.5227
   89SAPS   C26 8590   0.378   5.900   9.748 -0.2202 -0.5373 -0.2414
   89SAPS   H6R 8591   0.425   5.818   9.692 -0.4159 -2.1118  1.8068
   89SAPS   C27 8592   0.390   6.035   9.684 -0.5518  0.1997  0.0852
   89SAPS   H7R 8593   0.480   6.045   9.620 -1.8759  1.2680 -1.6954
   89SAPS   H7S 8594   0.411   6.112   9.762  0.4881 -0.6894  0.7021
   89SAPS   C28 8595   0.274   6.091   9.608  0.4613 -0.4258  0.6980
   89SAPS   H8R 8596   0.181   6.105   9.666 -0.9717  0.6561 -1.7403
   89SAPS   C29 8597   0.281   6.145   9.482  0.3448 -0.2459  0.2038
   89SAPS   H9R 8598   0.197   6.194   9.431  0.9853  2.2183  1.3509
   89SAPS  C210 8599   0.403   6.144   9.398  0.0718 -0.0405  0.2179
   89SAPS  H10R 8600   0.422   6.040   9.364  0.9960  0.2574 -0.2213
   89SAPS  H10S 8601   0.490   6.176   9.459  1.6588 -1.3494 -1.2595
   89SAPS  C211 8602   0.389   6.221   9.268  0.2359  0.1726 -0.1127
   89SAPS  H11R 8603   0.422   6.326   9.274 -2.9345  1.4170 -1.8626
   89SAPS  C212 8604   0.328   6.178   9.156  0.1249 -0.9437 -0.7039
   89SAPS  H12R 8605   0.333   6.251   9.074 -1.2527  0.3552  0.2990
   89SAPS  C213 8606   0.264   6.045   9.127 -0.4069 -0.3424  0.4815
   89SAPS  H13R 8607   0.226   5.996   9.219  0.3521  0.0042  0.9815
   89SAPS  H13S 8608   0.337   5.975   9.080  0.4472  1.6892 -1.4183
   89SAPS  C214 8609   0.138   6.066   9.046  0.4199 -0.1058 -0.1088
   89SAPS  H14R 8610   0.052   6.109   9.098  0.5224  0.7679 -0.6325
   89SAPS  C215 8611   0.127   6.043   8.919 -0.2599 -0.5419 -0.2877
   89SAPS  H15R 8612   0.032   6.056   8.865 -0.3147 -0.9763 -0.3058
   89SAPS  C216 8613   0.230   5.997   8.821 -0.2402 -0.0798 -0.7041
   89SAPS  H16R 8614   0.287   5.916   8.872 -2.1844 -1.2589 -0.3316
   89SAPS  H16S 8615   0.287   6.088   8.790 -0.9110  0.0980 -1.4366
   89SAPS  C217 8616   0.163   5.946   8.699  0.3411  0.0970  0.0158
   89SAPS  H17R 8617   0.102   6.029   8.660  1.8898  2.0884  1.6015
   89SAPS  H17S 8618   0.079   5.877   8.724  0.2027 -0.6114 -2.2138
   89SAPS  C218 8619   0.260   5.885   8.598 -0.7670  0.0997  0.2331
   89SAPS  H18R 8620   0.297   5.795   8.651 -1.4698  0.1236  0.7776
   89SAPS  H18S 8621   0.352   5.946   8.590 -1.3309  1.0236  0.6437
   89SAPS  C219 8622   0.207   5.862   8.456  0.0800  0.6864 -1.0389
   89SAPS  H19R 8623   0.185   5.957   8.402  2.6960  2.1370  0.2181
   89SAPS  H19S 8624   0.120   5.794   8.453 -0.6152  1.5346 -0.7340
   89SAPS  C220 8625   0.324   5.799   8.372 -0.0707 -0.5417 -0.5149
   89SAPS  H20R 8626   0.353   5.701   8.415  0.8168 -0.9397 -1.9326
   89SAPS  H20S 8627   0.408   5.872   8.377 -1.0002  0.4560  2.2491
   89SAPS  H20T 8628   0.281   5.778   8.272 -1.4512  1.8394 -0.5078
   89SAPS   C33 8629   0.042   6.274  10.103 -0.5469  0.5948  0.1017
   89SAPS   H3X 8630   0.152   6.256  10.099 -0.5176  0.2295  1.9244
   89SAPS   H3Y 8631   0.027   6.375  10.146 -0.2416  0.3443  0.8113
   89SAPS   C34 8632  -0.011   6.276   9.952  0.1529  0.2017  0.6861
   89SAPS   H4X 8633  -0.122   6.274   9.956  0.0016  0.3284 -1.8717
   89SAPS   H4Y 8634   0.012   6.171   9.922  1.9253  0.1961  1.9295
   89SAPS   C35 8635   0.058   6.373   9.864  0.2748 -0.5374  0.3803
   89SAPS   H5X 8636   0.160   6.331   9.846  0.7051  0.3185  0.7427
   89SAPS   H5Y 8637   0.075   6.467   9.921 -3.6685  0.5916 -0.0063
   89SAPS   C36 8638  -0.008   6.391   9.727 -0.2564  0.6879  0.0730
   89SAPS   H6X 8639  -0.105   6.446   9.732  0.3226  1.7674 -0.2374
   89SAPS   H6Y 8640  -0.028   6.287   9.694  0.2767  0.3560  0.7636
   89SAPS   C37 8641   0.082   6.450   9.623  0.1923  0.3486 -0.5598
   89SAPS   H7X 8642   0.188   6.414   9.628 -0.0998 -0.3900  0.8849
   89SAPS   H7Y 8643   0.091   6.557   9.651  2.4865  0.1154 -0.1680
   89SAPS   C38 8644   0.039   6.432   9.475 -0.5041 -0.0400 -0.1201
   89SAPS   H8X 8645  -0.065   6.469   9.463  0.5282  2.5526 -1.9573
   89SAPS   H8Y 8646   0.047   6.328   9.436 -1.7954 -0.4593  0.6773
   89SAPS   C39 8647   0.126   6.519   9.385 -0.5812 -0.6032  0.4636
   89SAPS   H9X 8648   0.232   6.493   9.401 -0.8854 -2.2063  0.0277
   89SAPS   H9Y 8649   0.108   6.624   9.417 -1.3959 -1.4922  3.1269
   89SAPS  C310 8650   0.102   6.509   9.234 -0.2164  0.3099  0.1383
   89SAPS  H10X 8651  -0.007   6.517   9.214 -0.3883  2.9976  1.6883
   89SAPS  H10Y 8652   0.119   6.407   9.194 -2.2325  0.2698 -0.7295
   89SAPS  C311 8653   0.183   6.611   9.155  0.5290  0.7689  0.4717
   89SAPS  H11X 8654   0.284   6.611   9.200  0.2945 -0.1750  1.0249
   89SAPS  H11Y 8655   0.149   6.714   9.179  2.6303  1.3915  0.9652
   89SAPS  C312 8656   0.186   6.576   9.001 -0.0244  0.4264 -0.4503
   89SAPS  H12X 8657   0.082   6.543   8.979  0.0997  0.5196 -1.2010
   89SAPS  H12Y 8658   0.250   6.485   8.998  1.6348  1.5543 -1.1527
   89SAPS  C313 8659   0.226   6.694   8.910  0.5101  0.3546  0.5556
   89SAPS  H13X 8660   0.318   6.739   8.954  0.9939 -0.6127  0.5484
   89SAPS  H13Y 8661   0.143   6.767   8.924 -1.8472 -1.5953 -2.0551
   89SAPS  C314 8662   0.242   6.661   8.762 -0.3136 -0.3372  0.2992
   89SAPS  H14X 8663   0.147   6.644   8.706 -1.1212  1.1095  1.1547
   89SAPS  H14Y 8664   0.294   6.563   8.753  2.5677  1.1369 -0.2275
   89SAPS  C315 8665   0.326   6.755   8.680  0.0361  0.0535 -0.2658
   89SAPS  H15X 8666   0.427   6.765   8.723  0.4167 -0.7907 -0.9311
   89SAPS  H15Y 8667   0.299   6.860   8.706 -0.9580 -0.7497  2.2051
   89SAPS  C316 8668   0.326   6.738   8.530  0.1768 -0.2484  0.1933
   89SAPS  H16X 8669   0.287   6.637   8.505  1.1629 -0.0945 -2.3357
   89SAPS  H16Y 8670   0.427   6.744   8.485 -0.1474 -0.0232 -0.5158
   89SAPS  C317 8671   0.261   6.844   8.431 -0.1595 -0.2666 -0.6573
   89SAPS  H17X 8672   0.167   6.891   8.466 -0.1304 -0.7028  0.0171
   89SAPS  H17Y 8673   0.234   6.784   8.342 -2.4117  0.4431 -0.4927
   89SAPS  C318 8674   0.359   6.957   8.379  0.3013 -0.7156  0.3846
   89SAPS  H18X 8675   0.416   7.000   8.464  0.5200 -0.1350 -0.0458
   89SAPS  H18Y 8676   0.294   7.024   8.319  0.9200 -1.8161 -1.6139
   89SAPS  H18Z 8677   0.439   6.912   8.316  1.0316  0.6520  0.2880
   90SAPS     N 8678   3.533   6.010  10.956 -0.6743  0.4179  0.4017
   90SAPS   HN1 8679   3.482   5.956  11.029  0.9882 -0.8156  0.7246
   90SAPS   HN2 8680   3.558   6.101  11.000 -0.7111  1.2797 -1.2837
   90SAPS   HN3 8681   3.471   6.019  10.874 -2.4864  0.8863  1.7588
   90SAPS   C12 8682   3.657   5.929  10.917  0.0112 -0.5573 -0.2316
   90SAPS  H12A 8683   3.745   5.990  10.903 -1.7745  1.7984 -2.0271
   90SAPS   C13 8684   3.702   5.837  11.028 -0.7053 -0.7239 -0.0735
   90SAPS  O13A 8685   3.641   5.845  11.136  0.3229  0.3079  0.0111
   90SAPS  O13B 8686   3.809   5.770  11.019 -0.4704 -0.2675  0.4491
   90SAPS   C11 8687   3.628   5.842  10.782  0.3856  0.2819 -0.1539
   90SAPS  H11A 8688   3.549   5.768  10.806  1.5452 -1.1399 -0.5556
   90SAPS  H11B 8689   3.723   5.787  10.759 -0.2421 -0.1348 -1.9047
   90SAPS     P 8690   3.432   5.940  10.638 -0.3324 -0.0376 -0.0756
   90SAPS   O13 8691   3.389   5.812  10.589 -0.1137  0.3576  0.3304
   90SAPS   O14 8692   3.371   5.995  10.759 -0.8810  0.2710 -0.1973
   90SAPS   O12 8693   3.587   5.923  10.676  0.2032  0.0732  0.5098
   90SAPS   O11 8694   3.420   6.051  10.523  0.4643  0.2548 -0.6489
   90SAPS    C1 8695   3.520   6.106  10.447 -0.2058 -0.2436  0.9173
   90SAPS    HA 8696   3.531   6.213  10.477 -2.5509  0.7583 -1.3688
   90SAPS    HB 8697   3.609   6.040  10.459 -0.9305 -1.8019 -1.4744
   90SAPS    C2 8698   3.498   6.098  10.290 -0.1842  0.1607 -0.4090
   90SAPS    HS 8699   3.575   6.160  10.240 -0.3400  2.5491  2.0723
   90SAPS   O21 8700   3.367   6.144  10.250  0.2189 -0.3201 -0.1107
   90SAPS   C21 8701   3.347   6.278  10.252  0.6924  0.1114  0.5109
   90SAPS   O22 8702   3.432   6.363  10.285 -0.1491  0.0160 -0.0520
   90SAPS   C22 8703   3.198   6.306  10.222 -0.8145 -0.1647  0.6359
   90SAPS   H2R 8704   3.160   6.229  10.152  2.3141 -0.9465 -0.3444
   90SAPS   H2S 8705   3.140   6.304  10.317 -0.3956  3.3656  1.1037
   90SAPS    C3 8706   3.513   5.955  10.248 -0.1472  1.4252  0.2009
   90SAPS    HX 8707   3.435   5.903  10.308  0.2924 -1.3098 -1.4168
   90SAPS    HY 8708   3.615   5.915  10.267 -0.4692  0.4045 -0.1190
   90SAPS   O31 8709   3.480   5.940  10.108 -0.3354  0.9040  0.1436
   90SAPS   C31 8710   3.576   5.960  10.016  0.2281 -0.0191 -0.0484
   90SAPS   O32 8711   3.683   6.008  10.045 -0.4396  0.0785  0.2245
   90SAPS   C32 8712   3.528   5.938   9.871  0.3194 -0.1322 -0.4147
   90SAPS   H2X 8713   3.424   5.976   9.870  0.0714 -0.5910  2.0154
   90SAPS   H2Y 8714   3.531   5.827   9.863  0.8980 -0.2986  1.5961
   90SAPS   C23 8715   3.168   6.448  10.161  0.2281 -0.4289  0.0246
   90SAPS   H3R 8716   3.219   6.528  10.219  2.3717  0.7911 -3.2772
   90SAPS   H3S 8717   3.058   6.465  10.162  0.1088 -1.1239 -0.3676
   90SAPS   C24 8718   3.203   6.471  10.010 -0.2065 -0.1331 -0.3724
   90SAPS   H4R 8719   3.314   6.458  10.012 -0.2523 -0.5612 -0.6416
   90SAPS   H4S 8720   3.168   6.575   9.992 -1.0327  0.1281  2.3818
   90SAPS   C25 8721   3.140   6.376   9.916  0.5281  0.0071  0.0469
   90SAPS   H5R 8722   3.074   6.304   9.967  0.6571 -0.1101  0.0481
   90SAPS   C26 8723   3.154   6.364   9.784  0.4541  0.2361 -0.0647
   90SAPS   H6R 8724   3.099   6.289   9.726  1.0434  1.4610 -2.3337
   90SAPS   C27 8725   3.257   6.439   9.707  0.0474 -0.4275  0.4428
   90SAPS   H7R 8726   3.281   6.380   9.616  1.0769 -0.2629  0.5909
   90SAPS   H7S 8727   3.357   6.445   9.754 -0.4857  2.7834  1.4065
   90SAPS   C28 8728   3.212   6.576   9.663 -0.4929 -0.3129  0.6916
   90SAPS   H8R 8729   3.175   6.642   9.743 -3.9722 -1.8984  0.5766
   90SAPS   C29 8730   3.184   6.617   9.538 -0.4894 -0.0886  0.4343
   90SAPS   H9R 8731   3.148   6.721   9.529 -1.3307 -0.1612  2.3900
   90SAPS  C210 8732   3.208   6.536   9.414 -0.4351  0.1564 -0.1069
   90SAPS  H10R 8733   3.116   6.547   9.352  0.1858 -0.0367 -1.0928
   90SAPS  H10S 8734   3.223   6.430   9.441 -3.4310 -0.3897 -0.2404
   90SAPS  C211 8735   3.330   6.589   9.340  0.4305  0.3270 -0.1585
   90SAPS  H11R 8736   3.419   6.524   9.350 -0.3198 -0.6141  0.5286
   90SAPS  C212 8737   3.337   6.675   9.240  0.6136 -0.4284 -0.1907
   90SAPS  H12R 8738   3.432   6.693   9.187  1.0435 -1.3327  0.2512
   90SAPS  C213 8739   3.210   6.748   9.182 -0.3880  0.2007 -0.2756
   90SAPS  H13R 8740   3.229   6.856   9.161  0.6594 -0.1068 -0.9823
   90SAPS  H13S 8741   3.134   6.744   9.263  1.1360  1.4618  1.2927
   90SAPS  C214 8742   3.169   6.670   9.058 -1.3872  0.1056  0.3435
   90SAPS  H14R 8743   3.254   6.626   9.004 -0.4832 -1.3786  2.7949
   90SAPS  C215 8744   3.046   6.640   9.016  0.6678  0.1703  0.7327
   90SAPS  H15R 8745   3.037   6.565   8.937 -4.0552 -0.3433  1.4720
   90SAPS  C216 8746   2.920   6.672   9.089  0.2276 -0.6322  0.2949
   90SAPS  H16R 8747   2.848   6.719   9.018  0.8796 -2.4649 -1.6919
   90SAPS  H16S 8748   2.938   6.732   9.181  2.5673 -1.0916  0.1894
   90SAPS  C217 8749   2.857   6.546   9.143 -0.4318 -0.4933  0.6267
   90SAPS  H17R 8750   2.782   6.572   9.220 -1.7639  0.3370 -0.8994
   90SAPS  H17S 8751   2.932   6.474   9.185  1.6865 -0.5940 -2.8944
   90SAPS  C218 8752   2.780   6.465   9.033  0.2417 -0.3464  0.3287
   90SAPS  H18R 8753   2.860   6.420   8.970  2.2065  0.5665  2.0180
   90SAPS  H18S 8754   2.718   6.527   8.965 -0.9242 -1.1544  0.6339
   90SAPS  C219 8755   2.671   6.376   9.085  0.1133  0.7587 -1.0749
   90SAPS  H19R 8756   2.624   6.330   8.996 -0.4519 -2.2739  0.6628
   90SAPS  H19S 8757   2.593   6.421   9.150 -1.2597 -1.2662 -1.2422
   90SAPS  C220 8758   2.722   6.257   9.165  0.1536 -0.1759  0.9379
   90SAPS  H20R 8759   2.637   6.193   9.198 -2.9259  2.0139 -1.9943
   90SAPS  H20S 8760   2.781   6.285   9.255  1.2859  1.2309 -0.1945
   90SAPS  H20T 8761   2.791   6.197   9.103 -0.7872 -0.1545 -0.1564
   90SAPS   C33 8762   3.610   6.006   9.763  0.2651  0.1074  0.1510
   90SAPS   H3X 8763   3.715   5.970   9.760 -0.3983 -2.3135  2.4723
   90SAPS   H3Y 8764   3.602   6.116   9.776 -3.5539  0.3936 -2.7740
   90SAPS   C34 8765   3.563   5.964   9.623 -0.2327 -0.4554 -0.3155
   90SAPS   H4X 8766   3.462   6.008   9.610 -0.1092 -0.3878 -1.0596
   90SAPS   H4Y 8767   3.559   5.853   9.618  1.0661 -0.5115 -0.4365
   90SAPS   C35 8768   3.649   6.017   9.508  0.0315  0.1065 -0.2426
   90SAPS   H5X 8769   3.746   5.963   9.510 -0.0574 -0.1961 -2.0775
   90SAPS   H5Y 8770   3.653   6.127   9.521  1.7993 -0.0929  1.2795
   90SAPS   C36 8771   3.586   5.987   9.365 -0.0700 -0.8247 -0.1317
   90SAPS   H6X 8772   3.498   6.051   9.344  0.8958  0.8148  0.6817
   90SAPS   H6Y 8773   3.549   5.883   9.352  1.4593 -1.0614 -3.7279
   90SAPS   C37 8774   3.668   6.013   9.244 -0.0263 -0.5699  0.6328
   90SAPS   H7X 8775   3.758   5.949   9.254  0.9552  0.3438 -1.5552
   90SAPS   H7Y 8776   3.714   6.114   9.235  0.9361 -1.0763 -0.5519
   90SAPS   C38 8777   3.590   5.979   9.116 -0.3741  0.1821  0.3938
   90SAPS   H8X 8778   3.502   6.047   9.112 -1.4600 -1.2181 -0.6053
   90SAPS   H8Y 8779   3.546   5.877   9.122  0.9344 -0.4865 -0.7829
   90SAPS   C39 8780   3.685   5.975   8.996  0.3754 -0.0792 -0.6422
   90SAPS   H9X 8781   3.731   5.875   9.010  0.3141 -0.2290 -1.4747
   90SAPS   H9Y 8782   3.764   6.050   9.016 -0.4113  0.0581  2.7308
   90SAPS  C310 8783   3.618   5.999   8.862 -0.9122 -0.5964  0.7493
   90SAPS  H10X 8784   3.540   6.079   8.865 -0.0582  0.7095 -3.8379
   90SAPS  H10Y 8785   3.576   5.904   8.824 -0.1192  0.4912 -3.3047
   90SAPS  C311 8786   3.713   6.038   8.741  0.1085 -0.4431 -0.1599
   90SAPS  H11X 8787   3.815   5.995   8.749  1.2317  2.0825  0.3444
   90SAPS  H11Y 8788   3.717   6.149   8.741 -0.2295 -0.4232  0.5992
   90SAPS  C312 8789   3.660   5.993   8.604 -0.7071  0.2535 -0.6538
   90SAPS  H12X 8790   3.552   6.017   8.595 -0.7107  0.4249 -0.2009
   90SAPS  H12Y 8791   3.678   5.883   8.605 -1.4389  0.1160  1.0120
   90SAPS  C313 8792   3.738   6.070   8.490  0.8994  0.1804 -0.5490
   90SAPS  H13X 8793   3.839   6.093   8.531 -0.7489  1.8996  2.9586
   90SAPS  H13Y 8794   3.683   6.165   8.473 -1.1770 -0.5979  1.3606
   90SAPS  C314 8795   3.747   5.981   8.366  0.2169 -0.0837  0.0345
   90SAPS  H14X 8796   3.644   5.955   8.334 -0.2658  0.2892  1.2249
   90SAPS  H14Y 8797   3.789   5.879   8.381 -0.7896 -0.3985  0.8625
   90SAPS  C315 8798   3.829   6.046   8.253 -0.0396  0.6670  0.0264
   90SAPS  H15X 8799   3.859   5.965   8.183  1.6021  0.9439  0.3645
   90SAPS  H15Y 8800   3.926   6.088   8.287  0.3818 -0.8129  0.7675
   90SAPS  C316 8801   3.751   6.154   8.177 -0.3216  0.9986 -0.1581
   90SAPS  H16X 8802   3.708   6.230   8.246  0.8556  0.2545  1.4771
   90SAPS  H16Y 8803   3.670   6.099   8.124  0.8136 -1.4249  0.4481
   90SAPS  C317 8804   3.834   6.231   8.074  1.1008 -0.4128  0.5632
   90SAPS  H17X 8805   3.881   6.164   7.998  3.1205  0.6203  0.8397
   90SAPS  H17Y 8806   3.927   6.276   8.112 -0.3320  1.6096  1.8439
   90SAPS  C318 8807   3.757   6.344   8.003  0.3209 -0.3556 -0.6133
   90SAPS  H18X 8808   3.668   6.303   7.950 -1.1278  1.0247  0.6487
   90SAPS  H18Y 8809   3.823   6.381   7.922  1.3519 -2.8362 -0.9908
   90SAPS  H18Z 8810   3.719   6.424   8.070  1.1326 -0.5688  0.1048
   91SAPS     N 8811   3.744   3.674   6.134 -0.8647  0.8075  0.1756
   91SAPS   HN1 8812   3.828   3.719   6.094 -0.0387  1.9619  2.9562
   91SAPS   HN2 8813   3.673   3.749   6.145  1.0634  2.8139 -0.4973
   91SAPS   HN3 8814   3.764   3.636   6.229 -0.4449 -0.7736 -0.5195
   91SAPS   C12 8815   3.688   3.562   6.061  0.6064 -0.2410  0.0335
   91SAPS  H12A 8816   3.646   3.590   5.966 -0.5298 -0.8389  0.3346
   91SAPS   C13 8817   3.776   3.444   6.032  0.0111 -0.0202  0.2203
   91SAPS  O13A 8818   3.898   3.454   6.065  0.4701  0.7931  0.2194
   91SAPS  O13B 8819   3.727   3.355   5.954 -0.8669 -0.2287 -0.1513
   91SAPS   C11 8820   3.565   3.514   6.146  0.7386  0.0030 -0.2776
   91SAPS  H11A 8821   3.605   3.464   6.237 -0.0824  0.1183  0.1560
   91SAPS  H11B 8822   3.509   3.436   6.091  0.1434 -0.7914  1.3948
   91SAPS     P 8823   3.372   3.605   6.296 -0.3352 -0.3763 -0.2284
   91SAPS   O13 8824   3.274   3.710   6.281  0.3344  0.5608  0.5685
   91SAPS   O14 8825   3.332   3.465   6.288 -0.1619 -0.9425  0.0955
   91SAPS   O12 8826   3.486   3.626   6.189  0.4603  0.6849 -0.0058
   91SAPS   O11 8827   3.446   3.621   6.438  0.6059 -1.0824  0.3683
   91SAPS    C1 8828   3.506   3.746   6.473 -0.3981 -0.1973 -0.0022
   91SAPS    HA 8829   3.594   3.768   6.409 -0.4850 -3.3340 -1.3787
   91SAPS    HB 8830   3.439   3.834   6.461  1.2324  0.9445 -1.0192
   91SAPS    C2 8831   3.577   3.735   6.610 -0.0156 -0.5027 -0.2914
   91SAPS    HS 8832   3.655   3.813   6.619  0.5871 -1.1232 -0.0219
   91SAPS   O21 8833   3.629   3.602   6.633  0.2020  0.1886  0.1359
   91SAPS   C21 8834   3.713   3.553   6.545 -0.5316  0.3530  0.5682
   91SAPS   O22 8835   3.753   3.610   6.443  0.5557  0.2292  0.0215
   91SAPS   C22 8836   3.756   3.411   6.580  0.3761 -0.3788  0.0567
   91SAPS   H2R 8837   3.663   3.351   6.570 -1.2871  2.1744 -0.9461
   91SAPS   H2S 8838   3.832   3.385   6.503  1.4357 -1.5378  1.4487
   91SAPS    C3 8839   3.468   3.769   6.720  0.2889  0.5301 -0.3149
   91SAPS    HX 8840   3.377   3.707   6.699  0.1454  0.9763 -1.0716
   91SAPS    HY 8841   3.447   3.878   6.710  1.3230  0.7987  0.3714
   91SAPS   O31 8842   3.525   3.744   6.850 -0.6182  0.0625 -0.0465
   91SAPS   C31 8843   3.509   3.624   6.902  0.1243 -0.6290  0.7472
   91SAPS   O32 8844   3.431   3.537   6.860 -0.3694  0.2135  0.0153
   91SAPS   C32 8845   3.597   3.625   7.027 -0.8015  0.0367 -0.0256
   91SAPS   H2X 8846   3.700   3.662   7.007 -0.6608  0.4202  1.3437
   91SAPS   H2Y 8847   3.618   3.520   7.058  0.5445  0.3775  0.2637
   91SAPS   C23 8848   3.818   3.382   6.722 -0.5379  0.2819  0.1689
   91SAPS   H3R 8849   3.815   3.273   6.741 -0.1097  0.3735  0.7945
   91SAPS   H3S 8850   3.760   3.440   6.796 -1.2654 -1.5440  1.0824
   91SAPS   C24 8851   3.967   3.432   6.718  0.1613  0.1792 -0.4044
   91SAPS   H4R 8852   4.019   3.389   6.629  3.8527 -1.3809  2.2280
   91SAPS   H4S 8853   4.023   3.370   6.791 -0.8310 -2.3233 -1.6487
   91SAPS   C25 8854   4.000   3.581   6.736 -0.0071 -0.3264 -0.1313
   91SAPS   H5R 8855   4.006   3.624   6.635  0.0764 -3.3560 -1.5094
   91SAPS   C26 8856   4.012   3.661   6.843  0.5117  0.2911  0.3165
   91SAPS   H6R 8857   4.058   3.761   6.843  0.9558  0.1258 -1.4585
   91SAPS   C27 8858   3.989   3.605   6.978  0.3087  0.1959  0.3370
   91SAPS   H7R 8859   3.922   3.516   6.978  0.8184 -0.2179 -1.4146
   91SAPS   H7S 8860   3.931   3.676   7.041 -2.6761 -1.0462 -0.8285
   91SAPS   C28 8861   4.118   3.572   7.054  0.9251  0.4463 -0.2958
   91SAPS   H8R 8862   4.216   3.577   7.004  1.2448 -0.1881  0.2535
   91SAPS   C29 8863   4.116   3.537   7.184  0.0198 -1.0104 -0.4231
   91SAPS   H9R 8864   4.214   3.530   7.234  0.6767  1.8480 -1.1493
   91SAPS  C210 8865   3.991   3.519   7.275 -0.2060 -0.1295  0.4627
   91SAPS  H10R 8866   3.929   3.611   7.272 -0.6710 -0.4404  0.5733
   91SAPS  H10S 8867   4.029   3.511   7.379  0.1694 -0.2763  0.3170
   91SAPS  C211 8868   3.917   3.388   7.245  0.4304 -0.2760 -0.4963
   91SAPS  H11R 8869   3.944   3.334   7.153 -1.6111 -1.8644 -0.2342
   91SAPS  C212 8870   3.825   3.327   7.320  0.2649  0.1927  0.3563
   91SAPS  H12R 8871   3.771   3.241   7.277 -2.9206  2.3730 -0.3524
   91SAPS  C213 8872   3.764   3.377   7.447 -0.3628  0.4790 -0.1604
   91SAPS  H13R 8873   3.674   3.442   7.443  0.2301  1.2931 -0.3929
   91SAPS  H13S 8874   3.830   3.427   7.520 -0.8296  1.6251 -0.4965
   91SAPS  C214 8875   3.693   3.262   7.515 -0.0268  0.3014 -0.1947
   91SAPS  H14R 8876   3.666   3.177   7.451  1.9389 -0.4068 -0.1409
   91SAPS  C215 8877   3.655   3.244   7.640  0.4268  0.4193 -0.0134
   91SAPS  H15R 8878   3.610   3.147   7.667 -0.1127 -0.4697 -3.6585
   91SAPS  C216 8879   3.674   3.344   7.749 -0.2699 -0.0548 -0.3956
   91SAPS  H16R 8880   3.580   3.400   7.770  1.0628  2.1276  0.0644
   91SAPS  H16S 8881   3.750   3.425   7.739  1.3248 -1.3429  0.6783
   91SAPS  C217 8882   3.715   3.280   7.884  0.7676  0.1741  0.1927
   91SAPS  H17R 8883   3.806   3.218   7.871 -1.8319 -4.0546  0.1937
   91SAPS  H17S 8884   3.637   3.206   7.911  0.6818  1.0952  2.7581
   91SAPS  C218 8885   3.746   3.385   7.995  0.1340  0.4309 -0.9898
   91SAPS  H18R 8886   3.666   3.462   8.005  1.5096  1.8695 -0.5379
   91SAPS  H18S 8887   3.834   3.445   7.965 -0.3847  2.3040  0.9960
   91SAPS  C219 8888   3.773   3.313   8.136 -0.3894 -0.8804 -0.3176
   91SAPS  H19R 8889   3.838   3.223   8.128  0.3069 -0.3408 -0.8954
   91SAPS  H19S 8890   3.674   3.282   8.175 -1.4579 -0.4313 -2.5117
   91SAPS  C220 8891   3.842   3.400   8.242 -0.1516 -0.6698 -0.5785
   91SAPS  H20R 8892   3.946   3.415   8.208  0.0134 -0.0888  0.1465
   91SAPS  H20S 8893   3.852   3.340   8.335  0.6810  0.7902  0.3032
   91SAPS  H20T 8894   3.798   3.501   8.259 -0.0118 -1.0001  2.3146
   91SAPS   C33 8895   3.539   3.701   7.149 -0.1304 -0.7947 -0.2044
   91SAPS   H3X 8896   3.430   3.697   7.131  0.1280  0.6037 -2.4935
   91SAPS   H3Y 8897   3.579   3.804   7.147 -2.9222  0.3877  0.7100
   91SAPS   C34 8898   3.585   3.639   7.285  0.1670 -0.0023 -0.0289
   91SAPS   H4X 8899   3.693   3.647   7.310  0.0339  0.9107  0.2993
   91SAPS   H4Y 8900   3.551   3.535   7.269  0.3926  0.0956 -1.2257
   91SAPS   C35 8901   3.509   3.717   7.387  0.1605  0.4334 -0.9412
   91SAPS   H5X 8902   3.402   3.719   7.356 -0.9386  3.4694  2.3360
   91SAPS   H5Y 8903   3.526   3.826   7.371 -1.0572  0.6077 -1.1719
   91SAPS   C36 8904   3.510   3.681   7.534 -0.0195  0.2577 -0.4133
   91SAPS   H6X 8905   3.606   3.714   7.580 -0.7024  0.0567  1.2289
   91SAPS   H6Y 8906   3.497   3.573   7.554 -0.0613  0.0572 -1.5195
   91SAPS   C37 8907   3.404   3.734   7.626 -1.2012 -0.6136  0.0629
   91SAPS   H7X 8908   3.303   3.713   7.586 -0.1955 -3.6975 -1.1700
   91SAPS   H7Y 8909   3.421   3.844   7.636 -1.6486 -0.5401  0.0457
   91SAPS   C38 8910   3.410   3.681   7.774 -0.0841  0.1612  0.0736
   91SAPS   H8X 8911   3.495   3.727   7.829 -0.5537  0.9790  0.1271
   91SAPS   H8Y 8912   3.422   3.571   7.789 -1.5077 -0.2207 -1.2793
   91SAPS   C39 8913   3.285   3.723   7.850 -0.1091 -0.1042  0.3426
   91SAPS   H9X 8914   3.193   3.686   7.799 -1.0053  1.1158  1.0201
   91SAPS   H9Y 8915   3.280   3.834   7.854 -1.2522 -0.0950 -0.5674
   91SAPS  C310 8916   3.277   3.674   7.995 -0.0958  0.5115 -0.1668
   91SAPS  H10X 8917   3.301   3.565   7.991 -1.1382 -0.0306  3.8837
   91SAPS  H10Y 8918   3.175   3.691   8.037  0.2449  1.1027  0.4166
   91SAPS  C311 8919   3.384   3.734   8.082  0.5018  0.0135 -0.4447
   91SAPS  H11X 8920   3.366   3.843   8.087  1.6570  0.1895  0.4495
   91SAPS  H11Y 8921   3.481   3.696   8.042  0.2270 -2.4158  1.0121
   91SAPS  C312 8922   3.372   3.690   8.234  0.2399 -0.1303 -0.1636
   91SAPS  H12X 8923   3.266   3.702   8.267  0.6389 -0.3307  1.2656
   91SAPS  H12Y 8924   3.419   3.783   8.273  2.7200 -1.2348 -0.3517
   91SAPS  C313 8925   3.443   3.563   8.277 -0.1299 -0.6887  0.3431
   91SAPS  H13X 8926   3.550   3.572   8.248 -0.2989  0.9986  0.1487
   91SAPS  H13Y 8927   3.398   3.470   8.238 -0.4475 -0.5804  0.4465
   91SAPS  C314 8928   3.435   3.560   8.435  0.1197  0.5990  0.2872
   91SAPS  H14X 8929   3.333   3.574   8.474  0.2902  0.5616  0.7527
   91SAPS  H14Y 8930   3.503   3.644   8.462  3.0725 -1.0146 -1.5296
   91SAPS  C315 8931   3.497   3.438   8.507 -0.1985 -0.4571 -0.0827
   91SAPS  H15X 8932   3.467   3.439   8.615 -1.3042  0.7102 -0.3722
   91SAPS  H15Y 8933   3.607   3.451   8.507 -0.1499 -0.8500 -0.3855
   91SAPS  C316 8934   3.464   3.301   8.455 -0.2678  0.3445  0.8074
   91SAPS  H16X 8935   3.502   3.297   8.351  2.4870  1.4798  1.6645
   91SAPS  H16Y 8936   3.355   3.282   8.454 -0.4127  1.1238 -0.3899
   91SAPS  C317 8937   3.540   3.189   8.528 -0.5502 -0.1390 -0.4246
   91SAPS  H17X 8938   3.498   3.173   8.629  0.2487 -3.4742 -0.5158
   91SAPS  H17Y 8939   3.645   3.216   8.550 -0.8206 -0.8874  2.1142
   91SAPS  C318 8940   3.527   3.059   8.460 -0.3771  0.4971 -0.1926
   91SAPS  H18X 8941   3.421   3.046   8.430 -1.0098  0.4397  1.9315
   91SAPS  H18Y 8942   3.562   2.983   8.534 -0.0843  2.1654  1.4611
   91SAPS  H18Z 8943   3.596   3.046   8.374  0.6859 -1.2697  0.8665
   92SAPS     N 8944   2.689   4.393   6.114  0.1256 -0.0799  0.3820
   92SAPS   HN1 8945   2.661   4.339   6.198  2.8933 -0.9036  0.8903
   92SAPS   HN2 8946   2.741   4.475   6.150  1.1398  0.7206 -2.6029
   92SAPS   HN3 8947   2.609   4.418   6.053  1.4124 -1.4535 -2.0567
   92SAPS   C12 8948   2.783   4.311   6.028  0.1510  0.6920  0.6744
   92SAPS  H12A 8949   2.715   4.257   5.964 -0.0543  3.9298 -2.1133
   92SAPS   C13 8950   2.869   4.399   5.926  0.5237  0.1540 -0.1090
   92SAPS  O13A 8951   2.864   4.521   5.940 -0.2810 -0.4545 -0.1203
   92SAPS  O13B 8952   2.943   4.342   5.842 -0.6470 -0.4140  0.1703
   92SAPS   C11 8953   2.877   4.221   6.104 -0.0717  0.1261 -0.7911
   92SAPS  H11A 8954   2.943   4.282   6.170 -1.6630  0.6218  0.4072
   92SAPS  H11B 8955   2.944   4.167   6.034  3.5555  1.5088  1.3210
   92SAPS     P 8956   2.860   3.987   6.241 -0.5133  0.3134  0.1834
   92SAPS   O13 8957   2.781   3.935   6.355 -0.6900 -0.2379  0.1292
   92SAPS   O14 8958   2.867   3.904   6.123  0.1805  0.3674  0.4035
   92SAPS   O12 8959   2.805   4.133   6.189  0.3409  0.1702  0.4605
   92SAPS   O11 8960   3.015   4.023   6.268 -0.1311 -0.2801 -0.1121
   92SAPS    C1 8961   3.043   4.098   6.383  0.4797  0.6182 -0.3102
   92SAPS    HA 8962   3.143   4.147   6.375  0.9288 -0.3708 -1.0109
   92SAPS    HB 8963   2.971   4.180   6.401  2.0865  1.6577  1.9170
   92SAPS    C2 8964   3.039   4.013   6.512  0.1076  0.6470 -1.1146
   92SAPS    HS 8965   2.935   3.982   6.533  0.5529  0.2409  0.7402
   92SAPS   O21 8966   3.092   4.091   6.615  0.0572  0.4279 -0.0301
   92SAPS   C21 8967   3.013   4.173   6.669 -0.4987 -0.2998 -0.8789
   92SAPS   O22 8968   2.897   4.193   6.637 -0.7756  0.2604 -0.2077
   92SAPS   C22 8969   3.090   4.256   6.776 -0.3892 -0.6779 -0.6696
   92SAPS   H2R 8970   3.199   4.253   6.754  0.4054  3.7960  1.4815
   92SAPS   H2S 8971   3.061   4.363   6.767 -1.9433 -0.6299  3.0985
   92SAPS    C3 8972   3.107   3.886   6.491 -0.3412  0.2330 -0.4886
   92SAPS    HX 8973   3.205   3.905   6.443 -0.2849  0.3476 -0.3286
   92SAPS    HY 8974   3.054   3.829   6.412 -1.4904  1.1732 -0.4200
   92SAPS   O31 8975   3.137   3.811   6.613 -0.0084  0.0521 -0.1925
   92SAPS   C31 8976   3.057   3.701   6.631 -0.5811 -0.2641  0.5436
   92SAPS   O32 8977   2.980   3.668   6.544  0.0263  0.1824  0.0875
   92SAPS   C32 8978   3.062   3.634   6.766 -0.2472  0.7163 -0.3979
   92SAPS   H2X 8979   3.139   3.554   6.763 -1.3472 -0.4214  0.5469
   92SAPS   H2Y 8980   2.960   3.596   6.785  0.2268  0.1587  1.2254
   92SAPS   C23 8981   3.079   4.199   6.926 -0.0249 -0.1144  0.2216
   92SAPS   H3R 8982   3.162   4.237   6.990 -0.4345  1.0291  0.0886
   92SAPS   H3S 8983   3.081   4.087   6.926  0.1047 -0.1184  0.9165
   92SAPS   C24 8984   2.953   4.243   6.996 -0.1156  0.0689  0.6375
   92SAPS   H4R 8985   2.870   4.253   6.924  0.8403 -1.7054 -0.8056
   92SAPS   H4S 8986   2.957   4.347   7.036 -1.5807 -0.3517  1.9720
   92SAPS   C25 8987   2.910   4.152   7.107 -0.5328  0.1252 -0.3325
   92SAPS   H5R 8988   2.850   4.062   7.088  1.2397 -1.1922  0.0830
   92SAPS   C26 8989   2.944   4.169   7.241  0.1538  0.0262  0.6599
   92SAPS   H6R 8990   2.908   4.089   7.308 -0.9348 -0.7697 -0.8212
   92SAPS   C27 8991   3.032   4.280   7.295  0.4834  0.7127 -0.7262
   92SAPS   H7R 8992   3.079   4.340   7.214  3.0638  2.1173  1.6268
   92SAPS   H7S 8993   3.124   4.240   7.342 -1.0719 -1.9616  0.2331
   92SAPS   C28 8994   2.959   4.371   7.390  0.0101 -0.1642 -0.1107
   92SAPS   H8R 8995   2.860   4.406   7.355 -0.3350 -2.1102 -1.2372
   92SAPS   C29 8996   3.000   4.414   7.510  0.4721 -1.1768 -0.0040
   92SAPS   H9R 8997   2.936   4.480   7.570  0.4565 -0.2798 -0.9795
   92SAPS  C210 8998   3.132   4.385   7.577 -0.4843 -0.5451 -0.5168
   92SAPS  H10R 8999   3.176   4.290   7.540 -1.2348 -0.8317 -0.7128
   92SAPS  H10S 9000   3.120   4.366   7.686 -0.4866  0.1011 -0.4017
   92SAPS  C211 9001   3.224   4.500   7.579 -0.3499  0.3338 -0.5641
   92SAPS  H11R 9002   3.302   4.495   7.502 -1.8230  0.5056 -2.1368
   92SAPS  C212 9003   3.213   4.613   7.649 -0.2329  0.0555  0.5472
   92SAPS  H12R 9004   3.271   4.698   7.610 -0.0522  0.8571  2.4262
   92SAPS  C213 9005   3.115   4.646   7.753 -0.5185  0.4604  0.1206
   92SAPS  H13R 9006   3.164   4.637   7.852  1.3649 -5.1901 -0.9707
   92SAPS  H13S 9007   3.033   4.572   7.753  1.4559 -1.8580 -0.0148
   92SAPS  C214 9008   3.072   4.789   7.719 -0.2997 -0.2742  1.1402
   92SAPS  H14R 9009   3.028   4.810   7.620 -1.8915 -1.3851  1.5707
   92SAPS  C215 9010   3.068   4.898   7.805 -0.6267 -0.2180  0.1320
   92SAPS  H15R 9011   3.047   4.994   7.757  0.4410 -0.0147  0.0480
   92SAPS  C216 9012   3.104   4.904   7.956  0.2469 -0.2560 -0.3183
   92SAPS  H16R 9013   3.208   4.925   7.987 -0.4213  1.2244  1.0676
   92SAPS  H16S 9014   3.074   4.807   8.000 -0.0621  0.4043  0.9684
   92SAPS  C217 9015   3.015   5.014   8.015  0.0558  0.0018 -0.3970
   92SAPS  H17R 9016   2.906   4.997   8.003  0.1571 -0.8495 -0.1338
   92SAPS  H17S 9017   3.034   5.113   7.968  0.5677 -0.0940 -0.3937
   92SAPS  C218 9018   3.047   5.042   8.163  0.1481  0.1128 -0.5602
   92SAPS  H18R 9019   2.999   5.139   8.186  1.0385  0.4933 -0.2719
   92SAPS  H18S 9020   3.157   5.053   8.174  0.0021  0.4820  0.6717
   92SAPS  C219 9021   2.999   4.939   8.263  0.0682 -0.0938  0.0501
   92SAPS  H19R 9022   3.032   4.840   8.225 -1.8761 -0.9673  0.5084
   92SAPS  H19S 9023   2.889   4.928   8.251  0.2526 -1.6049 -0.4923
   92SAPS  C220 9024   3.038   4.970   8.406 -0.1136 -0.4783 -0.2590
   92SAPS  H20R 9025   3.149   4.964   8.412 -0.0764 -1.1289 -1.3668
   92SAPS  H20S 9026   2.993   4.898   8.477  0.8081  0.0583  0.8977
   92SAPS  H20T 9027   2.992   5.066   8.438 -0.6044 -0.4976 -0.8823
   92SAPS   C33 9028   3.086   3.727   6.882  0.5246 -0.3940 -0.3728
   92SAPS   H3X 9029   3.007   3.804   6.870 -1.4241 -1.4859  3.7563
   92SAPS   H3Y 9030   3.186   3.774   6.871  0.3016  0.1412 -0.1048
   92SAPS   C34 9031   3.088   3.658   7.022  0.2540 -0.2029 -1.1848
   92SAPS   H4X 9032   3.178   3.592   7.022  2.3519  2.4695 -0.8407
   92SAPS   H4Y 9033   2.990   3.608   7.040  0.1195  0.8683  1.4900
   92SAPS   C35 9034   3.104   3.769   7.128 -0.4157 -0.1922 -0.0348
   92SAPS   H5X 9035   3.047   3.858   7.091 -0.0490  0.7084  1.5009
   92SAPS   H5Y 9036   3.211   3.796   7.124 -1.0370  2.4174 -1.2057
   92SAPS   C36 9037   3.055   3.740   7.265 -0.3837 -0.4111  0.5953
   92SAPS   H6X 9038   3.073   3.634   7.291  1.7834 -0.2879 -0.2364
   92SAPS   H6Y 9039   2.944   3.747   7.259 -0.2568  2.2793 -0.2020
   92SAPS   C37 9040   3.110   3.829   7.372 -0.7373  0.5639 -0.4340
   92SAPS   H7X 9041   3.089   3.937   7.357 -3.5713 -0.0850 -1.8267
   92SAPS   H7Y 9042   3.217   3.812   7.395 -1.6959 -2.2641  2.7440
   92SAPS   C38 9043   3.041   3.791   7.505 -0.1372 -0.0403  0.3499
   92SAPS   H8X 9044   3.065   3.686   7.532 -2.6947 -0.6036  0.6235
   92SAPS   H8Y 9045   2.932   3.794   7.485 -0.3215 -0.3331  1.2645
   92SAPS   C39 9046   3.059   3.890   7.617 -0.2060 -0.6206 -0.3635
   92SAPS   H9X 9047   3.027   3.990   7.579  0.0620 -0.0331  0.9195
   92SAPS   H9Y 9048   3.166   3.897   7.647  0.1453 -0.9198 -1.4783
   92SAPS  C310 9049   2.970   3.869   7.736  0.4734 -0.4308 -0.5617
   92SAPS  H10X 9050   3.010   3.798   7.811  0.7106  0.4494  0.1576
   92SAPS  H10Y 9051   2.876   3.825   7.697  0.1345  0.3777 -0.6673
   92SAPS  C311 9052   2.944   3.996   7.819  0.2271 -0.0394 -0.0267
   92SAPS  H11X 9053   2.871   3.966   7.898  1.5218 -0.3970  1.0539
   92SAPS  H11Y 9054   2.901   4.067   7.745  0.1902 -0.0218  0.0113
   92SAPS  C312 9055   3.065   4.061   7.875 -0.4794 -0.6983  0.1847
   92SAPS  H12X 9056   3.140   4.081   7.795  1.1671 -1.8440  1.3657
   92SAPS  H12Y 9057   3.103   3.976   7.936 -2.3932  0.0494  2.5700
   92SAPS  C313 9058   3.039   4.177   7.966  0.2242  0.1626 -0.1879
   92SAPS  H13X 9059   2.971   4.148   8.049  1.0264  0.6200  0.6375
   92SAPS  H13Y 9060   2.979   4.248   7.905  0.5982 -1.0449 -2.0516
   92SAPS  C314 9061   3.159   4.261   8.022 -0.0392 -0.6001  0.0782
   92SAPS  H14X 9062   3.214   4.282   7.928 -1.1894  0.3000 -0.4229
   92SAPS  H14Y 9063   3.223   4.205   8.093  0.0384  1.0246  1.3407
   92SAPS  C315 9064   3.104   4.390   8.102  0.0157  0.1563 -0.2364
   92SAPS  H15X 9065   3.049   4.351   8.190 -0.9779  1.3682 -0.2907
   92SAPS  H15Y 9066   3.034   4.446   8.036  0.1034  2.8505  1.7864
   92SAPS  C316 9067   3.219   4.479   8.143  0.3876  0.2554 -0.3819
   92SAPS  H16X 9068   3.269   4.499   8.046  1.3045  1.0503  0.2403
   92SAPS  H16Y 9069   3.291   4.427   8.208  0.2052 -0.1153 -0.4728
   92SAPS  C317 9070   3.173   4.611   8.207 -0.3312  0.1936  0.6618
   92SAPS  H17X 9071   3.107   4.667   8.137  0.6883  0.5661 -0.0240
   92SAPS  H17Y 9072   3.266   4.670   8.221 -0.5292  0.3869  1.1678
   92SAPS  C318 9073   3.096   4.592   8.338  0.2426 -0.1107  0.5983
   92SAPS  H18X 9074   3.149   4.512   8.394 -1.1155 -1.7192 -0.3038
   92SAPS  H18Y 9075   2.997   4.547   8.315  0.1151  0.1603  0.6165
   92SAPS  H18Z 9076   3.087   4.689   8.391  2.6072  0.4497  0.0924
   93SAPS     N 9077   5.139   1.476   6.223 -0.1737  0.1379  0.0436
   93SAPS   HN1 9078   5.240   1.453   6.212  0.9066  1.7585  4.6139
   93SAPS   HN2 9079   5.116   1.442   6.319 -2.3900  0.7891 -0.1858
   93SAPS   HN3 9080   5.072   1.428   6.159 -1.5996 -0.3719  1.8241
   93SAPS   C12 9081   5.118   1.623   6.215 -0.5372 -0.6835  0.0926
   93SAPS  H12A 9082   5.185   1.664   6.290 -2.0850  2.3135 -0.0366
   93SAPS   C13 9083   5.160   1.679   6.077 -0.1002 -0.6133 -0.1899
   93SAPS  O13A 9084   5.189   1.600   5.979  0.0217 -0.0682  0.1026
   93SAPS  O13B 9085   5.159   1.805   6.061 -0.6263 -0.4674  0.1895
   93SAPS   C11 9086   4.965   1.656   6.250 -0.0159 -0.3298 -0.1716
   93SAPS  H11A 9087   4.907   1.596   6.177 -0.8601 -0.0678  0.2778
   93SAPS  H11B 9088   4.947   1.765   6.241  0.6575 -0.1067  0.9726
   93SAPS     P 9089   4.793   1.646   6.435  0.0682 -0.2129  0.2177
   93SAPS   O13 9090   4.698   1.604   6.329 -0.1658  0.0622  0.2485
   93SAPS   O14 9091   4.782   1.566   6.562  0.4018  1.1675  0.3143
   93SAPS   O12 9092   4.939   1.625   6.384 -0.2165  0.1614 -0.0448
   93SAPS   O11 9093   4.781   1.807   6.455 -0.3544  0.3300 -0.1250
   93SAPS    C1 9094   4.704   1.835   6.574 -0.3592 -0.4654 -0.6859
   93SAPS    HA 9095   4.623   1.764   6.599 -0.8665  0.4480  0.3767
   93SAPS    HB 9096   4.775   1.834   6.660 -0.1120 -0.7534 -0.8936
   93SAPS    C2 9097   4.644   1.972   6.569  0.3328 -1.2958 -0.4250
   93SAPS    HS 9098   4.607   1.990   6.466  0.0182  0.0966 -0.0927
   93SAPS   O21 9099   4.753   2.069   6.584 -0.5272  0.1188  0.2092
   93SAPS   C21 9100   4.720   2.198   6.542 -0.2377  0.4788  0.5914
   93SAPS   O22 9101   4.612   2.219   6.489 -0.4578 -0.5922 -0.1869
   93SAPS   C22 9102   4.843   2.280   6.559  0.3045 -0.3242 -0.5750
   93SAPS   H2R 9103   4.894   2.261   6.656  0.1169  1.4897 -0.0726
   93SAPS   H2S 9104   4.913   2.241   6.483  0.7205  0.8137 -0.7908
   93SAPS    C3 9105   4.526   1.987   6.673 -0.0573  0.2393  0.3071
   93SAPS    HX 9106   4.453   1.915   6.630 -0.1201 -0.0648  0.9066
   93SAPS    HY 9107   4.479   2.087   6.663 -1.8263 -0.5965 -0.0840
   93SAPS   O31 9108   4.563   1.965   6.817  0.2081  0.2512  0.4009
   93SAPS   C31 9109   4.460   1.986   6.896  0.7511  1.0102  0.9138
   93SAPS   O32 9110   4.343   2.013   6.871 -0.5893 -0.0365  0.6753
   93SAPS   C32 9111   4.519   1.953   7.035 -0.3711  0.1978  0.0089
   93SAPS   H2X 9112   4.616   2.007   7.040  0.3440 -1.1348  1.5260
   93SAPS   H2Y 9113   4.528   1.843   7.049  0.6496  0.0826 -1.3597
   93SAPS   C23 9114   4.814   2.434   6.555  0.7782 -0.3558  0.1097
   93SAPS   H3R 9115   4.741   2.472   6.480  0.6392  0.6984  0.7503
   93SAPS   H3S 9116   4.911   2.484   6.533 -0.3171  2.4938  1.3100
   93SAPS   C24 9117   4.761   2.476   6.696 -0.9871 -0.1601  1.0254
   93SAPS   H4R 9118   4.745   2.586   6.692  2.0976  0.3451 -1.5302
   93SAPS   H4S 9119   4.848   2.448   6.758 -0.1392  0.5327  0.1731
   93SAPS   C25 9120   4.634   2.404   6.740 -0.4661 -0.6435 -0.2384
   93SAPS   H5R 9121   4.566   2.389   6.655 -1.4780  0.3420  0.3854
   93SAPS   C26 9122   4.607   2.353   6.858  0.2449 -0.1712 -0.1127
   93SAPS   H6R 9123   4.510   2.303   6.873  0.4908 -0.6620 -0.1094
   93SAPS   C27 9124   4.691   2.359   6.985  0.6267  0.6176  0.4876
   93SAPS   H7R 9125   4.798   2.358   6.955 -0.1034 -0.0622 -2.3928
   93SAPS   H7S 9126   4.689   2.256   7.028  0.2022 -0.6291 -2.2599
   93SAPS   C28 9127   4.644   2.472   7.071  0.2558 -0.2115  0.1022
   93SAPS   H8R 9128   4.661   2.567   7.018 -1.7100 -1.0916 -2.2847
   93SAPS   C29 9129   4.597   2.471   7.197 -0.1293 -0.3744 -0.1705
   93SAPS   H9R 9130   4.560   2.568   7.234  2.1311  0.6582 -0.4077
   93SAPS  C210 9131   4.583   2.351   7.286  0.2339 -0.2089 -0.1272
   93SAPS  H10R 9132   4.555   2.270   7.216  2.0935 -1.8686  0.9242
   93SAPS  H10S 9133   4.504   2.370   7.362  1.0827  1.1670  0.4625
   93SAPS  C211 9134   4.717   2.313   7.351  0.4989  0.1058 -0.0519
   93SAPS  H11R 9135   4.768   2.235   7.292  0.2736 -0.1103  0.0386
   93SAPS  C212 9136   4.776   2.351   7.467  0.6528  0.2009 -0.2693
   93SAPS  H12R 9137   4.879   2.325   7.497  0.8391  0.0451 -1.0204
   93SAPS  C213 9138   4.724   2.451   7.564  0.5400 -1.0281 -0.1669
   93SAPS  H13R 9139   4.656   2.520   7.510  0.1961 -0.3583  1.0948
   93SAPS  H13S 9140   4.806   2.516   7.601  2.2071 -2.8462 -0.4977
   93SAPS  C214 9141   4.636   2.401   7.671  0.0784  0.5069  0.1471
   93SAPS  H14R 9142   4.537   2.359   7.646  0.5359 -1.5975  1.5958
   93SAPS  C215 9143   4.659   2.413   7.802 -0.0735 -0.1503 -0.3304
   93SAPS  H15R 9144   4.597   2.363   7.877  1.1758 -0.2468  0.6853
   93SAPS  C216 9145   4.783   2.476   7.868  0.2739 -0.2096 -0.2116
   93SAPS  H16R 9146   4.741   2.578   7.880 -0.6609 -0.3654 -1.8466
   93SAPS  H16S 9147   4.880   2.472   7.814  0.8399  1.4779  0.6009
   93SAPS  C217 9148   4.810   2.416   8.010 -0.3363  0.4900  0.5261
   93SAPS  H17R 9149   4.912   2.445   8.044  0.0950  0.2184 -0.4822
   93SAPS  H17S 9150   4.810   2.305   8.005 -2.3497  0.5024 -0.7437
   93SAPS  C218 9151   4.707   2.452   8.122  0.8801  0.5157 -0.1085
   93SAPS  H18R 9152   4.601   2.452   8.087  0.7510  0.3481  0.2768
   93SAPS  H18S 9153   4.737   2.556   8.147  3.5064 -0.3515  0.6411
   93SAPS  C219 9154   4.723   2.365   8.248 -0.5310 -0.3585 -0.5759
   93SAPS  H19R 9155   4.657   2.420   8.319 -1.9305 -0.6576 -1.6029
   93SAPS  H19S 9156   4.824   2.368   8.293  0.0857  0.8614 -1.9285
   93SAPS  C220 9157   4.685   2.215   8.231 -0.4768 -0.3395 -0.3015
   93SAPS  H20R 9158   4.666   2.166   8.329 -2.2324  2.3299  0.8159
   93SAPS  H20S 9159   4.772   2.163   8.186  0.4962 -0.4981  1.6184
   93SAPS  H20T 9160   4.604   2.206   8.156 -1.3615  0.6881  0.5018
   93SAPS   C33 9161   4.425   1.995   7.141  0.1528 -0.2217  0.5138
   93SAPS   H3X 9162   4.341   1.924   7.158  0.7468 -1.0972 -0.1435
   93SAPS   H3Y 9163   4.381   2.096   7.126  0.6584 -0.2979 -1.7233
   93SAPS   C34 9164   4.505   2.003   7.275  0.0507 -0.7242  0.5719
   93SAPS   H4X 9165   4.589   2.073   7.260 -1.3950  0.9774  0.0607
   93SAPS   H4Y 9166   4.538   1.899   7.297  1.7771 -0.7644 -1.8012
   93SAPS   C35 9167   4.413   2.055   7.384 -0.1335 -0.2481 -0.4627
   93SAPS   H5X 9168   4.335   1.979   7.407 -1.6836  0.7891 -2.1017
   93SAPS   H5Y 9169   4.357   2.147   7.360 -1.9166 -0.6650  1.7378
   93SAPS   C36 9170   4.482   2.073   7.524  0.2461 -0.6347 -0.2892
   93SAPS   H6X 9171   4.537   2.169   7.523 -0.6440 -0.0798  1.0323
   93SAPS   H6Y 9172   4.556   1.992   7.541  1.0155 -0.3019 -1.8891
   93SAPS   C37 9173   4.373   2.067   7.630 -0.7668  0.3885  0.2339
   93SAPS   H7X 9174   4.312   1.975   7.619  0.2526 -0.3086  0.3330
   93SAPS   H7Y 9175   4.304   2.155   7.631 -0.3612  0.7082  0.7687
   93SAPS   C38 9176   4.442   2.032   7.767  0.3086  0.0166 -0.0766
   93SAPS   H8X 9177   4.509   2.119   7.784  0.0827  0.3558 -0.8718
   93SAPS   H8Y 9178   4.501   1.941   7.743  1.7584  1.3801 -2.0137
   93SAPS   C39 9179   4.339   2.016   7.877 -0.7142 -0.3668  0.0158
   93SAPS   H9X 9180   4.299   1.912   7.877 -1.1452 -0.2067  0.6153
   93SAPS   H9Y 9181   4.252   2.085   7.875  0.6057  1.6074  2.9735
   93SAPS  C310 9182   4.400   2.022   8.020  0.2142 -0.0122  0.0605
   93SAPS  H10X 9183   4.428   2.128   8.037  0.0445 -0.3626  2.9604
   93SAPS  H10Y 9184   4.489   1.956   8.022 -0.1294 -0.5376 -1.2295
   93SAPS  C311 9185   4.292   1.999   8.125 -0.0677  0.0788  0.0697
   93SAPS  H11X 9186   4.214   2.076   8.112 -0.3573 -0.0890  0.7191
   93SAPS  H11Y 9187   4.338   2.030   8.221  0.8306  0.9624 -0.6323
   93SAPS  C312 9188   4.236   1.862   8.140  0.2960  0.1951  0.0263
   93SAPS  H12X 9189   4.323   1.792   8.146 -0.2292 -0.7840 -2.5155
   93SAPS  H12Y 9190   4.172   1.826   8.056 -0.0377  3.0569 -1.0309
   93SAPS  C313 9191   4.151   1.854   8.270  0.7980 -0.4944 -0.0476
   93SAPS  H13X 9192   4.064   1.918   8.245  1.4182 -0.8600 -3.6845
   93SAPS  H13Y 9193   4.194   1.900   8.361 -0.7932  2.6415 -0.7671
   93SAPS  C314 9194   4.108   1.713   8.306 -0.5233  0.7774  0.0484
   93SAPS  H14X 9195   4.037   1.720   8.391  0.0153  1.9654  0.4201
   93SAPS  H14Y 9196   4.191   1.649   8.342 -0.2518  0.4785 -1.0584
   93SAPS  C315 9197   4.046   1.638   8.189  0.6387  0.1462 -0.0007
   93SAPS  H15X 9198   4.127   1.592   8.128  1.3493  0.0770  0.9753
   93SAPS  H15Y 9199   3.986   1.712   8.131 -2.6342 -2.1583  0.1660
   93SAPS  C316 9200   3.943   1.534   8.224  0.1704 -0.5714  0.3774
   93SAPS  H16X 9201   3.994   1.457   8.287  1.8570  0.4131  0.2903
   93SAPS  H16Y 9202   3.895   1.483   8.138  1.2445 -1.7218  0.4316
   93SAPS  C317 9203   3.827   1.587   8.313 -0.0147 -0.3994  0.3950
   93SAPS  H17X 9204   3.775   1.670   8.260  0.2356  0.0281  0.8034
   93SAPS  H17Y 9205   3.860   1.622   8.414  0.0327  1.5705 -0.2603
   93SAPS  C318 9206   3.736   1.470   8.326 -0.0921 -0.8406 -0.2790
   93SAPS  H18X 9207   3.659   1.498   8.401  0.4544 -1.6903  0.6317
   93SAPS  H18Y 9208   3.800   1.386   8.362  0.0143 -0.9285 -0.6775
   93SAPS  H18Z 9209   3.676   1.443   8.237 -0.5326 -1.8947  0.3191
   94SAPS     N 9210   4.964   4.642   5.599  0.1221 -0.5958  0.2848
   94SAPS   HN1 9211   5.010   4.643   5.506  0.0321  1.6647  0.2129
   94SAPS   HN2 9212   4.867   4.673   5.578 -0.1040 -1.6274 -0.2833
   94SAPS   HN3 9213   5.021   4.703   5.661 -4.1582  2.8558  1.3717
   94SAPS   C12 9214   4.946   4.507   5.665 -0.1983  0.7259  0.6904
   94SAPS  H12A 9215   4.853   4.471   5.622  1.1576  0.5601 -2.3746
   94SAPS   C13 9216   5.056   4.404   5.633  0.7701 -0.0377  0.1454
   94SAPS  O13A 9217   5.148   4.430   5.552  0.0817 -0.2392  0.0092
   94SAPS  O13B 9218   5.028   4.293   5.664  0.3845 -0.2417 -0.6158
   94SAPS   C11 9219   4.928   4.519   5.818 -0.3925 -0.4598 -0.8049
   94SAPS  H11A 9220   5.025   4.557   5.857 -1.2838  0.8600  0.2256
   94SAPS  H11B 9221   4.914   4.423   5.871 -1.7055  0.3175  0.3496
   94SAPS     P 9222   4.719   4.576   5.954  0.2304 -0.1363 -0.1624
   94SAPS   O13 9223   4.608   4.670   5.938  0.0350 -0.0424  0.4974
   94SAPS   O14 9224   4.686   4.432   5.929 -0.4749 -0.2079 -0.3482
   94SAPS   O12 9225   4.829   4.618   5.859  0.1155 -0.7534  0.2815
   94SAPS   O11 9226   4.789   4.602   6.092 -0.5002  0.0220 -0.4160
   94SAPS    C1 9227   4.750   4.549   6.217 -0.1079  0.0236 -0.1597
   94SAPS    HA 9228   4.671   4.472   6.202 -2.2412  2.0346  0.0257
   94SAPS    HB 9229   4.834   4.499   6.270  0.6308  0.0095 -1.3191
   94SAPS    C2 9230   4.682   4.652   6.314  0.3893 -0.6185 -0.1228
   94SAPS    HS 9231   4.599   4.699   6.257 -1.7896 -2.5407  1.2763
   94SAPS   O21 9232   4.787   4.746   6.356  0.1652 -0.4258 -0.0295
   94SAPS   C21 9233   4.752   4.872   6.377  0.7875  0.3099  0.4592
   94SAPS   O22 9234   4.643   4.914   6.357 -0.3866 -0.0266  0.4773
   94SAPS   C22 9235   4.877   4.942   6.426  0.5740  0.1318  0.2607
   94SAPS   H2R 9236   4.958   4.871   6.453  0.5004 -0.0392  0.0330
   94SAPS   H2S 9237   4.911   5.018   6.353  0.0141 -0.1927 -0.3596
   94SAPS    C3 9238   4.618   4.585   6.435 -0.0114 -0.2371 -0.5557
   94SAPS    HX 9239   4.698   4.538   6.496 -0.7167  1.5983  1.9234
   94SAPS    HY 9240   4.556   4.498   6.405 -0.6332  0.0220 -0.0601
   94SAPS   O31 9241   4.550   4.681   6.510  0.1602 -0.3011 -0.8724
   94SAPS   C31 9242   4.424   4.697   6.479  0.3068 -0.1030 -0.5202
   94SAPS   O32 9243   4.359   4.633   6.400  0.4957  0.4028 -0.4832
   94SAPS   C32 9244   4.359   4.795   6.580 -0.0361 -0.3270  0.4726
   94SAPS   H2X 9245   4.257   4.764   6.612 -1.2248  0.8197 -1.9071
   94SAPS   H2Y 9246   4.344   4.888   6.521 -1.3129  0.4734  1.9618
   94SAPS   C23 9247   4.830   5.027   6.542  0.6482 -0.2883  0.4619
   94SAPS   H3R 9248   4.738   5.081   6.513 -1.0967 -3.6727 -0.8639
   94SAPS   H3S 9249   4.909   5.099   6.571  0.4431 -0.5620  1.7991
   94SAPS   C24 9250   4.795   4.954   6.671 -0.0133  0.0015  0.6864
   94SAPS   H4R 9251   4.731   4.863   6.675  0.3327 -0.2373  0.8618
   94SAPS   H4S 9252   4.720   5.025   6.713 -2.2511 -2.2215  0.6550
   94SAPS   C25 9253   4.918   4.926   6.754 -0.8528 -0.3416  0.4147
   94SAPS   H5R 9254   4.991   4.865   6.699 -0.9321  1.3217 -1.6837
   94SAPS   C26 9255   4.963   4.992   6.862 -0.2717  0.3675 -0.4138
   94SAPS   H6R 9256   5.044   4.951   6.924 -0.3919  2.0188  0.9081
   94SAPS   C27 9257   4.903   5.111   6.929 -0.0604 -0.3207 -0.4829
   94SAPS   H7R 9258   4.894   5.182   6.844  2.4468 -0.9010 -1.3193
   94SAPS   H7S 9259   4.973   5.163   6.999 -1.0218 -2.0209  1.8683
   94SAPS   C28 9260   4.782   5.090   7.009 -0.6446 -0.1632 -0.2823
   94SAPS   H8R 9261   4.693   5.100   6.946 -0.9418 -3.7171 -0.6414
   94SAPS   C29 9262   4.768   5.046   7.136 -0.3452  0.5887  0.3084
   94SAPS   H9R 9263   4.662   5.029   7.163 -0.2780 -2.2554 -0.8466
   94SAPS  C210 9264   4.880   4.993   7.227 -0.4141  0.4266  0.6213
   94SAPS  H10R 9265   4.961   4.957   7.160  0.3971  2.0928  0.6398
   94SAPS  H10S 9266   4.841   4.903   7.280 -0.1069 -1.2870 -1.8955
   94SAPS  C211 9267   4.947   5.100   7.314  0.0506 -0.9559  0.5251
   94SAPS  H11R 9268   4.956   5.198   7.265  2.7176 -1.2079  0.3353
   94SAPS  C212 9269   4.985   5.088   7.439 -0.2820  0.2033  0.2513
   94SAPS  H12R 9270   5.041   5.171   7.483  1.3518 -1.1718  0.8877
   94SAPS  C213 9271   4.983   4.954   7.507 -0.0268  0.1611  0.1635
   94SAPS  H13R 9272   5.073   4.951   7.571 -0.1494  0.9678  0.3908
   94SAPS  H13S 9273   4.994   4.873   7.432  1.2044 -1.7184  2.2819
   94SAPS  C214 9274   4.864   4.925   7.594  0.0566  0.6039 -0.1697
   94SAPS  H14R 9275   4.779   4.875   7.545  0.2608  0.3355 -0.2515
   94SAPS  C215 9276   4.845   4.980   7.718  0.4232  0.2495 -0.2378
   94SAPS  H15R 9277   4.749   4.951   7.763  0.9454 -0.9592  0.1455
   94SAPS  C216 9278   4.943   5.072   7.780 -0.6255  0.3436 -0.4762
   94SAPS  H16R 9279   4.907   5.175   7.756  0.0155  0.7225  0.1384
   94SAPS  H16S 9280   5.043   5.069   7.732 -0.8155  0.2812 -0.8684
   94SAPS  C217 9281   4.959   5.035   7.933 -1.0006 -0.0576  0.0387
   94SAPS  H17R 9282   4.994   4.930   7.946  0.1472  0.4110  0.9852
   94SAPS  H17S 9283   4.862   5.049   7.985 -2.0854  0.3756 -1.9860
   94SAPS  C218 9284   5.069   5.123   7.993 -0.2715  0.2790  0.1744
   94SAPS  H18R 9285   5.041   5.230   7.998 -2.4734 -0.2587  0.6836
   94SAPS  H18S 9286   5.159   5.114   7.928 -0.3884  1.2088 -0.1317
   94SAPS  C219 9287   5.107   5.078   8.141  0.0145  0.4868  0.4062
   94SAPS  H19R 9288   5.127   4.969   8.154  4.5672  1.1004  0.2703
   94SAPS  H19S 9289   5.022   5.107   8.206  0.7599  0.9631  1.1955
   94SAPS  C220 9290   5.228   5.151   8.195 -0.8105 -0.9881  0.2241
   94SAPS  H20R 9291   5.248   5.111   8.297  1.1545  0.1829  0.3450
   94SAPS  H20S 9292   5.220   5.262   8.193 -1.1572 -0.9794 -2.9654
   94SAPS  H20T 9293   5.315   5.134   8.128 -0.0295  1.4543  0.5086
   94SAPS   C33 9294   4.441   4.840   6.696 -0.5787  0.7048 -0.6233
   94SAPS   H3X 9295   4.387   4.910   6.763  0.7344  1.9593 -0.8253
   94SAPS   H3Y 9296   4.530   4.900   6.667  0.0401  0.1358  0.0480
   94SAPS   C34 9297   4.491   4.723   6.795 -0.1734  0.1837  0.6878
   94SAPS   H4X 9298   4.578   4.675   6.746 -0.1606 -0.2308  1.1171
   94SAPS   H4Y 9299   4.407   4.651   6.798 -0.8748  0.8737 -1.1193
   94SAPS   C35 9300   4.513   4.768   6.935  1.0632  0.0394  0.1339
   94SAPS   H5X 9301   4.424   4.819   6.978  1.8051  1.4623  0.0491
   94SAPS   H5Y 9302   4.595   4.842   6.945  1.7491 -0.9563  2.4155
   94SAPS   C36 9303   4.539   4.651   7.031 -0.4435 -0.1580  0.4024
   94SAPS   H6X 9304   4.616   4.584   6.989 -0.8463 -1.8050  2.1430
   94SAPS   H6Y 9305   4.452   4.582   7.030  1.3142 -2.4893  0.3906
   94SAPS   C37 9306   4.554   4.689   7.178  0.1176  0.0716  0.1252
   94SAPS   H7X 9307   4.457   4.737   7.203 -0.2194 -0.9312  0.7776
   94SAPS   H7Y 9308   4.641   4.755   7.194  0.3881 -0.2905  0.1677
   94SAPS   C38 9309   4.576   4.565   7.261 -0.0246  0.2121 -0.3962
   94SAPS   H8X 9310   4.665   4.508   7.226 -0.0147  0.7929 -1.3546
   94SAPS   H8Y 9311   4.497   4.489   7.242 -0.0767  0.3126 -0.5809
   94SAPS   C39 9312   4.571   4.588   7.418  0.0501  0.0754  0.1679
   94SAPS   H9X 9313   4.475   4.641   7.438  0.8654  2.1519 -1.0089
   94SAPS   H9Y 9314   4.653   4.660   7.439 -0.6490  0.4884  1.6219
   94SAPS  C310 9315   4.605   4.465   7.497  0.0005  0.1885 -0.3500
   94SAPS  H10X 9316   4.705   4.420   7.481 -0.2805 -0.3631 -0.5807
   94SAPS  H10Y 9317   4.530   4.389   7.467 -0.8949 -0.4767  3.1063
   94SAPS  C311 9318   4.583   4.481   7.655  0.6720  0.0625  0.3824
   94SAPS  H11X 9319   4.477   4.509   7.672  0.9260 -0.2257  2.7500
   94SAPS  H11Y 9320   4.649   4.563   7.691 -2.2641  1.2329  3.6352
   94SAPS  C312 9321   4.618   4.349   7.727  0.1786  0.0739 -0.4894
   94SAPS  H12X 9322   4.729   4.347   7.736  0.0080 -1.7540  5.1438
   94SAPS  H12Y 9323   4.586   4.266   7.661  0.5391  0.5503 -1.2754
   94SAPS  C313 9324   4.558   4.327   7.869 -0.3424 -0.7764  0.5870
   94SAPS  H13X 9325   4.578   4.229   7.917 -1.2003 -0.5023  1.5273
   94SAPS  H13Y 9326   4.449   4.345   7.855 -0.8081 -0.0162  4.1302
   94SAPS  C314 9327   4.602   4.428   7.974  0.2138 -0.1866 -0.1274
   94SAPS  H14X 9328   4.614   4.530   7.930  0.5456 -0.6132 -1.0458
   94SAPS  H14Y 9329   4.704   4.401   8.009 -0.0910 -0.5720  0.4722
   94SAPS  C315 9330   4.502   4.440   8.094  0.2909 -0.4923 -0.0311
   94SAPS  H15X 9331   4.455   4.341   8.114 -1.0676 -0.4363 -2.6109
   94SAPS  H15Y 9332   4.425   4.514   8.066  0.8327  1.1903  2.5456
   94SAPS  C316 9333   4.578   4.503   8.212  0.1195 -1.0362  0.2548
   94SAPS  H16X 9334   4.608   4.603   8.173  1.2810 -2.0051 -1.4338
   94SAPS  H16Y 9335   4.670   4.447   8.237  1.0564  1.0495  1.8264
   94SAPS  C317 9336   4.496   4.516   8.345 -1.0672  0.3297  0.2009
   94SAPS  H17X 9337   4.393   4.551   8.320 -0.5050  2.0066  0.0707
   94SAPS  H17Y 9338   4.546   4.582   8.419 -1.7394  1.9309 -0.7146
   94SAPS  C318 9339   4.478   4.381   8.423  0.2329  0.2630  0.3385
   94SAPS  H18X 9340   4.426   4.391   8.521  1.0157 -0.9514  0.9030
   94SAPS  H18Y 9341   4.580   4.353   8.457 -0.7073 -2.0588  1.4801
   94SAPS  H18Z 9342   4.430   4.305   8.357  0.7186 -0.0209  0.3062
   95SAPS     N 9343   1.039   3.581   6.155 -0.2072  0.2183  0.0211
   95SAPS   HN1 9344   0.944   3.562   6.116 -1.3204  1.6419  1.9156
   95SAPS   HN2 9345   1.054   3.513   6.232 -1.4443  0.7841  0.8030
   95SAPS   HN3 9346   1.036   3.674   6.200 -1.0200 -0.7372  2.0581
   95SAPS   C12 9347   1.151   3.581   6.049  0.2301 -0.2467  0.3823
   95SAPS  H12A 9348   1.238   3.568   6.112  0.2034 -4.6385 -0.2115
   95SAPS   C13 9349   1.146   3.470   5.945 -0.0988  0.7149  0.0312
   95SAPS  O13A 9350   1.040   3.403   5.927 -0.5571 -0.0914 -0.2922
   95SAPS  O13B 9351   1.224   3.483   5.848  0.3319 -0.1757 -0.2196
   95SAPS   C11 9352   1.154   3.719   5.984 -0.2291  0.3664  1.1290
   95SAPS  H11A 9353   1.063   3.738   5.924  0.4760 -0.6647 -0.3444
   95SAPS  H11B 9354   1.242   3.722   5.917 -0.5773  1.1045  0.6951
   95SAPS     P 9355   1.126   3.967   6.067 -0.1763 -0.0540 -0.1882
   95SAPS   O13 9356   1.166   4.009   5.925 -0.0367 -0.0677 -0.3474
   95SAPS   O14 9357   0.982   3.980   6.108  0.6688 -0.4477 -0.0253
   95SAPS   O12 9358   1.165   3.818   6.096 -0.5085 -0.3033  0.1092
   95SAPS   O11 9359   1.212   4.048   6.167  0.2070  0.5049 -0.4963
   95SAPS    C1 9360   1.316   4.012   6.259 -0.7290 -0.2457 -0.3918
   95SAPS    HA 9361   1.407   3.975   6.207  1.6156  2.6003  1.3642
   95SAPS    HB 9362   1.352   4.104   6.310 -0.0609  0.0728 -1.4242
   95SAPS    C2 9363   1.260   3.913   6.365  0.6318 -0.3001  0.6225
   95SAPS    HS 9364   1.219   3.824   6.312  2.8756  0.6243 -3.0457
   95SAPS   O21 9365   1.148   3.980   6.428 -0.3650 -0.5439  0.0451
   95SAPS   C21 9366   1.050   3.896   6.472 -0.1783 -0.8366 -0.1607
   95SAPS   O22 9367   1.025   3.793   6.419 -0.2232  0.3609  0.0420
   95SAPS   C22 9368   0.984   3.952   6.603 -0.1138  0.9174  0.0347
   95SAPS   H2R 9369   0.918   4.033   6.566  0.7539  2.0437  0.8990
   95SAPS   H2S 9370   0.923   3.871   6.647  0.9326  1.0026  1.7462
   95SAPS    C3 9371   1.355   3.856   6.472 -0.0896  0.1796  0.0273
   95SAPS    HX 9372   1.417   3.945   6.496  1.0685 -1.0851  1.9474
   95SAPS    HY 9373   1.428   3.790   6.421 -2.5489 -1.7770 -1.1910
   95SAPS   O31 9374   1.289   3.802   6.584  0.0938 -0.5662  0.8499
   95SAPS   C31 9375   1.321   3.678   6.625  1.1183  0.1220  0.5832
   95SAPS   O32 9376   1.376   3.602   6.553 -0.5731  0.0898  0.4452
   95SAPS   C32 9377   1.269   3.658   6.769  0.2289 -0.2308  0.3266
   95SAPS   H2X 9378   1.158   3.656   6.775  0.2015  1.3910  0.9594
   95SAPS   H2Y 9379   1.300   3.745   6.832  0.7441 -0.0636 -0.1494
   95SAPS   C23 9380   1.073   4.023   6.709 -0.2489 -0.1692 -0.1941
   95SAPS   H3R 9381   1.149   4.090   6.665 -1.2317  1.2171  0.1736
   95SAPS   H3S 9382   1.136   3.939   6.746  1.9892  1.4834 -0.1272
   95SAPS   C24 9383   0.996   4.105   6.815 -0.2824 -0.4669 -0.2497
   95SAPS   H4R 9384   1.061   4.124   6.903 -0.9857  1.4106 -0.0751
   95SAPS   H4S 9385   0.904   4.050   6.843 -0.0948 -1.1443 -0.9232
   95SAPS   C25 9386   0.949   4.236   6.743  0.2794 -0.9276 -1.1036
   95SAPS   H5R 9387   0.903   4.225   6.644  1.9314 -3.5547 -1.6839
   95SAPS   C26 9388   0.962   4.360   6.801  0.3161  0.4705 -0.3304
   95SAPS   H6R 9389   0.916   4.447   6.751  1.6607  0.7666 -1.0891
   95SAPS   C27 9390   1.029   4.384   6.935 -0.0554 -0.8793 -1.3173
   95SAPS   H7R 9391   0.997   4.313   7.015  1.7953  2.1058  2.4042
   95SAPS   H7S 9392   0.980   4.474   6.978 -1.0123 -2.3351  0.8276
   95SAPS   C28 9393   1.180   4.406   6.938 -0.5152  0.0840 -0.8123
   95SAPS   H8R 9394   1.231   4.395   6.841  1.4961 -2.4683  0.4347
   95SAPS   C29 9395   1.246   4.446   7.052 -0.1625  1.6807  0.4217
   95SAPS   H9R 9396   1.356   4.444   7.043 -0.2817  1.7692 -1.4841
   95SAPS  C210 9397   1.176   4.462   7.183 -0.6139  0.2894 -0.3446
   95SAPS  H10R 9398   1.112   4.374   7.205  0.0639 -0.6690 -1.9907
   95SAPS  H10S 9399   1.105   4.546   7.174 -0.4766  0.4998  0.4833
   95SAPS  C211 9400   1.281   4.507   7.285 -0.2401 -0.6026 -1.0086
   95SAPS  H11R 9401   1.380   4.534   7.245 -0.7720 -1.8074 -3.3344
   95SAPS  C212 9402   1.254   4.518   7.420 -0.4841 -0.5078 -0.5338
   95SAPS  H12R 9403   1.333   4.555   7.487 -1.3680  0.8152 -0.1983
   95SAPS  C213 9404   1.132   4.478   7.504 -0.0472  0.0199  0.4297
   95SAPS  H13R 9405   1.160   4.422   7.596 -2.4266 -0.8279  0.6954
   95SAPS  H13S 9406   1.083   4.398   7.445 -0.8834 -0.0690  1.2281
   95SAPS  C214 9407   1.047   4.595   7.534 -0.0159  0.3315  0.1509
   95SAPS  H14R 9408   1.080   4.689   7.488  0.6997 -1.0603 -2.3931
   95SAPS  C215 9409   0.942   4.577   7.615  0.1464 -0.6537  0.5121
   95SAPS  H15R 9410   0.886   4.669   7.637 -1.0651 -1.2453  0.0197
   95SAPS  C216 9411   0.895   4.450   7.685  0.4433  0.3591 -1.0941
   95SAPS  H16R 9412   0.907   4.359   7.623 -1.4663 -1.8206  1.5176
   95SAPS  H16S 9413   0.787   4.462   7.708  0.7121  0.1370  0.3643
   95SAPS  C217 9414   0.973   4.435   7.818 -0.7551 -0.5211  0.2998
   95SAPS  H17R 9415   0.975   4.530   7.877  3.8328  0.5371 -1.1279
   95SAPS  H17S 9416   1.071   4.409   7.772 -0.8628  0.4643 -0.5176
   95SAPS  C218 9417   0.939   4.322   7.917  0.4974 -0.2809 -0.3052
   95SAPS  H18R 9418   0.884   4.233   7.880 -2.0870  0.7270  0.8146
   95SAPS  H18S 9419   0.872   4.371   7.991  0.9231  0.6582 -0.5267
   95SAPS  C219 9420   1.070   4.261   7.974 -0.1804 -0.3393 -0.4019
   95SAPS  H19R 9421   1.130   4.342   8.022  0.2750 -0.3854 -0.8841
   95SAPS  H19S 9422   1.131   4.231   7.886  2.3134 -0.1692  1.1562
   95SAPS  C220 9423   1.059   4.147   8.080  0.6227  0.2609  0.3091
   95SAPS  H20R 9424   1.015   4.191   8.172  0.4937 -2.6948  1.7968
   95SAPS  H20S 9425   1.157   4.094   8.089  0.5577 -0.0286 -0.5767
   95SAPS  H20T 9426   0.987   4.080   8.029  1.5517 -0.3324 -0.2633
   95SAPS   C33 9427   1.329   3.529   6.825 -0.2458  0.3217 -1.1219
   95SAPS   H3X 9428   1.439   3.546   6.830 -0.1111 -0.8344  1.9945
   95SAPS   H3Y 9429   1.317   3.435   6.766  0.7856 -1.5999  1.5291
   95SAPS   C34 9430   1.273   3.505   6.969 -0.4819  0.0925  0.2776
   95SAPS   H4X 9431   1.289   3.397   6.987 -0.3258  0.1702  0.6133
   95SAPS   H4Y 9432   1.166   3.528   6.984 -0.4898  0.3690 -0.1867
   95SAPS   C35 9433   1.355   3.580   7.074 -0.1241 -0.7470  0.0455
   95SAPS   H5X 9434   1.349   3.688   7.051  2.0724 -0.5512  0.1980
   95SAPS   H5Y 9435   1.460   3.547   7.059 -0.2291 -0.4268 -1.5711
   95SAPS   C36 9436   1.306   3.552   7.219 -0.5577 -0.3721  0.1837
   95SAPS   H6X 9437   1.345   3.453   7.251  0.2271 -0.1424 -0.0415
   95SAPS   H6Y 9438   1.195   3.542   7.216 -0.5106 -1.0144  0.4202
   95SAPS   C37 9439   1.340   3.666   7.328 -0.1180  0.0388 -0.1904
   95SAPS   H7X 9440   1.300   3.766   7.299 -1.4004 -0.5552 -0.5043
   95SAPS   H7Y 9441   1.448   3.693   7.327  0.3263 -1.5417  1.0977
   95SAPS   C38 9442   1.320   3.611   7.461 -0.6604  0.3023 -0.1194
   95SAPS   H8X 9443   1.374   3.514   7.471  0.1483  0.9277  2.1148
   95SAPS   H8Y 9444   1.216   3.613   7.498  0.6393 -0.8096  4.1734
   95SAPS   C39 9445   1.397   3.699   7.562  0.9425  0.6701  0.0186
   95SAPS   H9X 9446   1.356   3.802   7.549 -2.7206 -0.6062  0.1855
   95SAPS   H9Y 9447   1.502   3.705   7.527 -0.0451  2.9852 -3.0079
   95SAPS  C310 9448   1.369   3.671   7.711 -0.6455 -0.0760  0.3093
   95SAPS  H10X 9449   1.375   3.563   7.733  0.1563  0.1384  1.1688
   95SAPS  H10Y 9450   1.270   3.712   7.740  0.9794  4.8801 -0.1156
   95SAPS  C311 9451   1.480   3.738   7.786  0.6303 -0.5645  0.4327
   95SAPS  H11X 9452   1.490   3.843   7.749 -2.4755 -1.2132 -2.8345
   95SAPS  H11Y 9453   1.563   3.671   7.757 -1.2095 -1.5733 -3.0759
   95SAPS  C312 9454   1.467   3.736   7.940  0.6811  0.1573 -0.0286
   95SAPS  H12X 9455   1.570   3.723   7.980  0.3021 -0.0275  0.9252
   95SAPS  H12Y 9456   1.401   3.652   7.971  0.5953  0.4518  0.6128
   95SAPS  C313 9457   1.418   3.877   7.992 -0.2100  0.9233 -0.4509
   95SAPS  H13X 9458   1.316   3.905   7.956 -0.4729  0.2566 -0.2407
   95SAPS  H13Y 9459   1.488   3.960   7.970 -0.1524  0.7339 -0.9953
   95SAPS  C314 9460   1.400   3.872   8.146  0.7930  0.6864  0.6528
   95SAPS  H14X 9461   1.481   3.802   8.176  1.0304  0.0547 -1.3595
   95SAPS  H14Y 9462   1.308   3.822   8.182  1.7256 -1.4346  0.2216
   95SAPS  C315 9463   1.417   4.010   8.210 -0.0332 -0.3719  0.6815
   95SAPS  H15X 9464   1.358   4.086   8.155  0.0493 -0.4651  0.4670
   95SAPS  H15Y 9465   1.520   4.042   8.183 -0.4908 -0.5806 -1.4114
   95SAPS  C316 9466   1.396   4.013   8.362  0.5730  0.3074 -0.4525
   95SAPS  H16X 9467   1.469   3.954   8.422  1.0312 -0.8879 -2.1246
   95SAPS  H16Y 9468   1.291   3.977   8.370  0.1875  1.4113 -0.4234
   95SAPS  C317 9469   1.403   4.161   8.417 -0.3738  0.4432  0.2074
   95SAPS  H17X 9470   1.322   4.230   8.384  0.9656  2.3567  0.8108
   95SAPS  H17Y 9471   1.499   4.195   8.375 -0.4560  0.4844  0.0519
   95SAPS  C318 9472   1.382   4.164   8.563  0.4736  0.2493  0.0927
   95SAPS  H18X 9473   1.389   4.271   8.591 -1.7790  0.8080 -1.2243
   95SAPS  H18Y 9474   1.456   4.101   8.617 -1.9386 -1.9149  1.0922
   95SAPS  H18Z 9475   1.279   4.130   8.584  0.2101  1.3947  0.7496
   96SAPS     N 9476   6.689   4.833   6.052 -0.2926 -0.9385 -0.3654
   96SAPS   HN1 9477   6.613   4.788   5.997 -2.6575 -0.5787  2.3096
   96SAPS   HN2 9478   6.776   4.810   6.000  1.4875 -0.1959  2.1035
   96SAPS   HN3 9479   6.694   4.795   6.148  2.4220  0.9218  0.3634
   96SAPS   C12 9480   6.663   4.980   6.061  0.8333 -0.1090 -0.1439
   96SAPS  H12A 9481   6.758   5.031   6.068  0.1564  1.6480 -2.4141
   96SAPS   C13 9482   6.591   5.038   5.936  0.5659  0.4161 -0.1221
   96SAPS  O13A 9483   6.568   4.963   5.841  0.4080  0.1069 -0.3307
   96SAPS  O13B 9484   6.589   5.161   5.923  0.1006  0.0923 -0.6361
   96SAPS   C11 9485   6.571   5.009   6.188  1.1498 -0.1422 -0.9836
   96SAPS  H11A 9486   6.484   4.942   6.200  1.6335 -0.5862  0.1742
   96SAPS  H11B 9487   6.539   5.115   6.177  1.4125 -0.0191 -0.5847
   96SAPS     P 9488   6.750   5.099   6.348  0.5633  0.0969  0.0219
   96SAPS   O13 9489   6.887   5.059   6.347  0.2549 -0.1217  0.0940
   96SAPS   O14 9490   6.731   5.227   6.272  0.1139 -0.4055 -0.1339
   96SAPS   O12 9491   6.653   4.981   6.304  0.1627 -0.0684  0.1490
   96SAPS   O11 9492   6.708   5.124   6.497 -0.6467 -0.1522 -0.2735
   96SAPS    C1 9493   6.572   5.137   6.534 -1.0569 -0.2064  0.3269
   96SAPS    HA 9494   6.498   5.114   6.454 -1.3801 -2.4627  1.2154
   96SAPS    HB 9495   6.552   5.073   6.622 -0.1081 -0.5089  0.3366
   96SAPS    C2 9496   6.529   5.280   6.575  0.0235  0.4126  0.1987
   96SAPS    HS 9497   6.541   5.341   6.484  0.4618 -1.4729 -1.0792
   96SAPS   O21 9498   6.617   5.313   6.678  0.3280 -0.3154  0.0937
   96SAPS   C21 9499   6.730   5.388   6.649 -0.0177 -0.2501 -0.5821
   96SAPS   O22 9500   6.766   5.418   6.539 -0.2151  0.1971 -0.0911
   96SAPS   C22 9501   6.818   5.411   6.768  0.0060 -0.5057  0.7233
   96SAPS   H2R 9502   6.754   5.453   6.849  0.0832  0.9824  0.0501
   96SAPS   H2S 9503   6.866   5.314   6.796  0.0515 -0.2451  1.5816
   96SAPS    C3 9504   6.383   5.294   6.631  0.7744 -0.0841  0.0991
   96SAPS    HX 9505   6.306   5.279   6.552  0.1123 -1.4412  0.9644
   96SAPS    HY 9506   6.379   5.403   6.653  0.7147  0.3306 -1.7512
   96SAPS   O31 9507   6.359   5.207   6.740  0.1384 -0.3400 -0.5974
   96SAPS   C31 9508   6.234   5.210   6.794  0.0894 -0.3674  0.6564
   96SAPS   O32 9509   6.145   5.278   6.749  0.1195  0.0687  0.1701
   96SAPS   C32 9510   6.223   5.111   6.916  0.3053  0.1599  0.8706
   96SAPS   H2X 9511   6.317   5.120   6.974  0.5000  0.5067  0.5078
   96SAPS   H2Y 9512   6.202   5.010   6.874  0.0066  1.4048 -2.3144
   96SAPS   C23 9513   6.952   5.501   6.741 -0.1434 -0.2863 -0.1960
   96SAPS   H3R 9514   6.916   5.596   6.694  1.0407 -0.8354 -2.3402
   96SAPS   H3S 9515   7.014   5.439   6.673  2.9866 -0.1201  2.2846
   96SAPS   C24 9516   7.028   5.515   6.864  1.1205  0.2782  0.0444
   96SAPS   H4R 9517   7.053   5.412   6.896 -1.9375 -0.9589 -1.2291
   96SAPS   H4S 9518   6.978   5.574   6.944  1.7722  1.9611 -0.7445
   96SAPS   C25 9519   7.158   5.582   6.832  0.0048  0.1571 -0.3951
   96SAPS   H5R 9520   7.202   5.540   6.740 -1.1721  0.6481 -1.2079
   96SAPS   C26 9521   7.220   5.674   6.917 -0.1093 -0.1224 -0.2420
   96SAPS   H6R 9522   7.309   5.725   6.879  0.8498 -1.0746  0.6856
   96SAPS   C27 9523   7.177   5.733   7.047 -0.3324  0.5592 -0.1759
   96SAPS   H7R 9524   7.069   5.759   7.042 -0.2130  1.4504  1.4071
   96SAPS   H7S 9525   7.241   5.823   7.056  0.9978 -0.3940  0.1503
   96SAPS   C28 9526   7.193   5.640   7.162 -1.1051 -0.6977  0.0238
   96SAPS   H8R 9527   7.211   5.533   7.144  0.9778 -0.4296  0.2410
   96SAPS   C29 9528   7.203   5.680   7.288  0.2373  0.0558 -0.9410
   96SAPS   H9R 9529   7.209   5.609   7.371 -1.7815  1.4028  0.4529
   96SAPS  C210 9530   7.178   5.826   7.340  0.3231 -0.9419  0.3264
   96SAPS  H10R 9531   7.068   5.823   7.357  0.5958 -0.6344  2.4576
   96SAPS  H10S 9532   7.200   5.906   7.267 -0.2099 -1.9024 -0.9229
   96SAPS  C211 9533   7.248   5.857   7.472 -0.1261  0.1656 -0.3210
   96SAPS  H11R 9534   7.338   5.920   7.466 -0.5373  0.8323  0.4354
   96SAPS  C212 9535   7.195   5.831   7.594 -0.3429  0.1326  0.1963
   96SAPS  H12R 9536   7.257   5.858   7.681 -1.1714 -0.2255  0.9219
   96SAPS  C213 9537   7.069   5.761   7.636  0.0749 -0.2210 -0.6984
   96SAPS  H13R 9538   6.999   5.729   7.557 -1.4406 -0.8232  0.8234
   96SAPS  H13S 9539   7.011   5.841   7.687  1.1530  0.0131  0.2127
   96SAPS  C214 9540   7.076   5.653   7.742  0.1396  0.0415  0.0810
   96SAPS  H14R 9541   7.048   5.557   7.694 -0.3962  0.1780  0.1125
   96SAPS  C215 9542   7.105   5.652   7.873  0.3134 -0.5920 -0.2992
   96SAPS  H15R 9543   7.105   5.559   7.932  0.8537  0.2247  1.0087
   96SAPS  C216 9544   7.133   5.771   7.961  0.0196 -0.3413  0.6584
   96SAPS  H16R 9545   7.072   5.773   8.054 -0.3927 -2.3261  0.4718
   96SAPS  H16S 9546   7.112   5.866   7.907 -0.6414  0.3245  2.0495
   96SAPS  C217 9547   7.279   5.753   7.999 -0.0304  0.2301 -0.0862
   96SAPS  H17R 9548   7.333   5.735   7.903 -1.7728 -1.3941 -0.8296
   96SAPS  H17S 9549   7.291   5.660   8.059  1.2263 -0.6142 -1.5667
   96SAPS  C218 9550   7.329   5.880   8.071  0.3418 -0.5427 -0.7710
   96SAPS  H18R 9551   7.249   5.910   8.143  1.3701  1.5850 -0.4251
   96SAPS  H18S 9552   7.353   5.953   7.991  1.0966  0.5032  0.3737
   96SAPS  C219 9553   7.459   5.837   8.152  0.3142  0.1886  0.3881
   96SAPS  H19R 9554   7.530   5.771   8.097 -2.7444 -1.8235 -1.4190
   96SAPS  H19S 9555   7.432   5.795   8.251  3.0174  0.0276  1.1472
   96SAPS  C220 9556   7.545   5.966   8.175 -0.3308 -0.4765  0.4924
   96SAPS  H20R 9557   7.488   6.036   8.239 -1.4031 -1.5392  0.7460
   96SAPS  H20S 9558   7.562   6.020   8.080 -1.5970 -0.3981  0.2927
   96SAPS  H20T 9559   7.643   5.936   8.218  0.2374 -1.2649 -1.2489
   96SAPS   C33 9560   6.094   5.132   6.998 -0.4920 -0.1534  0.0674
   96SAPS   H3X 9561   6.015   5.085   6.935  0.8964 -0.8511 -1.2118
   96SAPS   H3Y 9562   6.071   5.238   7.021  3.0992  0.7060  0.2378
   96SAPS   C34 9563   6.112   5.069   7.140  0.2116  0.0291 -0.0031
   96SAPS   H4X 9564   6.069   5.144   7.210 -2.5937 -0.5004 -1.0058
   96SAPS   H4Y 9565   6.217   5.039   7.158  0.3558  1.5614  2.1905
   96SAPS   C35 9566   6.036   4.943   7.167  0.5160 -0.2595  0.0460
   96SAPS   H5X 9567   6.042   4.873   7.082  0.4872  0.4782 -0.5752
   96SAPS   H5Y 9568   5.931   4.980   7.174  0.5464 -0.1150 -0.2546
   96SAPS   C36 9569   6.072   4.872   7.301 -0.4644  0.0045 -0.5977
   96SAPS   H6X 9570   6.177   4.838   7.286  0.8563  2.1442  2.6152
   96SAPS   H6Y 9571   6.011   4.780   7.316  1.6752 -1.4680 -0.4402
   96SAPS   C37 9572   6.055   4.965   7.418 -0.2232  0.1917  0.2631
   96SAPS   H7X 9573   5.962   5.026   7.412  0.0922  0.7527  0.8554
   96SAPS   H7Y 9574   6.126   5.050   7.406 -0.0831  0.1043  0.4686
   96SAPS   C38 9575   6.085   4.901   7.550  0.1071  0.3382  0.2553
   96SAPS   H8X 9576   6.183   4.851   7.541  1.2926  1.6979  3.8548
   96SAPS   H8Y 9577   6.003   4.828   7.569 -0.4446  1.5180  2.8555
   96SAPS   C39 9578   6.084   5.002   7.665  0.7342 -0.4395  0.2533
   96SAPS   H9X 9579   6.000   5.075   7.667  0.9091 -0.1352  3.7744
   96SAPS   H9Y 9580   6.166   5.077   7.659  0.7048 -0.2099  2.0135
   96SAPS  C310 9581   6.077   4.923   7.804  0.8349 -0.3567 -0.1466
   96SAPS  H10X 9582   6.152   4.841   7.802  1.0738 -0.1255 -0.9616
   96SAPS  H10Y 9583   5.986   4.861   7.800  0.0736  0.5087  1.9632
   96SAPS  C311 9584   6.073   5.021   7.927  0.0220 -0.0536  0.8672
   96SAPS  H11X 9585   6.001   5.102   7.901  0.4721  0.0637 -0.0438
   96SAPS  H11Y 9586   6.171   5.065   7.955  0.3356  0.0109 -0.3161
   96SAPS  C312 9587   6.020   4.953   8.049 -0.2393 -0.4514 -0.3014
   96SAPS  H12X 9588   5.911   4.939   8.029 -0.9322  1.6734  1.6098
   96SAPS  H12Y 9589   6.036   5.026   8.131  1.6738 -0.7752 -0.3370
   96SAPS  C313 9590   6.082   4.812   8.081  0.1289 -0.1472 -0.1034
   96SAPS  H13X 9591   6.192   4.823   8.067  0.3392 -3.5249 -2.2586
   96SAPS  H13Y 9592   6.051   4.740   8.002  1.3692  0.2749 -1.0059
   96SAPS  C314 9593   6.044   4.767   8.224  0.1745 -0.1475 -0.1946
   96SAPS  H14X 9594   5.934   4.755   8.212  0.2630 -1.0945 -0.1700
   96SAPS  H14Y 9595   6.060   4.848   8.298 -2.0092 -0.2459  0.4753
   96SAPS  C315 9596   6.109   4.636   8.275 -0.9660 -0.2415  0.2474
   96SAPS  H15X 9597   6.221   4.639   8.273 -0.9509  0.1629  1.1560
   96SAPS  H15Y 9598   6.066   4.552   8.217  0.8222  0.2275 -1.9145
   96SAPS  C316 9599   6.092   4.625   8.423 -1.0883  0.3942  0.0016
   96SAPS  H16X 9600   5.990   4.646   8.463 -0.7671 -1.0153  1.7134
   96SAPS  H16Y 9601   6.143   4.713   8.468 -0.0235  0.2984 -0.9667
   96SAPS  C317 9602   6.151   4.486   8.467  0.2114 -0.6586 -0.3084
   96SAPS  H17X 9603   6.262   4.491   8.463  0.2536  1.3713  1.5593
   96SAPS  H17Y 9604   6.122   4.408   8.394  0.7293 -1.2161  0.0698
   96SAPS  C318 9605   6.095   4.446   8.602 -0.1728 -0.3372 -0.0476
   96SAPS  H18X 9606   6.134   4.348   8.638 -1.0001 -1.6447 -2.4586
   96SAPS  H18Y 9607   5.985   4.427   8.601 -0.0005 -1.4031 -0.0818
   96SAPS  H18Z 9608   6.113   4.515   8.687 -2.2033  2.6530 -1.8515
   97SAPS     N 9609   2.825   0.776   6.087 -0.1389  0.0894  0.1910
   97SAPS   HN1 9610   2.723   0.773   6.105 -0.2184  0.5356 -0.1586
   97SAPS   HN2 9611   2.844   0.793   5.986  0.7167  1.2748  0.5240
   97SAPS   HN3 9612   2.870   0.688   6.119 -0.9737 -0.2890  0.3368
   97SAPS   C12 9613   2.873   0.890   6.160 -0.1073  0.2156  1.3299
   97SAPS  H12A 9614   2.970   0.908   6.116 -0.9962 -0.5954 -1.1457
   97SAPS   C13 9615   2.790   1.019   6.148 -0.3672 -0.1751  0.7216
   97SAPS  O13A 9616   2.713   1.025   6.041 -0.0267  0.2759 -0.2546
   97SAPS  O13B 9617   2.843   1.128   6.182 -0.7759  0.0151  0.3106
   97SAPS   C11 9618   2.897   0.858   6.303 -0.0655 -0.3913  0.2344
   97SAPS  H11A 9619   2.799   0.826   6.346 -2.2488  0.1880 -3.8508
   97SAPS  H11B 9620   2.923   0.951   6.358 -0.0336 -1.0251  1.3281
   97SAPS     P 9621   3.154   0.788   6.339  0.2173 -0.0437 -0.2437
   97SAPS   O13 9622   3.223   0.656   6.351  0.2830  0.5824  0.2774
   97SAPS   O14 9623   3.196   0.877   6.233  0.5564 -0.0808  0.5075
   97SAPS   O12 9624   2.997   0.753   6.314 -0.0915 -0.3955  0.3835
   97SAPS   O11 9625   3.158   0.861   6.483  0.4719 -0.0724  0.1238
   97SAPS    C1 9626   3.086   0.799   6.587 -0.3536  0.1639  0.1018
   97SAPS    HA 9627   2.976   0.817   6.584 -0.7455 -2.0619 -0.6115
   97SAPS    HB 9628   3.087   0.688   6.584  0.1029  0.0865  1.8889
   97SAPS    C2 9629   3.140   0.824   6.732 -0.2102  0.3681 -0.0160
   97SAPS    HS 9630   3.062   0.764   6.783 -0.2487 -0.4811 -1.0442
   97SAPS   O21 9631   3.130   0.963   6.773 -0.0883  0.2975 -0.5132
   97SAPS   C21 9632   3.013   1.007   6.813  0.9368  0.2445  0.0184
   97SAPS   O22 9633   2.908   0.941   6.814  0.0172  0.0080 -0.9016
   97SAPS   C22 9634   3.035   1.147   6.876  0.5506  0.9135  0.2845
   97SAPS   H2R 9635   3.045   1.218   6.792  0.9012  2.3687  1.5118
   97SAPS   H2S 9636   2.956   1.175   6.949  1.8747 -0.4978  2.3684
   97SAPS    C3 9637   3.275   0.751   6.753 -0.2105 -0.9410 -0.2065
   97SAPS    HX 9638   3.351   0.830   6.735  0.7934 -1.2563  2.2534
   97SAPS    HY 9639   3.285   0.660   6.690  2.8731 -1.0708  0.3302
   97SAPS   O31 9640   3.294   0.718   6.891  0.2199  0.0865 -0.6516
   97SAPS   C31 9641   3.212   0.621   6.938 -0.2109  0.4797  0.0967
   97SAPS   O32 9642   3.153   0.541   6.866 -0.2457  0.4661 -0.1176
   97SAPS   C32 9643   3.194   0.628   7.088  0.4573 -0.4438 -0.0768
   97SAPS   H2X 9644   3.144   0.723   7.118  2.2700  0.8125 -0.8309
   97SAPS   H2Y 9645   3.280   0.602   7.153 -0.3087 -4.3860 -0.3739
   97SAPS   C23 9646   3.168   1.149   6.961  0.1297  0.3945 -0.2415
   97SAPS   H3R 9647   3.187   1.246   7.012 -0.4834  1.0258 -1.1880
   97SAPS   H3S 9648   3.256   1.133   6.895 -1.2591  0.0481 -2.0654
   97SAPS   C24 9649   3.163   1.039   7.069 -0.0615 -0.1740 -0.6935
   97SAPS   H4R 9650   3.266   1.039   7.111 -0.1314 -1.7817 -0.4684
   97SAPS   H4S 9651   3.144   0.937   7.030 -0.2223 -0.3365 -0.2017
   97SAPS   C25 9652   3.068   1.066   7.181 -0.6647  0.2679  0.4345
   97SAPS   H5R 9653   2.968   1.084   7.138  0.3209 -0.2334 -2.2515
   97SAPS   C26 9654   3.095   1.065   7.313  0.3756 -0.0801  0.3725
   97SAPS   H6R 9655   3.018   1.092   7.387  0.5334  0.2615  0.4109
   97SAPS   C27 9656   3.225   1.032   7.373  0.1164 -0.1102 -0.3071
   97SAPS   H7R 9657   3.296   1.117   7.363 -1.5821  1.5216  0.8669
   97SAPS   H7S 9658   3.271   0.951   7.313 -0.3868  1.0548 -2.3650
   97SAPS   C28 9659   3.208   0.995   7.523 -0.0669 -0.0596 -0.3480
   97SAPS   H8R 9660   3.202   0.891   7.559 -3.1001 -0.2912 -1.2533
   97SAPS   C29 9661   3.225   1.077   7.630  0.8382 -0.6606 -0.2000
   97SAPS   H9R 9662   3.203   1.043   7.732 -2.7058  1.4621 -0.1129
   97SAPS  C210 9663   3.248   1.229   7.619  0.2324 -0.5138 -0.7581
   97SAPS  H10R 9664   3.165   1.272   7.678  0.5689 -2.1767  1.0607
   97SAPS  H10S 9665   3.237   1.273   7.518  1.2309  0.9696 -0.2479
   97SAPS  C211 9666   3.379   1.264   7.679 -0.0587  0.9623 -0.2159
   97SAPS  H11R 9667   3.466   1.258   7.613 -0.4410 -0.6227 -0.6279
   97SAPS  C212 9668   3.395   1.291   7.811  0.0683 -0.6019  0.6222
   97SAPS  H12R 9669   3.499   1.309   7.842  0.0996  1.3187 -0.4239
   97SAPS  C213 9670   3.280   1.292   7.916  0.0814 -0.1379  1.0445
   97SAPS  H13R 9671   3.241   1.190   7.935  2.4219 -1.2868  0.0925
   97SAPS  H13S 9672   3.202   1.358   7.871  0.6112  0.8631  1.5479
   97SAPS  C214 9673   3.332   1.345   8.051  0.0798 -0.2957  0.2037
   97SAPS  H14R 9674   3.321   1.454   8.059 -0.7714  0.1601 -4.3000
   97SAPS  C215 9675   3.369   1.260   8.155  0.3026 -0.4852  0.2368
   97SAPS  H15R 9676   3.405   1.311   8.246 -0.6440 -0.0001  0.3499
   97SAPS  C216 9677   3.382   1.106   8.155 -0.5086 -0.1944 -0.0756
   97SAPS  H16R 9678   3.374   1.057   8.056 -1.1371 -1.3887  0.5570
   97SAPS  H16S 9679   3.303   1.060   8.218 -0.5270 -1.5986 -1.0874
   97SAPS  C217 9680   3.509   1.052   8.219  0.0181  0.2875 -0.2456
   97SAPS  H17R 9681   3.490   0.945   8.242  0.7595 -0.0922 -1.3416
   97SAPS  H17S 9682   3.545   1.097   8.314 -0.2091 -0.3160  0.1316
   97SAPS  C218 9683   3.627   1.056   8.124  0.2080  0.0624 -0.2810
   97SAPS  H18R 9684   3.593   1.031   8.022 -1.7986 -0.9886  0.6050
   97SAPS  H18S 9685   3.707   0.985   8.155  0.3012 -0.1794 -1.0494
   97SAPS  C219 9686   3.705   1.192   8.110  0.0858  0.1352 -0.2583
   97SAPS  H19R 9687   3.747   1.232   8.205  0.0596 -1.8467  0.6379
   97SAPS  H19S 9688   3.630   1.271   8.089  0.6456  1.2249  1.6181
   97SAPS  C220 9689   3.804   1.186   7.998  0.2275  0.1745  0.1570
   97SAPS  H20R 9690   3.761   1.165   7.898 -2.4625 -1.3960  1.5284
   97SAPS  H20S 9691   3.865   1.096   8.023  0.8192  0.6835  0.5941
   97SAPS  H20T 9692   3.870   1.276   7.996  0.5678 -0.0716  0.2499
   97SAPS   C33 9693   3.097   0.517   7.134 -0.1214  0.4058 -0.0054
   97SAPS   H3X 9694   3.144   0.423   7.100 -1.0181  0.2467 -0.8465
   97SAPS   H3Y 9695   2.999   0.518   7.081  0.1794 -2.0280 -0.7180
   97SAPS   C34 9696   3.076   0.497   7.283 -0.1047 -0.2047 -0.5017
   97SAPS   H4X 9697   3.172   0.478   7.336 -0.5513 -1.3738 -0.0870
   97SAPS   H4Y 9698   3.004   0.413   7.284  0.9842 -1.1726  0.9811
   97SAPS   C35 9699   3.029   0.619   7.352  0.7523 -0.6480 -0.0226
   97SAPS   H5X 9700   2.935   0.653   7.302 -0.2876  0.5634  2.6053
   97SAPS   H5Y 9701   3.095   0.706   7.334 -1.4371  1.6008  2.1860
   97SAPS   C36 9702   3.014   0.621   7.511  0.2156  0.3024  0.9562
   97SAPS   H6X 9703   2.933   0.550   7.539  1.4983 -0.9428  1.6590
   97SAPS   H6Y 9704   2.988   0.722   7.550  2.3364  0.6814  1.5124
   97SAPS   C37 9705   3.140   0.570   7.588 -0.0030 -0.0135  0.6502
   97SAPS   H7X 9706   3.228   0.630   7.557  0.1260 -0.4651  0.1347
   97SAPS   H7Y 9707   3.149   0.461   7.570  1.1054  0.2725 -0.7061
   97SAPS   C38 9708   3.138   0.616   7.735 -0.2436  0.0987 -0.2690
   97SAPS   H8X 9709   3.066   0.554   7.793 -0.4359 -1.3451 -1.9560
   97SAPS   H8Y 9710   3.090   0.716   7.742 -0.8443 -0.1512 -0.7288
   97SAPS   C39 9711   3.277   0.609   7.793 -0.3833 -0.0125 -0.6314
   97SAPS   H9X 9712   3.352   0.653   7.724  0.4482 -0.0287  0.2506
   97SAPS   H9Y 9713   3.308   0.507   7.821 -0.7609 -0.2509 -1.0635
   97SAPS  C310 9714   3.289   0.703   7.917  0.3391  0.3496  0.2893
   97SAPS  H10X 9715   3.262   0.801   7.873 -1.9074 -0.8229 -1.1357
   97SAPS  H10Y 9716   3.397   0.714   7.942  0.9460 -0.8151 -1.5728
   97SAPS  C311 9717   3.189   0.674   8.028 -0.1985  0.1707  0.4199
   97SAPS  H11X 9718   3.101   0.622   7.984  0.0436 -1.0252  1.3073
   97SAPS  H11Y 9719   3.155   0.772   8.067  1.2120  1.0959 -0.5842
   97SAPS  C312 9720   3.235   0.587   8.149  0.0165 -0.1055 -0.0377
   97SAPS  H12X 9721   3.309   0.515   8.109 -0.4991  0.5946 -2.4505
   97SAPS  H12Y 9722   3.146   0.537   8.193  0.5692  0.2332  1.5363
   97SAPS  C313 9723   3.300   0.660   8.269 -0.1534 -0.3907  0.3626
   97SAPS  H13X 9724   3.239   0.747   8.300  0.0792  0.1229 -0.5910
   97SAPS  H13Y 9725   3.393   0.697   8.223  0.3763 -0.2844  1.4742
   97SAPS  C314 9726   3.327   0.560   8.388 -0.4403  0.0442  1.3111
   97SAPS  H14X 9727   3.415   0.498   8.359 -1.3207 -0.2790 -0.9016
   97SAPS  H14Y 9728   3.246   0.486   8.405 -0.9193  0.0917 -0.5839
   97SAPS  C315 9729   3.374   0.624   8.519  0.5108 -0.5367 -0.2537
   97SAPS  H15X 9730   3.291   0.688   8.556  0.5373 -1.7523  2.1030
   97SAPS  H15Y 9731   3.463   0.689   8.508 -1.0320  1.5304 -1.0565
   97SAPS  C316 9732   3.399   0.508   8.622 -0.2716  0.2726  0.9031
   97SAPS  H16X 9733   3.506   0.477   8.617 -0.5358 -0.5341 -3.3923
   97SAPS  H16Y 9734   3.341   0.417   8.597  1.3342 -0.3910 -0.5792
   97SAPS  C317 9735   3.370   0.542   8.767 -0.8535 -0.5140  0.0265
   97SAPS  H17X 9736   3.399   0.447   8.817  0.7309  0.6619  1.4334
   97SAPS  H17Y 9737   3.259   0.548   8.771 -0.8100 -0.4270  1.1937
   97SAPS  C318 9738   3.422   0.670   8.832 -0.4770  0.5023  0.0868
   97SAPS  H18X 9739   3.529   0.678   8.861 -1.2916  1.8037  3.1617
   97SAPS  H18Y 9740   3.361   0.665   8.925  1.8466  1.0906  1.7393
   97SAPS  H18Z 9741   3.387   0.754   8.769  0.9022 -0.5478 -2.2468
   98SAPS     N 9742   0.380   2.081   6.128  0.1593  0.0279 -0.4002
   98SAPS   HN1 9743   0.419   2.129   6.045 -1.3564 -0.6481 -1.5412
   98SAPS   HN2 9744   0.280   2.107   6.125 -0.4230 -2.0477 -3.2604
   98SAPS   HN3 9745   0.432   2.113   6.213 -0.6451 -0.2264  0.2024
   98SAPS   C12 9746   0.396   1.930   6.104 -0.1470  0.2095  0.5244
   98SAPS  H12A 9747   0.380   1.874   6.195  0.2853  1.2695  1.2625
   98SAPS   C13 9748   0.303   1.872   5.997  0.0022  0.1112  0.2877
   98SAPS  O13A 9749   0.212   1.947   5.952  0.0508  0.1848  0.2850
   98SAPS  O13B 9750   0.319   1.762   5.954 -0.2157  0.1412 -0.3141
   98SAPS   C11 9751   0.542   1.890   6.055  1.1627 -0.1482 -0.8084
   98SAPS  H11A 9752   0.569   1.926   5.953 -1.2731 -0.5316 -1.6522
   98SAPS  H11B 9753   0.552   1.783   6.030  0.6744 -0.4392  0.1760
   98SAPS     P 9754   0.781   1.847   6.182 -0.4182  0.0902 -0.0129
   98SAPS   O13 9755   0.784   1.725   6.096 -0.3964  0.1270  0.2872
   98SAPS   O14 9756   0.904   1.933   6.178  0.6029 -0.6667 -0.0525
   98SAPS   O12 9757   0.648   1.930   6.144  0.5587  0.2515 -0.5568
   98SAPS   O11 9758   0.754   1.800   6.334 -0.2464  0.1940 -0.4235
   98SAPS    C1 9759   0.633   1.809   6.406 -0.2102 -0.1287 -0.8757
   98SAPS    HA 9760   0.542   1.791   6.344  0.6056  1.0286 -2.4544
   98SAPS    HB 9761   0.621   1.744   6.496  1.3267 -1.8551 -1.8506
   98SAPS    C2 9762   0.637   1.954   6.466 -0.3090  0.1248 -0.8604
   98SAPS    HS 9763   0.646   2.030   6.385 -2.1245  1.5788  0.2245
   98SAPS   O21 9764   0.762   1.964   6.547  0.7857  0.4033  0.6701
   98SAPS   C21 9765   0.810   2.094   6.559 -0.2475  0.1368 -0.8878
   98SAPS   O22 9766   0.766   2.188   6.497  0.3490  0.0704  0.1863
   98SAPS   C22 9767   0.918   2.092   6.666  0.0612 -0.1569  0.7629
   98SAPS   H2R 9768   0.980   2.002   6.649 -0.1347 -0.0837 -0.4787
   98SAPS   H2S 9769   0.978   2.184   6.647  0.2562 -0.6979 -1.4972
   98SAPS    C3 9770   0.514   1.985   6.558  0.5206 -0.4456  0.4852
   98SAPS    HX 9771   0.429   1.975   6.487  1.2547  0.3811 -0.5410
   98SAPS    HY 9772   0.509   2.090   6.595 -0.6052 -0.8776  1.6422
   98SAPS   O31 9773   0.504   1.888   6.666 -0.0035  0.3113  0.3692
   98SAPS   C31 9774   0.407   1.794   6.660 -0.4243  0.8682 -1.1214
   98SAPS   O32 9775   0.320   1.779   6.577 -0.1316 -0.3451 -0.5210
   98SAPS   C32 9776   0.415   1.712   6.789 -0.7384  0.2892 -0.1629
   98SAPS   H2X 9777   0.496   1.636   6.792 -1.0294  0.0082  2.2784
   98SAPS   H2Y 9778   0.321   1.654   6.783 -0.3189 -0.3254 -1.2354
   98SAPS   C23 9779   0.860   2.108   6.804 -0.0258  0.3185 -0.7581
   98SAPS   H3R 9780   0.803   2.203   6.816  1.0090  0.9437 -0.6466
   98SAPS   H3S 9781   0.944   2.103   6.876  1.1182 -0.5455 -2.0771
   98SAPS   C24 9782   0.756   1.995   6.848 -0.8659 -0.1157 -0.4137
   98SAPS   H4R 9783   0.675   1.986   6.772 -1.9007  4.1135 -0.0522
   98SAPS   H4S 9784   0.705   2.030   6.940  1.0012  0.5499  0.4205
   98SAPS   C25 9785   0.818   1.860   6.867 -0.0933  0.6076 -0.5766
   98SAPS   H5R 9786   0.826   1.802   6.774 -0.5708  0.5681 -0.5971
   98SAPS   C26 9787   0.863   1.805   6.988 -0.3762 -0.0926 -0.2001
   98SAPS   H6R 9788   0.913   1.707   6.990 -2.3049 -1.1434  0.5552
   98SAPS   C27 9789   0.852   1.874   7.123  0.6901  0.3322 -0.1645
   98SAPS   H7R 9790   0.770   1.949   7.116 -0.2994 -0.8714 -2.3142
   98SAPS   H7S 9791   0.945   1.930   7.149 -0.3307  1.9651  0.0982
   98SAPS   C28 9792   0.810   1.778   7.229  0.2869  0.3695 -0.0881
   98SAPS   H8R 9793   0.803   1.674   7.194 -0.5910  0.8511 -1.3959
   98SAPS   C29 9794   0.792   1.810   7.356 -0.3127 -0.3534  0.0054
   98SAPS   H9R 9795   0.762   1.735   7.431  0.0669 -0.9743 -0.4560
   98SAPS  C210 9796   0.811   1.941   7.425  0.5531  0.0047 -0.2882
   98SAPS  H10R 9797   0.761   1.948   7.524  1.9346 -3.2357  0.7785
   98SAPS  H10S 9798   0.762   2.019   7.362  1.7592  0.0349 -1.2472
   98SAPS  C211 9799   0.956   1.981   7.453  0.6406 -0.0269  0.2357
   98SAPS  H11R 9800   1.029   1.972   7.371  0.5535  0.0575  0.1491
   98SAPS  C212 9801   1.001   2.034   7.573  0.2057  0.2321  0.1431
   98SAPS  H12R 9802   1.110   2.040   7.586  0.0521  1.8644  0.9293
   98SAPS  C213 9803   0.933   2.055   7.710 -0.7282  0.1114 -0.2664
   98SAPS  H13R 9804   0.934   1.970   7.781 -0.5143  1.2573  1.1421
   98SAPS  H13S 9805   0.828   2.084   7.688 -0.3294  1.1769 -0.8467
   98SAPS  C214 9806   0.989   2.179   7.781 -1.4517 -0.1098 -0.7754
   98SAPS  H14R 9807   1.018   2.267   7.721  0.1293  0.6579  0.9936
   98SAPS  C215 9808   1.014   2.198   7.913  0.2304  0.3190  0.1314
   98SAPS  H15R 9809   1.051   2.295   7.949  1.0222 -0.1716  0.6650
   98SAPS  C216 9810   0.990   2.096   8.020  0.1807  0.0150 -0.3026
   98SAPS  H16R 9811   1.080   2.031   8.021  1.2300  1.4181 -0.0061
   98SAPS  H16S 9812   0.903   2.030   8.000  0.3275  0.6463 -3.4622
   98SAPS  C217 9813   0.950   2.165   8.147 -0.1750  0.0915 -0.3709
   98SAPS  H17R 9814   1.017   2.253   8.157  0.2845 -0.1874 -0.9173
   98SAPS  H17S 9815   0.988   2.108   8.235  0.6965  0.3367 -0.5764
   98SAPS  C218 9816   0.800   2.196   8.148  0.1371  0.5181  0.1495
   98SAPS  H18R 9817   0.727   2.112   8.137  0.1822  0.2432  1.7032
   98SAPS  H18S 9818   0.784   2.249   8.051  3.4342  1.8999  0.2536
   98SAPS  C219 9819   0.751   2.286   8.267  0.2241 -0.0282  0.4590
   98SAPS  H19R 9820   0.795   2.240   8.358  0.9690  0.4680  0.3591
   98SAPS  H19S 9821   0.640   2.294   8.276  0.3397  3.4527  0.2134
   98SAPS  C220 9822   0.799   2.437   8.259 -0.0673  0.1240 -0.0343
   98SAPS  H20R 9823   0.802   2.478   8.362 -1.0942  0.2494 -0.0473
   98SAPS  H20S 9824   0.722   2.494   8.203 -2.0939 -1.0397  1.4162
   98SAPS  H20T 9825   0.894   2.445   8.202 -0.8260  2.0914 -1.1063
   98SAPS   C33 9826   0.426   1.789   6.918  0.3287  0.1598 -0.6375
   98SAPS   H3X 9827   0.336   1.851   6.934 -0.3004 -0.7424 -0.5739
   98SAPS   H3Y 9828   0.511   1.860   6.922 -1.3842  2.2848 -0.1384
   98SAPS   C34 9829   0.441   1.693   7.046 -0.0221 -0.0176  0.2279
   98SAPS   H4X 9830   0.545   1.655   7.050 -0.2525 -0.6252  0.5132
   98SAPS   H4Y 9831   0.374   1.608   7.023  2.0893 -1.8918  0.6827
   98SAPS   C35 9832   0.400   1.753   7.180  0.2059 -0.0201  0.1518
   98SAPS   H5X 9833   0.300   1.799   7.188 -0.8777 -2.2048  0.0421
   98SAPS   H5Y 9834   0.467   1.841   7.182 -0.9519  0.8723  0.1126
   98SAPS   C36 9835   0.419   1.654   7.296 -0.4009 -0.4047  1.1269
   98SAPS   H6X 9836   0.508   1.590   7.276 -0.5819 -0.9684  2.0498
   98SAPS   H6Y 9837   0.326   1.595   7.305 -1.5619  1.2893  0.6623
   98SAPS   C37 9838   0.446   1.719   7.435  0.1265 -0.7185  0.3498
   98SAPS   H7X 9839   0.351   1.765   7.468  1.8043  3.0993  0.3928
   98SAPS   H7Y 9840   0.515   1.806   7.423  1.2103 -1.3697  1.4852
   98SAPS   C38 9841   0.496   1.619   7.538 -0.3922  0.5846 -0.0089
   98SAPS   H8X 9842   0.602   1.594   7.516 -0.8731  0.9539 -3.3582
   98SAPS   H8Y 9843   0.437   1.525   7.534  0.3105  0.0070  2.0379
   98SAPS   C39 9844   0.492   1.665   7.679 -0.1392 -0.6461  0.1405
   98SAPS   H9X 9845   0.530   1.588   7.750  0.5267  1.5190  2.2426
   98SAPS   H9Y 9846   0.388   1.683   7.713  0.5553  0.5687  1.7466
   98SAPS  C310 9847   0.572   1.791   7.717 -0.3621 -0.1300  0.6852
   98SAPS  H10X 9848   0.526   1.877   7.663 -2.0277 -0.5599  1.3379
   98SAPS  H10Y 9849   0.673   1.774   7.676 -0.4209  1.7942 -0.3779
   98SAPS  C311 9850   0.577   1.813   7.870  0.1843  0.0738  0.9327
   98SAPS  H11X 9851   0.639   1.906   7.881 -1.3314  1.3898 -0.9440
   98SAPS  H11Y 9852   0.630   1.727   7.916 -0.7740 -0.0388  1.8533
   98SAPS  C312 9853   0.437   1.832   7.939 -0.2922 -0.7205 -0.0458
   98SAPS  H12X 9854   0.369   1.751   7.906 -2.5352  1.6040 -1.4976
   98SAPS  H12Y 9855   0.392   1.921   7.889 -0.2786 -1.4407 -1.4065
   98SAPS  C313 9856   0.434   1.848   8.093 -0.1410 -0.5332 -0.0881
   98SAPS  H13X 9857   0.341   1.898   8.126  1.1278  1.2811  0.8992
   98SAPS  H13Y 9858   0.502   1.933   8.112 -3.3654  2.5272 -1.2715
   98SAPS  C314 9859   0.455   1.717   8.172  0.4043 -0.1296 -0.2616
   98SAPS  H14X 9860   0.530   1.650   8.125  0.9709  1.8359 -2.3131
   98SAPS  H14Y 9861   0.358   1.665   8.158 -0.0403  0.9620 -1.4734
   98SAPS  C315 9862   0.482   1.741   8.322 -0.1603  0.5717 -0.2143
   98SAPS  H15X 9863   0.421   1.826   8.360 -0.3204 -0.3175  1.6546
   98SAPS  H15Y 9864   0.590   1.757   8.341 -0.3141  0.2511  1.0338
   98SAPS  C316 9865   0.440   1.609   8.395  0.2583 -0.5605  0.8507
   98SAPS  H16X 9866   0.491   1.521   8.352  0.9719 -0.3564  1.2658
   98SAPS  H16Y 9867   0.329   1.604   8.385  0.3729  0.5221 -1.5591
   98SAPS  C317 9868   0.482   1.616   8.542  0.3165 -0.8448  0.5453
   98SAPS  H17X 9869   0.446   1.712   8.584 -2.5435 -0.7497 -1.8219
   98SAPS  H17Y 9870   0.593   1.617   8.548  0.4104  0.3401 -0.8778
   98SAPS  C318 9871   0.429   1.512   8.643 -0.1915 -0.4592 -0.0355
   98SAPS  H18X 9872   0.494   1.514   8.732 -1.4048  0.6200  0.8764
   98SAPS  H18Y 9873   0.435   1.416   8.587  0.3540 -0.5348  0.1515
   98SAPS  H18Z 9874   0.326   1.532   8.681  0.7265 -0.0474  2.3708
   99SAPS     N 9875   6.588   0.839   6.186  0.5200  0.4498  0.2455
   99SAPS   HN1 9876   6.596   0.738   6.212  0.4941  0.8399  1.9090
   99SAPS   HN2 9877   6.682   0.881   6.199 -0.0373  1.8125  0.0735
   99SAPS   HN3 9878   6.520   0.877   6.255  0.9066  0.8452  0.4167
   99SAPS   C12 9879   6.525   0.854   6.058 -0.2555 -0.5270  0.7035
   99SAPS  H12A 9880   6.497   0.958   6.051  0.3167 -0.3582  0.9605
   99SAPS   C13 9881   6.622   0.812   5.947  0.4632 -0.1162  0.9601
   99SAPS  O13A 9882   6.726   0.742   5.976  0.2680 -0.1306 -0.3091
   99SAPS  O13B 9883   6.595   0.850   5.827  0.3447  0.6290 -0.1604
   99SAPS   C11 9884   6.393   0.769   6.041  0.5615  0.2907 -0.5223
   99SAPS  H11A 9885   6.417   0.661   6.045  0.9481  0.3741 -0.5379
   99SAPS  H11B 9886   6.345   0.798   5.945 -1.6603  1.7213  0.8946
   99SAPS     P 9887   6.195   0.910   6.150 -0.2088 -0.3557 -0.2215
   99SAPS   O13 9888   6.246   1.034   6.208 -0.0934  0.7177  0.3050
   99SAPS   O14 9889   6.124   0.929   6.021  0.2969  0.1510  0.4857
   99SAPS   O12 9890   6.299   0.792   6.143  0.1632  0.1190 -0.0569
   99SAPS   O11 9891   6.080   0.865   6.245  0.3643 -1.4205  0.1912
   99SAPS    C1 9892   6.085   0.818   6.380 -0.0759  0.0539 -0.1429
   99SAPS    HA 9893   6.006   0.747   6.411  1.6585 -0.6233  3.1634
   99SAPS    HB 9894   6.179   0.764   6.403 -0.9653 -1.3661  0.2978
   99SAPS    C2 9895   6.061   0.938   6.484  0.5445 -0.1814 -0.1484
   99SAPS    HS 9896   5.960   0.979   6.469  1.1546  1.1623 -0.6677
   99SAPS   O21 9897   6.166   1.036   6.469 -0.0170  0.4217 -0.4522
   99SAPS   C21 9898   6.129   1.161   6.471  0.5024 -0.2111 -0.3173
   99SAPS   O22 9899   6.019   1.199   6.488 -0.0161  0.3145 -0.3624
   99SAPS   C22 9900   6.259   1.244   6.453 -0.1807  0.0459 -0.6080
   99SAPS   H2R 9901   6.333   1.187   6.392 -1.4342 -0.9571 -1.2515
   99SAPS   H2S 9902   6.227   1.335   6.399 -2.2433 -0.6037 -0.5456
   99SAPS    C3 9903   6.071   0.889   6.633  0.1921 -0.2067  0.9541
   99SAPS    HX 9904   6.049   0.976   6.698 -0.0772 -0.9065  1.8272
   99SAPS    HY 9905   6.177   0.867   6.656  1.6399  4.4407 -0.3038
   99SAPS   O31 9906   5.976   0.788   6.682 -0.1221  0.3753  0.0892
   99SAPS   C31 9907   6.039   0.668   6.700  0.2803  0.2642 -0.6239
   99SAPS   O32 9908   6.145   0.633   6.647  0.5291 -0.5256 -0.0770
   99SAPS   C32 9909   5.938   0.576   6.771 -0.4116 -0.4346 -0.4776
   99SAPS   H2X 9910   5.868   0.540   6.693 -0.0558 -0.3272 -0.8463
   99SAPS   H2Y 9911   5.875   0.641   6.835 -0.6371  0.1724 -1.3040
   99SAPS   C23 9912   6.323   1.296   6.581 -0.0194 -0.2282 -0.7572
   99SAPS   H3R 9913   6.422   1.337   6.550 -0.2138  0.5603 -0.3637
   99SAPS   H3S 9914   6.335   1.207   6.645 -1.9465 -0.1602 -0.2571
   99SAPS   C24 9915   6.242   1.408   6.648  0.1837  0.0770  0.2095
   99SAPS   H4R 9916   6.144   1.366   6.677 -0.9213  2.6691  0.4367
   99SAPS   H4S 9917   6.234   1.491   6.575  1.9033  0.0938 -0.0065
   99SAPS   C25 9918   6.303   1.466   6.769 -0.2793 -0.9138 -0.8456
   99SAPS   H5R 9919   6.368   1.549   6.735 -2.2381  1.0176 -0.1177
   99SAPS   C26 9920   6.280   1.451   6.901 -0.0154 -0.3984  0.0026
   99SAPS   H6R 9921   6.336   1.510   6.974 -2.8160  1.2102  0.9664
   99SAPS   C27 9922   6.174   1.355   6.957 -0.2612 -0.3950  0.1375
   99SAPS   H7R 9923   6.076   1.362   6.905 -1.5704 -1.1178  2.3553
   99SAPS   H7S 9924   6.169   1.383   7.065  0.8487 -0.3014  0.1729
   99SAPS   C28 9925   6.207   1.205   6.945  0.1159 -0.2184 -0.1366
   99SAPS   H8R 9926   6.252   1.181   6.847  1.3795 -1.6214  0.7537
   99SAPS   C29 9927   6.194   1.100   7.034  0.6143  0.0093 -0.1699
   99SAPS   H9R 9928   6.215   0.995   7.007  1.3869 -0.3773  1.7434
   99SAPS  C210 9929   6.132   1.118   7.170  0.2982  0.9678 -0.1701
   99SAPS  H10R 9930   6.034   1.067   7.179  1.6100 -1.5226  0.7323
   99SAPS  H10S 9931   6.133   1.226   7.195 -0.8759  0.9994 -0.2133
   99SAPS  C211 9932   6.222   1.031   7.262 -0.2955  0.0907  0.4468
   99SAPS  H11R 9933   6.257   0.936   7.219  1.0425  1.3335 -1.3284
   99SAPS  C212 9934   6.285   1.073   7.376  0.6549 -0.3247  0.8726
   99SAPS  H12R 9935   6.350   1.005   7.433  1.3494  0.2273  0.7596
   99SAPS  C213 9936   6.282   1.213   7.433  0.4549 -0.0061  0.3215
   99SAPS  H13R 9937   6.277   1.212   7.544 -0.3627  0.2030  0.2863
   99SAPS  H13S 9938   6.189   1.260   7.395 -1.9265 -4.8776 -0.7150
   99SAPS  C214 9939   6.403   1.291   7.390 -0.2678  0.1029  0.3177
   99SAPS  H14R 9940   6.479   1.232   7.337  1.5561  2.2290  0.4029
   99SAPS  C215 9941   6.432   1.420   7.418  0.0139  0.1770  0.6247
   99SAPS  H15R 9942   6.514   1.474   7.369 -1.4251  3.2625  1.3701
   99SAPS  C216 9943   6.349   1.516   7.498 -0.0151 -0.8352 -0.1485
   99SAPS  H16R 9944   6.259   1.470   7.544 -0.9139  1.4363  0.4612
   99SAPS  H16S 9945   6.311   1.594   7.429 -1.3403 -1.3118  0.0113
   99SAPS  C217 9946   6.437   1.587   7.609  0.4650 -0.2664 -0.1575
   99SAPS  H17R 9947   6.372   1.657   7.667 -1.1958 -0.8338 -1.2618
   99SAPS  H17S 9948   6.516   1.647   7.560  0.0639  1.1454  0.8506
   99SAPS  C218 9949   6.496   1.490   7.717 -0.4132 -0.3756  0.5846
   99SAPS  H18R 9950   6.561   1.411   7.673  1.6914 -1.0614  4.4403
   99SAPS  H18S 9951   6.408   1.437   7.759 -0.2908  0.3982  1.8750
   99SAPS  C219 9952   6.584   1.558   7.822 -0.1057  0.1564 -0.3328
   99SAPS  H19R 9953   6.674   1.613   7.786 -1.7926  2.7623 -0.8407
   99SAPS  H19S 9954   6.626   1.469   7.873 -0.3725 -0.4567 -1.1492
   99SAPS  C220 9955   6.506   1.651   7.905  0.0210  0.6925  0.1784
   99SAPS  H20R 9956   6.399   1.622   7.913  0.5981 -1.1248  2.2678
   99SAPS  H20S 9957   6.520   1.752   7.860 -0.7339  0.9755  0.5502
   99SAPS  H20T 9958   6.552   1.647   8.006 -1.6745  1.2128  1.0203
   99SAPS   C33 9959   6.011   0.457   6.846  0.2720  1.0007  0.3702
   99SAPS   H3X 9960   6.068   0.400   6.770  2.0451  1.6865  1.1515
   99SAPS   H3Y 9961   5.922   0.398   6.876 -1.4415  1.0045 -3.8954
   99SAPS   C34 9962   6.089   0.509   6.964  0.5819  0.2779 -0.1123
   99SAPS   H4X 9963   6.167   0.583   6.933  1.6429  0.0296  1.8353
   99SAPS   H4Y 9964   6.147   0.426   7.009  1.2144  0.4540 -0.5785
   99SAPS   C35 9965   6.000   0.569   7.066 -0.2301 -0.0513 -0.5900
   99SAPS   H5X 9966   5.897   0.527   7.059  0.5488 -1.9439 -1.6413
   99SAPS   H5Y 9967   5.994   0.676   7.037 -0.3645  0.8483  2.4187
   99SAPS   C36 9968   6.043   0.556   7.211 -0.5264 -0.1413 -0.4141
   99SAPS   H6X 9969   6.135   0.616   7.229 -1.2753  0.6075  1.0536
   99SAPS   H6Y 9970   6.058   0.448   7.233  1.1832 -0.3546 -2.2910
   99SAPS   C37 9971   5.936   0.614   7.302 -0.0050 -0.3285  0.7715
   99SAPS   H7X 9972   5.846   0.550   7.303 -1.1926  1.2438 -0.4455
   99SAPS   H7Y 9973   5.915   0.718   7.267  1.4294  0.2844  1.6503
   99SAPS   C38 9974   5.984   0.619   7.445  0.0923  0.2120 -0.3406
   99SAPS   H8X 9975   6.039   0.529   7.481 -0.5343  0.0784  0.3183
   99SAPS   H8Y 9976   5.890   0.614   7.504 -0.6345  0.5428 -1.4548
   99SAPS   C39 9977   6.055   0.748   7.496 -0.0973  0.2890 -0.1807
   99SAPS   H9X 9978   6.038   0.834   7.429 -0.6842  0.4750  0.2027
   99SAPS   H9Y 9979   6.166   0.746   7.487 -0.0995  1.0393 -0.4345
   99SAPS  C310 9980   6.013   0.796   7.634 -0.2068  0.2688 -0.0045
   99SAPS  H10X 9981   5.903   0.787   7.641 -0.2040 -1.6384 -1.5251
   99SAPS  H10Y 9982   6.038   0.901   7.662  2.4662  0.4803 -2.6418
   99SAPS  C311 9983   6.073   0.703   7.733 -0.2136  0.3116  0.4057
   99SAPS  H11X 9984   6.180   0.706   7.704 -0.4888  2.2861 -0.5814
   99SAPS  H11Y 9985   6.039   0.598   7.714 -1.5679  0.5500  1.3640
   99SAPS  C312 9986   6.052   0.757   7.878 -0.2949 -0.1363 -0.1737
   99SAPS  H12X 9987   5.941   0.767   7.881 -0.1996  0.7174  0.7309
   99SAPS  H12Y 9988   6.105   0.852   7.897  1.4386 -1.1029  0.0198
   99SAPS  C313 9989   6.085   0.647   7.989  0.9018  0.3391  0.3853
   99SAPS  H13X 9990   6.196   0.639   7.993  0.9799  0.0400 -1.4187
   99SAPS  H13Y 9991   6.058   0.542   7.962  0.8592  0.3985  0.1913
   99SAPS  C314 9992   6.026   0.688   8.124  0.1050  0.1517  0.4793
   99SAPS  H14X 9993   6.067   0.613   8.195 -1.4948 -1.4167 -0.1658
   99SAPS  H14Y 9994   5.916   0.683   8.127 -0.0488  2.7357  1.4117
   99SAPS  C315 9995   6.060   0.828   8.171 -0.3381 -1.1642 -0.3963
   99SAPS  H15X 9996   5.989   0.903   8.130  1.9020  0.3386 -1.7953
   99SAPS  H15Y 9997   6.155   0.863   8.125 -0.7575 -1.8780 -1.8571
   99SAPS  C316 9998   6.063   0.849   8.322 -0.7524 -0.1796 -1.0510
   99SAPS  H16X 9999   6.170   0.863   8.351 -1.1411  1.2334 -0.2219
   99SAPS  H16Y10000   6.029   0.756   8.372  2.4604 -1.2309 -0.5846
   99SAPS  C31710001   5.985   0.969   8.390 -0.3222 -0.1499 -0.0602
   99SAPS  H17X10002   6.016   0.968   8.497  2.4494 -1.9963 -0.7771
   99SAPS  H17Y10003   5.875   0.956   8.377 -0.2269 -0.1875 -0.8995
   99SAPS  C31810004   6.018   1.111   8.338  0.2787 -0.5766 -0.1784
   99SAPS  H18X10005   6.002   1.120   8.229 -0.8867 -1.1245 -0.0658
   99SAPS  H18Y10006   6.122   1.145   8.359  0.5191  0.8137 -3.1538
   99SAPS  H18Z10007   5.934   1.176   8.370 -0.7434 -1.7613 -0.3669
  100SAPS     N10008   3.231   0.166   6.004 -0.5352  0.4976  0.6324
  100SAPS   HN110009   3.324   0.123   5.991 -1.0489 -0.8541  1.2434
  100SAPS   HN210010   3.161   0.100   5.963  0.2680 -0.1232  0.2478
  100SAPS   HN310011   3.242   0.254   5.948 -1.2156 -0.8389 -1.7490
  100SAPS   C1210012   3.196   0.204   6.139 -0.9372 -0.0158  0.0993
  100SAPS  H12A10013   3.257   0.291   6.162 -2.4973  1.3429 -0.7431
  100SAPS   C1310014   3.049   0.245   6.157  0.2157 -0.0409 -0.5153
  100SAPS  O13A10015   2.974   0.279   6.060  0.4077 -0.3545  0.2196
  100SAPS  O13B10016   3.021   0.293   6.275 -0.2653  0.4720 -0.1683
  100SAPS   C1110017   3.225   0.087   6.236 -0.5422 -0.7653  0.6504
  100SAPS  H11A10018   3.176  -0.008   6.208  3.7315 -3.2816  0.8383
  100SAPS  H11B10019   3.193   0.111   6.340 -1.6507  3.4228 -0.4304
  100SAPS     P10020   3.451   0.002   6.331 -0.1638  0.1185  0.2883
  100SAPS   O1310021   3.366  -0.105   6.393  0.3016  0.1898 -0.2232
  100SAPS   O1410022   3.586  -0.043   6.278  0.0959  0.0534 -0.2277
  100SAPS   O1210023   3.368   0.076   6.222  0.3330 -0.1509 -0.3039
  100SAPS   O1110024   3.494   0.109   6.436  0.7660 -0.2066  0.0034
  100SAPS    C110025   3.436   0.239   6.438 -0.4589 -0.1997  0.0514
  100SAPS    HA10026   3.412   0.282   6.339 -0.5313  1.6866  0.8589
  100SAPS    HB10027   3.334   0.241   6.482 -1.3026 -0.3893 -1.8212
  100SAPS    C210028   3.522   0.340   6.521 -0.6374 -0.0334 -0.1783
  100SAPS    HS10029   3.621   0.336   6.471  0.1379 -0.2888  1.2865
  100SAPS   O2110030   3.537   0.292   6.658 -0.0087  0.0898  0.3622
  100SAPS   C2110031   3.634   0.212   6.691 -0.8456  0.3208  0.4149
  100SAPS   O2210032   3.736   0.192   6.618 -0.1497  0.1753 -0.5163
  100SAPS   C2210033   3.620   0.149   6.833  0.0461 -0.4319 -0.3478
  100SAPS   H2R10034   3.707   0.081   6.844 -0.9945 -1.9798 -1.2372
  100SAPS   H2S10035   3.618   0.228   6.911 -2.6074 -0.7026 -0.0381
  100SAPS    C310036   3.464   0.487   6.515 -0.7279 -0.2459 -0.2989
  100SAPS    HX10037   3.358   0.483   6.546 -0.6003  0.3233  0.2278
  100SAPS    HY10038   3.458   0.514   6.407 -1.5236  0.5060 -0.0747
  100SAPS   O3110039   3.532   0.581   6.599  0.8210  0.0627 -0.4407
  100SAPS   C3110040   3.648   0.628   6.551  0.1145 -0.2775 -0.4180
  100SAPS   O3210041   3.724   0.576   6.475 -0.1376  0.1400  0.1178
  100SAPS   C3210042   3.686   0.762   6.621 -0.4615  0.7090 -0.3125
  100SAPS   H2X10043   3.596   0.823   6.642  0.4074  2.2713 -0.9221
  100SAPS   H2Y10044   3.764   0.803   6.552  1.3752 -0.1495  1.1640
  100SAPS   C2310045   3.485   0.071   6.849 -0.3999 -0.8383  0.5129
  100SAPS   H3R10046   3.450   0.015   6.760  0.0263  0.0417 -0.2156
  100SAPS   H3S10047   3.403   0.144   6.866 -1.3427 -1.9374  0.9148
  100SAPS   C2410048   3.473  -0.033   6.966 -0.1184 -0.8120 -0.4685
  100SAPS   H4R10049   3.545  -0.113   6.940  0.5343  0.5375 -3.2532
  100SAPS   H4S10050   3.369  -0.070   6.971 -0.2625 -0.7240 -2.1470
  100SAPS   C2510051   3.512   0.034   7.098  0.4384 -0.0881  0.5503
  100SAPS   H5R10052   3.611   0.081   7.093  1.3642 -2.0550 -0.7920
  100SAPS   C2610053   3.441   0.033   7.216 -0.9250 -0.3611  0.2174
  100SAPS   H6R10054   3.486   0.077   7.306 -0.0976  2.3397 -1.3980
  100SAPS   C2710055   3.305  -0.029   7.246 -0.3589 -0.5972 -0.2678
  100SAPS   H7R10056   3.306  -0.083   7.343 -0.6048  1.8488  1.1792
  100SAPS   H7S10057   3.281  -0.096   7.160  1.1288  0.9893 -2.0111
  100SAPS   C2810058   3.199   0.075   7.253 -0.0815  0.7607 -0.4664
  100SAPS   H8R10059   3.163   0.110   7.155  0.1045  1.5405 -0.2610
  100SAPS   C2910060   3.157   0.142   7.364  0.5335 -0.4039 -0.0087
  100SAPS   H9R10061   3.075   0.214   7.347  0.7052 -0.6924 -2.4447
  100SAPS  C21010062   3.193   0.115   7.510 -0.0700  0.7876  0.1025
  100SAPS  H10R10063   3.253   0.203   7.540 -1.5884  1.6470  0.7354
  100SAPS  H10S10064   3.257   0.024   7.516  1.5210  1.8660  0.1446
  100SAPS  C21110065   3.060   0.096   7.577 -0.1739 -0.3693 -0.3442
  100SAPS  H11R10066   2.992   0.033   7.517  1.9977 -1.7415 -1.5133
  100SAPS  C21210067   3.033   0.149   7.698  0.4993 -0.4095 -0.8665
  100SAPS  H12R10068   2.937   0.141   7.750 -0.1291  2.3114 -1.4267
  100SAPS  C21310069   3.141   0.231   7.773 -0.3496  0.6457 -0.4264
  100SAPS  H13R10070   3.181   0.315   7.711 -0.6903  1.2403  0.1433
  100SAPS  H13S10071   3.227   0.164   7.794 -0.4384 -0.0633 -2.1762
  100SAPS  C21410072   3.093   0.294   7.902  0.0938  0.7191  0.5922
  100SAPS  H14R10073   3.040   0.389   7.884 -1.6140 -0.6096 -2.0416
  100SAPS  C21510074   3.107   0.248   8.026 -0.9404  0.7688  0.1339
  100SAPS  H15R10075   3.071   0.297   8.118  3.6567 -0.5506  2.9623
  100SAPS  C21610076   3.193   0.115   8.051  0.5593 -0.9865  0.1052
  100SAPS  H16R10077   3.193   0.043   7.967 -2.1026 -0.6374 -0.2662
  100SAPS  H16S10078   3.143   0.058   8.132 -0.7608  0.4202  0.3289
  100SAPS  C21710079   3.341   0.142   8.094  0.5522 -0.1508  0.1737
  100SAPS  H17R10080   3.345   0.178   8.200 -0.7538 -0.0390  0.2003
  100SAPS  H17S10081   3.386   0.216   8.024 -1.8531 -0.7009 -2.0935
  100SAPS  C21810082   3.428   0.014   8.089  0.2279 -0.8659 -0.0835
  100SAPS  H18R10083   3.528   0.027   8.135 -0.3345  1.2514  0.6914
  100SAPS  H18S10084   3.436  -0.018   7.983 -0.4767  1.8126 -1.0418
  100SAPS  C21910085   3.350  -0.102   8.158 -0.8164  0.5613  0.3831
  100SAPS  H19R10086   3.265  -0.120   8.089  0.4155 -2.3284 -0.5549
  100SAPS  H19S10087   3.314  -0.069   8.258 -1.5342 -0.5520  0.5101
  100SAPS  C22010088   3.428  -0.230   8.176 -0.0201  0.7037  0.1335
  100SAPS  H20R10089   3.467  -0.272   8.080  2.0224  0.0355  1.2008
  100SAPS  H20S10090   3.368  -0.304   8.233  0.0207  1.6600  1.4482
  100SAPS  H20T10091   3.516  -0.206   8.238  1.5533  0.2771 -1.8197
  100SAPS   C3310092   3.754   0.721   6.762  0.3383  0.0112 -0.4920
  100SAPS   H3X10093   3.808   0.816   6.786 -1.1282  1.3709 -2.2570
  100SAPS   H3Y10094   3.831   0.643   6.748 -0.2554 -1.1677  2.1314
  100SAPS   C3410095   3.652   0.683   6.872  0.0579  0.4350  0.3115
  100SAPS   H4X10096   3.591   0.600   6.831  3.1752 -2.4874  1.1302
  100SAPS   H4Y10097   3.593   0.776   6.891 -1.2797 -0.7929  2.5749
  100SAPS   C3510098   3.709   0.638   7.010 -0.3977  0.1147  0.7118
  100SAPS   H5X10099   3.765   0.723   7.054 -1.7950  0.7903  1.2300
  100SAPS   H5Y10100   3.776   0.553   6.986 -0.6687  0.0001  0.3443
  100SAPS   C3610101   3.593   0.608   7.105  0.4314  0.3956 -0.4822
  100SAPS   H6X10102   3.545   0.515   7.069  2.8519 -2.0553  2.1034
  100SAPS   H6Y10103   3.520   0.692   7.108  0.8021  0.7203 -0.4526
  100SAPS   C3710104   3.647   0.573   7.235 -0.1527  0.2407 -0.6846
  100SAPS   H7X10105   3.698   0.665   7.268 -0.5807  0.2589 -0.0504
  100SAPS   H7Y10106   3.728   0.497   7.234 -0.2047  0.1577  0.3706
  100SAPS   C3810107   3.531   0.535   7.339 -0.7061 -0.3529  0.9341
  100SAPS   H8X10108   3.457   0.465   7.296 -0.7152 -0.5713  1.2975
  100SAPS   H8Y10109   3.482   0.634   7.352  1.3826  0.5595  2.6997
  100SAPS   C3910110   3.569   0.480   7.476  0.1330  0.3600 -0.5354
  100SAPS   H9X10111   3.483   0.506   7.541  0.1690 -2.4946  0.7824
  100SAPS   H9Y10112   3.662   0.527   7.514  0.5410 -0.7327 -0.1551
  100SAPS  C31010113   3.602   0.328   7.470  0.2689  0.7426 -0.1233
  100SAPS  H10X10114   3.647   0.300   7.373  0.4135  0.7015 -0.0437
  100SAPS  H10Y10115   3.512   0.263   7.473  0.3308  0.4950 -2.1723
  100SAPS  C31110116   3.693   0.277   7.577  0.3453 -0.1597  0.5115
  100SAPS  H11X10117   3.788   0.332   7.559 -0.5324  1.1578 -0.2804
  100SAPS  H11Y10118   3.703   0.168   7.564 -0.4361  0.0823 -2.8586
  100SAPS  C31210119   3.645   0.303   7.714  0.1954  0.0487  0.4894
  100SAPS  H12X10120   3.537   0.280   7.730  0.3470 -0.5526  0.6861
  100SAPS  H12Y10121   3.666   0.412   7.727  2.6111 -0.4338  1.1421
  100SAPS  C31310122   3.727   0.226   7.824  0.3718  1.1512 -0.5141
  100SAPS  H13X10123   3.696   0.121   7.808  0.2608  1.3572 -1.7185
  100SAPS  H13Y10124   3.681   0.265   7.918  0.6498 -1.7117  0.9185
  100SAPS  C31410125   3.887   0.237   7.815 -0.0587 -1.3482  0.1487
  100SAPS  H14X10126   3.905   0.333   7.763  0.9814 -1.1492  0.8469
  100SAPS  H14Y10127   3.922   0.149   7.757 -0.0371  0.1540 -2.2808
  100SAPS  C31510128   3.968   0.246   7.951  0.1588 -0.4081  0.5334
  100SAPS  H15X10129   3.954   0.342   8.005  0.4227  0.7610 -1.3962
  100SAPS  H15Y10130   4.075   0.245   7.921  0.2852 -0.7237  0.9737
  100SAPS  C31610131   3.934   0.134   8.043  0.7064 -0.1320 -0.2064
  100SAPS  H16X10132   3.916   0.051   7.971 -1.4348 -1.5086  1.7800
  100SAPS  H16Y10133   3.840   0.146   8.100 -0.0515 -1.9568 -0.9853
  100SAPS  C31710134   4.038   0.086   8.138  0.0036  0.5928 -0.0738
  100SAPS  H17X10135   4.039   0.167   8.215  0.4195 -1.8644  2.6839
  100SAPS  H17Y10136   4.142   0.078   8.100  0.5698 -1.8289  1.7606
  100SAPS  C31810137   4.003  -0.058   8.194  0.5330  0.0724 -1.3454
  100SAPS  H18X10138   3.900  -0.065   8.236  1.4582 -3.5826  0.7402
  100SAPS  H18Y10139   4.066  -0.089   8.280 -2.0845  0.2300  0.7636
  100SAPS  H18Z10140   3.997  -0.138   8.117 -0.4837 -2.3096  1.0416
  101OSM      N10141   5.959   6.588  10.675  0.0716  0.5170  0.0156
  101OSM    C1510142   6.015   6.633  10.809  0.6447  0.6234  0.0224
  101OSM   H15A10143   6.089   6.709  10.792  1.1062  0.2625  0.4073
  101OSM   H15B10144   6.060   6.556  10.870 -0.1118  0.1103 -0.0456
  101OSM   H15C10145   5.938   6.673  10.873  0.2608 -1.3179  0.8497
  101OSM    C1410146   6.065   6.514  10.599  0.1141 -0.3943 -0.6264
  101OSM   H14A10147   6.006   6.475  10.517 -2.2736 -0.7773  1.1476
  101OSM   H14B10148   6.111   6.427  10.644  2.6467  0.9416 -0.5012
  101OSM   H14C10149   6.140   6.581  10.560 -1.0118  0.1412 -1.9816
  101OSM    C1310150   5.843   6.500  10.707 -0.2271 -0.8005  0.3698
  101OSM   H13A10151   5.758   6.565  10.722 -0.1373 -0.2532 -1.3675
  101OSM   H13B10152   5.863   6.429  10.786 -0.5720 -0.9755  0.3023
  101OSM   H13C10153   5.811   6.448  10.619 -2.7989  0.0007  0.7409
  101OSM    C1210154   5.913   6.710  10.586 -0.3834  0.3271  0.8418
  101OSM   H12A10155   5.902   6.674  10.485 -2.0992  1.0728  0.7260
  101OSM   H12B10156   5.996   6.774  10.563 -0.3842  0.6861  1.7949
  101OSM    C1110157   5.793   6.798  10.636  0.6824  0.3678  0.0683
  101OSM   H11A10158   5.788   6.890  10.574 -2.9209 -0.4238 -1.0342
  101OSM   H11B10159   5.819   6.815  10.743  1.8868 -1.9239  0.2006
  101OSM      P10160   5.532   6.792  10.588 -0.0801 -0.1358 -0.1276
  101OSM    O1310161   5.441   6.685  10.542 -0.4323 -0.0659  0.6210
  101OSM    O1410162   5.477   6.882  10.698 -0.2472 -0.3533  0.5606
  101OSM    O1110163   5.563   6.889  10.467 -0.0222  0.0259  0.7846
  101OSM    O1210164   5.672   6.725  10.620  0.1312 -0.2581 -0.3635
  101OSM    C1S10165   5.598   6.846  10.334  0.6898 -0.1963  0.3046
  101OSM    H1S10166   5.676   6.767  10.332  0.1575 -0.7316  0.3301
  101OSM    H1T10167   5.655   6.932  10.294  0.9922 -0.9433 -0.9444
  101OSM     NF10168   5.540   6.829  10.094  0.3546 -0.1303  0.1780
  101OSM    HNF10169   5.552   6.915  10.046  0.7825  0.7788  1.8426
  101OSM    C2S10170   5.481   6.842  10.227 -0.2041  0.3960  0.4834
  101OSM    H2S10171   5.421   6.750  10.248 -0.1985  0.6427  1.5978
  101OSM    C3S10172   5.395   6.968  10.236  0.1579 -0.0003 -0.2680
  101OSM    H3S10173   5.452   7.064  10.232 -1.0589  0.7395 -0.2564
  101OSM     O310174   5.323   6.987  10.356  0.6026  0.0729 -0.1830
  101OSM    HO310175   5.354   6.927  10.425 -0.1532  0.0369  0.1284
  101OSM    C4S10176   5.296   6.956  10.128  0.2819 -0.8045  0.2274
  101OSM    H4S10177   5.241   6.861  10.120 -2.2725  0.4247  1.8928
  101OSM    C5S10178   5.278   7.056  10.036  0.4441 -0.7673  0.0433
  101OSM    H5S10179   5.335   7.150  10.038 -0.8601  0.0946  3.2229
  101OSM    C6S10180   5.174   7.046   9.928  0.0148 -0.1517 -0.3937
  101OSM    H6S10181   5.218   7.098   9.839 -0.1641  0.5988 -0.0537
  101OSM    H6T10182   5.096   7.115   9.968  0.5505  0.1104  0.2169
  101OSM    C7S10183   5.129   6.912   9.880  1.1467 -0.4516  0.0938
  101OSM    H7S10184   5.087   6.849   9.962 -1.5714  1.0518 -0.0239
  101OSM    H7T10185   5.228   6.866   9.862  1.0068 -1.8245  2.3963
  101OSM    C8S10186   5.028   6.922   9.768  0.4478 -0.0688  0.4773
  101OSM    H8S10187   4.952   6.999   9.793  1.3794  2.2905 -3.1675
  101OSM    H8T10188   4.975   6.825   9.760  0.9778 -0.4303  1.2230
  101OSM    C9S10189   5.104   6.959   9.640  0.4202  0.8116 -0.1624
  101OSM    H9S10190   5.184   6.882   9.638 -1.1206 -1.1005  3.2933
  101OSM    H9T10191   5.149   7.059   9.652 -1.4939  1.6008  0.8945
  101OSM   C10S10192   5.019   6.946   9.508  0.5973 -0.1519  0.4325
  101OSM   H10S10193   4.938   7.021   9.501 -0.7021 -1.5837 -0.3681
  101OSM   H10T10194   4.963   6.850   9.511 -0.4328  0.4460  2.3284
  101OSM   C11S10195   5.100   6.959   9.380 -0.4543  0.4449  0.3491
  101OSM   H11S10196   5.171   6.873   9.385  2.1960  2.5660  1.9810
  101OSM   H11T10197   5.156   7.055   9.374  0.3958 -0.1469 -2.2480
  101OSM   C12S10198   5.023   6.956   9.248  0.4562  0.8005  0.0684
  101OSM   H12S10199   4.940   7.029   9.233  0.4544  0.9040  0.5468
  101OSM   H12T10200   4.976   6.856   9.230  3.1494 -0.3034 -1.3344
  101OSM   C13S10201   5.126   6.973   9.133 -0.1255  0.6560  0.3304
  101OSM   H13S10202   5.200   6.890   9.138 -0.5904  0.3058  2.6938
  101OSM   H13T10203   5.168   7.075   9.149 -2.2474  1.7170 -0.4900
  101OSM   C14S10204   5.046   6.980   9.002  0.0737  0.0995  0.2324
  101OSM   H14S10205   4.968   7.058   9.003  0.5072  0.5467 -0.1986
  101OSM   H14T10206   4.993   6.883   8.990  0.7282 -0.4191  1.3341
  101OSM   C15S10207   5.139   7.012   8.884  0.3648 -0.1788  0.4531
  101OSM   H15S10208   5.238   6.965   8.903  0.2609 -0.5701  0.0406
  101OSM   H15T10209   5.170   7.119   8.887  1.4833 -0.5127  1.4420
  101OSM   C16S10210   5.076   6.961   8.752  0.4058  0.5686 -0.3131
  101OSM   H16S10211   5.068   6.851   8.753  0.2112  0.5671  1.9301
  101OSM   H16T10212   5.146   6.983   8.668  0.1333  1.1928 -0.3884
  101OSM   C17S10213   4.943   7.027   8.712  0.2504 -0.2765 -0.5003
  101OSM   H17S10214   4.949   7.136   8.736  0.9039 -0.7413  1.6967
  101OSM   H17T10215   4.851   6.984   8.757  0.2554 -0.1503 -0.3673
  101OSM   C18S10216   4.915   7.005   8.564  0.4092  0.4707 -0.3209
  101OSM   H18S10217   4.996   7.065   8.517 -1.2055  2.4372 -0.7864
  101OSM   H18T10218   4.817   7.050   8.536 -1.6057 -3.6828 -0.6313
  101OSM   H18U10219   4.903   6.899   8.533 -1.4998  1.0955 -1.9505
  101OSM    C1F10220   5.610   6.719  10.077 -0.0650  0.0565  0.1851
  101OSM     OF10221   5.602   6.613  10.141  0.6413  0.2676  0.1025
  101OSM    C2F10222   5.690   6.725   9.946 -0.1940  0.3838  0.1340
  101OSM    H2F10223   5.779   6.790   9.957 -0.3641  0.4998  0.8903
  101OSM    H2G10224   5.623   6.771   9.870  1.0634 -1.2991 -2.1466
  101OSM    C3F10225   5.743   6.586   9.895  0.0007  0.0329 -0.1304
  101OSM    H3F10226   5.657   6.521   9.870  0.3261 -0.6436  0.4670
  101OSM    H3G10227   5.806   6.536   9.971  0.5674 -0.0844 -0.6681
  101OSM    C4F10228   5.825   6.582   9.762 -0.0949  0.6329  0.6177
  101OSM    H4F10229   5.822   6.477   9.727 -2.4931  0.8711 -0.0683
  101OSM    H4G10230   5.933   6.597   9.778  0.1295 -0.8354  0.6494
  101OSM    C5F10231   5.767   6.675   9.656 -0.1633  0.1048  0.4163
  101OSM    H5F10232   5.804   6.776   9.685 -2.5442  0.9036  0.8425
  101OSM    H5G10233   5.657   6.677   9.651 -0.1472 -0.3128 -0.0732
  101OSM    C6F10234   5.825   6.660   9.509  0.1786 -0.4582  0.1149
  101OSM    H6F10235   5.820   6.551   9.485  0.9433 -0.6120  0.6102
  101OSM    H6G10236   5.934   6.677   9.514  0.2384 -0.9849  0.7279
  101OSM    C7F10237   5.740   6.748   9.416  0.7599 -0.2574  0.1534
  101OSM    H7F10238   5.735   6.852   9.455  3.4030 -0.1166  0.3104
  101OSM    H7G10239   5.635   6.713   9.414  0.7490 -0.2055 -2.2404
  101OSM    C8F10240   5.790   6.756   9.274 -0.4030  0.4397  0.3875
  101OSM    H8F10241   5.895   6.792   9.280 -0.0220  0.0140 -2.3633
  101OSM    H8G10242   5.741   6.827   9.204  0.1840 -0.3019 -0.8163
  101OSM    C9F10243   5.804   6.619   9.214  0.2017 -0.4313  0.2317
  101OSM    H9F10244   5.874   6.553   9.268  0.7273  0.6053  0.8475
  101OSM   C10F10245   5.759   6.580   9.096 -0.1442  0.1905  0.5629
  101OSM   H10F10246   5.793   6.484   9.056  0.9675  1.4664 -1.7761
  101OSM   C11F10247   5.685   6.666   9.003  0.2555  0.5818  1.0892
  101OSM   H11F10248   5.766   6.726   8.956  0.1182  0.3241  0.5142
  101OSM   H11G10249   5.617   6.734   9.059 -1.4604 -1.6568  1.8451
  101OSM   C12F10250   5.608   6.595   8.885  0.5157  0.1464  0.2773
  101OSM   H12F10251   5.527   6.529   8.924  0.6625 -0.1843  0.0196
  101OSM   H12G10252   5.676   6.534   8.822  0.4866  0.4832 -0.0850
  101OSM   C13F10253   5.531   6.700   8.796 -0.9970  0.2638  1.2102
  101OSM   H13F10254   5.597   6.779   8.754 -0.6563 -0.6264 -0.0074
  101OSM   H13G10255   5.444   6.731   8.857 -0.1290 -1.1089  3.2295
  101OSM   C14F10256   5.476   6.629   8.670  0.0297  0.2206  0.3064
  101OSM   H14F10257   5.419   6.541   8.707 -1.4231 -0.0183 -2.3007
  101OSM   H14G10258   5.564   6.601   8.608 -0.4230  1.0070 -0.7151
  101OSM   C15F10259   5.374   6.705   8.587  0.3214  0.5891 -0.3356
  101OSM   H15F10260   5.336   6.778   8.662  0.3998 -2.2515  2.6606
  101OSM   H15G10261   5.288   6.645   8.549  0.6252 -1.0982  1.5175
  101OSM   C16F10262   5.437   6.779   8.467  0.4838  0.4531 -0.7943
  101OSM   H16F10263   5.493   6.704   8.407  0.4130 -0.0774 -0.2064
  101OSM   H16G10264   5.513   6.853   8.502  0.5474  0.0551 -0.0676
  101OSM   C17F10265   5.346   6.853   8.371 -0.5060  0.8241 -0.4541
  101OSM   H17F10266   5.258   6.797   8.332  0.0262  0.0153 -0.5313
  101OSM   H17G10267   5.404   6.882   8.280  2.3712 -0.6223  0.8016
  101OSM   C18F10268   5.320   6.988   8.435 -0.8136 -0.3909  0.0431
  101OSM   H18F10269   5.352   6.982   8.542 -1.4760  0.1547  0.2798
  101OSM   H18G10270   5.212   7.012   8.423 -0.4358  1.3500 -0.0664
  101OSM   H18H10271   5.380   7.064   8.382 -0.3619 -0.1931  0.8091
  102OSM      N10272   5.450   5.458  11.041 -0.2861  0.0367  0.2309
  102OSM    C1510273   5.554   5.534  11.118 -1.0077 -0.2464 -0.8805
  102OSM   H15A10274   5.568   5.487  11.215 -2.0708 -0.4687 -0.8147
  102OSM   H15B10275   5.545   5.641  11.124  1.0229 -0.1079  1.2157
  102OSM   H15C10276   5.652   5.518  11.077 -0.9623 -1.9865 -0.2050
  102OSM    C1410277   5.496   5.313  11.038 -0.7012 -0.3843 -0.3942
  102OSM   H14A10278   5.488   5.268  11.136 -1.2888 -0.6980 -0.5840
  102OSM   H14B10279   5.593   5.297  10.992 -0.2369  2.9869 -0.8544
  102OSM   H14C10280   5.422   5.254  10.986 -0.6577  0.1480 -1.0815
  102OSM    C1310281   5.316   5.457  11.104 -0.8343  0.2765  0.2457
  102OSM   H13A10282   5.309   5.414  11.203 -1.4298  0.0096  0.0942
  102OSM   H13B10283   5.243   5.408  11.040 -0.2380  0.2387 -0.4197
  102OSM   H13C10284   5.264   5.552  11.111 -2.1359 -0.4849  1.6111
  102OSM    C1210285   5.445   5.523  10.904  0.1709 -0.3991 -0.0562
  102OSM   H12A10286   5.547   5.512  10.868  0.6552 -0.5631  1.2926
  102OSM   H12B10287   5.429   5.629  10.913  0.1634 -0.5568  3.0242
  102OSM    C1110288   5.344   5.452  10.809 -0.1403 -0.1635  0.0996
  102OSM   H11A10289   5.346   5.343  10.827 -0.4805 -0.1859  0.0133
  102OSM   H11B10290   5.386   5.473  10.709  2.3834 -2.5456  0.5528
  102OSM      P10291   5.170   5.649  10.776  0.3288 -0.0259  0.7248
  102OSM    O1310292   5.024   5.657  10.788 -0.0471 -0.0235 -0.3877
  102OSM    O1410293   5.254   5.754  10.828 -0.3184 -0.3660  0.2699
  102OSM    O1110294   5.214   5.628  10.628 -0.1754 -0.2026  0.5207
  102OSM    O1210295   5.217   5.512  10.841 -0.2589 -0.5170 -0.0616
  102OSM    C1S10296   5.152   5.690  10.518 -0.4892  0.6917 -0.2044
  102OSM    H1S10297   5.140   5.800  10.534  1.7962  1.1262 -1.0423
  102OSM    H1T10298   5.046   5.658  10.522  0.1861 -1.5377  1.1904
  102OSM     NF10299   5.148   5.737  10.285 -0.2602  0.1131 -0.1362
  102OSM    HNF10300   5.069   5.695  10.241 -1.9476  1.8913  1.0572
  102OSM    C2S10301   5.211   5.654  10.382  0.1664  0.2754 -0.3652
  102OSM    H2S10302   5.317   5.683  10.366  0.1103  1.2154  0.7936
  102OSM    C3S10303   5.186   5.506  10.358 -0.3807  0.3338 -0.3422
  102OSM    H3S10304   5.077   5.507  10.336  0.1816  1.0754 -3.5292
  102OSM     O310305   5.215   5.416  10.469  0.1690 -0.3918 -0.2315
  102OSM    HO310306   5.240   5.489  10.526 -0.5102  0.0742 -0.5315
  102OSM    C4S10307   5.259   5.467  10.230 -0.2488  0.3033 -0.1326
  102OSM    H4S10308   5.365   5.497  10.228 -0.1082  0.0056  1.3385
  102OSM    C5S10309   5.221   5.397  10.122  0.4373  0.2079  0.3902
  102OSM    H5S10310   5.125   5.343  10.117 -0.6054  1.9648  0.5891
  102OSM    C6S10311   5.315   5.378  10.002  0.2440  0.4022 -0.3932
  102OSM    H6S10312   5.352   5.274   9.998 -3.6865 -1.1246 -1.6584
  102OSM    H6T10313   5.413   5.428  10.019  0.7069 -0.6507  0.0879
  102OSM    C7S10314   5.271   5.435   9.868  0.1203  0.0197  0.3623
  102OSM    H7S10315   5.233   5.539   9.876 -3.5876 -1.2327  1.1309
  102OSM    H7T10316   5.176   5.383   9.842  0.9497 -1.8903  1.0286
  102OSM    C8S10317   5.374   5.425   9.748  0.3771 -0.1416 -0.2602
  102OSM    H8S10318   5.387   5.314   9.743  0.2402 -0.6012  4.5594
  102OSM    H8T10319   5.469   5.480   9.768 -0.0985  1.4867 -2.1780
  102OSM    C9S10320   5.310   5.483   9.624 -0.1288  0.1181  0.2467
  102OSM    H9S10321   5.257   5.578   9.648  1.1963  0.3025  2.7692
  102OSM    H9T10322   5.236   5.406   9.593  2.6414 -2.2976 -0.7997
  102OSM   C10S10323   5.401   5.515   9.508  0.7419  0.3450 -0.1930
  102OSM   H10S10324   5.459   5.423   9.491 -0.0754 -0.3029  0.4302
  102OSM   H10T10325   5.476   5.591   9.538  1.1146 -0.7228  1.7022
  102OSM   C11S10326   5.338   5.556   9.374 -0.4031  0.7685  0.4580
  102OSM   H11S10327   5.300   5.660   9.386 -1.1027  0.3646  1.9755
  102OSM   H11T10328   5.252   5.490   9.353  0.8509 -1.1230  1.0006
  102OSM   C12S10329   5.441   5.550   9.259  0.7192  0.7798 -0.9673
  102OSM   H12S10330   5.496   5.454   9.252 -2.0631 -0.8836 -1.2644
  102OSM   H12T10331   5.517   5.627   9.288  0.1510  0.4891  1.4959
  102OSM   C13S10332   5.378   5.588   9.127 -0.4309  0.0451  0.9219
  102OSM   H13S10333   5.338   5.689   9.146  0.5042  0.8446 -1.1339
  102OSM   H13T10334   5.308   5.504   9.105  0.9083 -1.1983  1.1796
  102OSM   C14S10335   5.482   5.589   9.009 -0.1009 -0.1273 -0.2739
  102OSM   H14S10336   5.542   5.495   9.007 -0.2667 -0.2239 -1.2301
  102OSM   H14T10337   5.549   5.675   9.032 -1.8035  0.8511  1.3715
  102OSM   C15S10338   5.407   5.602   8.872  0.1208 -0.0052 -0.5813
  102OSM   H15S10339   5.321   5.532   8.877  1.0402 -1.1693 -0.5904
  102OSM   H15T10340   5.457   5.550   8.787 -2.0390 -1.0149 -1.3072
  102OSM   C16S10341   5.367   5.747   8.835 -0.4084 -0.2330 -0.0707
  102OSM   H16S10342   5.465   5.793   8.809  0.2854 -2.2161 -1.1612
  102OSM   H16T10343   5.321   5.785   8.929  0.9460 -1.1660  1.0029
  102OSM   C17S10344   5.278   5.765   8.715 -0.6388 -0.0748 -0.0220
  102OSM   H17S10345   5.314   5.708   8.626 -0.7195 -0.8344  0.4223
  102OSM   H17T10346   5.278   5.873   8.689  0.1076  0.3014  1.3995
  102OSM   C18S10347   5.139   5.705   8.732 -0.0912  0.3643 -0.1598
  102OSM   H18S10348   5.135   5.595   8.743  0.2326  0.2281 -1.3616
  102OSM   H18T10349   5.075   5.725   8.643  0.8332  1.0390 -0.6829
  102OSM   H18U10350   5.095   5.753   8.823 -1.9052  0.3103 -0.9589
  102OSM    C1F10351   5.184   5.863  10.251 -0.8182  0.3935 -0.8253
  102OSM     OF10352   5.289   5.907  10.294  0.7156 -0.3189  0.3240
  102OSM    C2F10353   5.103   5.947  10.151  0.7399  0.3140  0.6537
  102OSM    H2F10354   4.994   5.942  10.176  0.5793  0.6569  0.0384
  102OSM    H2G10355   5.102   5.889  10.057 -1.3781  0.7144  0.3658
  102OSM    C3F10356   5.149   6.094  10.139 -0.2943  0.1123  1.3191
  102OSM    H3F10357   5.260   6.101  10.147 -0.1663  0.2029 -0.2165
  102OSM    H3G10358   5.102   6.147  10.225 -1.6438 -0.1600  0.7682
  102OSM    C4F10359   5.087   6.163  10.018 -0.3125 -0.2016  0.0696
  102OSM    H4F10360   5.115   6.269  10.030  3.4219 -1.1259  0.9067
  102OSM    H4G10361   4.979   6.142  10.033  0.1615 -2.1127  1.2021
  102OSM    C5F10362   5.129   6.120   9.879 -0.5199  0.1153  0.5397
  102OSM    H5F10363   5.134   6.009   9.879  0.5830  0.1347 -0.5901
  102OSM    H5G10364   5.235   6.146   9.858 -0.7050 -0.0678 -0.7382
  102OSM    C6F10365   5.043   6.173   9.764 -0.4905 -0.5541 -0.2474
  102OSM    H6F10366   5.016   6.278   9.787  1.1357 -0.1026 -0.2486
  102OSM    H6G10367   4.952   6.110   9.770  0.6251 -2.1111  1.1134
  102OSM    C7F10368   5.106   6.164   9.630  0.1909 -0.2479  0.2553
  102OSM    H7F10369   5.161   6.068   9.626 -0.4328 -0.6137  0.2371
  102OSM    H7G10370   5.198   6.225   9.627  0.7005 -0.9069  1.7876
  102OSM    C8F10371   5.030   6.190   9.500 -0.3252  0.8466  0.5875
  102OSM    H8F10372   4.981   6.289   9.501  0.5905  1.3606 -1.0615
  102OSM    H8G10373   4.950   6.115   9.481  0.3965 -0.4367  2.3290
  102OSM    C9F10374   5.126   6.195   9.386  0.0369 -0.3372  0.5477
  102OSM    H9F10375   5.212   6.262   9.403 -1.9075  3.7286 -3.4276
  102OSM   C10F10376   5.118   6.134   9.262 -0.3160  0.9027 -0.7344
  102OSM   H10F10377   5.197   6.158   9.190  0.0346  1.4165 -0.1898
  102OSM   C11F10378   5.009   6.048   9.206  0.3558 -0.5040 -0.7702
  102OSM   H11F10379   4.916   6.048   9.267  0.8053  1.0485 -0.0246
  102OSM   H11G10380   5.044   5.943   9.210  0.9154 -0.2736  1.0499
  102OSM   C12F10381   4.986   6.082   9.058  0.0349  0.1908  0.1372
  102OSM   H12F10382   4.964   6.190   9.045 -0.5213 -0.1157 -1.7334
  102OSM   H12G10383   4.893   6.036   9.018  1.2886  0.0637 -2.8279
  102OSM   C13F10384   5.103   6.050   8.967  0.7963 -0.3614  0.1115
  102OSM   H13F10385   5.127   5.942   8.962  1.6467 -0.1167 -2.8419
  102OSM   H13G10386   5.194   6.100   9.007 -0.2374 -0.7612  3.2195
  102OSM   C14F10387   5.066   6.096   8.822  0.3047  0.5333  0.7421
  102OSM   H14F10388   5.158   6.068   8.766  0.2855 -1.2847  1.5500
  102OSM   H14G10389   5.053   6.206   8.812  0.1375  0.3447 -2.1254
  102OSM   C15F10390   4.942   6.025   8.754 -0.6900  0.2737 -0.0648
  102OSM   H15F10391   4.863   6.056   8.825  0.6266  0.6276  1.2788
  102OSM   H15G10392   4.950   5.915   8.765 -2.5436  0.2192  1.0474
  102OSM   C16F10393   4.905   6.082   8.615 -0.3287  0.5931 -0.0571
  102OSM   H16F10394   4.995   6.070   8.551 -1.6195 -0.7643 -1.7311
  102OSM   H16G10395   4.886   6.191   8.621 -1.2567  0.5092 -1.2608
  102OSM   C17F10396   4.791   6.005   8.547  0.3359 -0.0877 -0.8371
  102OSM   H17F10397   4.701   5.998   8.612  0.8050  0.2304 -0.1351
  102OSM   H17G10398   4.828   5.905   8.517 -0.0551 -1.6012  3.1546
  102OSM   C18F10399   4.735   6.072   8.419  0.1487 -0.5698 -1.2185
  102OSM   H18F10400   4.727   6.181   8.441  0.7406 -1.0732  1.9323
  102OSM   H18G10401   4.634   6.043   8.383 -0.6854  0.3980  0.2243
  102OSM   H18H10402   4.811   6.057   8.339  2.5601 -0.5609  0.9377
  103OSM      N10403   4.740   3.668  11.304  0.6390 -0.0462  0.5906
  103OSM    C1510404   4.801   3.529  11.275  0.3177  0.2316 -0.1089
  103OSM   H15A10405   4.883   3.512  11.342 -0.7902 -0.0914  1.2131
  103OSM   H15B10406   4.835   3.519  11.173  0.6842  3.6014 -0.4104
  103OSM   H15C10407   4.733   3.447  11.296  0.9329 -0.1363  0.4539
  103OSM    C1410408   4.631   3.696  11.200 -0.4409 -0.5692 -0.0360
  103OSM   H14A10409   4.583   3.792  11.211  0.8728  0.4846 -2.6538
  103OSM   H14B10410   4.554   3.621  11.197 -0.1443 -0.9045  0.5101
  103OSM   H14C10411   4.667   3.700  11.098  1.2409 -0.8076  0.5221
  103OSM    C1310412   4.676   3.658  11.436  0.3483  0.0438 -0.3318
  103OSM   H13A10413   4.750   3.642  11.512  0.7592  0.0394 -0.7254
  103OSM   H13B10414   4.605   3.576  11.433 -0.8423  1.0115  0.5254
  103OSM   H13C10415   4.616   3.742  11.469  2.0331  0.8807  0.7196
  103OSM    C1210416   4.848   3.778  11.305  0.0451 -0.2128  0.4235
  103OSM   H12A10417   4.926   3.753  11.375 -0.5437 -2.8912  0.2239
  103OSM   H12B10418   4.808   3.873  11.339 -0.9258 -0.0326 -1.1273
  103OSM    C1110419   4.920   3.816  11.171 -0.0703 -0.2003 -0.0284
  103OSM   H11A10420   4.851   3.882  11.115  2.3633  1.3629 -1.3771
  103OSM   H11B10421   4.930   3.728  11.103  0.9862 -1.4029  1.5982
  103OSM      P10422   5.186   3.820  11.221  0.2493  0.0841  0.1744
  103OSM    O1310423   5.289   3.920  11.252 -0.5604  0.4673  0.0284
  103OSM    O1410424   5.183   3.704  11.307 -0.0205 -0.6859 -0.0229
  103OSM    O1110425   5.213   3.764  11.076  0.1677 -0.6167  0.3000
  103OSM    O1210426   5.038   3.883  11.204 -1.2805 -0.0798  0.1438
  103OSM    C1S10427   5.196   3.848  10.958  0.3286  0.2560 -0.1496
  103OSM    H1S10428   5.275   3.927  10.956 -0.8676  1.4849 -0.4980
  103OSM    H1T10429   5.104   3.907  10.939  0.4704 -0.3505 -3.2540
  103OSM     NF10430   5.231   3.846  10.714 -0.9425  0.5361 -0.0768
  103OSM    HNF10431   5.143   3.864  10.671 -1.9048 -0.8121  1.2103
  103OSM    C2S10432   5.220   3.759  10.839 -0.5053 -0.5172  0.6099
  103OSM    H2S10433   5.313   3.700  10.852 -0.2372 -1.1322 -3.0958
  103OSM    C3S10434   5.104   3.655  10.825  0.1151 -0.4891 -0.5992
  103OSM    H3S10435   5.005   3.705  10.825  0.2565 -0.1132 -2.4879
  103OSM     O310436   5.095   3.564  10.938  0.0055 -0.3138 -0.0183
  103OSM    HO310437   5.157   3.591  11.006  0.0193 -1.3528  0.3991
  103OSM    C4S10438   5.127   3.578  10.696 -0.1341  0.5809  0.5303
  103OSM    H4S10439   5.233   3.578  10.666  0.0575  3.2644  0.9825
  103OSM    C5S10440   5.036   3.512  10.620  0.0584  0.0436  0.3936
  103OSM    H5S10441   4.933   3.509  10.659 -0.5485  0.3307 -1.1393
  103OSM    C6S10442   5.054   3.437  10.488  0.2836  0.1304 -0.2810
  103OSM    H6S10443   4.958   3.436  10.430  0.9307  1.3995 -1.4459
  103OSM    H6T10444   5.090   3.334  10.508 -0.2388 -0.0691 -0.3315
  103OSM    C7S10445   5.157   3.488  10.385  0.0272  0.0789  0.0041
  103OSM    H7S10446   5.260   3.452  10.405  0.5776 -0.9535 -3.9217
  103OSM    H7T10447   5.160   3.599  10.394 -0.8291  0.0508  0.7778
  103OSM    C8S10448   5.136   3.448  10.235  0.5550  0.5228 -0.2857
  103OSM    H8S10449   5.206   3.511  10.177  3.3992  0.5808  2.9024
  103OSM    H8T10450   5.031   3.466  10.203 -0.2069  0.2643  1.9059
  103OSM    C9S10451   5.169   3.306  10.195 -0.5090  0.0245 -0.2163
  103OSM    H9S10452   5.098   3.237  10.246  0.8244 -0.2485  1.3752
  103OSM    H9T10453   5.266   3.278  10.243  0.5848  1.3835 -1.5334
  103OSM   C10S10454   5.145   3.271  10.048 -0.6935 -0.3236  0.1682
  103OSM   H10S10455   5.042   3.299  10.017 -0.6999  0.9005  1.1917
  103OSM   H10T10456   5.157   3.163  10.025  0.1440  0.0318 -1.1682
  103OSM   C11S10457   5.232   3.340   9.948 -0.5493 -0.7034  0.0238
  103OSM   H11S10458   5.312   3.269   9.919 -0.6661 -1.9344  2.4597
  103OSM   H11T10459   5.282   3.426   9.998  0.5284 -0.0031 -2.1029
  103OSM   C12S10460   5.167   3.383   9.817  0.0369  0.2364  0.3603
  103OSM   H12S10461   5.245   3.452   9.778  0.0765 -0.3056 -0.5482
  103OSM   H12T10462   5.088   3.456   9.845  1.3106  1.9375 -0.2761
  103OSM   C13S10463   5.109   3.271   9.724  0.0035 -0.0617  0.3227
  103OSM   H13S10464   5.001   3.246   9.741 -0.4075  0.9933 -0.6478
  103OSM   H13T10465   5.173   3.185   9.754 -1.0909 -0.8744  0.3957
  103OSM   C14S10466   5.125   3.305   9.575  0.3600  0.4361 -0.7166
  103OSM   H14S10467   5.081   3.400   9.536  1.0765  1.1270  0.1180
  103OSM   H14T10468   5.065   3.227   9.524  0.3274  0.2013 -0.3258
  103OSM   C15S10469   5.270   3.294   9.519 -0.4537  0.0121  0.2491
  103OSM   H15S10470   5.321   3.201   9.552 -0.2340  0.4217  1.0809
  103OSM   H15T10471   5.328   3.373   9.570  0.3485  0.9233 -1.9413
  103OSM   C16S10472   5.266   3.304   9.370  0.1464 -0.8743  0.1710
  103OSM   H16S10473   5.370   3.339   9.356 -0.6325  1.9273  0.6677
  103OSM   H16T10474   5.209   3.395   9.342  0.8121 -0.6010 -0.3049
  103OSM   C17S10475   5.221   3.179   9.288 -0.0143 -0.8741  0.4525
  103OSM   H17S10476   5.112   3.156   9.293 -0.2080  0.0345  0.7212
  103OSM   H17T10477   5.273   3.091   9.332  0.0642 -0.6014  0.9095
  103OSM   C18S10478   5.254   3.207   9.137  0.2959 -0.3676 -0.5647
  103OSM   H18S10479   5.183   3.285   9.102  2.6300  2.0471 -0.2150
  103OSM   H18T10480   5.250   3.110   9.083  0.4256  0.0702 -1.3628
  103OSM   H18U10481   5.359   3.243   9.135 -0.0889  0.7889 -0.5856
  103OSM    C1F10482   5.340   3.919  10.689 -0.1624 -0.3264  0.0057
  103OSM     OF10483   5.428   3.913  10.769  0.0164 -0.1078 -0.0172
  103OSM    C2F10484   5.343   4.009  10.567 -0.6514 -0.1987  0.0119
  103OSM    H2F10485   5.294   4.105  10.594 -1.0686 -0.8951  1.8846
  103OSM    H2G10486   5.277   3.965  10.489  0.6800  1.0584 -1.9013
  103OSM    C3F10487   5.473   4.018  10.485 -1.0528  0.6042  0.1325
  103OSM    H3F10488   5.496   3.917  10.444  1.7847  1.9311 -1.9477
  103OSM    H3G10489   5.563   4.042  10.545  1.0374 -2.7878 -1.3378
  103OSM    C4F10490   5.472   4.119  10.373 -0.6522  0.3509 -0.2361
  103OSM    H4F10491   5.575   4.115  10.330 -0.0890 -1.4284  1.1467
  103OSM    H4G10492   5.458   4.222  10.412 -1.1375 -0.2465  1.2325
  103OSM    C5F10493   5.374   4.073  10.267  0.2431 -0.2349  0.4624
  103OSM    H5F10494   5.268   4.069  10.298  0.8618 -0.7138  2.6531
  103OSM    H5G10495   5.397   3.970  10.232  0.5888  0.1209 -0.4060
  103OSM    C6F10496   5.366   4.171  10.152  0.2006 -0.4988 -0.1423
  103OSM    H6F10497   5.470   4.172  10.112  1.1707 -0.3114  2.2574
  103OSM    H6G10498   5.352   4.277  10.183  1.4573 -0.7378  1.3762
  103OSM    C7F10499   5.268   4.125  10.049 -0.4014  0.3458 -0.0513
  103OSM    H7F10500   5.166   4.119  10.092 -0.9577 -0.4011 -1.3942
  103OSM    H7G10501   5.295   4.021  10.019  0.2609  0.8808 -1.4449
  103OSM    C8F10502   5.254   4.194   9.916  0.5051  0.1841  0.0650
  103OSM    H8F10503   5.227   4.298   9.940  1.0399  0.1788  0.7001
  103OSM    H8G10504   5.168   4.156   9.857  0.3589  2.1612 -1.0871
  103OSM    C9F10505   5.382   4.215   9.837  0.1521 -0.4051 -0.6745
  103OSM    H9F10506   5.440   4.283   9.901 -1.9661 -0.4146  1.3941
  103OSM   C10F10507   5.426   4.159   9.721 -0.5167 -0.8407 -0.5835
  103OSM   H10F10508   5.526   4.171   9.677 -0.1852 -0.9181  0.1401
  103OSM   C11F10509   5.336   4.059   9.646  0.1419 -0.3217 -0.1324
  103OSM   H11F10510   5.227   4.072   9.664 -0.1130 -1.3578 -0.8934
  103OSM   H11G10511   5.355   3.957   9.684  2.4002  0.1171  0.0361
  103OSM   C12F10512   5.361   4.076   9.491 -0.7769 -0.0802 -0.1375
  103OSM   H12F10513   5.323   3.984   9.443  0.3100 -0.7059  0.1661
  103OSM   H12G10514   5.468   4.094   9.466 -0.8489  0.5667 -0.0137
  103OSM   C13F10515   5.281   4.197   9.438 -0.0953 -0.3132  0.0763
  103OSM   H13F10516   5.181   4.200   9.488 -0.2655  0.1890 -0.2825
  103OSM   H13G10517   5.337   4.291   9.455 -0.3751 -0.3154  1.0623
  103OSM   C14F10518   5.244   4.188   9.290 -0.2317 -0.0905 -0.2022
  103OSM   H14F10519   5.210   4.086   9.262  2.8864 -0.9253 -1.2723
  103OSM   H14G10520   5.335   4.214   9.232 -2.1293  0.7591 -3.0344
  103OSM   C15F10521   5.136   4.292   9.248 -0.0051 -0.0690 -0.2974
  103OSM   H15F10522   5.178   4.394   9.264 -0.2650 -0.2445  1.8888
  103OSM   H15G10523   5.050   4.273   9.317 -0.1862  1.8333  0.0673
  103OSM   C16F10524   5.093   4.278   9.096  0.0800 -0.1542  0.4604
  103OSM   H16F10525   5.023   4.193   9.076  1.0948 -1.2551  1.4095
  103OSM   H16G10526   5.188   4.254   9.043  0.3407  2.4849 -0.3785
  103OSM   C17F10527   5.027   4.404   9.041  0.4395  0.0289  0.4003
  103OSM   H17F10528   5.072   4.500   9.073 -0.1476 -0.4119  2.7961
  103OSM   H17G10529   4.929   4.403   9.094  0.7007  0.2614  0.8987
  103OSM   C18F10530   5.012   4.404   8.891 -0.0042 -0.2230 -0.0525
  103OSM   H18F10531   4.945   4.319   8.866  2.4788 -2.1930 -0.3704
  103OSM   H18G10532   5.105   4.377   8.837 -0.0786 -2.4973  0.8603
  103OSM   H18H10533   4.975   4.504   8.857  1.3040  0.4052  0.3054
  104OSM      N10534   2.699   4.328  11.026 -0.3014 -0.2315 -0.3069
  104OSM    C1510535   2.638   4.273  11.144  0.3709 -0.2891 -0.9949
  104OSM   H15A10536   2.530   4.276  11.149  0.4432  2.1579  1.3365
  104OSM   H15B10537   2.669   4.334  11.228 -0.2598  1.2118 -1.8125
  104OSM   H15C10538   2.673   4.172  11.159  0.0929 -0.2449  0.0193
  104OSM    C1410539   2.687   4.476  11.032  0.5567  0.0825  0.2301
  104OSM   H14A10540   2.680   4.516  10.932 -1.9883  0.5930  0.5376
  104OSM   H14B10541   2.771   4.530  11.072  0.5088  0.6356 -0.3973
  104OSM   H14C10542   2.590   4.505  11.072  0.6332  1.3871 -0.4804
  104OSM    C1310543   2.847   4.294  11.032  0.1446 -0.2980  0.4914
  104OSM   H13A10544   2.896   4.319  11.125  1.8567 -1.0719 -0.1671
  104OSM   H13B10545   2.899   4.347  10.955  0.2573  0.8952  1.3636
  104OSM   H13C10546   2.865   4.189  11.017  0.4922  0.0668 -1.9709
  104OSM    C1210547   2.622   4.262  10.915  0.0364 -1.0820  0.5894
  104OSM   H12A10548   2.515   4.263  10.931 -0.3604 -2.0974 -1.4993
  104OSM   H12B10549   2.647   4.157  10.912  2.1064 -0.6381  0.8518
  104OSM    C1110550   2.649   4.325  10.775  0.3327 -0.3151 -0.1765
  104OSM   H11A10551   2.622   4.256  10.692  0.1953 -1.3271  0.6826
  104OSM   H11B10552   2.758   4.338  10.760  0.5918 -1.2075  0.8659
  104OSM      P10553   2.443   4.457  10.718 -0.5699 -0.2937  0.0608
  104OSM    O1310554   2.374   4.376  10.817 -0.1024  0.3108 -0.2548
  104OSM    O1410555   2.398   4.596  10.702 -0.3628 -0.5191  0.2852
  104OSM    O1110556   2.444   4.387  10.574  0.1924  0.3144  0.2449
  104OSM    O1210557   2.592   4.456  10.767  0.2935  0.4264  0.6556
  104OSM    C1S10558   2.513   4.441  10.464 -0.0505 -0.1159 -0.3149
  104OSM    H1S10559   2.615   4.396  10.462  0.7667  1.6787 -0.3246
  104OSM    H1T10560   2.528   4.550  10.473 -0.0783 -0.0106 -1.4603
  104OSM     NF10561   2.514   4.450  10.219 -0.7942 -0.1814  0.0872
  104OSM    HNF10562   2.483   4.535  10.177  1.8991  0.5702 -0.5430
  104OSM    C2S10563   2.443   4.405  10.328 -0.2572 -0.1197  0.2748
  104OSM    H2S10564   2.422   4.297  10.312  0.3294 -0.5329  2.0909
  104OSM    C3S10565   2.300   4.469  10.337 -0.2326  0.0388 -0.2406
  104OSM    H3S10566   2.309   4.573  10.374  0.7113  0.2736 -1.0941
  104OSM     O310567   2.212   4.393  10.432  0.0478 -1.2316  0.9541
  104OSM    HO310568   2.266   4.338  10.490  1.2277 -1.2853 -0.1649
  104OSM    C4S10569   2.230   4.489  10.196 -0.7154 -0.1262 -0.3621
  104OSM    H4S10570   2.231   4.594  10.162 -1.5115 -0.2717 -0.8651
  104OSM    C5S10571   2.160   4.400  10.122  0.1406 -0.1087 -0.1725
  104OSM    H5S10572   2.145   4.296  10.155 -1.0170  0.8057  2.5443
  104OSM    C6S10573   2.083   4.432   9.992 -0.1976  0.2136  0.0113
  104OSM    H6S10574   1.981   4.463  10.022 -0.7490 -1.0709 -0.4677
  104OSM    H6T10575   2.055   4.329   9.960 -1.5905 -0.0277  1.8447
  104OSM    C7S10576   2.157   4.501   9.875 -0.0910 -0.6492  0.6150
  104OSM    H7S10577   2.251   4.443   9.863  0.7648  1.0164 -1.4681
  104OSM    H7T10578   2.190   4.607   9.889  1.2489 -0.6855 -1.6180
  104OSM    C8S10579   2.079   4.493   9.739 -0.3774 -1.0615 -0.3072
  104OSM    H8S10580   1.985   4.551   9.752  0.4203 -0.1195  1.6295
  104OSM    H8T10581   2.050   4.387   9.723 -0.1337 -1.0272 -0.9788
  104OSM    C9S10582   2.163   4.563   9.628 -0.6896 -0.2494 -0.2332
  104OSM    H9S10583   2.246   4.491   9.618 -0.3516 -0.1982  1.8439
  104OSM    H9T10584   2.217   4.653   9.664 -0.0992  0.3615 -2.4627
  104OSM   C10S10585   2.101   4.599   9.496  0.0943  0.3511 -0.1637
  104OSM   H10S10586   2.065   4.704   9.500 -1.2055  0.0056 -1.5909
  104OSM   H10T10587   2.001   4.554   9.479  0.8678 -0.8362 -1.8924
  104OSM   C11S10588   2.197   4.582   9.385 -0.0271 -0.2069  0.5771
  104OSM   H11S10589   2.234   4.477   9.387  0.0152 -0.1989  0.1060
  104OSM   H11T10590   2.284   4.647   9.409 -0.0850 -0.6983  2.2764
  104OSM   C12S10591   2.148   4.620   9.249 -0.1919 -0.1935 -0.1123
  104OSM   H12S10592   2.115   4.726   9.246 -0.3674 -0.2409  0.1284
  104OSM   H12T10593   2.053   4.564   9.237 -0.1088 -0.5949  1.0616
  104OSM   C13S10594   2.249   4.596   9.133 -0.0666 -0.2446 -0.2323
  104OSM   H13S10595   2.298   4.498   9.150  0.5029  0.2251  0.9485
  104OSM   H13T10596   2.338   4.663   9.137 -1.4977  1.7897 -0.6840
  104OSM   C14S10597   2.188   4.596   8.991  0.7611  0.1571  0.1862
  104OSM   H14S10598   2.154   4.701   8.979  1.4858  0.3025 -0.6890
  104OSM   H14T10599   2.099   4.531   8.978  1.9214 -1.3797 -0.4061
  104OSM   C15S10600   2.282   4.570   8.879  0.0932  1.0920  0.6825
  104OSM   H15S10601   2.324   4.469   8.901  1.0067  1.5861  1.2652
  104OSM   H15T10602   2.375   4.629   8.890  0.1164  1.2202 -0.0873
  104OSM   C16S10603   2.211   4.577   8.740 -0.3254 -0.4488 -0.2906
  104OSM   H16S10604   2.148   4.668   8.741 -0.6140 -0.6495 -0.0970
  104OSM   H16T10605   2.139   4.493   8.731 -1.9232  0.8779 -0.3828
  104OSM   C17S10606   2.301   4.577   8.618  0.4918 -0.0347 -0.4594
  104OSM   H17S10607   2.256   4.544   8.523 -0.2963  0.5781 -0.3150
  104OSM   H17T10608   2.386   4.507   8.633  2.0634  1.7677 -0.5710
  104OSM   C18S10609   2.364   4.709   8.594 -0.1930  0.2575  0.3746
  104OSM   H18S10610   2.398   4.754   8.689  0.5848  4.2835 -1.6220
  104OSM   H18T10611   2.292   4.775   8.541  0.8668  1.6067  0.5801
  104OSM   H18U10612   2.460   4.704   8.539 -0.0233 -0.8517  0.7274
  104OSM    C1F10613   2.619   4.383  10.175  0.1002 -0.1301 -0.3600
  104OSM     OF10614   2.663   4.275  10.224 -0.0482 -0.0962  0.0756
  104OSM    C2F10615   2.703   4.454  10.064  0.6942  0.1142 -0.3702
  104OSM    H2F10616   2.785   4.382  10.041 -1.2091 -2.9087  1.6590
  104OSM    H2G10617   2.725   4.553  10.109 -1.2667  0.4985 -0.1819
  104OSM    C3F10618   2.621   4.484   9.933  0.3478  0.6510 -0.2129
  104OSM    H3F10619   2.550   4.563   9.966 -0.0668  0.1856  0.0465
  104OSM    H3G10620   2.559   4.396   9.904 -1.7368  2.3408 -1.1834
  104OSM    C4F10621   2.708   4.524   9.821 -0.5700  0.1485  0.6213
  104OSM    H4F10622   2.769   4.439   9.784 -0.6979 -0.1757  1.1317
  104OSM    H4G10623   2.781   4.598   9.860 -0.3622  1.4523 -2.0441
  104OSM    C5F10624   2.626   4.580   9.698  0.0926 -0.0815  0.3974
  104OSM    H5F10625   2.580   4.673   9.738  0.7413  0.6070 -0.4079
  104OSM    H5G10626   2.557   4.501   9.661  1.3007 -0.4941 -1.0569
  104OSM    C6F10627   2.709   4.615   9.573  0.2878 -0.9339 -0.8616
  104OSM    H6F10628   2.791   4.540   9.569  0.7529 -0.6830  1.9373
  104OSM    H6G10629   2.756   4.715   9.587  1.9950 -2.0170  1.9124
  104OSM    C7F10630   2.633   4.605   9.442  0.5265 -0.4009 -0.3024
  104OSM    H7F10631   2.551   4.680   9.447  1.5408  0.7192 -0.1676
  104OSM    H7G10632   2.580   4.509   9.427 -1.4684  0.4942  0.6134
  104OSM    C8F10633   2.726   4.631   9.328 -0.2273 -0.3532  0.3368
  104OSM    H8F10634   2.812   4.563   9.313  2.0501  2.8219 -2.1846
  104OSM    H8G10635   2.773   4.731   9.335 -1.7091  0.3576  0.7202
  104OSM    C9F10636   2.657   4.644   9.196 -0.2217  0.3185  0.5322
  104OSM    H9F10637   2.650   4.742   9.146 -1.0751  1.5257  2.8921
  104OSM   C10F10638   2.598   4.543   9.121  0.7139  0.1554  0.1248
  104OSM   H10F10639   2.547   4.575   9.028  1.5218  1.8180  0.2177
  104OSM   C11F10640   2.584   4.398   9.160 -0.1420 -0.5684 -0.3114
  104OSM   H11F10641   2.477   4.369   9.162  0.3612 -3.0631 -2.9793
  104OSM   H11G10642   2.632   4.370   9.256 -0.2246 -0.1181 -0.1342
  104OSM   C12F10643   2.636   4.301   9.054  0.5156  0.3873 -0.0932
  104OSM   H12F10644   2.640   4.196   9.090 -2.3173  1.0410  2.5062
  104OSM   H12G10645   2.738   4.338   9.032  0.6270  0.0818 -0.1057
  104OSM   C13F10646   2.563   4.292   8.915 -0.8630  0.7012  0.3704
  104OSM   H13F10647   2.576   4.395   8.875 -0.8495  0.9498  0.9982
  104OSM   H13G10648   2.453   4.273   8.913 -0.7969  0.0800 -2.4535
  104OSM   C14F10649   2.629   4.193   8.821  0.2053  0.3488  0.1173
  104OSM   H14F10650   2.625   4.093   8.868  1.4944  0.2828  0.1450
  104OSM   H14G10651   2.733   4.226   8.798  0.5503  0.4651  1.7147
  104OSM   C15F10652   2.549   4.181   8.688 -0.1710  0.3483 -0.0034
  104OSM   H15F10653   2.527   4.281   8.645 -0.4283 -0.1719 -1.1162
  104OSM   H15G10654   2.450   4.135   8.713  0.5250  0.6294  3.8620
  104OSM   C16F10655   2.629   4.095   8.587 -0.0475  0.0250  0.5543
  104OSM   H16F10656   2.674   4.015   8.650 -0.2731  0.5511  1.4003
  104OSM   H16G10657   2.713   4.153   8.544 -1.2495  0.0843 -1.9056
  104OSM   C17F10658   2.539   4.065   8.470  0.6707  0.0811  0.3566
  104OSM   H17F10659   2.507   4.162   8.425  0.3041 -0.8903 -1.5359
  104OSM   H17G10660   2.451   4.002   8.493  1.4174 -1.7468 -1.5660
  104OSM   C18F10661   2.620   3.990   8.366 -0.3937  0.8790 -0.4193
  104OSM   H18F10662   2.692   4.056   8.313 -0.1111 -0.7650 -2.1585
  104OSM   H18G10663   2.544   3.954   8.293  0.1302 -0.3499 -0.3721
  104OSM   H18H10664   2.666   3.904   8.418  1.9116  1.7415 -0.9434
  105OSM      N10665   3.734   3.919  10.772  0.4226  0.6405  0.1312
  105OSM    C1510666   3.778   3.794  10.841 -0.5254 -0.0949  0.2797
  105OSM   H15A10667   3.735   3.798  10.940  2.3728  2.0579  1.5806
  105OSM   H15B10668   3.885   3.803  10.851 -0.6666 -0.5035  3.0285
  105OSM   H15C10669   3.772   3.710  10.773 -0.3990 -0.0613  0.2274
  105OSM    C1410670   3.770   4.025  10.873  0.3045  0.5163  0.1389
  105OSM   H14A10671   3.874   4.017  10.902  0.2586 -0.3834  0.0823
  105OSM   H14B10672   3.719   4.015  10.967  0.7208 -2.9296  0.1108
  105OSM   H14C10673   3.749   4.119  10.823  1.5293  0.5320 -0.3781
  105OSM    C1310674   3.820   3.937  10.655  0.7154  0.3556 -0.5826
  105OSM   H13A10675   3.804   3.853  10.589 -1.1139 -1.4173  1.9374
  105OSM   H13B10676   3.924   3.958  10.678  1.0305 -0.6992 -0.9988
  105OSM   H13C10677   3.793   4.021  10.592 -1.1531  0.9317  0.8824
  105OSM    C1210678   3.590   3.919  10.732  0.0146 -0.6676 -0.2911
  105OSM   H12A10679   3.535   3.880  10.816 -0.7709  1.9427  0.5051
  105OSM   H12B10680   3.563   3.870  10.639 -0.0753 -0.8244 -0.1808
  105OSM    C1110681   3.548   4.070  10.706 -0.8189  0.0329  0.4101
  105OSM   H11A10682   3.624   4.118  10.641 -1.2211 -0.6245 -0.5796
  105OSM   H11B10683   3.545   4.122  10.804 -1.4568  0.9740 -0.0961
  105OSM      P10684   3.379   4.181  10.550 -0.0683 -0.1743 -0.1688
  105OSM    O1310685   3.247   4.154  10.495  0.1679 -0.5394  0.0806
  105OSM    O1410686   3.412   4.309  10.610  0.2958  0.2030  0.1756
  105OSM    O1110687   3.473   4.161  10.425  0.1934  0.1332  0.3423
  105OSM    O1210688   3.424   4.074  10.649 -0.1782  0.0029  0.3605
  105OSM    C1S10689   3.475   4.035  10.363  0.9617  0.0526 -0.1078
  105OSM    H1S10690   3.376   4.016  10.316  1.2914  1.2856 -1.3477
  105OSM    H1T10691   3.506   3.954  10.433 -0.9958 -1.2147 -0.6465
  105OSM     NF10692   3.542   3.913  10.171  0.3706 -0.3273 -0.1676
  105OSM    HNF10693   3.594   3.832  10.196  0.3552 -0.1810  0.3611
  105OSM    C2S10694   3.569   4.036  10.243 -0.0329 -0.2344 -0.3395
  105OSM    H2S10695   3.545   4.124  10.179 -0.9654  0.4951  0.9597
  105OSM    C3S10696   3.717   4.057  10.282  0.2302  0.1096  0.5944
  105OSM    H3S10697   3.759   3.972  10.339  1.2153 -0.0462 -0.3427
  105OSM     O310698   3.747   4.174  10.360  0.0660 -0.1982  0.0633
  105OSM    HO310699   3.660   4.190  10.398  0.3262 -0.1538  0.6437
  105OSM    C4S10700   3.803   4.058  10.160  0.0402  0.5122 -0.5503
  105OSM    H4S10701   3.777   4.130  10.081  0.2535 -0.0047 -1.1049
  105OSM    C5S10702   3.916   3.992  10.131  0.9669 -0.6809  0.1414
  105OSM    H5S10703   3.963   3.936  10.213  0.1272  0.0453  1.1497
  105OSM    C6S10704   4.005   4.001  10.009  0.2705 -0.6282 -0.0772
  105OSM    H6S10705   4.023   3.894   9.986 -0.7182 -0.8241  0.0013
  105OSM    H6T10706   4.102   4.038  10.048  1.0461 -1.4909 -1.1211
  105OSM    C7S10707   3.946   4.078   9.896  0.5654  0.5792  0.8262
  105OSM    H7S10708   3.923   4.186   9.906 -0.1977  0.6334 -1.0744
  105OSM    H7T10709   3.858   4.021   9.862  1.9838 -0.0977 -2.0472
  105OSM    C8S10710   4.028   4.063   9.760 -0.8723  0.1936 -0.6342
  105OSM    H8S10711   4.054   3.957   9.739 -1.6992  0.2059 -1.8032
  105OSM    H8T10712   4.115   4.131   9.773 -0.8797  0.0785  0.0524
  105OSM    C9S10713   3.950   4.119   9.636  0.6716  0.5687 -0.8226
  105OSM    H9S10714   3.918   4.222   9.661 -1.1692 -0.4184  1.2806
  105OSM    H9T10715   3.852   4.065   9.632  0.0574  1.6283 -0.3053
  105OSM   C10S10716   4.018   4.116   9.501 -0.2664 -0.2888 -0.2289
  105OSM   H10S10717   4.064   4.018   9.477 -1.4688 -1.0340  0.4477
  105OSM   H10T10718   4.098   4.193   9.505  0.2971 -0.7066 -2.3557
  105OSM   C11S10719   3.924   4.157   9.388  0.5410 -0.0484  0.5158
  105OSM   H11S10720   3.874   4.250   9.422  0.4326  0.5006 -1.0510
  105OSM   H11T10721   3.846   4.081   9.363 -0.1896  1.1259 -0.9687
  105OSM   C12S10722   3.999   4.180   9.261 -0.2799  0.3549  1.3094
  105OSM   H12S10723   3.926   4.172   9.178 -0.4551 -1.2600  1.5886
  105OSM   H12T10724   4.068   4.094   9.248  1.7605  1.8099  1.9524
  105OSM   C13S10725   4.087   4.306   9.255  0.0530  0.2156  0.3090
  105OSM   H13S10726   4.171   4.305   9.328  0.2449 -1.4017  0.0982
  105OSM   H13T10727   4.016   4.385   9.289 -1.7044 -1.5614  0.9664
  105OSM   C14S10728   4.158   4.326   9.127 -0.4956  0.0105 -0.6682
  105OSM   H14S10729   4.092   4.322   9.038 -0.6829  1.2085 -0.6098
  105OSM   H14T10730   4.233   4.245   9.120 -0.5796 -0.3526  1.7494
  105OSM   C15S10731   4.213   4.471   9.142 -0.8005 -0.3977  0.1811
  105OSM   H15S10732   4.272   4.469   9.236  2.2204 -1.5844 -1.5902
  105OSM   H15T10733   4.134   4.548   9.155 -1.0507 -1.0804  3.6940
  105OSM   C16S10734   4.313   4.502   9.031 -0.2143 -0.5753 -0.4057
  105OSM   H16S10735   4.396   4.428   9.043 -2.0422 -2.4780  1.5265
  105OSM   H16T10736   4.355   4.605   9.033  0.6527 -0.9185 -0.2385
  105OSM   C17S10737   4.247   4.476   8.891 -0.0702  0.2614 -0.3035
  105OSM   H17S10738   4.150   4.529   8.892  0.4522  1.3028 -1.5495
  105OSM   H17T10739   4.243   4.366   8.878 -0.6815  0.1442  0.7698
  105OSM   C18S10740   4.329   4.539   8.778  0.1764 -0.1984  1.0453
  105OSM   H18S10741   4.331   4.649   8.792  0.8072  0.0560 -0.7555
  105OSM   H18T10742   4.299   4.516   8.673  1.2952 -0.7016  0.8131
  105OSM   H18U10743   4.438   4.516   8.780  0.9593  3.0683  3.0501
  105OSM    C1F10744   3.429   3.892  10.096  0.2110 -0.3803 -0.2887
  105OSM     OF10745   3.345   3.979  10.070 -1.0677 -0.6605 -0.3143
  105OSM    C2F10746   3.401   3.756  10.042 -0.0032 -0.6643 -0.6984
  105OSM    H2F10747   3.322   3.712  10.105 -1.8836  2.7071 -0.4837
  105OSM    H2G10748   3.497   3.701  10.053  1.3845  1.4486 -1.5261
  105OSM    C3F10749   3.362   3.761   9.897 -0.5940 -0.2672 -0.1335
  105OSM    H3F10750   3.267   3.815   9.875 -1.0128 -1.4611 -1.4440
  105OSM    H3G10751   3.331   3.659   9.865  0.4758 -0.8006  0.4898
  105OSM    C4F10752   3.470   3.821   9.803  0.1346  0.4121  0.1273
  105OSM    H4F10753   3.478   3.929   9.825  0.9972  0.4155 -0.1417
  105OSM    H4G10754   3.427   3.804   9.702 -1.1382 -3.5850  1.1579
  105OSM    C5F10755   3.605   3.749   9.806 -0.2221 -0.7094  0.0688
  105OSM    H5F10756   3.589   3.639   9.806 -2.2306 -0.4796  1.5684
  105OSM    H5G10757   3.653   3.783   9.901 -0.1970  1.4040 -0.6494
  105OSM    C6F10758   3.697   3.795   9.697  0.2616 -0.0231  0.5468
  105OSM    H6F10759   3.799   3.757   9.720  0.2307 -0.1263  0.5136
  105OSM    H6G10760   3.706   3.905   9.693  1.1679 -0.0839  0.5642
  105OSM    C7F10761   3.672   3.738   9.552  0.3915 -0.3089 -0.3963
  105OSM    H7F10762   3.569   3.770   9.526 -0.2608 -2.1930 -0.2789
  105OSM    H7G10763   3.679   3.627   9.559 -0.3918 -0.4599 -1.7920
  105OSM    C8F10764   3.777   3.782   9.446  0.1229  0.1426 -0.3307
  105OSM    H8F10765   3.878   3.783   9.494  0.0063  0.9096 -0.0847
  105OSM    H8G10766   3.752   3.884   9.410 -1.0276 -0.8084 -2.3416
  105OSM    C9F10767   3.772   3.691   9.323  0.1860  0.0221 -0.4401
  105OSM    H9F10768   3.720   3.597   9.346  2.9261 -0.8847  2.8166
  105OSM   C10F10769   3.831   3.711   9.200 -0.1681  0.6343 -0.2657
  105OSM   H10F10770   3.804   3.638   9.123  1.3735  0.7384 -0.9395
  105OSM   C11F10771   3.925   3.832   9.174 -0.2370  0.6632  0.3423
  105OSM   H11F10772   3.975   3.875   9.263  0.2891  2.5393 -0.8000
  105OSM   H11G10773   3.847   3.905   9.142 -0.8404  0.5156  1.4323
  105OSM   C12F10774   4.026   3.820   9.054 -0.5343  0.0626  0.1216
  105OSM   H12F10775   4.078   3.724   9.072  1.1411  0.4336 -2.3500
  105OSM   H12G10776   4.106   3.897   9.063  0.0797 -0.5222 -0.3028
  105OSM   C13F10777   3.967   3.850   8.920  0.3028  0.0149  0.1956
  105OSM   H13F10778   3.859   3.825   8.915 -0.6262  3.5634 -1.8167
  105OSM   H13G10779   4.010   3.791   8.836  1.0139 -0.5731  0.9566
  105OSM   C14F10780   3.969   3.998   8.884  0.2233 -0.2912  0.0060
  105OSM   H14F10781   4.070   4.043   8.883  1.2809 -2.4323  1.2002
  105OSM   H14G10782   3.903   4.040   8.963 -0.7393 -2.5144  0.4895
  105OSM   C15F10783   3.886   4.022   8.756 -0.0079  0.6059  0.2881
  105OSM   H15F10784   3.933   3.971   8.670 -2.1873  2.2921 -2.0319
  105OSM   H15G10785   3.894   4.130   8.729 -1.4350  0.9358  1.0867
  105OSM   C16F10786   3.738   3.980   8.759 -0.1748 -0.4510  0.4117
  105OSM   H16F10787   3.695   3.994   8.860 -4.3046 -1.9387 -0.9396
  105OSM   H16G10788   3.728   3.874   8.726  0.0335 -0.4453  0.3284
  105OSM   C17F10789   3.659   4.061   8.661  0.1497 -0.6553 -0.5002
  105OSM   H17F10790   3.711   4.064   8.563  0.5222 -3.9635 -0.4921
  105OSM   H17G10791   3.647   4.165   8.701  0.7828 -1.1284  1.0243
  105OSM   C18F10792   3.527   3.986   8.640  0.0225  0.2179 -0.3688
  105OSM   H18F10793   3.462   3.995   8.730 -0.5739 -0.5426 -0.7136
  105OSM   H18G10794   3.545   3.882   8.606 -2.9376 -0.4471 -0.1370
  105OSM   H18H10795   3.464   4.027   8.558 -0.8113 -1.6733 -0.7331
  106OSM      N10796   4.787   6.403  10.678  0.2680 -0.1510 -0.5831
  106OSM    C1510797   4.678   6.491  10.634 -0.1835 -0.6398 -0.0421
  106OSM   H15A10798   4.711   6.592  10.615 -0.8028 -0.4810 -0.3195
  106OSM   H15B10799   4.608   6.487  10.717  1.1087  0.4870  1.1680
  106OSM   H15C10800   4.621   6.451  10.551  1.4489 -1.6276 -0.7131
  106OSM    C1410801   4.894   6.420  10.578 -0.6000 -0.4814 -0.3011
  106OSM   H14A10802   4.961   6.336  10.583 -0.0194  0.0741  3.0453
  106OSM   H14B10803   4.954   6.508  10.592  0.2900 -1.2914  1.2344
  106OSM   H14C10804   4.843   6.423  10.483 -0.6828  3.6571 -0.2930
  106OSM    C1310805   4.851   6.443  10.808  0.2953  0.2550  0.3252
  106OSM   H13A10806   4.935   6.379  10.830 -1.1859 -2.3098 -1.0622
  106OSM   H13B10807   4.778   6.440  10.888  0.5210 -0.3367  0.5126
  106OSM   H13C10808   4.888   6.545  10.802  2.8285 -0.5939  0.5531
  106OSM    C1210809   4.734   6.261  10.695 -0.1029 -0.2892  0.2346
  106OSM   H12A10810   4.667   6.262  10.780  0.4345 -0.8464  0.6715
  106OSM   H12B10811   4.816   6.202  10.734  0.4507  0.7641  0.6906
  106OSM    C1110812   4.663   6.204  10.572  0.8736 -0.2653  0.3023
  106OSM   H11A10813   4.660   6.096  10.601  2.1867  0.1200  2.0140
  106OSM   H11B10814   4.724   6.230  10.483  1.5081  1.7079  1.2584
  106OSM      P10815   4.412   6.254  10.655 -0.3601 -0.3172 -0.0942
  106OSM    O1310816   4.392   6.110  10.688  0.0900  0.5049 -0.4028
  106OSM    O1410817   4.437   6.345  10.770  0.1895 -0.2756  0.3051
  106OSM    O1110818   4.288   6.291  10.571  0.6256 -0.2129 -0.7384
  106OSM    O1210819   4.532   6.265  10.551  0.2627  0.3068  0.3369
  106OSM    C1S10820   4.258   6.421  10.520  0.2671  0.6350  0.3214
  106OSM    H1S10821   4.315   6.504  10.567  2.5254  0.6016 -2.1244
  106OSM    H1T10822   4.151   6.452  10.523 -0.3540 -1.3918  1.0428
  106OSM     NF10823   4.302   6.577  10.330  0.1035  0.5290 -0.0208
  106OSM    HNF10824   4.212   6.617  10.314 -0.7192 -1.1562  0.1896
  106OSM    C2S10825   4.301   6.439  10.365  0.1971 -0.1360 -0.7360
  106OSM    H2S10826   4.400   6.391  10.347 -0.5253 -1.9991 -0.0421
  106OSM    C3S10827   4.196   6.348  10.288  0.0111 -0.2897  0.7640
  106OSM    H3S10828   4.094   6.391  10.293 -1.2788 -2.2597 -3.8111
  106OSM     O310829   4.173   6.218  10.339 -0.7886  0.1618 -0.6338
  106OSM    HO310830   4.206   6.219  10.429 -0.4571  1.7681 -0.7408
  106OSM    C4S10831   4.225   6.330  10.142 -1.0398  0.1739 -0.4680
  106OSM    H4S10832   4.309   6.262  10.125 -1.6389 -0.8901  0.6598
  106OSM    C5S10833   4.162   6.378  10.038 -0.4293  0.1226 -0.8142
  106OSM    H5S10834   4.073   6.439  10.055  0.1746  0.1873  2.9504
  106OSM    C6S10835   4.196   6.345   9.893  0.0247 -0.4263  0.8747
  106OSM    H6S10836   4.112   6.299   9.837 -0.1810  0.1683  0.6947
  106OSM    H6T10837   4.282   6.279   9.868 -0.1407  0.6636 -3.5071
  106OSM    C7S10838   4.242   6.465   9.809  0.6250  0.0111 -0.0655
  106OSM    H7S10839   4.321   6.517   9.867  1.4407 -0.2349 -0.9213
  106OSM    H7T10840   4.168   6.545   9.791  1.2119  1.1677  2.2636
  106OSM    C8S10841   4.324   6.429   9.681  0.3645 -0.4415  0.6282
  106OSM    H8S10842   4.268   6.342   9.641 -1.0265  2.2043 -3.9253
  106OSM    H8T10843   4.431   6.398   9.690  0.1322 -1.6618 -0.5616
  106OSM    C9S10844   4.319   6.546   9.583  0.5389  0.2695 -0.5557
  106OSM    H9S10845   4.387   6.615   9.637 -0.0468 -1.1463  2.1861
  106OSM    H9T10846   4.219   6.594   9.578  0.1621 -0.5024 -0.5242
  106OSM   C10S10847   4.367   6.504   9.439  0.0684 -0.0117 -0.0200
  106OSM   H10S10848   4.465   6.453   9.455  0.3166  0.1742 -0.8806
  106OSM   H10T10849   4.376   6.599   9.381 -2.1346  1.5515  2.0249
  106OSM   C11S10850   4.270   6.413   9.358 -0.2983  0.1480 -0.3220
  106OSM   H11S10851   4.236   6.322   9.411 -2.6464  1.4448  0.5694
  106OSM   H11T10852   4.336   6.372   9.279 -0.6064 -2.4746  0.6913
  106OSM   C12S10853   4.149   6.486   9.294 -0.1564 -0.2743 -0.1205
  106OSM   H12S10854   4.110   6.556   9.371  0.1224  0.2041 -0.4056
  106OSM   H12T10855   4.072   6.410   9.267  0.0037 -1.6047  2.7804
  106OSM   C13S10856   4.187   6.556   9.162 -0.1496 -0.2936  0.7587
  106OSM   H13S10857   4.248   6.484   9.103 -0.1233  0.3872 -0.0634
  106OSM   H13T10858   4.248   6.647   9.180  1.2612 -1.0133 -0.2084
  106OSM   C14S10859   4.066   6.606   9.077 -0.5868  0.1155  0.0298
  106OSM   H14S10860   3.999   6.659   9.148  1.7843  0.2922  2.2798
  106OSM   H14T10861   4.013   6.512   9.049  0.9212 -1.4303  2.0216
  106OSM   C15S10862   4.112   6.695   8.958 -0.1643 -0.5154  0.1178
  106OSM   H15S10863   4.034   6.695   8.879  0.6192 -1.3485 -0.6735
  106OSM   H15T10864   4.206   6.659   8.911 -0.3614  0.5122 -1.1295
  106OSM   C16S10865   4.147   6.839   9.003 -0.3038 -0.8213 -0.5620
  106OSM   H16S10866   4.246   6.837   9.054 -1.3032 -0.3860  1.5375
  106OSM   H16T10867   4.068   6.868   9.077  1.9003  1.4389  1.0738
  106OSM   C17S10868   4.145   6.941   8.888  0.0418 -0.5566  0.5556
  106OSM   H17S10869   4.036   6.958   8.874  0.0184  1.9304  2.8762
  106OSM   H17T10870   4.182   6.900   8.792  0.3696  1.2167 -0.1203
  106OSM   C18S10871   4.225   7.070   8.918  0.3787 -0.3118 -0.5696
  106OSM   H18S10872   4.195   7.151   8.849  1.9080 -0.3726 -1.3618
  106OSM   H18T10873   4.336   7.059   8.917  0.7261  2.3499  0.1862
  106OSM   H18U10874   4.185   7.105   9.015 -0.6778  2.3409 -1.8696
  106OSM    C1F10875   4.399   6.670  10.353  0.8646 -0.8452  0.3866
  106OSM     OF10876   4.497   6.641  10.417  0.1238  0.3271 -0.5959
  106OSM    C2F10877   4.378   6.803  10.294  0.5243  0.1500  0.4862
  106OSM    H2F10878   4.388   6.886  10.368 -0.8403  0.4325  0.3888
  106OSM    H2G10879   4.275   6.812  10.254  0.3016 -2.3236  0.3833
  106OSM    C3F10880   4.481   6.840  10.182  0.6262 -0.7508 -0.0936
  106OSM    H3F10881   4.581   6.845  10.229  0.4134  0.7919  0.2560
  106OSM    H3G10882   4.458   6.942  10.142  1.0209 -1.6111 -2.7132
  106OSM    C4F10883   4.476   6.746  10.062  0.4718  0.0203 -0.4505
  106OSM    H4F10884   4.401   6.769   9.984 -0.5537  0.7869  0.7086
  106OSM    H4G10885   4.447   6.643  10.094 -1.9469  1.0589  1.0548
  106OSM    C5F10886   4.612   6.743   9.990 -0.0582 -0.3702 -0.4674
  106OSM    H5F10887   4.679   6.712  10.073 -0.2316 -2.7988 -1.1559
  106OSM    H5G10888   4.649   6.843   9.960  0.2294 -0.2874  0.1496
  106OSM    C6F10889   4.604   6.656   9.858 -0.0536 -0.1980  0.2004
  106OSM    H6F10890   4.521   6.701   9.799  1.3383  0.0576 -1.6443
  106OSM    H6G10891   4.582   6.551   9.887  0.8734  0.3453  3.1602
  106OSM    C7F10892   4.727   6.679   9.776 -0.3339  0.1929 -0.2974
  106OSM    H7F10893   4.807   6.625   9.831 -0.3472 -0.4346 -0.8764
  106OSM    H7G10894   4.752   6.786   9.765 -0.1249 -0.0378 -2.5868
  106OSM    C8F10895   4.719   6.628   9.626 -0.6606 -0.0748  0.1949
  106OSM    H8F10896   4.682   6.716   9.569  0.5136  0.0297 -0.4458
  106OSM    H8G10897   4.642   6.548   9.616 -0.8033 -0.0509  1.0630
  106OSM    C9F10898   4.850   6.561   9.579 -0.2461 -0.1362 -0.1834
  106OSM    H9F10899   4.902   6.500   9.654  0.8204 -1.4554 -1.9297
  106OSM   C10F10900   4.905   6.559   9.451  0.0247  0.4963 -0.1596
  106OSM   H10F10901   4.990   6.493   9.427  1.0167  1.7101 -0.0948
  106OSM   C11F10902   4.840   6.631   9.337  0.4175  0.2723  0.2468
  106OSM   H11F10903   4.909   6.641   9.251  0.9549 -0.0415  0.6401
  106OSM   H11G10904   4.811   6.735   9.364 -1.1352 -0.6215  2.3555
  106OSM   C12F10905   4.719   6.555   9.271  0.1383 -0.1415 -0.8854
  106OSM   H12F10906   4.679   6.611   9.184  1.4769  0.5829 -1.0596
  106OSM   H12G10907   4.631   6.538   9.336 -0.7983  0.3434 -1.9959
  106OSM   C13F10908   4.766   6.415   9.223  0.0836  0.1468  0.0569
  106OSM   H13F10909   4.804   6.356   9.309  0.3796  0.1767 -0.0511
  106OSM   H13G10910   4.863   6.430   9.170  1.5065  1.9469  2.8824
  106OSM   C14F10911   4.653   6.346   9.137 -0.2243 -0.2610 -0.0378
  106OSM   H14F10912   4.554   6.381   9.172 -0.8147 -0.8993 -1.0371
  106OSM   H14G10913   4.655   6.237   9.160 -3.4670 -0.3819  0.1258
  106OSM   C15F10914   4.675   6.361   8.987  0.0759 -0.4567  0.2830
  106OSM   H15F10915   4.771   6.309   8.964  0.3852  0.5785 -0.8774
  106OSM   H15G10916   4.703   6.466   8.964  2.1551 -0.1909  3.5079
  106OSM   C16F10917   4.566   6.318   8.889  0.0172  0.0584 -0.0583
  106OSM   H16F10918   4.472   6.362   8.929  0.4633  0.4344  0.5996
  106OSM   H16G10919   4.555   6.207   8.891 -0.6216  0.1279  0.5327
  106OSM   C17F10920   4.588   6.370   8.751 -0.0388 -0.1991 -0.2903
  106OSM   H17F10921   4.671   6.307   8.714  2.4889  2.6648  0.1464
  106OSM   H17G10922   4.624   6.474   8.766 -1.7343  0.2779  0.7527
  106OSM   C18F10923   4.466   6.347   8.668 -0.1720 -0.6985  0.0402
  106OSM   H18F10924   4.493   6.369   8.562 -1.0759  0.7677  0.0874
  106OSM   H18G10925   4.381   6.408   8.705 -1.4475 -2.1300 -0.4557
  106OSM   H18H10926   4.428   6.244   8.682  0.9863 -1.1905 -0.2867
  107OSM      N10927   5.838   2.327  11.075 -0.5168 -0.0835 -0.1481
  107OSM    C1510928   5.731   2.420  11.133 -0.2735 -0.0285  0.5577
  107OSM   H15A10929   5.639   2.365  11.128  0.6558 -1.6491  0.4208
  107OSM   H15B10930   5.731   2.515  11.081 -2.7822  0.0809  0.6392
  107OSM   H15C10931   5.761   2.441  11.235  2.3168  1.6309 -0.4400
  107OSM    C1410932   5.819   2.193  11.140  0.7418 -0.4642 -0.1026
  107OSM   H14A10933   5.717   2.161  11.151  0.5575  0.3236  0.6349
  107OSM   H14B10934   5.858   2.199  11.241 -0.0013 -1.2273  0.2415
  107OSM   H14C10935   5.881   2.111  11.106  0.5158 -0.8156  0.3200
  107OSM    C1310936   5.832   2.320  10.925 -0.3384 -0.3618  0.0057
  107OSM   H13A10937   5.729   2.332  10.896 -0.2616  0.8825  0.1564
  107OSM   H13B10938   5.864   2.223  10.891  1.1569 -0.0110  0.3042
  107OSM   H13C10939   5.890   2.404  10.888  2.3540 -1.2246  1.9283
  107OSM    C1210940   5.978   2.389  11.110 -0.3591 -0.2692  0.1608
  107OSM   H12A10941   6.052   2.325  11.063  0.3612 -0.4670  1.5062
  107OSM   H12B10942   5.983   2.385  11.218 -2.7294 -2.1398  0.3096
  107OSM    C1110943   6.003   2.531  11.057  0.1109  0.3142  0.2289
  107OSM   H11A10944   5.958   2.602  11.129 -1.4492  2.9259 -3.0151
  107OSM   H11B10945   5.957   2.555  10.959 -1.1584  2.4127  1.2787
  107OSM      P10946   6.233   2.471  10.960  0.3677 -0.0102  0.2148
  107OSM    O1310947   6.370   2.535  10.974  0.5544 -0.3530 -0.0959
  107OSM    O1410948   6.221   2.325  10.975 -0.5946  0.0653 -0.0052
  107OSM    O1110949   6.163   2.513  10.824  0.1018  0.4967 -0.3106
  107OSM    O1210950   6.144   2.549  11.059  0.3616 -0.3520 -0.3072
  107OSM    C1S10951   6.192   2.631  10.758  0.0709  0.2462  0.3806
  107OSM    H1S10952   6.302   2.640  10.759  0.1670 -0.8639  0.5828
  107OSM    H1T10953   6.144   2.720  10.806 -0.3130  0.4566 -0.3658
  107OSM     NF10954   6.211   2.732  10.539 -0.3379 -0.6407  0.6819
  107OSM    HNF10955   6.144   2.804  10.524 -0.0543 -0.6627 -0.8776
  107OSM    C2S10956   6.153   2.617  10.604  0.3537  0.0826  0.5665
  107OSM    H2S10957   6.210   2.537  10.552 -0.2615 -0.1580  0.2503
  107OSM    C3S10958   5.995   2.596  10.588  0.1531 -0.0133 -0.3376
  107OSM    H3S10959   5.950   2.676  10.650  0.3338 -0.5818  0.5491
  107OSM     O310960   5.943   2.479  10.651  0.3664  0.4496 -0.5073
  107OSM    HO310961   6.019   2.432  10.686 -0.2106  1.2536  2.0119
  107OSM    C4S10962   5.962   2.602  10.440 -0.2025 -0.1962  0.4792
  107OSM    H4S10963   5.955   2.703  10.397 -0.8572 -1.0665 -1.5653
  107OSM    C5S10964   5.947   2.496  10.362 -0.5045 -0.5268  0.5388
  107OSM    H5S10965   5.956   2.398  10.412 -0.1165 -0.2682  0.9841
  107OSM    C6S10966   5.912   2.505  10.217  0.5539  0.3800  0.0624
  107OSM    H6S10967   6.006   2.521  10.161  1.4330  2.1536  1.8849
  107OSM    H6T10968   5.835   2.583  10.199 -2.0716 -2.0891 -0.3356
  107OSM    C7S10969   5.853   2.375  10.159  0.3760  0.4134 -0.0601
  107OSM    H7S10970   5.758   2.355  10.213 -0.6905  1.9966 -1.2820
  107OSM    H7T10971   5.926   2.292  10.176  1.3706  1.5298  1.4703
  107OSM    C8S10972   5.819   2.391  10.008  0.1139  0.2317 -0.5845
  107OSM    H8S10973   5.918   2.429   9.975 -0.0020 -0.9761 -2.4185
  107OSM    H8T10974   5.732   2.459   9.999 -0.4952 -0.7358 -2.2196
  107OSM    C9S10975   5.794   2.257   9.937  0.0799 -0.2787  0.2488
  107OSM    H9S10976   5.695   2.213   9.962 -1.0918  1.4379 -1.0600
  107OSM    H9T10977   5.877   2.192   9.970  1.1367  0.5918 -0.5922
  107OSM   C10S10978   5.810   2.280   9.786 -0.1463 -0.5129 -0.1649
  107OSM   H10S10979   5.806   2.182   9.735  1.8624 -0.5315 -0.3436
  107OSM   H10T10980   5.917   2.307   9.777 -0.3196 -0.2722 -1.7996
  107OSM   C11S10981   5.718   2.388   9.723 -0.1627 -0.1492 -0.3093
  107OSM   H11S10982   5.738   2.483   9.778  0.0334 -0.2971 -0.1281
  107OSM   H11T10983   5.612   2.364   9.746  0.5860 -2.5562  0.9009
  107OSM   C12S10984   5.747   2.429   9.571 -0.0755  0.4015  0.1562
  107OSM   H12S10985   5.853   2.463   9.571 -0.2581  1.0277 -0.8294
  107OSM   H12T10986   5.689   2.523   9.556 -1.5032 -0.1092  2.1305
  107OSM   C13S10987   5.720   2.308   9.473  0.3666  0.7561  0.3188
  107OSM   H13S10988   5.613   2.280   9.473  0.1671  1.2988 -1.9759
  107OSM   H13T10989   5.780   2.216   9.494  1.1500  1.0842 -0.4301
  107OSM   C14S10990   5.761   2.353   9.328 -0.3446 -0.0577  0.2888
  107OSM   H14S10991   5.709   2.447   9.302  0.4118 -0.4875 -3.1840
  107OSM   H14T10992   5.734   2.276   9.253 -1.2715  0.7799 -0.2560
  107OSM   C15S10993   5.915   2.378   9.323  0.4640 -0.1537 -0.0021
  107OSM   H15S10994   5.952   2.319   9.410 -2.7819  1.7202  2.9232
  107OSM   H15T10995   5.937   2.485   9.342 -2.6462  0.8068 -1.1798
  107OSM   C16S10996   5.982   2.318   9.193 -0.4403  0.1723  1.0079
  107OSM   H16S10997   5.987   2.207   9.195  0.9170  0.2325  2.6308
  107OSM   H16T10998   6.082   2.366   9.186  0.2788 -1.3536  0.2410
  107OSM   C17S10999   5.917   2.367   9.058 -0.0350  0.1049 -0.0187
  107OSM   H17S11000   5.825   2.309   9.038  1.1400 -1.5604 -0.7979
  107OSM   H17T11001   5.981   2.339   8.972 -1.4945  1.0782 -1.4818
  107OSM   C18S11002   5.890   2.514   9.041 -0.5465 -0.5051 -0.7121
  107OSM   H18S11003   5.815   2.554   9.113 -0.0891  0.0387 -0.5276
  107OSM   H18T11004   5.849   2.532   8.939 -0.6117 -0.2747 -0.6475
  107OSM   H18U11005   5.989   2.563   9.057  0.2178 -2.3374  0.5161
  107OSM    C1F11006   6.342   2.744  10.516  0.2452 -0.2068 -0.0584
  107OSM     OF11007   6.414   2.644  10.528 -0.6203 -0.2738  0.1439
  107OSM    C2F11008   6.390   2.875  10.484  0.0891 -0.2021 -0.1158
  107OSM    H2F11009   6.448   2.918  10.568  0.5527  0.4520 -0.7515
  107OSM    H2G11010   6.310   2.942  10.445  0.3596 -0.3339 -0.9236
  107OSM    C3F11011   6.511   2.871  10.375 -0.3657  0.4544 -0.3015
  107OSM    H3F11012   6.596   2.831  10.435  0.1240  3.1205  0.8853
  107OSM    H3G11013   6.531   2.973  10.338  3.2474  0.2145  0.6022
  107OSM    C4F11014   6.487   2.781  10.251  0.3740 -0.2322  0.3333
  107OSM    H4F11015   6.488   2.676  10.285  1.0879  0.1845  1.6377
  107OSM    H4G11016   6.580   2.787  10.190 -0.6122 -0.0893 -1.2103
  107OSM    C5F11017   6.362   2.819  10.173  0.1832  0.8740 -0.2900
  107OSM    H5F11018   6.348   2.928  10.188  3.6013  1.2559  1.0663
  107OSM    H5G11019   6.274   2.774  10.223  1.4666 -1.9322 -0.3725
  107OSM    C6F11020   6.363   2.775  10.029 -0.3209  0.2904  0.0691
  107OSM    H6F11021   6.459   2.815   9.991 -0.8950  0.2220 -1.5325
  107OSM    H6G11022   6.293   2.827   9.960  0.5116 -0.7308 -1.5892
  107OSM    C7F11023   6.352   2.625  10.018  0.3826  0.7018  0.5842
  107OSM    H7F11024   6.259   2.589  10.067  0.5858  0.4180  0.7694
  107OSM    H7G11025   6.438   2.575  10.068  0.2235 -1.3235 -1.0712
  107OSM    C8F11026   6.349   2.581   9.873 -0.1993 -0.0719  0.1681
  107OSM    H8F11027   6.254   2.605   9.821  0.3914  0.3699 -0.7497
  107OSM    H8G11028   6.338   2.470   9.875 -2.0581  0.0801  0.2715
  107OSM    C9F11029   6.463   2.603   9.779 -0.1928  0.3564  0.1005
  107OSM    H9F11030   6.565   2.582   9.816  0.1798  0.4642 -0.8548
  107OSM   C10F11031   6.455   2.668   9.660  0.7353 -0.1008  0.1256
  107OSM   H10F11032   6.540   2.685   9.593 -0.2392  3.2966 -0.4357
  107OSM   C11F11033   6.328   2.731   9.607  0.0173  0.4063  0.0526
  107OSM   H11F11034   6.351   2.806   9.528 -1.5326 -1.5778 -2.4282
  107OSM   H11G11035   6.275   2.793   9.683 -2.9661  0.0779 -1.5802
  107OSM   C12F11036   6.228   2.631   9.538 -0.0856 -0.2342 -0.0559
  107OSM   H12F11037   6.130   2.680   9.521 -0.0392  0.2160  0.9182
  107OSM   H12G11038   6.205   2.546   9.606 -0.3228  0.3952  0.6635
  107OSM   C13F11039   6.289   2.569   9.412  0.7255 -0.1746  0.5712
  107OSM   H13F11040   6.221   2.487   9.381  0.9598 -0.3128  0.4237
  107OSM   H13G11041   6.375   2.507   9.446  0.2521 -1.4709 -0.5225
  107OSM   C14F11042   6.324   2.671   9.304 -0.1987  0.3002 -0.5435
  107OSM   H14F11043   6.423   2.718   9.322 -1.2009  1.3401  2.9084
  107OSM   H14G11044   6.249   2.753   9.301  0.8768  1.4232  1.3904
  107OSM   C15F11045   6.327   2.598   9.168  0.3529 -0.0901  0.2899
  107OSM   H15F11046   6.222   2.564   9.155  0.8194 -1.3537 -0.3919
  107OSM   H15G11047   6.399   2.513   9.179  1.5790  1.0776  1.8496
  107OSM   C16F11048   6.366   2.684   9.055  0.4579  0.0341 -0.0001
  107OSM   H16F11049   6.383   2.608   8.975 -1.0275  0.3431 -0.6423
  107OSM   H16G11050   6.466   2.727   9.071 -0.5389  2.3654  0.2717
  107OSM   C17F11051   6.265   2.788   9.014  0.1488 -0.0493  0.2216
  107OSM   H17F11052   6.242   2.857   9.098  0.5585  0.3675  0.0011
  107OSM   H17G11053   6.173   2.736   8.981 -1.0824  2.8008 -1.2224
  107OSM   C18F11054   6.310   2.864   8.889  0.6235  0.5894 -0.0048
  107OSM   H18F11055   6.217   2.919   8.862  0.9464  0.7593 -0.8035
  107OSM   H18G11056   6.333   2.788   8.811  0.3115 -0.6239  1.0462
  107OSM   H18H11057   6.393   2.935   8.907  2.0078 -0.7891 -0.7322
  108OSM      N11058   0.874   1.622  10.800  0.6342  0.9814 -0.3106
  108OSM    C1511059   0.822   1.666  10.933  0.5177  0.4027  0.6430
  108OSM   H15A11060   0.717   1.694  10.935  0.5561  0.6988 -0.5827
  108OSM   H15B11061   0.886   1.740  10.978  0.7107  2.5388 -2.7415
  108OSM   H15C11062   0.820   1.579  10.996 -1.5837  1.0130  1.5361
  108OSM    C1411063   0.857   1.728  10.699 -0.1985 -0.1111 -0.2288
  108OSM   H14A11064   0.754   1.728  10.664  0.8180  0.3463 -3.5907
  108OSM   H14B11065   0.928   1.722  10.618  1.8400  0.9433  1.3913
  108OSM   H14C11066   0.890   1.824  10.737  0.9991 -0.6477  0.1152
  108OSM    C1311067   1.023   1.604  10.829  0.3977  0.2968  0.4392
  108OSM   H13A11068   1.060   1.695  10.875 -2.7787  1.9549  0.0337
  108OSM   H13B11069   1.080   1.568  10.744 -3.3641 -0.3171 -2.0595
  108OSM   H13C11070   1.032   1.524  10.900 -2.8243  0.3292  1.0341
  108OSM    C1211071   0.814   1.490  10.754  0.6087  0.6336  0.6549
  108OSM   H12A11072   0.822   1.406  10.822 -2.4770 -0.7478 -0.5081
  108OSM   H12B11073   0.870   1.458  10.668  0.3533  0.9783  0.3636
  108OSM    C1111074   0.667   1.483  10.706  0.0968 -0.3420 -0.4508
  108OSM   H11A11075   0.651   1.389  10.648  0.8534  0.4334 -1.9716
  108OSM   H11B11076   0.659   1.564  10.630  0.1853 -0.4081 -0.5300
  108OSM      P11077   0.460   1.596  10.822 -0.3038 -0.3191  0.2410
  108OSM    O1311078   0.360   1.551  10.921 -0.3276 -0.4533  0.2353
  108OSM    O1411079   0.513   1.733  10.841  0.0335 -0.1480 -0.2179
  108OSM    O1111080   0.407   1.593  10.671 -0.3556 -0.5017 -1.0967
  108OSM    O1211081   0.575   1.488  10.816 -0.1610  0.2061  1.0178
  108OSM    C1S11082   0.265   1.602  10.645 -0.0921 -0.6738  0.0276
  108OSM    H1S11083   0.217   1.696  10.681 -0.7372  0.5834 -3.6156
  108OSM    H1T11084   0.211   1.520  10.697 -0.5208  0.1557  0.9287
  108OSM     NF11085   0.105   1.618  10.450 -0.1268 -0.0231 -0.0540
  108OSM    HNF11086   0.039   1.543  10.445 -0.7528  0.5713 -3.5128
  108OSM    C2S11087   0.241   1.593  10.492  0.0331 -0.1461 -0.5466
  108OSM    H2S11088   0.313   1.660  10.441 -0.2512 -0.1896 -1.0081
  108OSM    C3S11089   0.295   1.452  10.442  0.5648  0.2238  0.1273
  108OSM    H3S11090   0.237   1.375  10.498  2.6359 -2.0011 -0.5812
  108OSM     O311091   0.429   1.416  10.468  0.3517  0.2812 -0.3616
  108OSM    HO311092   0.452   1.481  10.536 -1.9523 -2.9208  3.9749
  108OSM    C4S11093   0.268   1.440  10.297 -0.1342  0.0131  0.1239
  108OSM    H4S11094   0.315   1.518  10.235  1.6895 -2.0943 -1.2768
  108OSM    C5S11095   0.192   1.350  10.229 -0.5718 -0.8896  0.3342
  108OSM    H5S11096   0.149   1.262  10.279  1.0620 -0.1668  3.2201
  108OSM    C6S11097   0.175   1.351  10.079 -0.1444  0.2326 -0.4103
  108OSM    H6S11098   0.075   1.395  10.055 -0.1722  0.9810  0.9390
  108OSM    H6T11099   0.175   1.248  10.037  0.2943  0.1551 -0.2196
  108OSM    C7S11100   0.271   1.437   9.994  0.0503 -0.0192  0.0738
  108OSM    H7S11101   0.370   1.439  10.043  0.4279 -0.4399 -0.6554
  108OSM    H7T11102   0.233   1.542   9.995 -3.2286 -1.0417 -1.8197
  108OSM    C8S11103   0.279   1.400   9.845 -0.1522  0.4880 -0.6015
  108OSM    H8S11104   0.272   1.292   9.821 -0.1430  0.7000 -1.5973
  108OSM    H8T11105   0.377   1.438   9.809 -0.3857 -0.0059 -1.7931
  108OSM    C9S11106   0.177   1.468   9.757 -0.0148  0.3907  0.2602
  108OSM    H9S11107   0.185   1.578   9.771 -0.7138  0.2287  2.3439
  108OSM    H9T11108   0.074   1.435   9.781 -0.7580  2.2945 -0.1899
  108OSM   C10S11109   0.224   1.438   9.620  0.0849  0.3777 -0.0618
  108OSM   H10S11110   0.217   1.328   9.603  0.8941  0.1753  0.8469
  108OSM   H10T11111   0.326   1.476   9.598 -0.2908  1.6817  0.4042
  108OSM   C11S11112   0.150   1.511   9.508  0.0731 -0.6732 -0.6009
  108OSM   H11S11113   0.136   1.615   9.542 -2.0605 -1.0722 -0.1162
  108OSM   H11T11114   0.045   1.473   9.513  0.8861 -2.9087  1.4242
  108OSM   C12S11115   0.205   1.496   9.366 -0.9117 -0.4764 -0.1697
  108OSM   H12S11116   0.222   1.390   9.338 -1.0849 -1.0126  1.5942
  108OSM   H12T11117   0.297   1.557   9.364 -1.3010  0.2597  1.8439
  108OSM   C13S11118   0.111   1.573   9.274  0.5545  0.2856  0.6540
  108OSM   H13S11119   0.171   1.651   9.223 -0.8698  0.4726 -0.8533
  108OSM   H13T11120   0.027   1.622   9.327 -0.5095 -1.0744  0.2954
  108OSM   C14S11121   0.049   1.482   9.162 -0.0708 -0.5511 -0.0292
  108OSM   H14S11122   0.018   1.556   9.085  0.2038  2.3550  2.4672
  108OSM   H14T11123  -0.039   1.426   9.201  0.2668  0.0566  1.6941
  108OSM   C15S11124   0.150   1.388   9.099 -0.4616 -0.1797 -0.0649
  108OSM   H15S11125   0.179   1.303   9.164 -1.5529  0.6322  1.5530
  108OSM   H15T11126   0.245   1.442   9.078 -0.3292 -0.2257  0.4173
  108OSM   C16S11127   0.109   1.346   8.952  0.1981 -0.3341 -0.1427
  108OSM   H16S11128   0.132   1.435   8.888  1.0577 -0.3004  0.2057
  108OSM   H16T11129   0.002   1.320   8.934  0.1924 -0.3746 -0.0495
  108OSM   C17S11130   0.200   1.232   8.897  0.4489 -0.0104  0.1093
  108OSM   H17S11131   0.152   1.137   8.929  2.7416 -1.2455  0.0642
  108OSM   H17T11132   0.309   1.236   8.918  0.3876  0.0149  0.4326
  108OSM   C18S11133   0.186   1.215   8.738 -0.1346  0.8727 -0.7562
  108OSM   H18S11134   0.217   1.300   8.673  0.1902  1.9509  0.7662
  108OSM   H18T11135   0.080   1.191   8.716  0.3626 -4.1968  1.1163
  108OSM   H18U11136   0.241   1.121   8.716 -1.0888 -0.0108  0.5115
  108OSM    C1F11137   0.053   1.740  10.468  0.4790  0.4903 -0.2981
  108OSM     OF11138   0.132   1.833  10.489  0.3362 -0.5334  0.1146
  108OSM    C2F11139  -0.088   1.753  10.473  0.0813  0.6086 -0.3400
  108OSM    H2F11140  -0.113   1.811  10.564 -2.4567 -0.1889 -0.4553
  108OSM    H2G11141  -0.147   1.660  10.491 -1.5388  1.6681  0.0217
  108OSM    C3F11142  -0.155   1.828  10.356 -0.1421  0.3068  0.2942
  108OSM    H3F11143  -0.108   1.928  10.347  1.3674 -0.5127 -1.5346
  108OSM    H3G11144  -0.263   1.842  10.380 -0.3093  0.7464 -0.6983
  108OSM    C4F11145  -0.126   1.746  10.231 -0.1660 -0.1645 -0.6960
  108OSM    H4F11146  -0.154   1.639  10.248 -0.7268  0.3887  2.4942
  108OSM    H4G11147  -0.017   1.745  10.214  0.2867 -1.8414  1.7299
  108OSM    C5F11148  -0.205   1.800  10.108  0.6880  0.2216 -0.5624
  108OSM    H5F11149  -0.203   1.911  10.111  1.9087  0.1948  0.4545
  108OSM    H5G11150  -0.310   1.767  10.119  1.5977 -2.4528  0.9779
  108OSM    C6F11151  -0.150   1.741   9.985  0.4417  0.4998  0.0850
  108OSM    H6F11152  -0.165   1.631   9.989 -0.4877  0.6496  1.1110
  108OSM    H6G11153  -0.045   1.774   9.970  0.2121  0.9457 -0.6414
  108OSM    C7F11154  -0.228   1.773   9.856 -0.5858 -0.3299  0.5346
  108OSM    H7F11155  -0.215   1.883   9.856  1.8524 -0.5696  0.9070
  108OSM    H7G11156  -0.336   1.749   9.871 -1.3112  3.0957  1.6915
  108OSM    C8F11157  -0.173   1.734   9.723  0.3614  0.7076 -0.6182
  108OSM    H8F11158  -0.062   1.733   9.731  0.2776  0.7399  0.8370
  108OSM    H8G11159  -0.201   1.814   9.651  2.9787  0.4363 -2.0841
  108OSM    C9F11160  -0.209   1.596   9.670 -0.5681 -0.2132 -0.2351
  108OSM    H9F11161  -0.151   1.520   9.725  0.4255  1.3326  0.9170
  108OSM   C10F11162  -0.295   1.562   9.573  0.3693 -0.8406  0.7072
  108OSM   H10F11163  -0.303   1.459   9.534 -1.7625 -0.2879 -0.4758
  108OSM   C11F11164  -0.387   1.658   9.496  0.2127  0.1100 -0.2680
  108OSM   H11F11165  -0.411   1.753   9.549  2.2115  0.3523  0.2541
  108OSM   H11G11166  -0.482   1.611   9.463  0.9711 -1.0131 -0.9081
  108OSM   C12F11167  -0.317   1.699   9.366 -0.3006  0.0812  0.1521
  108OSM   H12F11168  -0.219   1.747   9.389 -0.1429  0.7365 -1.7324
  108OSM   H12G11169  -0.386   1.768   9.313 -0.5004  0.5866  1.0373
  108OSM   C13F11170  -0.288   1.577   9.285 -0.4134  0.8760  0.7821
  108OSM   H13F11171  -0.354   1.494   9.316  2.0792 -1.0886  1.1855
  108OSM   H13G11172  -0.190   1.544   9.325 -0.8674  0.5432  1.6243
  108OSM   C14F11173  -0.297   1.588   9.135 -0.3581  0.2160 -1.0789
  108OSM   H14F11174  -0.255   1.497   9.087 -0.2077  0.7052 -1.8902
  108OSM   H14G11175  -0.233   1.672   9.100  1.3015 -0.6958 -0.3374
  108OSM   C15F11176  -0.443   1.594   9.085  0.6263  0.6255 -0.3630
  108OSM   H15F11177  -0.499   1.679   9.128 -0.7123 -0.3618 -0.0869
  108OSM   H15G11178  -0.504   1.506   9.115 -0.3616  1.9230  1.6451
  108OSM   C16F11179  -0.450   1.598   8.933 -0.4213  0.6871 -0.1758
  108OSM   H16F11180  -0.409   1.503   8.892 -1.8795  0.7301 -1.8342
  108OSM   H16G11181  -0.379   1.681   8.911  1.3347 -0.9543 -0.9842
  108OSM   C17F11182  -0.593   1.627   8.877  0.1371  0.2056  0.1481
  108OSM   H17F11183  -0.637   1.709   8.939 -1.9630  0.4735 -1.5630
  108OSM   H17G11184  -0.654   1.537   8.899 -0.7382  0.5872 -0.6316
  108OSM   C18F11185  -0.587   1.654   8.731 -0.1723 -0.1651 -0.1150
  108OSM   H18F11186  -0.544   1.564   8.681 -0.6892 -0.6785  0.3556
  108OSM   H18G11187  -0.516   1.738   8.715  1.4739 -1.5794 -0.6596
  108OSM   H18H11188  -0.687   1.686   8.695 -0.7660 -0.3506  1.3347
  109OSM      N11189   2.215   6.160  10.986 -0.1305 -0.3021  0.3144
  109OSM    C1511190   2.253   6.025  11.047 -0.2303 -0.2433 -0.3356
  109OSM   H15A11191   2.157   5.981  11.070 -0.0744  0.3574  1.6552
  109OSM   H15B11192   2.317   6.030  11.133 -1.9734 -0.3213  1.0124
  109OSM   H15C11193   2.309   5.973  10.970 -0.2594 -0.8652  0.0606
  109OSM    C1411194   2.152   6.260  11.089  0.0471  0.3376  0.3923
  109OSM   H14A11195   2.054   6.233  11.123 -0.5300  2.4252  0.5308
  109OSM   H14B11196   2.155   6.359  11.046 -1.5926 -0.1241 -0.8822
  109OSM   H14C11197   2.212   6.268  11.179 -0.9270 -2.2929  1.3651
  109OSM    C1311198   2.337   6.225  10.934 -0.4651  0.2863  0.2752
  109OSM   H13A11199   2.375   6.160  10.856 -1.8488 -1.4332  0.9744
  109OSM   H13B11200   2.391   6.248  11.025 -1.0569 -0.6497  0.8724
  109OSM   H13C11201   2.316   6.319  10.884  0.2918 -0.1632 -0.9329
  109OSM    C1211202   2.122   6.141  10.876  0.1088  0.1338  0.1318
  109OSM   H12A11203   2.162   6.076  10.799 -1.2674  0.0786 -0.5558
  109OSM   H12B11204   2.108   6.236  10.827  1.2828  0.7733  1.0004
  109OSM    C1111205   1.975   6.095  10.909 -0.6021  0.1349 -0.4460
  109OSM   H11A11206   1.934   6.179  10.970  1.7610  0.4185  0.8830
  109OSM   H11B11207   1.980   6.006  10.975  0.3223 -0.8908 -1.8514
  109OSM      P11208   1.947   5.957  10.696 -0.3094  0.0085  0.4805
  109OSM    O1311209   2.080   5.912  10.731 -0.1300 -0.1920 -0.6503
  109OSM    O1411210   1.835   5.868  10.724 -0.3370 -0.5168  0.6522
  109OSM    O1111211   1.943   6.006  10.547  0.0001 -0.1154 -0.1070
  109OSM    O1211212   1.910   6.084  10.786  0.1262  0.1924  0.1722
  109OSM    C1S11213   1.855   6.107  10.493 -0.3045  0.3023 -0.0732
  109OSM    H1S11214   1.860   6.203  10.549  0.4602 -0.3269  0.9810
  109OSM    H1T11215   1.749   6.074  10.500 -0.0344 -0.2793  1.8724
  109OSM     NF11216   1.812   6.248  10.296  0.3712  0.5905 -0.2235
  109OSM    HNF11217   1.722   6.239  10.255 -0.1928  1.0552  0.8752
  109OSM    C2S11218   1.874   6.122  10.343 -0.0910 -0.0587 -1.0747
  109OSM    H2S11219   1.983   6.131  10.322 -0.0394  2.1833 -0.1084
  109OSM    C3S11220   1.821   5.996  10.279  0.5751  0.1936  0.2972
  109OSM    H3S11221   1.713   5.986  10.299  0.7454  1.5548  2.1441
  109OSM     O311222   1.867   5.867  10.334  0.2056 -0.1951  0.7024
  109OSM    HO311223   1.891   5.886  10.425  2.0357  1.0721  0.0216
  109OSM    C4S11224   1.837   6.004  10.130 -0.1868  0.3019 -0.4136
  109OSM    H4S11225   1.756   6.055  10.075 -0.1177  1.1892  0.2835
  109OSM    C5S11226   1.942   5.958  10.061 -0.5197 -0.0106 -0.0928
  109OSM    H5S11227   2.032   5.918  10.109  1.5587  0.8673 -2.9494
  109OSM    C6S11228   1.959   5.960   9.915  0.0714  0.2769 -0.7211
  109OSM    H6S11229   2.067   5.944   9.892  0.5588  2.2885  0.0087
  109OSM    H6T11230   1.925   6.058   9.876  0.5236  1.1340  0.9528
  109OSM    C7S11231   1.890   5.836   9.860 -0.5559 -0.0064 -1.1574
  109OSM    H7S11232   1.789   5.826   9.905 -0.0294  0.4190  0.1653
  109OSM    H7T11233   1.939   5.737   9.869  0.1932  0.3906 -0.7316
  109OSM    C8S11234   1.883   5.855   9.705 -0.0357 -0.4175  0.9970
  109OSM    H8S11235   1.988   5.857   9.669 -0.3819 -1.9555 -0.1574
  109OSM    H8T11236   1.822   5.946   9.686 -2.2604 -1.9449  0.5128
  109OSM    C9S11237   1.811   5.743   9.632  0.1090  0.1156  0.2501
  109OSM    H9S11238   1.704   5.752   9.659  0.2919 -0.1250  1.1021
  109OSM    H9T11239   1.844   5.642   9.665  0.8702  0.6506  1.1956
  109OSM   C10S11240   1.830   5.739   9.474  0.1960  0.3093 -0.1677
  109OSM   H10S11241   1.767   5.666   9.420  0.9347 -1.6168  1.4404
  109OSM   H10T11242   1.937   5.718   9.451  0.7546 -0.4059  2.6527
  109OSM   C11S11243   1.799   5.872   9.404 -0.1244 -0.1107 -0.3775
  109OSM   H11S11244   1.853   5.951   9.462 -0.7739  0.5646 -0.6906
  109OSM   H11T11245   1.690   5.887   9.410 -1.3086 -5.3730 -2.7082
  109OSM   C12S11246   1.854   5.884   9.258  0.3756  0.1115 -0.2555
  109OSM   H12S11247   1.951   5.829   9.259 -1.5696 -3.6147 -1.6558
  109OSM   H12T11248   1.878   5.985   9.218  0.0427 -0.3211 -1.5668
  109OSM   C13S11249   1.768   5.819   9.155  0.6147  0.1910  0.3865
  109OSM   H13S11250   1.664   5.849   9.179  0.6941  0.7372  0.0593
  109OSM   H13T11251   1.765   5.709   9.173  2.0779 -0.3059 -1.9036
  109OSM   C14S11252   1.802   5.859   9.006 -0.3711 -0.1223 -0.1807
  109OSM   H14S11253   1.909   5.829   8.999 -0.3471 -0.4018  1.0990
  109OSM   H14T11254   1.799   5.968   8.986 -1.9057 -0.4137 -1.7229
  109OSM   C15S11255   1.716   5.776   8.907  0.2369 -0.0407  0.0627
  109OSM   H15S11256   1.683   5.676   8.941 -0.0359 -0.8214 -2.3098
  109OSM   H15T11257   1.783   5.760   8.819  0.4556 -0.8597  0.3749
  109OSM   C16S11258   1.581   5.843   8.863  0.0787 -0.3503  0.2835
  109OSM   H16S11259   1.603   5.924   8.791 -0.0950 -1.5045 -1.0973
  109OSM   H16T11260   1.550   5.898   8.955 -2.4359 -0.8053 -0.2274
  109OSM   C17S11261   1.472   5.749   8.809  0.0951 -0.0861 -0.3473
  109OSM   H17S11262   1.387   5.810   8.770  0.7468  0.1210 -1.4830
  109OSM   H17T11263   1.444   5.687   8.897 -0.1585 -0.2486 -0.5427
  109OSM   C18S11264   1.507   5.658   8.686 -0.3012  0.7377 -0.3681
  109OSM   H18S11265   1.431   5.578   8.698  1.2662 -1.0763 -1.7852
  109OSM   H18T11266   1.609   5.616   8.701 -1.5517 -2.1917  0.5997
  109OSM   H18U11267   1.496   5.703   8.585  0.0203 -0.0075 -0.7435
  109OSM    C1F11268   1.850   6.364  10.329 -0.3236 -0.9982 -0.3262
  109OSM     OF11269   1.947   6.382  10.402 -0.2969 -0.2575  0.4151
  109OSM    C2F11270   1.759   6.475  10.281 -0.0082  0.6073  0.2952
  109OSM    H2F11271   1.745   6.545  10.366 -0.2677 -0.4070  1.0917
  109OSM    H2G11272   1.668   6.434  10.233  0.4887 -0.6070  0.3760
  109OSM    C3F11273   1.833   6.566  10.188  0.0177 -0.4281  0.2965
  109OSM    H3F11274   1.904   6.628  10.246 -1.3623  1.7372 -0.2327
  109OSM    H3G11275   1.765   6.647  10.154 -0.2573 -0.8825 -0.2736
  109OSM    C4F11276   1.901   6.499  10.074 -0.2748 -0.5123 -0.5277
  109OSM    H4F11277   1.971   6.424  10.117 -0.0265 -0.2685 -0.5035
  109OSM    H4G11278   1.965   6.574  10.023 -2.4159  1.1644 -0.9139
  109OSM    C5F11279   1.806   6.438   9.970 -0.2598 -0.1848  0.4353
  109OSM    H5F11280   1.728   6.514   9.947 -0.4394 -1.1611 -2.5719
  109OSM    H5G11281   1.757   6.351  10.019 -0.4689 -0.0665  0.4408
  109OSM    C6F11282   1.881   6.394   9.845 -0.5998  0.8075 -0.0232
  109OSM    H6F11283   1.949   6.312   9.878 -0.6246  1.1767  0.9749
  109OSM    H6G11284   1.930   6.480   9.794 -0.6361  1.8106  1.5909
  109OSM    C7F11285   1.793   6.335   9.735 -0.3509 -0.8988  0.5122
  109OSM    H7F11286   1.725   6.409   9.688 -0.4513 -2.0011 -1.1541
  109OSM    H7G11287   1.733   6.256   9.786  0.5686 -0.5770  2.1801
  109OSM    C8F11288   1.870   6.269   9.617  0.8353  0.7277 -0.0193
  109OSM    H8F11289   1.796   6.214   9.554  2.6197 -0.7910 -0.9070
  109OSM    H8G11290   1.931   6.187   9.661 -0.6238 -0.5442 -0.2530
  109OSM    C9F11291   1.920   6.373   9.525  0.1541  0.2166 -0.1826
  109OSM    H9F11292   1.853   6.453   9.488  0.1069  1.0003  1.4889
  109OSM   C10F11293   2.041   6.367   9.473  0.0946 -0.4947 -0.7611
  109OSM   H10F11294   2.078   6.458   9.423 -0.1594  0.7008  1.1148
  109OSM   C11F11295   2.152   6.271   9.486 -0.2851  0.9024  0.1584
  109OSM   H11F11296   2.119   6.179   9.539 -1.4407  1.0445 -0.3009
  109OSM   H11G11297   2.225   6.329   9.546  0.3547 -0.1401  0.4250
  109OSM   C12F11298   2.239   6.238   9.362  0.4865  0.2789 -0.9389
  109OSM   H12F11299   2.325   6.176   9.396  1.3551  1.0641 -1.6354
  109OSM   H12G11300   2.285   6.334   9.329  1.2731  0.8054  1.4897
  109OSM   C13F11301   2.155   6.176   9.257  0.7457  0.3181 -0.3529
  109OSM   H13F11302   2.078   6.252   9.230  0.3242  0.1464  0.3580
  109OSM   H13G11303   2.105   6.091   9.308  3.0041 -0.3119  0.9243
  109OSM   C14F11304   2.224   6.118   9.137  0.1290  0.7161 -0.6165
  109OSM   H14F11305   2.311   6.057   9.172 -1.8615 -2.1160 -0.2353
  109OSM   H14G11306   2.280   6.206   9.099  0.6381  0.8409  0.3900
  109OSM   C15F11307   2.126   6.041   9.049 -0.1148 -0.2292  0.3321
  109OSM   H15F11308   2.046   6.111   9.016 -0.4405 -0.6421  0.2370
  109OSM   H15G11309   2.077   5.961   9.108 -0.9038 -1.2044 -1.5784
  109OSM   C16F11310   2.190   5.984   8.922 -0.6384  0.3500 -0.0327
  109OSM   H16F11311   2.141   5.890   8.890  0.3402 -0.9544  2.0941
  109OSM   H16G11312   2.294   5.947   8.937 -1.0116 -0.7208 -0.0373
  109OSM   C17F11313   2.202   6.077   8.807 -0.2310 -0.0102  0.1344
  109OSM   H17F11314   2.216   6.178   8.853  1.0901 -0.8883  1.7532
  109OSM   H17G11315   2.104   6.076   8.755  0.0124 -1.9203 -0.3460
  109OSM   C18F11316   2.296   6.052   8.695  0.5988 -0.3632  0.4258
  109OSM   H18F11317   2.296   5.954   8.643 -0.9863  0.9078 -2.1962
  109OSM   H18G11318   2.400   6.081   8.722  0.1429  0.6325  1.2286
  109OSM   H18H11319   2.265   6.122   8.614 -1.1571 -2.6750 -1.0093
  110OSM      N11320   3.263   3.324  10.875 -0.0930  0.3977  0.6396
  110OSM    C1511321   3.337   3.195  10.882 -0.1177 -0.0030 -0.4957
  110OSM   H15A11322   3.351   3.172  10.987 -2.3421  0.7413  0.0229
  110OSM   H15B11323   3.438   3.203  10.846  0.9405  1.5452  2.4508
  110OSM   H15C11324   3.285   3.120  10.825 -0.4405 -0.2527  0.1167
  110OSM    C1411325   3.171   3.332  10.760  0.2178 -0.5580 -0.4728
  110OSM   H14A11326   3.223   3.327  10.666  1.7152 -1.4237  0.3639
  110OSM   H14B11327   3.115   3.424  10.762 -1.4860 -1.4809 -2.5492
  110OSM   H14C11328   3.093   3.258  10.771  0.9105 -1.2891 -0.3983
  110OSM    C1311329   3.182   3.319  11.001 -0.5342 -0.1370 -0.1853
  110OSM   H13A11330   3.125   3.227  11.002 -1.6941  0.4091  3.8190
  110OSM   H13B11331   3.121   3.407  11.014 -0.6418 -0.0292 -1.3309
  110OSM   H13C11332   3.244   3.313  11.090 -2.7212 -0.8967  1.3874
  110OSM    C1211333   3.362   3.438  10.880  0.2198  0.2429  0.1295
  110OSM   H12A11334   3.413   3.441  10.975  1.1319  0.6428 -0.3603
  110OSM   H12B11335   3.308   3.531  10.864  0.4847  0.0074 -2.6118
  110OSM    C1111336   3.471   3.436  10.767 -0.4612 -0.4025 -0.2900
  110OSM   H11A11337   3.497   3.537  10.728  0.7269 -1.3494 -2.0914
  110OSM   H11B11338   3.424   3.385  10.680  0.9427 -0.2537 -1.1635
  110OSM      P11339   3.721   3.353  10.728 -0.1204 -0.8665  0.1560
  110OSM    O1311340   3.774   3.493  10.704  0.1623  0.1613  0.2069
  110OSM    O1411341   3.816   3.267  10.801 -0.1306 -0.3449  0.2938
  110OSM    O1111342   3.682   3.280  10.592 -0.6336 -0.9464  0.3886
  110OSM    O1211343   3.583   3.368  10.813 -0.9123  0.3243 -0.5488
  110OSM    C1S11344   3.567   3.279  10.510  0.4514  0.1661 -0.3300
  110OSM    H1S11345   3.530   3.383  10.499 -1.4436 -0.2322  1.4865
  110OSM    H1T11346   3.483   3.214  10.545  1.3572  0.0051  1.7009
  110OSM     NF11347   3.513   3.244  10.265  0.0038 -0.2629  0.1225
  110OSM    HNF11348   3.467   3.163  10.231  0.7127 -0.3539 -0.6549
  110OSM    C2S11349   3.614   3.231  10.372  0.0480 -0.5491 -0.1636
  110OSM    H2S11350   3.699   3.297  10.344 -0.6664  0.6710  0.4930
  110OSM    C3S11351   3.671   3.078  10.384  0.0384  0.1052  0.4467
  110OSM    H3S11352   3.580   3.014  10.399 -0.8019  1.4999  1.5999
  110OSM     O311353   3.748   3.042  10.496 -0.1648 -0.4317 -0.2830
  110OSM    HO311354   3.719   3.113  10.553 -1.8113 -3.2033  2.5961
  110OSM    C4S11355   3.741   3.045  10.248  0.3151 -0.1033 -0.1392
  110OSM    H4S11356   3.666   3.039  10.167 -0.2440  2.6840  0.0790
  110OSM    C5S11357   3.873   3.047  10.229 -0.2645 -0.5058 -0.2452
  110OSM    H5S11358   3.931   3.050  10.322 -0.3265  0.9500 -0.2342
  110OSM    C6S11359   3.938   3.015  10.097 -0.0628  0.5408  0.9157
  110OSM    H6S11360   3.981   2.913  10.103  2.6684  1.4730 -0.8870
  110OSM    H6T11361   4.029   3.078  10.084  1.1515 -1.2028  0.6220
  110OSM    C7S11362   3.850   3.012   9.975 -0.4718 -0.0132  0.4211
  110OSM    H7S11363   3.815   3.112   9.941  1.6014  0.6622  0.1909
  110OSM    H7T11364   3.765   2.942   9.991 -0.6958  0.1015 -0.2566
  110OSM    C8S11365   3.931   2.957   9.854 -0.3963  0.3283 -0.1184
  110OSM    H8S11366   3.960   2.855   9.887 -3.4556 -0.7825 -0.5143
  110OSM    H8T11367   4.024   3.016   9.838 -0.7539  1.5727  1.9696
  110OSM    C9S11368   3.846   2.938   9.725 -0.2575  0.3037 -0.1411
  110OSM    H9S11369   3.805   3.033   9.686 -1.8918 -0.4329 -0.2958
  110OSM    H9T11370   3.761   2.871   9.753  1.8605 -2.5135  0.0488
  110OSM   C10S11371   3.933   2.872   9.612  0.9827 -0.4667  0.3349
  110OSM   H10S11372   3.976   2.780   9.655  1.4932 -0.7163 -0.6877
  110OSM   H10T11373   4.016   2.942   9.591 -0.1666  1.6158  2.2127
  110OSM   C11S11374   3.842   2.849   9.489 -0.3063 -0.1091  0.4719
  110OSM   H11S11375   3.778   2.936   9.463 -0.4676  0.1009  1.4913
  110OSM   H11T11376   3.771   2.770   9.523 -0.9945  0.8320  1.2969
  110OSM   C12S11377   3.926   2.802   9.369  0.3324  0.1553  0.6358
  110OSM   H12S11378   4.011   2.736   9.399 -0.1228 -0.8233 -0.1644
  110OSM   H12T11379   3.967   2.890   9.315  1.5421  1.0144  2.8159
  110OSM   C13S11380   3.846   2.709   9.275  0.2802 -0.0116 -1.0016
  110OSM   H13S11381   3.831   2.612   9.327  1.8320 -0.5720 -1.5433
  110OSM   H13T11382   3.910   2.687   9.187 -0.3188 -0.9348 -1.2263
  110OSM   C14S11383   3.715   2.774   9.231  0.3010 -0.2719 -0.0080
  110OSM   H14S11384   3.727   2.883   9.216  0.2681 -0.4993 -1.9910
  110OSM   H14T11385   3.639   2.757   9.310 -0.1028  0.3430 -0.2563
  110OSM   C15S11386   3.670   2.732   9.095  0.0395  0.2512 -0.5064
  110OSM   H15S11387   3.743   2.767   9.019 -0.3104 -1.2578 -1.5786
  110OSM   H15T11388   3.580   2.792   9.068 -0.5114  1.0382  2.6751
  110OSM   C16S11389   3.635   2.581   9.091  0.5817 -0.4651 -0.0917
  110OSM   H16S11390   3.553   2.563   9.164  0.9729  0.5423  0.6157
  110OSM   H16T11391   3.731   2.531   9.118 -0.0575 -1.2413  0.8099
  110OSM   C17S11392   3.590   2.531   8.956  0.2647  0.0185  0.1854
  110OSM   H17S11393   3.677   2.545   8.889  1.1542  1.1047  1.5147
  110OSM   H17T11394   3.499   2.589   8.925  0.7420  1.6411  1.6664
  110OSM   C18S11395   3.553   2.387   8.966  0.1407  0.7965  0.1968
  110OSM   H18S11396   3.639   2.324   8.994 -0.7886 -0.5801  0.0599
  110OSM   H18T11397   3.509   2.359   8.868 -1.0867 -0.4843  1.0742
  110OSM   H18U11398   3.472   2.380   9.042 -1.8569 -1.7761 -1.9847
  110OSM    C1F11399   3.466   3.365  10.227 -0.0628 -0.5859 -0.2123
  110OSM     OF11400   3.475   3.459  10.306  0.1335 -0.1428  0.0485
  110OSM    C2F11401   3.391   3.380  10.095 -1.2547 -0.2503  0.5695
  110OSM    H2F11402   3.381   3.486  10.063  0.3752 -0.4274 -0.7222
  110OSM    H2G11403   3.294   3.331  10.115 -1.8406  0.6583  0.0443
  110OSM    C3F11404   3.460   3.306   9.978  0.3724 -0.0382  0.1851
  110OSM    H3F11405   3.483   3.201  10.007  0.9969  0.0808  0.1306
  110OSM    H3G11406   3.558   3.353   9.954 -0.5894  1.8715 -0.1565
  110OSM    C4F11407   3.376   3.303   9.852  0.1815 -0.4939 -0.4408
  110OSM    H4F11408   3.350   3.398   9.802 -0.9037  0.7493  2.2636
  110OSM    H4G11409   3.280   3.262   9.891  0.5147  0.2171  1.2300
  110OSM    C5F11410   3.429   3.205   9.744 -0.2425  0.6531 -0.2426
  110OSM    H5F11411   3.354   3.164   9.673  0.4218 -1.2384  0.0830
  110OSM    H5G11412   3.466   3.116   9.799 -0.7249  0.3372 -0.4223
  110OSM    C6F11413   3.543   3.259   9.653  0.0124 -0.3901 -0.0329
  110OSM    H6F11414   3.609   3.191   9.594  0.4354  1.8470 -2.3008
  110OSM    H6G11415   3.610   3.320   9.717  1.2663  1.7218 -3.1211
  110OSM    C7F11416   3.488   3.363   9.548 -0.4451 -0.0899 -1.0808
  110OSM    H7F11417   3.583   3.397   9.503  0.5603 -1.6961 -0.2589
  110OSM    H7G11418   3.442   3.451   9.596  0.2732 -0.1868 -0.1970
  110OSM    C8F11419   3.397   3.312   9.437 -0.6126  0.3327  0.2646
  110OSM    H8F11420   3.357   3.392   9.370 -0.9835 -2.1153 -2.6403
  110OSM    H8G11421   3.315   3.259   9.492  1.1319  1.2337  4.1014
  110OSM    C9F11422   3.474   3.202   9.368 -0.2711  0.1580  0.3702
  110OSM    H9F11423   3.490   3.104   9.415 -0.0282 -0.0587 -0.1621
  110OSM   C10F11424   3.501   3.215   9.239  0.0904  0.0311 -0.2635
  110OSM   H10F11425   3.550   3.130   9.189  1.7026  0.2323  0.8929
  110OSM   C11F11426   3.466   3.323   9.142  0.4400  0.2392 -0.6572
  110OSM   H11F11427   3.553   3.331   9.074  1.1009 -0.7021  0.0605
  110OSM   H11G11428   3.455   3.418   9.199 -0.0128  0.1311 -0.5575
  110OSM   C12F11429   3.344   3.307   9.055  0.1737  1.0667  0.4474
  110OSM   H12F11430   3.346   3.380   8.971 -0.6039 -1.2239 -1.7163
  110OSM   H12G11431   3.249   3.305   9.112 -1.3192  1.2148 -1.8945
  110OSM   C13F11432   3.350   3.172   8.974  0.2552 -0.6127  0.4657
  110OSM   H13F11433   3.343   3.087   9.045  0.6687 -2.1229 -1.2106
  110OSM   H13G11434   3.447   3.190   8.923  1.4334  2.0288  3.3543
  110OSM   C14F11435   3.231   3.163   8.870  0.6032  0.2305 -0.0717
  110OSM   H14F11436   3.251   3.247   8.801 -0.9275 -0.4118 -1.3454
  110OSM   H14G11437   3.139   3.182   8.928  1.6286  1.7753  1.1446
  110OSM   C15F11438   3.240   3.032   8.783 -0.2782  0.2317  0.1926
  110OSM   H15F11439   3.179   2.957   8.839 -1.1323  1.3843  0.8454
  110OSM   H15G11440   3.349   3.013   8.790 -0.4292 -0.7965 -0.0918
  110OSM   C16F11441   3.195   3.049   8.638 -0.0348 -0.2316 -0.3466
  110OSM   H16F11442   3.211   2.954   8.582  2.1397 -1.0971  1.5587
  110OSM   H16G11443   3.259   3.125   8.588  1.0743 -1.0516 -0.2198
  110OSM   C17F11444   3.053   3.095   8.634 -0.3967  0.5688  0.3294
  110OSM   H17F11445   3.042   3.196   8.678  0.0460  1.2352 -1.0184
  110OSM   H17G11446   3.000   3.023   8.701  0.2855  1.3677  1.7729
  110OSM   C18F11447   2.998   3.077   8.498  0.2449  0.0554  0.2973
  110OSM   H18F11448   3.038   3.158   8.433  0.0432 -0.9957 -1.1996
  110OSM   H18G11449   2.888   3.088   8.511  0.1909  2.1446 -1.3289
  110OSM   H18H11450   3.035   2.990   8.440  0.9094  0.7276 -0.3035
  111OSM      N11451   3.705   4.566  10.967 -0.5194  1.0894 -0.0541
  111OSM    C1511452   3.820   4.519  11.052  0.6499  0.4172 -0.6373
  111OSM   H15A11453   3.888   4.459  10.993 -2.4273 -2.2683 -1.7527
  111OSM   H15B11454   3.795   4.461  11.139  0.2241 -0.5806 -1.4032
  111OSM   H15C11455   3.870   4.608  11.085 -1.0765  1.9227 -1.8638
  111OSM    C1411456   3.618   4.444  10.940  0.1073  0.0375  0.4308
  111OSM   H14A11457   3.529   4.460  10.881  0.1458 -2.4704 -0.4427
  111OSM   H14B11458   3.569   4.401  11.027 -0.9964 -0.9900 -0.6584
  111OSM   H14C11459   3.672   4.362  10.895 -0.5497 -1.6960  2.5753
  111OSM    C1311460   3.634   4.673  11.045  0.0225 -0.0104  0.2634
  111OSM   H13A11461   3.567   4.726  10.980  1.5670  0.7451 -0.7706
  111OSM   H13B11462   3.701   4.751  11.080  1.3660 -2.6066  4.2062
  111OSM   H13C11463   3.589   4.634  11.135 -2.7828  0.8628 -0.6726
  111OSM    C1211464   3.760   4.618  10.837  0.7244 -0.9095 -0.4554
  111OSM   H12A11465   3.789   4.532  10.780 -0.3445 -0.9079 -1.0334
  111OSM   H12B11466   3.840   4.689  10.853  1.3641 -1.4936 -1.0465
  111OSM    C1111467   3.651   4.694  10.754  0.8267 -0.3511 -0.1341
  111OSM   H11A11468   3.558   4.633  10.751 -0.4376  1.3203  1.9395
  111OSM   H11B11469   3.691   4.699  10.650 -1.2016 -3.6696 -1.2446
  111OSM      P11470   3.501   4.911  10.772  0.0815 -0.1058  0.0928
  111OSM    O1311471   3.386   4.827  10.818  0.5964  0.5022  1.0094
  111OSM    O1411472   3.504   5.049  10.826  0.5495  0.2154  0.3712
  111OSM    O1111473   3.504   4.917  10.614 -0.3249 -0.2119  0.0575
  111OSM    O1211474   3.639   4.830  10.799  0.1919 -0.0084 -0.2475
  111OSM    C1S11475   3.575   5.030  10.552  0.3310 -0.2664 -0.2999
  111OSM    H1S11476   3.684   5.022  10.575 -0.3729 -1.3405  3.2623
  111OSM    H1T11477   3.537   5.129  10.584 -1.2586 -0.0634 -2.5372
  111OSM     NF11478   3.669   5.116  10.336  0.5852 -0.0731  0.3902
  111OSM    HNF11479   3.630   5.189  10.280 -0.4309  0.4453  1.7111
  111OSM    C2S11480   3.575   5.021  10.396  0.0776  1.1346  0.1230
  111OSM    H2S11481   3.605   4.923  10.351 -0.5102  1.0382 -0.0724
  111OSM    C3S11482   3.424   5.037  10.351  0.1346  0.2503  0.3621
  111OSM    H3S11483   3.396   5.139  10.383 -0.0636  0.2414  0.2152
  111OSM     O311484   3.332   4.942  10.407  0.0449 -0.5288  0.0283
  111OSM    HO311485   3.388   4.896  10.470  0.7707  1.9401  1.3187
  111OSM    C4S11486   3.433   5.024  10.205 -0.4504 -0.0157 -0.1631
  111OSM    H4S11487   3.439   5.124  10.159 -2.1634  1.0243  1.7152
  111OSM    C5S11488   3.415   4.916  10.128 -0.2847 -0.3273  0.2281
  111OSM    H5S11489   3.378   4.822  10.171 -1.7115 -0.4517 -1.2087
  111OSM    C6S11490   3.431   4.922   9.975  0.4552  0.0063  0.3404
  111OSM    H6S11491   3.326   4.907   9.941 -0.7857  3.3331  2.2193
  111OSM    H6T11492   3.498   4.843   9.936  6.2770  2.5474  3.8485
  111OSM    C7S11493   3.466   5.058   9.904 -0.1435  0.3138  0.0110
  111OSM    H7S11494   3.550   5.113   9.952 -0.2725  2.4882 -2.0989
  111OSM    H7T11495   3.372   5.117   9.901  0.5273  1.3998 -3.3477
  111OSM    C8S11496   3.498   5.025   9.755  0.6027  0.5127  0.5895
  111OSM    H8S11497   3.421   4.954   9.718  2.6949 -1.0369 -1.0461
  111OSM    H8T11498   3.598   4.979   9.738 -1.1392 -3.0625 -1.0537
  111OSM    C9S11499   3.482   5.149   9.671 -0.4065 -0.1166  0.5153
  111OSM    H9S11500   3.569   5.217   9.677  1.1110 -1.5476 -2.7547
  111OSM    H9T11501   3.389   5.196   9.708 -0.2188  1.0401 -0.4370
  111OSM   C10S11502   3.469   5.121   9.528 -0.1868  1.0400  0.2144
  111OSM   H10S11503   3.452   5.219   9.477  0.7034  0.8092 -0.5424
  111OSM   H10T11504   3.389   5.048   9.501  2.2420 -0.8188 -2.5422
  111OSM   C11S11505   3.605   5.085   9.459 -0.1115  0.0452  0.3624
  111OSM   H11S11506   3.644   4.982   9.472 -0.2341  0.0694  0.9301
  111OSM   H11T11507   3.682   5.158   9.493 -2.1050  2.8482 -0.7818
  111OSM   C12S11508   3.601   5.094   9.299  0.1824  0.0336 -0.3712
  111OSM   H12S11509   3.698   5.062   9.255  0.7481 -0.5614  1.2355
  111OSM   H12T11510   3.581   5.200   9.276 -2.8396 -0.5586 -0.9117
  111OSM   C13S11511   3.499   4.997   9.235 -0.1955  0.7630  0.7559
  111OSM   H13S11512   3.396   5.036   9.251 -0.8400 -0.0554 -1.0098
  111OSM   H13T11513   3.501   4.895   9.280 -1.9559  0.7200  0.7919
  111OSM   C14S11514   3.508   5.005   9.081  0.6828  0.4197  0.5125
  111OSM   H14S11515   3.614   4.987   9.054  0.4927 -1.9151  1.1730
  111OSM   H14T11516   3.472   5.104   9.045  1.2236  0.3779 -0.1697
  111OSM   C15S11517   3.421   4.898   9.002  0.8318  0.0197 -0.0947
  111OSM   H15S11518   3.315   4.926   9.018  0.9007  0.1074  0.2083
  111OSM   H15T11519   3.437   4.802   9.055  1.6267  0.6886  0.9102
  111OSM   C16S11520   3.447   4.882   8.849 -0.0247 -0.6257  0.5303
  111OSM   H16S11521   3.554   4.857   8.831  0.6993  1.4848  1.5628
  111OSM   H16T11522   3.444   4.986   8.810 -2.1557 -0.4965  0.9483
  111OSM   C17S11523   3.340   4.792   8.783 -0.2253  0.2508 -0.2731
  111OSM   H17S11524   3.241   4.825   8.822  0.0012  0.6368 -0.0318
  111OSM   H17T11525   3.358   4.686   8.812  1.7223  0.7264  0.3574
  111OSM   C18S11526   3.322   4.803   8.625  0.3992  0.1273  0.3536
  111OSM   H18S11527   3.419   4.766   8.587 -0.3098 -0.2360 -1.2018
  111OSM   H18T11528   3.310   4.906   8.586 -1.9601 -0.6015 -1.0794
  111OSM   H18U11529   3.238   4.735   8.597  0.3470 -1.3952  3.7107
  111OSM    C1F11530   3.802   5.112  10.351 -0.2941 -0.6603  0.2799
  111OSM     OF11531   3.866   5.044  10.430  0.0513  0.0238 -0.7521
  111OSM    C2F11532   3.872   5.214  10.265  0.0636 -0.5507 -0.5977
  111OSM    H2F11533   3.875   5.310  10.320  0.8640 -0.6225 -0.5052
  111OSM    H2G11534   3.817   5.222  10.168  0.4680 -1.1950 -0.8926
  111OSM    C3F11535   4.022   5.174  10.242  0.3525 -0.3460 -0.1550
  111OSM    H3F11536   4.080   5.177  10.337 -0.6001  0.7134  0.4254
  111OSM    H3G11537   4.067   5.252  10.178  1.2147  0.9554  1.9500
  111OSM    C4F11538   4.051   5.038  10.189 -0.4763 -0.2552  0.0819
  111OSM    H4F11539   4.010   4.964  10.261  0.4393 -1.1536 -0.3070
  111OSM    H4G11540   4.161   5.023  10.187 -0.5932 -1.3930  0.9598
  111OSM    C5F11541   3.986   4.996  10.055 -0.0808  0.2395  0.1810
  111OSM    H5F11542   3.876   5.004  10.050  0.0373  2.6998  0.1091
  111OSM    H5G11543   4.013   4.892  10.028 -1.4978 -0.3251  0.8182
  111OSM    C6F11544   4.044   5.080   9.940 -0.7028  0.2057  0.4316
  111OSM    H6F11545   4.153   5.071   9.923 -0.7524  0.5137 -0.0701
  111OSM    H6G11546   4.035   5.182   9.984 -1.5152  0.2254  0.2393
  111OSM    C7F11547   3.968   5.065   9.811 -0.3416  0.4603  0.0893
  111OSM    H7F11548   3.870   5.113   9.830  0.2998  1.4554  0.9931
  111OSM    H7G11549   3.968   4.962   9.769  1.6757 -0.0996  1.3177
  111OSM    C8F11550   4.019   5.164   9.705 -0.1993  0.2512  0.5174
  111OSM    H8F11551   4.017   5.260   9.762 -0.6161  0.5876 -0.0587
  111OSM    H8G11552   3.942   5.170   9.626  0.8425 -1.4351 -0.6956
  111OSM    C9F11553   4.148   5.125   9.644 -0.3391  0.1935  0.2931
  111OSM    H9F11554   4.235   5.122   9.711  0.0206  0.0594 -0.1668
  111OSM   C10F11555   4.158   5.100   9.515  0.0763  0.3283  0.4044
  111OSM   H10F11556   4.259   5.090   9.472 -0.2395  1.0944 -0.5499
  111OSM   C11F11557   4.056   5.100   9.400 -0.1225  0.0869 -0.7833
  111OSM   H11F11558   4.103   5.150   9.312 -0.1532 -1.0470 -1.4613
  111OSM   H11G11559   3.958   5.150   9.414 -0.3597 -0.7838  0.9621
  111OSM   C12F11560   4.022   4.969   9.338 -0.1173 -0.7708 -0.0959
  111OSM   H12F11561   3.932   4.926   9.387 -0.4208  0.4319  0.4310
  111OSM   H12G11562   4.110   4.903   9.354 -0.0453  0.1049  4.6432
  111OSM   C13F11563   4.000   4.974   9.188 -0.5960  0.1651 -0.4548
  111OSM   H13F11564   4.094   4.991   9.132 -0.7995 -0.8917 -1.1567
  111OSM   H13G11565   3.928   5.056   9.167 -0.9501  0.0311  0.2032
  111OSM   C14F11566   3.939   4.848   9.142  0.4301 -0.8049 -0.1718
  111OSM   H14F11567   3.828   4.854   9.144  0.4413 -0.6939  0.4156
  111OSM   H14G11568   3.952   4.774   9.224  2.2192  0.6117  0.8998
  111OSM   C15F11569   3.999   4.785   9.014  0.0755 -0.0029 -0.1659
  111OSM   H15F11570   3.950   4.686   9.002 -1.0754  0.5087  0.2186
  111OSM   H15G11571   4.106   4.759   9.031  0.4911  0.5270 -1.7724
  111OSM   C16F11572   3.974   4.868   8.882 -0.0394  0.2138 -0.2835
  111OSM   H16F11573   4.047   4.831   8.808 -0.8977 -0.9059 -0.6080
  111OSM   H16G11574   3.988   4.976   8.902  0.5695 -0.1224  1.2424
  111OSM   C17F11575   3.838   4.836   8.820 -0.5728 -0.0063 -0.1938
  111OSM   H17F11576   3.753   4.876   8.880 -0.1040 -1.7611  1.7660
  111OSM   H17G11577   3.818   4.729   8.797 -2.5319  0.2728  0.0003
  111OSM   C18F11578   3.823   4.902   8.678  0.1456 -0.7649 -0.1337
  111OSM   H18F11579   3.848   5.010   8.682  0.1003 -0.6621 -1.9629
  111OSM   H18G11580   3.717   4.896   8.647 -0.0738  3.6146 -0.8141
  111OSM   H18H11581   3.889   4.849   8.606 -0.8348  0.8263 -2.2986
  112OSM      N11582   4.118   3.484  10.874  1.0163 -0.0175  0.5912
  112OSM    C1511583   4.253   3.519  10.910  0.4582  0.7020  0.2898
  112OSM   H15A11584   4.277   3.623  10.926  0.8091  0.4707  1.3459
  112OSM   H15B11585   4.321   3.481  10.835 -3.1855 -1.9681 -1.9733
  112OSM   H15C11586   4.285   3.476  11.004  2.1903 -1.5975 -1.2487
  112OSM    C1411587   4.032   3.536  10.985  0.0541  0.8223  0.4502
  112OSM   H14A11588   4.033   3.643  10.989  0.6271  0.8551 -0.2963
  112OSM   H14B11589   4.045   3.484  11.078  2.8313 -2.0193 -1.2940
  112OSM   H14C11590   3.931   3.514  10.953  0.6394 -0.0224 -0.9461
  112OSM    C1311591   4.069   3.559  10.751  0.8390 -0.4169 -0.1115
  112OSM   H13A11592   3.966   3.539  10.729  0.7883 -1.2419  0.8144
  112OSM   H13B11593   4.128   3.543  10.662  0.4070  0.6207 -0.6096
  112OSM   H13C11594   4.071   3.663  10.780  0.4323 -0.7216  1.0499
  112OSM    C1211595   4.100   3.338  10.855  0.1372 -0.0193  0.0514
  112OSM   H12A11596   3.998   3.303  10.855  1.0708 -3.0823  0.0778
  112OSM   H12B11597   4.148   3.293  10.941  1.1769 -2.0782 -1.5053
  112OSM    C1111598   4.178   3.258  10.742 -0.2380 -0.1478 -0.0326
  112OSM   H11A11599   4.160   3.304  10.642  1.5070  1.2983  0.2744
  112OSM   H11B11600   4.140   3.153  10.739  0.4169 -0.3878  0.0233
  112OSM      P11601   4.379   3.155  10.858  0.2237 -0.2625  0.4546
  112OSM    O1311602   4.500   3.212  10.922  0.0229 -0.2866  0.0239
  112OSM    O1411603   4.272   3.099  10.941  0.1795  0.7118 -0.0569
  112OSM    O1111604   4.426   3.041  10.761 -0.4725  0.0590  0.2537
  112OSM    O1211605   4.320   3.266  10.765  0.2420  0.0150  0.3305
  112OSM    C1S11606   4.461   3.070  10.628 -0.4409  0.7808  0.3789
  112OSM    H1S11607   4.506   3.171  10.623  1.6204  0.0046  1.6649
  112OSM    H1T11608   4.374   3.092  10.563  1.0162  3.1402 -0.9139
  112OSM     NF11609   4.594   3.019  10.420  0.1619 -0.3684 -0.2010
  112OSM    HNF11610   4.554   2.967  10.345  1.0551 -1.7263  0.2170
  112OSM    C2S11611   4.559   2.969  10.557  0.0697  1.7445  0.6413
  112OSM    H2S11612   4.649   2.976  10.622 -0.1771 -1.0887  1.4325
  112OSM    C3S11613   4.503   2.823  10.570  0.6456  0.3999 -0.0266
  112OSM    H3S11614   4.401   2.813  10.528  1.2971  0.7939 -1.8125
  112OSM     O311615   4.483   2.780  10.707  0.6126  0.1913 -0.2166
  112OSM    HO311616   4.479   2.862  10.757  0.7568 -0.8013  1.4897
  112OSM    C4S11617   4.587   2.720  10.490 -0.1595  0.1718 -0.4965
  112OSM    H4S11618   4.558   2.722  10.384 -0.0117  0.5855 -0.5312
  112OSM    C5S11619   4.668   2.627  10.541  0.3779  0.5821  0.1869
  112OSM    H5S11620   4.682   2.610  10.649 -1.8462 -1.7243  0.1989
  112OSM    C6S11621   4.741   2.526  10.464  0.2905 -1.1623 -0.4502
  112OSM    H6S11622   4.682   2.432  10.464 -0.6062 -0.6043 -0.6977
  112OSM    H6T11623   4.844   2.501  10.497  0.2099 -1.6585 -0.5679
  112OSM    C7S11624   4.745   2.565  10.311 -0.6340 -0.3311 -0.6329
  112OSM    H7S11625   4.819   2.647  10.296  3.1950 -2.7367  2.8044
  112OSM    H7T11626   4.647   2.592  10.267 -2.2148 -1.9060  1.6887
  112OSM    C8S11627   4.796   2.442  10.226  0.5554 -0.4963 -0.9029
  112OSM    H8S11628   4.722   2.360  10.233 -0.0127  0.0203 -0.6970
  112OSM    H8T11629   4.891   2.403  10.269  0.9057  0.9636 -0.2707
  112OSM    C9S11630   4.819   2.484  10.078 -0.3542 -0.2884 -0.3523
  112OSM    H9S11631   4.865   2.585  10.076 -0.0303 -0.4430 -0.8485
  112OSM    H9T11632   4.716   2.488  10.036 -1.2191 -0.3975  1.6457
  112OSM   C10S11633   4.902   2.378  10.003 -0.6275 -0.5652  0.5007
  112OSM   H10S11634   4.849   2.280  10.010 -1.6138  0.0569  3.0013
  112OSM   H10T11635   4.995   2.359  10.060 -0.3547  1.7471  0.8951
  112OSM   C11S11636   4.934   2.430   9.860 -0.2308  0.2685 -0.6249
  112OSM   H11S11637   4.982   2.352   9.798  1.1190 -1.3220  2.1976
  112OSM   H11T11638   5.002   2.518   9.861  1.8390 -1.2372  1.1268
  112OSM   C12S11639   4.799   2.459   9.785 -0.0427 -0.3095 -0.0870
  112OSM   H12S11640   4.751   2.553   9.817 -0.6440  0.3622 -2.7078
  112OSM   H12T11641   4.725   2.382   9.816  0.5777 -0.5305  0.8780
  112OSM   C13S11642   4.826   2.457   9.632 -0.2163 -0.0560  0.4015
  112OSM   H13S11643   4.844   2.351   9.604  0.4321 -0.5137  2.3838
  112OSM   H13T11644   4.918   2.514   9.608  0.6907 -1.2916  0.8406
  112OSM   C14S11645   4.706   2.517   9.551  0.3617  0.3470  0.1090
  112OSM   H14S11646   4.693   2.623   9.583 -1.3745 -0.3774  2.0044
  112OSM   H14T11647   4.625   2.452   9.589  1.6920  0.4033  3.3800
  112OSM   C15S11648   4.717   2.499   9.394  0.0463  0.6231 -0.3766
  112OSM   H15S11649   4.815   2.451   9.373  0.2083  1.0545 -0.6169
  112OSM   H15T11650   4.722   2.597   9.341  0.4763  0.4675 -0.6277
  112OSM   C16S11651   4.603   2.408   9.337 -0.3243 -0.6520 -0.7011
  112OSM   H16S11652   4.620   2.416   9.227  0.0349  1.9822 -0.5233
  112OSM   H16T11653   4.504   2.451   9.363 -0.0076  0.5320 -1.3621
  112OSM   C17S11654   4.612   2.266   9.381 -0.3969  0.3795 -0.1888
  112OSM   H17S11655   4.577   2.259   9.487  0.2891 -1.0822 -0.0352
  112OSM   H17T11656   4.719   2.235   9.381 -0.2726  0.7601 -1.8280
  112OSM   C18S11657   4.527   2.162   9.300 -0.8192  0.6690 -0.2607
  112OSM   H18S11658   4.551   2.060   9.335  0.9149  2.0636  3.1461
  112OSM   H18T11659   4.550   2.174   9.192 -2.5770  1.0438 -0.6276
  112OSM   H18U11660   4.418   2.183   9.311 -0.6957  0.8299  0.7496
  112OSM    C1F11661   4.672   3.122  10.405 -0.2268 -0.3853  0.4551
  112OSM     OF11662   4.727   3.171  10.500 -0.7812 -0.1939 -0.2240
  112OSM    C2F11663   4.700   3.160  10.264 -0.1526  0.0156  0.0840
  112OSM    H2F11664   4.699   3.066  10.204  0.4932  0.4802 -0.6888
  112OSM    H2G11665   4.804   3.197  10.273 -0.6346  1.0704  1.4953
  112OSM    C3F11666   4.584   3.253  10.217 -0.2667 -0.2917  0.4976
  112OSM    H3F11667   4.589   3.344  10.281  0.9002  0.3195 -0.4271
  112OSM    H3G11668   4.486   3.206  10.236 -0.6452 -0.0190 -0.7348
  112OSM    C4F11669   4.605   3.289  10.072 -0.0298 -0.6552  0.5649
  112OSM    H4F11670   4.512   3.346  10.051  1.3149  2.2963  1.9017
  112OSM    H4G11671   4.614   3.195  10.014 -0.8128 -0.9778  0.9430
  112OSM    C5F11672   4.726   3.377  10.044  0.4968 -0.1100  0.0807
  112OSM    H5F11673   4.815   3.313  10.057  0.9362  0.2521 -1.0484
  112OSM    H5G11674   4.748   3.466  10.107 -0.6423  0.1740  0.1075
  112OSM    C6F11675   4.726   3.433   9.902  0.2815 -0.4216  0.6653
  112OSM    H6F11676   4.826   3.477   9.883  0.0550  0.3005  1.0847
  112OSM    H6G11677   4.660   3.522   9.891  3.0785  1.5281 -1.7298
  112OSM    C7F11678   4.695   3.335   9.792  0.1020  0.2050  0.4765
  112OSM    H7F11679   4.589   3.302   9.786 -0.5668  2.0516  1.4309
  112OSM    H7G11680   4.748   3.240   9.815 -1.7251 -1.1425 -0.6549
  112OSM    C8F11681   4.740   3.378   9.659 -0.1786  0.0358  0.6256
  112OSM    H8F11682   4.763   3.281   9.610 -1.2580 -0.1771  0.5093
  112OSM    H8G11683   4.828   3.445   9.646 -0.4249 -0.0828 -2.3899
  112OSM    C9F11684   4.633   3.454   9.582  0.1950  0.4561 -0.0373
  112OSM    H9F11685   4.567   3.514   9.645 -0.2547  0.0841 -0.1413
  112OSM   C10F11686   4.602   3.434   9.451 -0.2577  0.1504 -0.5160
  112OSM   H10F11687   4.533   3.503   9.400  0.1176  1.4766  0.7424
  112OSM   C11F11688   4.685   3.348   9.354  0.2214 -0.2938  0.6029
  112OSM   H11F11689   4.619   3.310   9.272 -0.4355 -1.2811  1.5641
  112OSM   H11G11690   4.711   3.254   9.407  0.6913  0.1173  1.1014
  112OSM   C12F11691   4.801   3.421   9.288 -0.4714  0.4806  0.5502
  112OSM   H12F11692   4.873   3.447   9.369 -0.4402  1.5512  0.1989
  112OSM   H12G11693   4.769   3.509   9.229  0.2062 -0.8816 -1.9690
  112OSM   C13F11694   4.870   3.320   9.184 -0.3795 -0.8005  0.3759
  112OSM   H13F11695   4.882   3.219   9.227  0.9955 -0.4822  0.7922
  112OSM   H13G11696   4.972   3.362   9.169 -1.4945  1.5943 -1.1059
  112OSM   C14F11697   4.794   3.314   9.049 -0.2331 -0.0760 -0.7624
  112OSM   H14F11698   4.796   3.418   9.009  3.6681  0.1215 -0.4565
  112OSM   H14G11699   4.688   3.288   9.066 -0.0221 -0.3399  0.2345
  112OSM   C15F11700   4.861   3.208   8.958 -0.1316  0.0915 -0.4091
  112OSM   H15F11701   4.848   3.111   9.010  0.9546 -0.3700 -0.9664
  112OSM   H15G11702   4.970   3.220   8.944 -0.2601  0.0064 -1.6065
  112OSM   C16F11703   4.781   3.219   8.825 -0.0011 -0.4873 -0.2601
  112OSM   H16F11704   4.749   3.325   8.813  1.0718 -0.1759 -0.4291
  112OSM   H16G11705   4.691   3.154   8.836 -2.1535  2.2621 -0.3685
  112OSM   C17F11706   4.865   3.192   8.703 -0.7124 -0.3881  0.0900
  112OSM   H17F11707   4.800   3.207   8.614 -3.3530 -0.0076  1.9796
  112OSM   H17G11708   4.891   3.084   8.713 -1.4692 -0.4554  1.4522
  112OSM   C18F11709   4.996   3.272   8.678  0.1167 -0.2781 -0.9201
  112OSM   H18F11710   4.979   3.380   8.661 -3.0480 -0.4506  0.4230
  112OSM   H18G11711   5.034   3.224   8.585 -0.2755  0.5309 -1.5058
  112OSM   H18H11712   5.073   3.253   8.756  0.3120  0.3128 -0.9658
  113OSM      N11713   1.898   1.998  11.404  0.6077  0.3107  0.0366
  113OSM    C1511714   2.035   1.978  11.456 -0.5291 -0.5079  0.3448
  113OSM   H15A11715   2.046   1.989  11.562  0.1581  3.4428  0.0281
  113OSM   H15B11716   2.093   2.055  11.406 -0.6817 -1.1375 -0.8362
  113OSM   H15C11717   2.073   1.880  11.433 -2.2416 -1.2212  0.4253
  113OSM    C1411718   1.824   1.885  11.444  0.8328  0.7833  0.1195
  113OSM   H14A11719   1.806   1.894  11.550 -1.8516 -0.4367 -0.1627
  113OSM   H14B11720   1.871   1.791  11.421 -2.0509 -0.7751  0.1027
  113OSM   H14C11721   1.736   1.892  11.382 -0.2555  0.3893  1.5516
  113OSM    C1311722   1.835   2.117  11.459  0.2459  0.1936 -0.2688
  113OSM   H13A11723   1.729   2.120  11.437  0.2308 -3.0897 -1.1371
  113OSM   H13B11724   1.873   2.205  11.409  1.3636 -0.6049 -0.8681
  113OSM   H13C11725   1.843   2.130  11.566  0.4305 -3.6547  0.3077
  113OSM    C1211726   1.891   2.014  11.255 -0.2568  0.1740  0.3330
  113OSM   H12A11727   1.951   1.937  11.209  0.1964  1.3078 -1.0726
  113OSM   H12B11728   1.945   2.106  11.235  1.8765 -1.1862 -0.4971
  113OSM    C1111729   1.752   2.033  11.182  0.3607 -0.4324 -0.0567
  113OSM   H11A11730   1.766   2.057  11.075 -0.7996 -0.1247 -0.1512
  113OSM   H11B11731   1.711   2.128  11.222  1.3192 -0.7298  1.7847
  113OSM      P11732   1.673   1.792  11.107 -0.3592  0.5707 -0.0016
  113OSM    O1311733   1.787   1.795  11.015 -0.0320  0.2343 -0.3187
  113OSM    O1411734   1.658   1.679  11.199 -0.0481 -0.0136  0.1055
  113OSM    O1111735   1.545   1.827  11.027 -0.3220 -0.1374 -0.3171
  113OSM    O1211736   1.668   1.918  11.209 -0.2023  0.0337 -0.0134
  113OSM    C1S11737   1.537   1.943  10.932 -0.2275  0.7194  0.0626
  113OSM    H1S11738   1.637   1.989  10.917 -0.4342  1.0507 -0.3528
  113OSM    H1T11739   1.468   2.022  10.970 -1.0482 -1.1375  2.6538
  113OSM     NF11740   1.495   2.001  10.693 -0.1187 -0.1055  0.3676
  113OSM    HNF11741   1.414   2.058  10.676  0.8553  0.9604 -0.8978
  113OSM    C2S11742   1.480   1.896  10.794  0.3086 -0.6954 -0.1939
  113OSM    H2S11743   1.540   1.811  10.756 -0.2413 -1.9103  1.5373
  113OSM    C3S11744   1.337   1.835  10.811 -0.4350  0.3547 -0.1680
  113OSM    H3S11745   1.262   1.916  10.820  0.3530  1.1248 -0.4179
  113OSM     O311746   1.324   1.759  10.933  0.0645 -0.2432  0.0687
  113OSM    HO311747   1.414   1.776  10.962  0.6906  1.0771 -2.4149
  113OSM    C4S11748   1.283   1.751  10.695 -0.8541 -0.0978  0.1050
  113OSM    H4S11749   1.321   1.648  10.684  0.0500  0.3556 -1.3321
  113OSM    C5S11750   1.202   1.810  10.609  0.6071 -0.2368 -0.2697
  113OSM    H5S11751   1.167   1.913  10.626  1.3490  0.1962 -1.2747
  113OSM    C6S11752   1.142   1.738  10.496 -0.2579  0.2543  0.3064
  113OSM    H6S11753   1.033   1.745  10.476 -0.6019  0.9941  2.2326
  113OSM    H6T11754   1.154   1.628  10.506 -0.5846  0.1657 -0.2190
  113OSM    C7S11755   1.213   1.774  10.359 -0.1875 -0.5058 -0.2238
  113OSM    H7S11756   1.180   1.701  10.282  0.3270 -0.8564 -0.1192
  113OSM    H7T11757   1.323   1.759  10.370  0.1695  0.5538 -1.9597
  113OSM    C8S11758   1.180   1.910  10.289 -0.0101  0.1171 -0.1480
  113OSM    H8S11759   1.205   1.971  10.379 -0.2434 -2.0762  1.4865
  113OSM    H8T11760   1.071   1.903  10.268 -0.0323 -1.4325  0.3532
  113OSM    C9S11761   1.247   1.935  10.149 -0.0614  0.0435 -0.3109
  113OSM    H9S11762   1.187   2.008  10.092  1.1372  1.3280  0.0161
  113OSM    H9T11763   1.240   1.843  10.087  0.2162  0.8443 -1.5395
  113OSM   C10S11764   1.391   1.972  10.164  0.1292  0.1251 -0.0450
  113OSM   H10S11765   1.448   1.876  10.157  0.6542  0.5137 -1.4909
  113OSM   H10T11766   1.404   2.024  10.261  0.1481  0.9365 -0.4730
  113OSM   C11S11767   1.435   2.067  10.048 -0.5784 -1.2251  0.0937
  113OSM   H11S11768   1.529   2.092  10.102 -1.7624  0.5590  1.4108
  113OSM   H11T11769   1.369   2.156  10.045  1.3249  0.2683  0.2052
  113OSM   C12S11770   1.463   2.002   9.917  0.0896  0.1190 -0.1248
  113OSM   H12S11771   1.360   1.975   9.886  0.7122  0.3502 -2.6983
  113OSM   H12T11772   1.517   1.905   9.918  1.1692  0.6951  1.7167
  113OSM   C13S11773   1.533   2.090   9.812  0.4983  0.4359  0.2174
  113OSM   H13S11774   1.637   2.110   9.845  0.5476  0.1834  0.2193
  113OSM   H13T11775   1.488   2.191   9.818  1.0804  0.6345  1.4990
  113OSM   C14S11776   1.546   2.026   9.674  0.2166  0.8442  0.1247
  113OSM   H14S11777   1.440   2.010   9.646  0.9048 -0.5931 -1.8900
  113OSM   H14T11778   1.588   1.924   9.689  0.1884  1.0639  1.8866
  113OSM   C15S11779   1.615   2.107   9.562 -0.2576 -0.2174  0.3595
  113OSM   H15S11780   1.724   2.102   9.580 -0.1674 -2.2054 -0.4061
  113OSM   H15T11781   1.583   2.213   9.554 -0.6728 -0.3505  0.2151
  113OSM   C16S11782   1.604   2.043   9.426  0.1713  0.6570  0.1807
  113OSM   H16S11783   1.494   2.034   9.411  0.2364  0.5860 -0.2582
  113OSM   H16T11784   1.642   1.938   9.427  3.2046  1.6160 -1.9632
  113OSM   C17S11785   1.672   2.128   9.310  0.1604  1.0408 -0.8968
  113OSM   H17S11786   1.767   2.165   9.354 -0.3915  0.0655  1.2613
  113OSM   H17T11787   1.599   2.210   9.293 -0.3502  0.3717 -2.0284
  113OSM   C18S11788   1.689   2.054   9.175  0.0110 -0.0140 -0.1652
  113OSM   H18S11789   1.745   1.959   9.191  1.9216  1.0690 -0.1224
  113OSM   H18T11790   1.754   2.102   9.099  1.0699  0.8975  1.2532
  113OSM   H18U11791   1.592   2.016   9.136 -1.2508  2.0714  0.7945
  113OSM    C1F11792   1.614   2.037  10.645 -0.1595  0.1840  0.6121
  113OSM     OF11793   1.719   1.978  10.679  0.5122 -0.1992  0.2813
  113OSM    C2F11794   1.609   2.148  10.541  0.4071  0.8202  0.2975
  113OSM    H2F11795   1.614   2.240  10.604 -1.9412  0.6263  0.8641
  113OSM    H2G11796   1.509   2.152  10.492  0.0611  1.5074  1.0241
  113OSM    C3F11797   1.725   2.149  10.438  0.5852  0.1629 -0.2545
  113OSM    H3F11798   1.721   2.058  10.374  2.5000  0.0475 -0.2592
  113OSM    H3G11799   1.825   2.156  10.484  2.0665  3.2181 -3.4462
  113OSM    C4F11800   1.715   2.259  10.341  0.5374 -0.1510  0.1444
  113OSM    H4F11801   1.720   2.358  10.393  2.2469  0.2174 -0.6303
  113OSM    H4G11802   1.615   2.260  10.293  0.3938  3.0985  0.2745
  113OSM    C5F11803   1.821   2.250  10.233 -0.0465  0.3851  0.2141
  113OSM    H5F11804   1.802   2.147  10.195 -0.6418  0.1104  1.2274
  113OSM    H5G11805   1.919   2.251  10.284  0.5140 -2.1621 -0.6412
  113OSM    C6F11806   1.811   2.364  10.138 -0.2038 -0.2132  0.3783
  113OSM    H6F11807   1.830   2.462  10.187  0.8315 -0.1406 -0.1151
  113OSM    H6G11808   1.705   2.381  10.111 -0.4817  0.1820  1.6616
  113OSM    C7F11809   1.913   2.357  10.021 -0.8775  0.1326 -0.5014
  113OSM    H7F11810   1.897   2.253   9.983 -0.1150 -0.0552 -0.3274
  113OSM    H7G11811   2.017   2.365  10.059 -0.5106 -1.2338 -1.1268
  113OSM    C8F11812   1.889   2.461   9.909 -0.2203  0.3293  0.2543
  113OSM    H8F11813   1.983   2.484   9.855  1.5665 -1.6943  2.2904
  113OSM    H8G11814   1.833   2.542   9.962 -1.1825 -0.0618 -0.1424
  113OSM    C9F11815   1.786   2.401   9.805  0.7274 -0.0457 -0.0961
  113OSM    H9F11816   1.707   2.333   9.840  0.5970  0.1782  0.0478
  113OSM   C10F11817   1.777   2.411   9.671 -0.4604 -0.3221 -0.0144
  113OSM   H10F11818   1.690   2.375   9.613  0.0845 -0.1950 -0.9420
  113OSM   C11F11819   1.865   2.493   9.590 -0.0353  0.3510  0.4469
  113OSM   H11F11820   1.952   2.537   9.643  0.8754  3.2955 -3.0643
  113OSM   H11G11821   1.801   2.578   9.558 -0.7274 -0.3861 -0.1808
  113OSM   C12F11822   1.915   2.421   9.459 -0.6106  0.1511  0.3062
  113OSM   H12F11823   1.823   2.368   9.425  0.5882 -1.0680 -1.2070
  113OSM   H12G11824   1.994   2.344   9.471 -1.7613 -1.6090 -2.3283
  113OSM   C13F11825   1.960   2.508   9.341 -0.5612  0.4560 -0.0821
  113OSM   H13F11826   2.061   2.549   9.364 -0.9189  2.2135 -1.3763
  113OSM   H13G11827   1.885   2.582   9.304 -1.0939  0.2565  0.5899
  113OSM   C14F11828   1.984   2.410   9.219  0.7009 -0.0241 -0.1359
  113OSM   H14F11829   1.885   2.361   9.207  0.4903  0.5045 -0.6155
  113OSM   H14G11830   2.058   2.338   9.259 -0.0009  0.5766  2.3995
  113OSM   C15F11831   2.035   2.481   9.092 -0.1709  0.0742  0.7190
  113OSM   H15F11832   2.140   2.513   9.106 -0.1940  0.2297  0.5380
  113OSM   H15G11833   1.992   2.582   9.075 -0.5504 -0.2336 -0.2357
  113OSM   C16F11834   2.036   2.401   8.956 -0.0575 -1.0269  0.2626
  113OSM   H16F11835   2.081   2.469   8.880 -1.6372  1.4265  1.4220
  113OSM   H16G11836   1.935   2.375   8.917 -0.7313  1.4062  0.2636
  113OSM   C17F11837   2.108   2.270   8.976  0.0061  0.0438 -0.4327
  113OSM   H17F11838   2.067   2.212   9.061 -0.8532 -0.6191 -1.2691
  113OSM   H17G11839   2.214   2.302   8.987 -0.2740  1.4341 -1.4904
  113OSM   C18F11840   2.102   2.186   8.836 -0.3052 -0.2036 -0.2298
  113OSM   H18F11841   1.995   2.160   8.817 -0.1949  0.0803 -1.2981
  113OSM   H18G11842   2.177   2.105   8.841  1.3683  1.3750  2.0895
  113OSM   H18H11843   2.151   2.252   8.761  3.1606  0.1233  2.0936
  114OSM      N11844   4.813   2.476  10.942 -0.2148  0.2701  0.0202
  114OSM    C1511845   4.930   2.437  11.031 -0.0276  0.4821 -0.4131
  114OSM   H15A11846   4.901   2.456  11.133 -1.7819 -0.5650 -0.6891
  114OSM   H15B11847   5.024   2.483  11.003  1.8178 -0.6196  3.2484
  114OSM   H15C11848   4.939   2.329  11.027 -0.2863  0.5055 -3.0522
  114OSM    C1411849   4.837   2.435  10.804  0.0182  0.3159 -0.8698
  114OSM   H14A11850   4.746   2.443  10.746  0.2305 -1.3032 -1.4799
  114OSM   H14B11851   4.854   2.328  10.802 -0.3183  0.1277  1.8846
  114OSM   H14C11852   4.924   2.480  10.760 -0.0465  1.2643 -0.0829
  114OSM    C1311853   4.686   2.411  10.991 -0.1161 -0.3164  0.4856
  114OSM   H13A11854   4.597   2.435  10.935 -0.7768  0.4534  1.8212
  114OSM   H13B11855   4.665   2.448  11.091 -0.5212  2.1388 -0.4586
  114OSM   H13C11856   4.686   2.303  10.986 -0.0735 -0.2848 -0.2791
  114OSM    C1211857   4.783   2.627  10.944 -0.2890  0.2391 -0.6643
  114OSM   H12A11858   4.773   2.649  11.050  0.6794 -2.1263 -0.0029
  114OSM   H12B11859   4.688   2.652  10.899 -0.3726  3.3586  0.9832
  114OSM    C1111860   4.892   2.714  10.885 -0.9877 -0.5829  0.0504
  114OSM   H11A11861   4.846   2.811  10.855 -0.6376 -1.0161 -2.0366
  114OSM   H11B11862   4.922   2.664  10.791  0.1499  0.9303 -0.4403
  114OSM      P11863   5.148   2.721  10.935 -0.1387 -0.0801  0.2325
  114OSM    O1311864   5.222   2.821  11.013 -0.2962 -0.5065  0.1619
  114OSM    O1411865   5.188   2.585  10.932  0.0512  0.6162  0.2015
  114OSM    O1111866   5.162   2.776  10.790  0.2964  0.1163 -0.3376
  114OSM    O1211867   4.997   2.735  10.976  0.0032 -0.3724  0.3982
  114OSM    C1S11868   5.215   2.708  10.678  0.5454 -0.1808  0.3415
  114OSM    H1S11869   5.228   2.598  10.689  0.8714 -0.5761 -3.0708
  114OSM    H1T11870   5.317   2.747  10.656  0.3699 -1.0631 -2.4200
  114OSM     NF11871   5.170   2.617  10.456  0.6470  0.4290 -0.1106
  114OSM    HNF11872   5.243   2.652  10.398  0.9111  0.7905  0.4307
  114OSM    C2S11873   5.118   2.712  10.554  0.3910 -1.6545 -0.1666
  114OSM    H2S11874   5.020   2.673  10.589 -0.3625 -0.7617 -1.2206
  114OSM    C3S11875   5.099   2.855  10.501 -0.3644 -0.2647  0.0430
  114OSM    H3S11876   5.192   2.893  10.454 -1.9391  1.9599 -1.4656
  114OSM     O311877   5.064   2.944  10.606 -0.0186 -0.2529  0.2400
  114OSM    HO311878   5.056   2.880  10.678  2.1099 -2.0395 -1.0157
  114OSM    C4S11879   4.999   2.859  10.398 -0.0342 -0.2024  0.3034
  114OSM    H4S11880   4.891   2.854  10.420 -0.2350  1.8708  0.0185
  114OSM    C5S11881   5.032   2.875  10.270  0.6673 -0.6851  0.0235
  114OSM    H5S11882   5.137   2.902  10.253  1.2395 -2.2429  0.8636
  114OSM    C6S11883   4.938   2.885  10.152 -0.1610  0.4225 -0.2461
  114OSM    H6S11884   4.892   2.986  10.158  0.1116  0.4825  1.0493
  114OSM    H6T11885   4.863   2.803  10.160  0.1817  0.1034 -0.3172
  114OSM    C7S11886   5.001   2.876  10.015 -1.2012  0.5782 -0.1683
  114OSM    H7S11887   5.058   2.780  10.017 -0.7903  0.7993 -0.7880
  114OSM    H7T11888   5.081   2.953  10.003 -0.0065 -0.4745  0.7221
  114OSM    C8S11889   4.890   2.885   9.910 -0.1325  1.0132 -0.4048
  114OSM    H8S11890   4.826   2.973   9.934  0.2841  1.4412 -0.8293
  114OSM    H8T11891   4.821   2.799   9.922  1.5931 -0.2435  0.8324
  114OSM    C9S11892   4.941   2.886   9.764  0.2298  0.4784 -0.1244
  114OSM    H9S11893   4.972   2.781   9.741  0.1448  0.5935 -0.7713
  114OSM    H9T11894   5.028   2.952   9.744  0.5415 -0.6295 -3.0138
  114OSM   C10S11895   4.835   2.917   9.659  0.6023 -0.4219  0.0972
  114OSM   H10S11896   4.772   3.001   9.695  0.4291 -0.1080 -0.8988
  114OSM   H10T11897   4.773   2.826   9.649  0.7331 -0.4290 -0.7675
  114OSM   C11S11898   4.880   2.934   9.508 -0.5877  0.8672  0.4530
  114OSM   H11S11899   4.940   3.027   9.498 -0.8900  0.8028 -3.1253
  114OSM   H11T11900   4.787   2.958   9.452 -0.4590  1.6328  0.5507
  114OSM   C12S11901   4.930   2.812   9.437 -0.4732  0.0587  0.5735
  114OSM   H12S11902   4.877   2.720   9.467 -1.6564  0.9618  1.3656
  114OSM   H12T11903   5.035   2.790   9.464 -1.0573 -6.2605 -0.8133
  114OSM   C13S11904   4.938   2.823   9.284 -0.1279 -0.0066 -0.2257
  114OSM   H13S11905   4.998   2.910   9.250  0.0169  0.5141  1.2761
  114OSM   H13T11906   4.836   2.855   9.255  0.5169  0.7495 -1.7957
  114OSM   C14S11907   4.991   2.704   9.210  0.5778  0.8440  0.1561
  114OSM   H14S11908   4.910   2.629   9.196  2.7298 -1.6912  0.5755
  114OSM   H14T11909   5.062   2.656   9.281  1.0254 -1.5734 -1.7833
  114OSM   C15S11910   5.066   2.739   9.078 -0.2559  0.4127 -0.0135
  114OSM   H15S11911   5.137   2.658   9.051  0.8270  1.4825 -0.5036
  114OSM   H15T11912   5.132   2.827   9.098 -0.9523  0.3625  3.0245
  114OSM   C16S11913   4.972   2.786   8.964  0.0728  0.3114 -0.2310
  114OSM   H16S11914   5.035   2.847   8.897 -0.8331 -0.8291 -2.1991
  114OSM   H16T11915   4.884   2.845   8.997 -0.8532 -1.6023  0.9093
  114OSM   C17S11916   4.906   2.673   8.880  0.2260 -1.1041  0.6260
  114OSM   H17S11917   4.841   2.609   8.944 -2.2418  0.5079 -0.1379
  114OSM   H17T11918   4.992   2.613   8.841  0.6094  0.8362 -1.7342
  114OSM   C18S11919   4.834   2.714   8.757  0.1993 -0.1534  0.0313
  114OSM   H18S11920   4.725   2.722   8.777 -0.1732 -1.6280 -1.2243
  114OSM   H18T11921   4.854   2.656   8.665 -0.1516 -1.1523  0.5707
  114OSM   H18U11922   4.870   2.815   8.727 -1.5991  0.0692 -1.6189
  114OSM    C1F11923   5.150   2.480  10.478 -0.4527  0.3500  1.0483
  114OSM     OF11924   5.063   2.439  10.554 -0.3596  0.4051  0.3853
  114OSM    C2F11925   5.233   2.391  10.398 -0.8652 -0.5962  0.1238
  114OSM    H2F11926   5.240   2.290  10.444 -0.3652 -0.7755 -0.3415
  114OSM    H2G11927   5.337   2.431  10.394 -0.5064 -1.2550  1.7520
  114OSM    C3F11928   5.196   2.381  10.249 -0.2605 -0.0651 -0.0762
  114OSM    H3F11929   5.176   2.482  10.207  0.1342  1.2654  2.7253
  114OSM    H3G11930   5.103   2.322  10.235  0.9733 -2.6152  1.6097
  114OSM    C4F11931   5.309   2.318  10.160  0.3150 -0.1667 -0.0686
  114OSM    H4F11932   5.327   2.214  10.195  1.6747  0.1019  0.0759
  114OSM    H4G11933   5.404   2.374  10.169 -0.4298  0.8975  1.7567
  114OSM    C5F11934   5.260   2.321  10.011 -0.0873  0.6296  0.2871
  114OSM    H5F11935   5.241   2.422   9.968 -0.5793 -0.0142 -1.0402
  114OSM    H5G11936   5.165   2.263  10.013 -0.4490  1.2143  0.3786
  114OSM    C6F11937   5.369   2.260   9.918 -0.2363 -0.1483 -0.6617
  114OSM    H6F11938   5.389   2.157   9.955  1.1517  0.3139 -0.0793
  114OSM    H6G11939   5.464   2.317   9.917 -0.0112 -0.5125 -0.0933
  114OSM    C7F11940   5.327   2.247   9.772 -0.7270 -0.6053  0.0117
  114OSM    H7F11941   5.242   2.176   9.759 -0.3254 -0.8409 -1.4693
  114OSM    H7G11942   5.413   2.203   9.718  0.6333  0.9156  0.8545
  114OSM    C8F11943   5.295   2.382   9.700  0.1418 -0.0262 -0.3304
  114OSM    H8F11944   5.360   2.464   9.738 -2.0310  1.3909  0.5540
  114OSM    H8G11945   5.190   2.413   9.717  0.1490  0.7220 -1.5113
  114OSM    C9F11946   5.331   2.382   9.555 -0.2646 -0.4943 -0.1965
  114OSM    H9F11947   5.439   2.379   9.533 -0.1578 -0.2919  0.2838
  114OSM   C10F11948   5.242   2.365   9.454  0.0033  0.4757 -0.5997
  114OSM   H10F11949   5.275   2.366   9.349 -1.6784  1.1254 -1.1601
  114OSM   C11F11950   5.096   2.351   9.451 -0.2155 -0.2068  0.2789
  114OSM   H11F11951   5.063   2.452   9.421 -0.2243  0.1253  1.3753
  114OSM   H11G11952   5.042   2.315   9.541 -1.6541 -0.9548 -0.8427
  114OSM   C12F11953   5.066   2.249   9.339 -0.3540  0.1037  0.0977
  114OSM   H12F11954   4.970   2.198   9.364  0.1977 -0.7548  0.5198
  114OSM   H12G11955   5.142   2.169   9.326 -0.6695  0.0880 -1.9338
  114OSM   C13F11956   5.018   2.311   9.209 -0.0330  0.0915  0.4860
  114OSM   H13F11957   5.087   2.392   9.177  0.6203 -0.9637 -0.8959
  114OSM   H13G11958   4.916   2.354   9.212  1.2081  3.6514 -1.7090
  114OSM   C14F11959   5.004   2.218   9.088 -0.3588  0.4240  0.4150
  114OSM   H14F11960   4.939   2.133   9.119 -1.2142  1.9342  3.0694
  114OSM   H14G11961   5.100   2.167   9.066 -1.1857 -1.2875  0.5851
  114OSM   C15F11962   4.932   2.267   8.962  0.2539 -0.2261 -0.2780
  114OSM   H15F11963   4.962   2.209   8.872  0.5340  0.5210 -0.6742
  114OSM   H15G11964   4.961   2.373   8.945  0.1732  0.1821  1.7674
  114OSM   C16F11965   4.778   2.268   8.984 -0.3797 -0.0292  0.2372
  114OSM   H16F11966   4.750   2.361   9.036  3.3064  0.4786  1.5729
  114OSM   H16G11967   4.750   2.174   9.037 -1.2652 -1.4260 -2.4638
  114OSM   C17F11968   4.700   2.258   8.848 -0.9246 -0.5385 -0.2843
  114OSM   H17F11969   4.714   2.162   8.793 -1.5297 -1.1141  0.5450
  114OSM   H17G11970   4.727   2.341   8.779 -1.6831 -0.0484  0.0016
  114OSM   C18F11971   4.550   2.250   8.876  0.4752 -0.6155  0.6548
  114OSM   H18F11972   4.533   2.200   8.974  2.8232 -0.6746  1.0892
  114OSM   H18G11973   4.495   2.194   8.798  0.0204 -0.0934  0.5936
  114OSM   H18H11974   4.506   2.351   8.889  2.0107  0.0516  0.9236
  115OSM      N11975   2.311   5.428  11.054  0.1217  0.3814 -0.3372
  115OSM    C1511976   2.209   5.442  11.162 -0.2019 -0.0978 -0.0126
  115OSM   H15A11977   2.240   5.512  11.238 -1.1725 -1.1337  1.3683
  115OSM   H15B11978   2.174   5.350  11.206 -0.2827  1.3521  3.1644
  115OSM   H15C11979   2.116   5.489  11.135 -0.8802 -1.4964 -0.1711
  115OSM    C1411980   2.361   5.562  11.021  0.4355 -0.4745  0.4113
  115OSM   H14A11981   2.398   5.597  11.116 -2.4693  1.4702  0.9711
  115OSM   H14B11982   2.280   5.631  11.002  0.5806 -0.7050 -1.1297
  115OSM   H14C11983   2.432   5.569  10.940 -0.4346 -2.7789 -0.6499
  115OSM    C1311984   2.413   5.349  11.120  0.4082  0.5677  0.8994
  115OSM   H13A11985   2.371   5.253  11.143 -1.4896  0.9960 -0.5582
  115OSM   H13B11986   2.445   5.382  11.218  1.5435 -0.3838  0.8645
  115OSM   H13C11987   2.498   5.328  11.057  1.2515 -1.3839  2.5620
  115OSM    C1211988   2.246   5.348  10.943  0.0838 -0.0856 -0.6411
  115OSM   H12A11989   2.207   5.255  10.982  2.4240 -0.0476  2.1282
  115OSM   H12B11990   2.324   5.309  10.879  0.1291  0.4839 -0.9377
  115OSM    C1111991   2.156   5.421  10.849  0.5191 -0.6527 -0.3118
  115OSM   H11A11992   2.135   5.345  10.770  2.5810 -1.2323 -0.3542
  115OSM   H11B11993   2.206   5.507  10.800 -0.0055 -0.4268 -0.4590
  115OSM      P11994   1.904   5.425  10.898 -0.2874  0.1052  0.0830
  115OSM    O1311995   1.889   5.292  10.959  0.3428  1.0046  1.3090
  115OSM    O1411996   1.817   5.536  10.950 -0.2879  0.4421 -0.2963
  115OSM    O1111997   1.902   5.424  10.743 -0.4541 -0.1107  0.4223
  115OSM    O1211998   2.049   5.472  10.924 -0.7097 -0.1976 -0.6545
  115OSM    C1S11999   1.940   5.541  10.667 -1.1128 -0.4825  0.4170
  115OSM    H1S12000   2.030   5.593  10.707  0.3795 -0.7406 -2.3571
  115OSM    H1T12001   1.853   5.609  10.657  0.5166  1.9002  1.4960
  115OSM     NF12002   2.032   5.629  10.462  0.0907 -0.5385  0.1423
  115OSM    HNF12003   1.980   5.691  10.404 -0.2771  0.1878  1.2043
  115OSM    C2S12004   1.965   5.514  10.517  0.0137  0.0021  0.2646
  115OSM    H2S12005   2.027   5.423  10.500  2.5889  1.4700  1.1428
  115OSM    C3S12006   1.824   5.483  10.447  0.3612 -0.7774  0.2201
  115OSM    H3S12007   1.756   5.566  10.476  1.0882 -0.2744  0.5122
  115OSM     O312008   1.747   5.379  10.507 -0.7016  0.8248 -0.7473
  115OSM    HO312009   1.811   5.347  10.571  1.0714  0.9183 -2.3845
  115OSM    C4S12010   1.830   5.449  10.299 -0.3583  0.8103 -0.1224
  115OSM    H4S12011   1.915   5.383  10.275 -1.2576 -0.5005  0.2010
  115OSM    C5S12012   1.756   5.499  10.197 -0.4313  0.4319 -0.2414
  115OSM    H5S12013   1.689   5.584  10.217 -1.0325 -0.0990  0.0342
  115OSM    C6S12014   1.770   5.466  10.053  0.2966 -0.2355  0.2519
  115OSM    H6S12015   1.796   5.565  10.008 -0.2594  0.8013  2.1082
  115OSM    H6T12016   1.667   5.458  10.011 -0.2686  3.5286  0.5394
  115OSM    C7S12017   1.867   5.350  10.018 -0.0658 -0.3855  0.0348
  115OSM    H7S12018   1.847   5.264  10.086 -1.7171  1.1881  1.6324
  115OSM    H7T12019   1.974   5.378  10.025  0.2749 -1.5996 -0.0509
  115OSM    C8S12020   1.855   5.286   9.877 -0.3800  0.4829  0.9102
  115OSM    H8S12021   1.750   5.267   9.845 -0.4082  0.7330  0.8496
  115OSM    H8T12022   1.915   5.193   9.873  1.5950  1.7439 -0.4929
  115OSM    C9S12023   1.928   5.377   9.772  0.3813  0.6879 -0.2054
  115OSM    H9S12024   2.032   5.402   9.804 -0.1605  2.8985  0.0133
  115OSM    H9T12025   1.871   5.471   9.757  0.8650  0.7790 -1.6549
  115OSM   C10S12026   1.926   5.305   9.638 -0.1174 -0.4216  0.9993
  115OSM   H10S12027   1.817   5.301   9.616 -0.4864  5.4555  0.1030
  115OSM   H10T12028   1.977   5.207   9.643  1.9049  0.6033  1.5909
  115OSM   C11S12029   1.993   5.394   9.528 -0.1007 -0.4984 -0.2756
  115OSM   H11S12030   2.096   5.413   9.566 -0.0173  0.8056 -1.0857
  115OSM   H11T12031   1.938   5.490   9.528  1.9982  0.7773  0.5755
  115OSM   C12S12032   1.985   5.334   9.393 -0.1936 -0.2310 -0.3240
  115OSM   H12S12033   1.883   5.316   9.355 -0.0177 -2.0313 -0.0621
  115OSM   H12T12034   2.035   5.234   9.398  0.5337  0.1760  0.8856
  115OSM   C13S12035   2.056   5.423   9.293  0.4824  0.7682 -0.2939
  115OSM   H13S12036   2.166   5.413   9.306  0.4439  1.5227  0.8071
  115OSM   H13T12037   2.027   5.530   9.308 -3.2350 -0.2971  1.0982
  115OSM   C14S12038   2.004   5.374   9.153  0.4068 -0.6367 -0.5785
  115OSM   H14S12039   1.893   5.374   9.163  0.4202  0.6146 -0.3017
  115OSM   H14T12040   2.032   5.269   9.128 -0.2944 -0.7944 -0.7562
  115OSM   C15S12041   2.057   5.469   9.044  0.0823 -0.5765  0.4698
  115OSM   H15S12042   2.168   5.469   9.046  0.0946  0.6652  1.7273
  115OSM   H15T12043   2.034   5.577   9.061  2.9540  0.3124 -0.7285
  115OSM   C16S12044   2.014   5.444   8.899  0.1292 -0.7399 -0.0665
  115OSM   H16S12045   2.056   5.524   8.834 -0.1026 -0.9117 -0.4332
  115OSM   H16T12046   1.905   5.451   8.917  0.2543 -0.5274  0.6160
  115OSM   C17S12047   2.068   5.314   8.847  0.0586 -0.8305  0.0736
  115OSM   H17S12048   2.050   5.234   8.922  0.4463 -0.5942  0.4239
  115OSM   H17T12049   2.179   5.323   8.852  0.0091 -0.1933  0.0381
  115OSM   C18S12050   2.016   5.281   8.704  0.3821 -0.4583  0.1320
  115OSM   H18S12051   1.923   5.221   8.718 -0.9404  1.3570 -0.4969
  115OSM   H18T12052   2.087   5.217   8.647  1.0679  0.5151 -0.1341
  115OSM   H18U12053   2.002   5.379   8.654  1.5853 -1.2268 -1.8770
  115OSM    C1F12054   2.160   5.649  10.479 -0.1232  0.3895 -0.0925
  115OSM     OF12055   2.232   5.574  10.549  0.2923  0.1069  0.4261
  115OSM    C2F12056   2.226   5.776  10.426  0.2764  0.5378  0.8163
  115OSM    H2F12057   2.284   5.830  10.504 -0.6767  0.7272  1.4106
  115OSM    H2G12058   2.138   5.839  10.401 -1.6635 -2.5531 -0.8103
  115OSM    C3F12059   2.331   5.750  10.314 -0.6104  0.1917 -0.2210
  115OSM    H3F12060   2.409   5.678  10.347 -1.1918 -0.5732 -0.4970
  115OSM    H3G12061   2.393   5.841  10.301  2.1790 -1.3273  1.3909
  115OSM    C4F12062   2.266   5.706  10.179  0.1641 -0.2818 -0.4198
  115OSM    H4F12063   2.197   5.790  10.155  0.9424 -0.2128 -2.6620
  115OSM    H4G12064   2.200   5.618  10.187 -0.6778  0.2828 -0.9957
  115OSM    C5F12065   2.363   5.677  10.061  0.1447  0.3084 -0.0904
  115OSM    H5F12066   2.418   5.584  10.087  0.8000  0.3034 -1.3917
  115OSM    H5G12067   2.443   5.755  10.065  1.7425 -1.3142  1.6668
  115OSM    C6F12068   2.288   5.663   9.935  0.8592  0.6145  0.3852
  115OSM    H6F12069   2.238   5.752   9.891 -1.1060 -1.1983 -1.2415
  115OSM    H6G12070   2.203   5.596   9.957  1.4057  0.1727  1.2005
  115OSM    C7F12071   2.381   5.614   9.828 -0.5541  0.7099 -0.1964
  115OSM    H7F12072   2.449   5.533   9.861  1.2753  1.7105 -1.3421
  115OSM    H7G12073   2.450   5.698   9.805  1.3191 -0.4629  0.9407
  115OSM    C8F12074   2.307   5.555   9.701  0.1639  0.4171  0.1336
  115OSM    H8F12075   2.248   5.469   9.741 -0.0128  0.1101 -0.7624
  115OSM    H8G12076   2.388   5.521   9.634 -1.2642 -0.7872 -1.0612
  115OSM    C9F12077   2.211   5.662   9.652  0.1486  0.5792 -0.0186
  115OSM    H9F12078   2.113   5.667   9.701  0.7284  2.2117  1.0255
  115OSM   C10F12079   2.239   5.749   9.557  0.1049 -0.0222  0.2724
  115OSM   H10F12080   2.168   5.831   9.539 -0.8768 -1.0206 -0.5070
  115OSM   C11F12081   2.364   5.756   9.488 -0.1561 -0.4235 -1.5213
  115OSM   H11F12082   2.443   5.698   9.540 -0.6042 -0.8410 -1.2931
  115OSM   H11G12083   2.390   5.864   9.485 -2.1166  0.1050 -1.0573
  115OSM   C12F12084   2.332   5.699   9.352  0.5603  0.4332  0.0578
  115OSM   H12F12085   2.253   5.751   9.294  1.4023  1.5703 -0.0886
  115OSM   H12G12086   2.313   5.589   9.353 -1.3117  0.6543  3.0727
  115OSM   C13F12087   2.465   5.714   9.269 -0.7615  0.1133 -0.7303
  115OSM   H13F12088   2.553   5.674   9.323 -1.1371 -1.8974 -1.5357
  115OSM   H13G12089   2.489   5.823   9.263  0.5193 -0.0393  0.8215
  115OSM   C14F12090   2.444   5.656   9.126 -1.4908 -0.3507  0.0945
  115OSM   H14F12091   2.358   5.700   9.071 -1.1598 -1.0333 -0.9890
  115OSM   H14G12092   2.420   5.548   9.131  2.5657 -1.3684  0.3598
  115OSM   C15F12093   2.561   5.672   9.015 -0.8878 -0.6363 -0.1236
  115OSM   H15F12094   2.642   5.606   9.054  0.0436 -0.4365 -1.6413
  115OSM   H15G12095   2.600   5.776   9.015 -2.2481 -0.0826 -1.8674
  115OSM   C16F12096   2.514   5.638   8.870  0.2628 -0.1600  0.1789
  115OSM   H16F12097   2.435   5.714   8.853  0.8554 -0.0831 -2.6224
  115OSM   H16G12098   2.457   5.543   8.880  1.8389 -1.0668  0.9959
  115OSM   C17F12099   2.634   5.620   8.777 -0.1155 -0.5139 -0.5110
  115OSM   H17F12100   2.697   5.541   8.822 -2.3769 -1.6069  0.9194
  115OSM   H17G12101   2.684   5.718   8.766 -1.3066  0.0222 -1.4844
  115OSM   C18F12102   2.593   5.560   8.641 -0.3642  0.3273  0.1573
  115OSM   H18F12103   2.678   5.564   8.570  0.5106 -0.2763  1.1325
  115OSM   H18G12104   2.500   5.604   8.600 -0.5577 -0.7571 -0.6188
  115OSM   H18H12105   2.568   5.453   8.657  4.1420 -0.5801  3.0709
  116OSM      N12106   2.877   5.516  10.988  0.0814 -0.9821 -0.3817
  116OSM    C1512107   2.759   5.465  11.067  0.2845 -0.5716  0.1668
  116OSM   H15A12108   2.680   5.433  11.001 -0.5968 -2.5992  2.0940
  116OSM   H15B12109   2.723   5.526  11.148  1.0179 -2.2841  1.8633
  116OSM   H15C12110   2.792   5.371  11.110  0.5999 -0.4256  0.2459
  116OSM    C1412111   2.986   5.558  11.079 -0.1429 -0.6005 -0.4700
  116OSM   H14A12112   2.955   5.615  11.165  0.6755 -0.3002 -0.3703
  116OSM   H14B12113   3.066   5.608  11.027  0.8072 -2.0250 -0.4553
  116OSM   H14C12114   3.037   5.469  11.113  0.0585 -1.4938 -2.8976
  116OSM    C1312115   2.925   5.406  10.894 -0.1519 -0.5204 -0.1114
  116OSM   H13A12116   3.001   5.442  10.825 -1.6886  1.6165 -0.7984
  116OSM   H13B12117   2.846   5.353  10.843  0.3246 -2.7614  1.3660
  116OSM   H13C12118   2.964   5.328  10.958 -2.1546 -0.4578  1.2695
  116OSM    C1212119   2.839   5.636  10.900  0.1067  0.5287  1.0430
  116OSM   H12A12120   2.765   5.598  10.831  0.0288  0.1779  1.3153
  116OSM   H12B12121   2.917   5.656  10.828 -2.1007 -3.3959 -2.9529
  116OSM    C1112122   2.795   5.768  10.968 -0.0435 -0.0120  0.1085
  116OSM   H11A12123   2.715   5.738  11.039 -1.2174 -2.5207 -2.0955
  116OSM   H11B12124   2.746   5.822  10.884 -1.5320  0.5865  1.3193
  116OSM      P12125   3.025   5.886  10.941  0.2424 -0.0610 -0.2390
  116OSM    O1312126   3.089   6.004  11.004  0.1978  0.0929 -0.6688
  116OSM    O1412127   3.118   5.775  10.910  0.0856  0.1243  0.0619
  116OSM    O1112128   2.947   5.929  10.812  0.0807 -0.6776 -0.4225
  116OSM    O1212129   2.903   5.840  11.034  0.1360  0.0416  0.0627
  116OSM    C1S12130   2.957   5.878  10.683 -0.2363 -0.2941  0.2056
  116OSM    H1S12131   2.977   5.769  10.684  1.3173 -0.0616  2.2857
  116OSM    H1T12132   3.047   5.925  10.638 -0.6181  1.1444  0.8746
  116OSM     NF12133   2.813   5.837  10.481 -0.0411  0.0344 -0.7097
  116OSM    HNF12134   2.820   5.896  10.402 -1.5087  0.0026 -0.8929
  116OSM    C2S12135   2.825   5.902  10.611 -0.0688 -0.3742  0.4987
  116OSM    H2S12136   2.736   5.884  10.675 -1.6212 -0.6511 -1.6233
  116OSM    C3S12137   2.804   6.057  10.589 -0.0418  0.0042 -0.0678
  116OSM    H3S12138   2.867   6.084  10.501 -2.1416 -2.3582 -2.4845
  116OSM     O312139   2.836   6.138  10.703  0.0975 -0.1339  0.0824
  116OSM    HO312140   2.876   6.072  10.760  0.5077  0.3891  0.4052
  116OSM    C4S12141   2.664   6.093  10.538  0.7375  0.1918 -0.0001
  116OSM    H4S12142   2.654   6.054  10.435  2.6784  1.9717 -0.9370
  116OSM    C5S12143   2.565   6.176  10.589  0.6143 -0.5318 -0.5364
  116OSM    H5S12144   2.588   6.229  10.682  1.9549  2.1164 -2.2434
  116OSM    C6S12145   2.424   6.211  10.538  0.1671  0.0162  0.1556
  116OSM    H6S12146   2.387   6.306  10.583  0.4170  0.4382 -0.5072
  116OSM    H6T12147   2.357   6.135  10.582 -1.3948  1.4810  0.4246
  116OSM    C7S12148   2.417   6.204  10.387  0.0276  0.7086  0.0948
  116OSM    H7S12149   2.449   6.107  10.343 -0.2446 -0.3603  2.1420
  116OSM    H7T12150   2.477   6.285  10.342 -0.3038  1.9671  1.8208
  116OSM    C8S12151   2.276   6.236  10.332 -0.1779 -0.8083  0.0315
  116OSM    H8S12152   2.268   6.346  10.320  0.0737 -0.7428  0.4485
  116OSM    H8T12153   2.202   6.195  10.403 -0.8031 -0.2093 -0.2681
  116OSM    C9S12154   2.249   6.181  10.196  0.0118  0.5062  0.0710
  116OSM    H9S12155   2.154   6.226  10.162 -0.9104 -0.5396  1.2046
  116OSM    H9T12156   2.224   6.073  10.207 -1.3839  0.9402  1.3773
  116OSM   C10S12157   2.355   6.178  10.080 -0.2075 -0.2907  0.2673
  116OSM   H10S12158   2.441   6.109  10.091 -0.2978 -0.8240 -1.8536
  116OSM   H10T12159   2.382   6.286  10.069 -3.8087  0.4787 -4.2857
  116OSM   C11S12160   2.284   6.141   9.953  0.6078  0.0129  0.8933
  116OSM   H11S12161   2.183   6.186   9.954  0.3516 -0.4283 -0.9167
  116OSM   H11T12162   2.263   6.032   9.952  1.2720 -0.1499 -1.1060
  116OSM   C12S12163   2.357   6.180   9.827 -0.3854 -0.4053  0.0224
  116OSM   H12S12164   2.413   6.274   9.847 -0.2969 -0.4516 -0.0051
  116OSM   H12T12165   2.282   6.197   9.747  0.5858 -2.9878 -1.5429
  116OSM   C13S12166   2.447   6.072   9.770  0.0405  0.4114  0.2986
  116OSM   H13S12167   2.378   5.989   9.744 -0.1382  0.3437  0.9775
  116OSM   H13T12168   2.521   6.034   9.844  0.7844  1.6718  0.2272
  116OSM   C14S12169   2.515   6.104   9.632  0.2305  0.7166  0.2341
  116OSM   H14S12170   2.450   6.169   9.570  1.0720  0.6455 -0.7492
  116OSM   H14T12171   2.532   6.006   9.582 -1.1943  1.5945 -2.1266
  116OSM   C15S12172   2.652   6.167   9.657 -0.6928 -0.3858 -0.1488
  116OSM   H15S12173   2.720   6.183   9.571 -0.3217  1.1422  0.4086
  116OSM   H15T12174   2.710   6.108   9.731  1.1339  2.0936  0.5268
  116OSM   C16S12175   2.657   6.312   9.724  0.9290  0.1126  0.9098
  116OSM   H16S12176   2.627   6.302   9.830 -1.5903 -0.5303  0.2016
  116OSM   H16T12177   2.584   6.372   9.665  1.4657 -1.2213 -1.2055
  116OSM   C17S12178   2.790   6.388   9.715 -0.9191 -0.1975 -0.8480
  116OSM   H17S12179   2.832   6.380   9.613  0.4111  0.4009 -0.3628
  116OSM   H17T12180   2.863   6.330   9.777 -0.7038 -0.4936 -1.3713
  116OSM   C18S12181   2.784   6.529   9.776  1.2247 -0.1249  0.7618
  116OSM   H18S12182   2.742   6.513   9.878  2.7127  1.4878  1.6678
  116OSM   H18T12183   2.732   6.609   9.720  0.7647  0.4785  2.0091
  116OSM   H18U12184   2.883   6.576   9.796  1.1117  0.4072  0.1197
  116OSM    C1F12185   2.808   5.702  10.466  0.4076 -0.3617  0.2309
  116OSM     OF12186   2.804   5.627  10.558 -0.2328 -0.5300 -0.5256
  116OSM    C2F12187   2.811   5.650  10.325 -0.0024 -0.2922 -0.1893
  116OSM    H2F12188   2.890   5.573  10.324  0.2625 -0.0171 -0.4079
  116OSM    H2G12189   2.834   5.740  10.263 -2.8553  1.1062  0.5912
  116OSM    C3F12190   2.681   5.578  10.273  0.6819  0.3431 -0.4395
  116OSM    H3F12191   2.607   5.661  10.258 -0.7600 -1.2368 -2.8734
  116OSM    H3G12192   2.638   5.510  10.349 -1.9723  0.1718 -1.9608
  116OSM    C4F12193   2.703   5.504  10.139 -0.0448 -0.2420 -0.0232
  116OSM    H4F12194   2.601   5.477  10.106 -0.5171  0.9983  0.3406
  116OSM    H4G12195   2.756   5.407  10.152 -1.0632 -0.8885 -0.6000
  116OSM    C5F12196   2.762   5.597  10.034 -0.4721  0.2423  0.3258
  116OSM    H5F12197   2.867   5.630  10.054 -0.4892  0.3058  0.3117
  116OSM    H5G12198   2.698   5.687  10.048 -2.0722 -1.1724  2.9483
  116OSM    C6F12199   2.750   5.536   9.890  0.7234  0.1174  0.5309
  116OSM    H6F12200   2.648   5.495   9.873  1.2902 -1.5697  0.9777
  116OSM    H6G12201   2.831   5.460   9.881  1.2987  0.8306 -0.6886
  116OSM    C7F12202   2.767   5.637   9.777 -0.4628 -1.0282  0.1303
  116OSM    H7F12203   2.868   5.681   9.787  0.5958 -2.9338 -1.4945
  116OSM    H7G12204   2.701   5.723   9.801  0.6391 -0.4193  1.0481
  116OSM    C8F12205   2.729   5.593   9.639  0.4595 -0.0670  0.2324
  116OSM    H8F12206   2.631   5.543   9.647  1.4637 -2.3154 -0.5919
  116OSM    H8G12207   2.802   5.515   9.609 -2.1561 -1.6786 -2.4203
  116OSM    C9F12208   2.732   5.707   9.544  0.1392  0.4111  0.1227
  116OSM    H9F12209   2.668   5.792   9.571  1.8556  2.1953 -1.1213
  116OSM   C10F12210   2.815   5.728   9.441  0.0935 -0.3913  0.0713
  116OSM   H10F12211   2.816   5.826   9.391  0.2322  0.8896  2.4026
  116OSM   C11F12212   2.921   5.630   9.390  0.4204  0.6728  0.2784
  116OSM   H11F12213   2.898   5.525   9.419 -0.9934  0.9793  0.3764
  116OSM   H11G12214   3.020   5.654   9.433  0.6024 -1.6669  1.3649
  116OSM   C12F12215   2.929   5.619   9.234 -0.7248  0.1431  0.0300
  116OSM   H12F12216   2.829   5.597   9.189 -0.6712 -1.7644  0.7319
  116OSM   H12G12217   2.990   5.527   9.220 -0.4577 -0.1033  2.4868
  116OSM   C13F12218   3.005   5.730   9.156  0.2260 -0.0410  0.4558
  116OSM   H13F12219   3.115   5.722   9.167  0.3230 -3.7699 -1.6371
  116OSM   H13G12220   2.966   5.828   9.191 -0.3186 -0.9550  2.5860
  116OSM   C14F12221   2.982   5.730   9.007 -0.0811  0.2978  0.1454
  116OSM   H14F12222   2.876   5.756   8.985 -0.2756  0.2810  1.0223
  116OSM   H14G12223   3.009   5.633   8.960 -1.0833  0.6166 -1.1304
  116OSM   C15F12224   3.070   5.834   8.938 -0.6902  0.0777 -0.2855
  116OSM   H15F12225   3.151   5.845   9.012 -0.4332 -2.3924 -0.1145
  116OSM   H15G12226   3.012   5.928   8.929 -0.9346 -0.2200 -2.6855
  116OSM   C16F12227   3.119   5.798   8.798 -0.5712 -0.2112 -0.1828
  116OSM   H16F12228   3.037   5.760   8.733 -0.1375  0.7444 -1.3192
  116OSM   H16G12229   3.194   5.718   8.814  0.5683  0.5700 -1.4743
  116OSM   C17F12230   3.184   5.922   8.725  0.1288 -0.7659  0.2739
  116OSM   H17F12231   3.106   5.989   8.683  2.8920  1.0550 -2.3782
  116OSM   H17G12232   3.234   5.878   8.636  1.5769  0.7651  0.2828
  116OSM   C18F12233   3.291   5.992   8.813 -0.4237  0.1840 -0.3621
  116OSM   H18F12234   3.349   6.063   8.749  2.6730 -0.8848  1.0732
  116OSM   H18G12235   3.363   5.922   8.860 -0.1792  1.1985  0.8272
  116OSM   H18H12236   3.239   6.040   8.898  1.8425  1.3616  0.4553
  117OSM      N12237   1.546   1.188  11.184 -0.0522 -0.4728 -0.6383
  117OSM    C1512238   1.525   1.088  11.077 -0.3803  0.8945  0.0347
  117OSM   H15A12239   1.572   1.119  10.985  1.8071  0.1954  0.8701
  117OSM   H15B12240   1.420   1.075  11.055 -0.5850 -0.6581  1.6890
  117OSM   H15C12241   1.571   0.993  11.100  1.2108  1.0161 -2.3869
  117OSM    C1412242   1.448   1.297  11.153 -0.1489  0.7180 -0.5890
  117OSM   H14A12243   1.348   1.258  11.142  0.2689 -0.4721 -0.3255
  117OSM   H14B12244   1.474   1.343  11.059 -0.6153  0.7914 -0.6854
  117OSM   H14C12245   1.452   1.370  11.232  2.2514  1.0495 -0.9520
  117OSM    C1312246   1.500   1.124  11.309 -0.0387  0.0589 -0.1519
  117OSM   H13A12247   1.400   1.082  11.301  0.8700 -2.5002  0.9348
  117OSM   H13B12248   1.501   1.189  11.395 -1.1672 -1.7389  1.3094
  117OSM   H13C12249   1.573   1.047  11.332 -0.4524 -0.1439  0.5252
  117OSM    C1212250   1.687   1.240  11.195 -0.3043 -0.2904  0.1184
  117OSM   H12A12251   1.767   1.166  11.197 -1.4323 -1.5808  2.5944
  117OSM   H12B12252   1.701   1.282  11.293  1.0080 -1.3578  0.4210
  117OSM    C1112253   1.724   1.351  11.094 -0.1930  0.4747  0.6049
  117OSM   H11A12254   1.816   1.401  11.131 -0.4211  3.3857 -2.3027
  117OSM   H11B12255   1.649   1.433  11.094 -0.4768  0.2397 -1.0330
  117OSM      P12256   1.868   1.222  10.913 -0.0434  0.1118  0.2119
  117OSM    O1312257   1.982   1.255  11.005 -0.5341 -0.0387  0.6856
  117OSM    O1412258   1.846   1.076  10.892 -0.0528  0.4239  0.3275
  117OSM    O1112259   1.902   1.295  10.778 -0.0929  0.7043 -0.7461
  117OSM    O1212260   1.739   1.302  10.958 -0.3597  0.0846 -0.3828
  117OSM    C1S12261   1.981   1.407  10.774  0.3274 -0.1649 -0.3258
  117OSM    H1S12262   2.087   1.376  10.792  0.1039 -1.0750 -0.5232
  117OSM    H1T12263   1.951   1.486  10.845 -1.6391  0.8771 -2.2040
  117OSM     NF12264   2.054   1.585  10.623 -0.4766  0.4306  0.8905
  117OSM    HNF12265   2.018   1.678  10.621 -0.5321  0.4101  0.9419
  117OSM    C2S12266   1.967   1.469  10.632  0.2971 -0.6717 -1.0293
  117OSM    H2S12267   2.002   1.389  10.563  0.8291 -1.4051  0.0752
  117OSM    C3S12268   1.819   1.494  10.594 -0.0715  0.8186  0.5125
  117OSM    H3S12269   1.761   1.558  10.664  1.2586 -0.1239  2.5845
  117OSM     O312270   1.739   1.375  10.603  0.1537 -0.4680 -0.1563
  117OSM    HO312271   1.797   1.319  10.654  1.4173 -0.3507 -1.3860
  117OSM    C4S12272   1.810   1.539  10.450  0.1862  0.0291 -0.7213
  117OSM    H4S12273   1.846   1.466  10.376  0.4151 -0.8661  0.2556
  117OSM    C5S12274   1.772   1.666  10.410 -1.0660  0.3527  0.2350
  117OSM    H5S12275   1.736   1.747  10.475 -0.6342  0.3534  0.4769
  117OSM    C6S12276   1.776   1.713  10.266  0.0984  0.0382 -0.9309
  117OSM    H6S12277   1.839   1.804  10.268 -0.5152  0.5492  2.6898
  117OSM    H6T12278   1.677   1.743  10.225 -0.8140  0.1407  1.1998
  117OSM    C7S12279   1.833   1.617  10.153  0.7659 -0.8709  0.1256
  117OSM    H7S12280   1.772   1.525  10.164  1.4637 -1.3567 -0.0225
  117OSM    H7T12281   1.939   1.588  10.166  1.0081  0.3781  1.2920
  117OSM    C8S12282   1.806   1.689  10.013 -0.8489 -0.3833 -0.3617
  117OSM    H8S12283   1.878   1.773  10.004 -1.2859  0.3137  1.8596
  117OSM    H8T12284   1.704   1.733  10.004 -0.0476  2.1452  1.6481
  117OSM    C9S12285   1.826   1.579   9.900 -0.0807  0.1801 -0.7244
  117OSM    H9S12286   1.740   1.509   9.912  1.0961 -1.1299  0.6054
  117OSM    H9T12287   1.925   1.528   9.907  0.5095  1.5574  2.4696
  117OSM   C10S12288   1.824   1.639   9.757  0.1900 -0.2439 -0.2656
  117OSM   H10S12289   1.913   1.704   9.741  1.2091 -1.0597  1.7236
  117OSM   H10T12290   1.732   1.700   9.756  0.8706  0.8343  0.8491
  117OSM   C11S12291   1.806   1.535   9.644 -0.7556 -0.2323 -0.3686
  117OSM   H11S12292   1.708   1.483   9.645 -0.9800  0.0471 -2.3163
  117OSM   H11T12293   1.888   1.460   9.634 -0.5633  0.2067 -3.0963
  117OSM   C12S12294   1.835   1.604   9.512  0.2850  0.6721  0.8272
  117OSM   H12S12295   1.943   1.626   9.505 -0.0395  1.7757 -3.2452
  117OSM   H12T12296   1.788   1.705   9.519 -0.3717  0.2764  2.8124
  117OSM   C13S12297   1.785   1.521   9.390 -0.6000  0.0846 -0.0145
  117OSM   H13S12298   1.791   1.568   9.290 -0.2690 -0.4575 -0.2525
  117OSM   H13T12299   1.681   1.491   9.415 -0.8902  2.6413  2.3719
  117OSM   C14S12300   1.872   1.393   9.362 -0.1772  0.5186 -0.1066
  117OSM   H14S12301   1.854   1.326   9.449  1.3037  0.2142 -0.0218
  117OSM   H14T12302   1.981   1.414   9.363 -0.0883  0.7214 -3.3572
  117OSM   C15S12303   1.849   1.319   9.233  0.8726  0.0471  0.7668
  117OSM   H15S12304   1.816   1.388   9.153 -0.9455  1.8801  2.9630
  117OSM   H15T12305   1.780   1.232   9.245  0.4216  0.1828 -0.7065
  117OSM   C16S12306   1.983   1.250   9.177  0.1566  0.7875 -0.3121
  117OSM   H16S12307   2.011   1.179   9.258  1.1531 -1.3973 -2.4529
  117OSM   H16T12308   2.065   1.325   9.169  2.9730 -2.0466 -0.1345
  117OSM   C17S12309   1.960   1.155   9.055 -0.6519  0.0181 -0.6153
  117OSM   H17S12310   1.871   1.090   9.063 -0.7180  0.2725  0.9667
  117OSM   H17T12311   2.048   1.087   9.050 -1.6315 -1.4082  0.8466
  117OSM   C18S12312   1.950   1.211   8.915 -0.4520 -0.4569  0.2524
  117OSM   H18S12313   1.868   1.286   8.927  0.3270  0.4242  0.2090
  117OSM   H18T12314   1.917   1.133   8.843  1.5413 -0.6667 -0.4946
  117OSM   H18U12315   2.038   1.264   8.872 -0.8222  0.3009  0.4086
  117OSM    C1F12316   2.189   1.574  10.603  0.2341  0.0807  0.4018
  117OSM     OF12317   2.239   1.462  10.584  0.1646 -0.9453 -0.0434
  117OSM    C2F12318   2.276   1.690  10.634  0.1695 -0.3345 -0.1076
  117OSM    H2F12319   2.360   1.662  10.700  2.8319 -2.2253 -3.8994
  117OSM    H2G12320   2.210   1.774  10.662  0.3341 -0.4271  0.5677
  117OSM    C3F12321   2.335   1.727  10.499  0.2357  0.0177  0.6937
  117OSM    H3F12322   2.377   1.641  10.443 -2.0412  0.2974 -1.5963
  117OSM    H3G12323   2.419   1.799  10.511  0.8936 -0.4944 -0.6330
  117OSM    C4F12324   2.231   1.797  10.404 -0.4095  0.1631  0.0235
  117OSM    H4F12325   2.175   1.877  10.457 -0.7061  0.1674 -0.2931
  117OSM    H4G12326   2.154   1.720  10.380  0.9369 -0.9406 -0.8805
  117OSM    C5F12327   2.296   1.854  10.281 -0.8072  0.4131  0.7002
  117OSM    H5F12328   2.347   1.775  10.222 -1.6630  1.5157 -1.6316
  117OSM    H5G12329   2.373   1.925  10.316 -1.5724  0.5606  2.1390
  117OSM    C6F12330   2.190   1.930  10.197 -0.3483 -0.0194  0.4194
  117OSM    H6F12331   2.143   2.012  10.256  3.1780  2.1231  0.5168
  117OSM    H6G12332   2.107   1.865  10.161  0.5465  0.5072 -2.9989
  117OSM    C7F12333   2.242   1.996  10.064  0.8792 -0.4284  0.0117
  117OSM    H7F12334   2.300   1.908  10.029  1.6887 -0.2984  0.9726
  117OSM    H7G12335   2.323   2.067  10.093  0.8771 -0.3666 -0.1308
  117OSM    C8F12336   2.122   2.054   9.979 -0.0907  0.3960 -0.2666
  117OSM    H8F12337   2.065   2.120  10.047  0.7180 -1.7273  2.6645
  117OSM    H8G12338   2.053   1.972   9.953 -1.4852  1.9866 -1.8738
  117OSM    C9F12339   2.172   2.128   9.862 -0.7554 -0.6081 -0.7437
  117OSM    H9F12340   2.230   2.218   9.886 -1.3478 -0.3589 -0.1967
  117OSM   C10F12341   2.127   2.117   9.736  0.3206  0.1231  0.2372
  117OSM   H10F12342   2.163   2.193   9.667  2.0961 -0.1976  0.7740
  117OSM   C11F12343   2.028   2.024   9.681  0.1611 -0.5114 -0.2812
  117OSM   H11F12344   1.956   2.080   9.618  1.2218  0.9615 -0.2340
  117OSM   H11G12345   1.977   1.959   9.755 -0.1853  0.1607  0.0795
  117OSM   C12F12346   2.102   1.936   9.575  0.8805 -0.8257 -0.1497
  117OSM   H12F12347   2.025   1.867   9.535 -1.4289 -1.0609  4.1301
  117OSM   H12G12348   2.180   1.881   9.632  1.2981  1.4182  1.5662
  117OSM   C13F12349   2.166   2.023   9.464  0.2467 -0.2760  0.1002
  117OSM   H13F12350   2.267   2.049   9.502  0.8134 -1.2680 -0.6684
  117OSM   H13G12351   2.112   2.110   9.423 -1.6939 -2.1466 -1.5491
  117OSM   C14F12352   2.213   1.948   9.335 -1.0173 -0.1779  0.2079
  117OSM   H14F12353   2.263   1.850   9.348 -1.8826 -0.3631  2.9626
  117OSM   H14G12354   2.290   2.010   9.286  1.5856 -2.4622  1.1641
  117OSM   C15F12355   2.102   1.916   9.242  0.1703 -0.6173 -0.2224
  117OSM   H15F12356   2.054   2.010   9.207  0.6336 -0.3755 -0.2042
  117OSM   H15G12357   2.034   1.857   9.308 -1.3164  0.1890 -0.9620
  117OSM   C16F12358   2.147   1.834   9.118  0.8766  0.1054  0.1064
  117OSM   H16F12359   2.168   1.732   9.157 -1.8971  0.0971  1.8451
  117OSM   H16G12360   2.236   1.876   9.065  0.4881 -1.3605 -1.7925
  117OSM   C17F12361   2.026   1.807   9.022  0.1454  0.3874 -0.1168
  117OSM   H17F12362   2.073   1.777   8.926  0.3313  0.2250  0.0255
  117OSM   H17G12363   1.977   1.904   8.998  0.2957  0.2755 -0.9205
  117OSM   C18F12364   1.922   1.696   9.060  0.3323 -0.0427 -0.2904
  117OSM   H18F12365   1.870   1.744   9.146 -0.9048 -0.0603 -0.9950
  117OSM   H18G12366   1.962   1.597   9.090 -1.4615 -1.2683 -1.6884
  117OSM   H18H12367   1.853   1.675   8.975 -1.1132 -1.2291  1.1097
  118OSM      N12368   1.448   2.449  11.504 -0.1529  0.4547 -0.2290
  118OSM    C1512369   1.300   2.445  11.505  0.2088 -0.5912 -0.3228
  118OSM   H15A12370   1.257   2.351  11.476 -0.9473 -0.3420  0.4890
  118OSM   H15B12371   1.272   2.518  11.431  1.0970  0.8961  0.7501
  118OSM   H15C12372   1.259   2.464  11.604  1.2964  0.9909 -0.1408
  118OSM    C1412373   1.482   2.597  11.507 -0.3244 -0.3138 -0.5451
  118OSM   H14A12374   1.413   2.654  11.569 -0.6913  1.0772 -2.1509
  118OSM   H14B12375   1.466   2.642  11.410 -0.1199  3.2222  0.9180
  118OSM   H14C12376   1.584   2.620  11.532 -0.0858 -1.4679 -0.4140
  118OSM    C1312377   1.497   2.386  11.631  0.0678  0.1994 -0.0187
  118OSM   H13A12378   1.604   2.378  11.627  0.2129  1.1086  1.3446
  118OSM   H13B12379   1.450   2.292  11.656  1.3434 -0.7264 -0.9595
  118OSM   H13C12380   1.473   2.446  11.718 -3.0710 -0.4081 -0.3481
  118OSM    C1212381   1.505   2.383  11.379 -0.1624  0.7324  0.1246
  118OSM   H12A12382   1.517   2.277  11.397 -0.4976  1.0448  2.5679
  118OSM   H12B12383   1.607   2.415  11.363  0.1033 -0.5737 -0.9394
  118OSM    C1112384   1.435   2.392  11.244  0.2270  0.5455 -0.2926
  118OSM   H11A12385   1.336   2.342  11.244  0.8048 -0.6940  1.0976
  118OSM   H11B12386   1.488   2.329  11.169 -0.0620  1.0136 -0.8988
  118OSM      P12387   1.564   2.580  11.139 -0.0874 -0.1136 -0.0459
  118OSM    O1312388   1.564   2.728  11.146  0.5416  0.1541 -0.0053
  118OSM    O1412389   1.668   2.501  11.203 -0.0901  0.3008 -0.3057
  118OSM    O1112390   1.555   2.553  10.977 -0.7294  0.4678 -0.1754
  118OSM    O1212391   1.435   2.531  11.206 -0.0573  0.1002  0.0500
  118OSM    C1S12392   1.672   2.583  10.901  0.7514  0.0065  0.0334
  118OSM    H1S12393   1.763   2.537  10.944 -0.8462 -0.3187  3.3860
  118OSM    H1T12394   1.689   2.693  10.900 -0.5796  0.2996  2.2108
  118OSM     NF12395   1.774   2.571  10.674  0.5018 -0.2691  0.5346
  118OSM    HNF12396   1.779   2.652  10.617 -1.2225 -0.7735 -0.4176
  118OSM    C2S12397   1.643   2.552  10.747 -0.3034 -0.3092 -0.3347
  118OSM    H2S12398   1.604   2.449  10.736 -1.2827  0.1063 -0.9069
  118OSM    C3S12399   1.534   2.650  10.695  0.2583  0.7482 -0.5287
  118OSM    H3S12400   1.570   2.754  10.686  1.6229  0.1477 -2.9033
  118OSM     O312401   1.418   2.661  10.782  0.2487  0.2123 -0.2774
  118OSM    HO312402   1.432   2.605  10.859  0.2813 -1.2196 -1.2840
  118OSM    C4S12403   1.482   2.599  10.562 -0.1048 -0.4688 -0.1832
  118OSM    H4S12404   1.526   2.663  10.485 -2.4200  3.2344  1.2606
  118OSM    C5S12405   1.384   2.510  10.541 -0.3243  0.3565 -0.2304
  118OSM    H5S12406   1.334   2.468  10.629  0.1223 -0.1273 -0.2032
  118OSM    C6S12407   1.333   2.465  10.406 -0.7544  0.5019  0.0491
  118OSM    H6S12408   1.227   2.498  10.393 -0.5385  1.2813  0.1705
  118OSM    H6T12409   1.330   2.354  10.405 -1.4802  0.5211 -0.4852
  118OSM    C7S12410   1.406   2.525  10.290 -0.7536 -0.4905  0.5915
  118OSM    H7S12411   1.516   2.539  10.296 -0.8582  1.7401 -1.1958
  118OSM    H7T12412   1.352   2.622  10.289  2.3422  1.3380  0.3588
  118OSM    C8S12413   1.368   2.470  10.152  0.0537  0.0673  0.1517
  118OSM    H8S12414   1.260   2.443  10.158 -0.4416  1.5056 -1.3442
  118OSM    H8T12415   1.430   2.380  10.134 -1.4725 -0.5974 -2.2932
  118OSM    C9S12416   1.398   2.561  10.030 -0.5932 -0.6718 -0.0274
  118OSM    H9S12417   1.501   2.602  10.040 -0.0857 -2.3060  2.3393
  118OSM    H9T12418   1.328   2.647  10.039  0.0143 -0.2991  1.6243
  118OSM   C10S12419   1.386   2.476   9.908 -0.4092  0.6093  0.4566
  118OSM   H10S12420   1.281   2.441   9.902 -0.8451  1.7760  0.8762
  118OSM   H10T12421   1.450   2.385   9.911  0.5009  1.1866 -0.6359
  118OSM   C11S12422   1.410   2.564   9.788 -0.2609  0.4725 -0.1230
  118OSM   H11S12423   1.515   2.599   9.799  0.0891 -0.1005 -1.4926
  118OSM   H11T12424   1.335   2.645   9.785  1.3592  2.1205  1.2347
  118OSM   C12S12425   1.410   2.485   9.664 -0.4458  0.1730  0.2349
  118OSM   H12S12426   1.312   2.440   9.640  0.3131 -1.2589 -0.3220
  118OSM   H12T12427   1.471   2.392   9.676 -1.1234 -0.0731  2.0815
  118OSM   C13S12428   1.468   2.569   9.539  0.1153 -0.1407 -0.2518
  118OSM   H13S12429   1.578   2.580   9.550 -0.2652  2.6136  1.7683
  118OSM   H13T12430   1.429   2.673   9.538 -0.0354 -0.1926 -1.0187
  118OSM   C14S12431   1.454   2.504   9.400  0.2946 -0.1143 -0.1376
  118OSM   H14S12432   1.348   2.511   9.367  1.5130 -0.1464 -4.7873
  118OSM   H14T12433   1.497   2.401   9.404 -0.0601 -0.4024 -2.3879
  118OSM   C15S12434   1.537   2.581   9.298  0.1759 -0.3897  0.4688
  118OSM   H15S12435   1.643   2.599   9.325 -0.1907  1.1939  0.9926
  118OSM   H15T12436   1.484   2.675   9.271 -0.8585 -1.5670 -1.9007
  118OSM   C16S12437   1.553   2.502   9.160  0.1635 -0.2978 -0.2431
  118OSM   H16S12438   1.451   2.490   9.118 -0.0817 -0.1316  0.3068
  118OSM   H16T12439   1.602   2.405   9.185  1.7047  0.4411 -0.2660
  118OSM   C17S12440   1.649   2.581   9.068  0.7360  0.0198  0.7391
  118OSM   H17S12441   1.757   2.561   9.080  1.2472  1.6218 -0.7029
  118OSM   H17T12442   1.633   2.689   9.092  1.7701  0.7762 -1.6608
  118OSM   C18S12443   1.614   2.568   8.915 -0.0485  0.4564 -0.8947
  118OSM   H18S12444   1.666   2.636   8.844  1.4020 -1.2948 -1.6017
  118OSM   H18T12445   1.506   2.591   8.917 -0.1817 -0.0934 -1.4053
  118OSM   H18U12446   1.637   2.467   8.872 -0.0659  1.4820 -3.5140
  118OSM    C1F12447   1.861   2.476  10.680  0.9762 -0.3763 -0.2759
  118OSM     OF12448   1.841   2.374  10.745  0.1871 -0.0909  0.2039
  118OSM    C2F12449   1.989   2.505  10.609 -0.7658 -0.2943 -0.3039
  118OSM    H2F12450   2.060   2.558  10.676  1.3038  0.8537 -3.1511
  118OSM    H2G12451   1.966   2.576  10.526  0.6167  0.6441  0.0744
  118OSM    C3F12452   2.053   2.379  10.552 -0.3110 -0.8857  0.0660
  118OSM    H3F12453   1.974   2.338  10.485 -0.4756 -0.3201 -0.0856
  118OSM    H3G12454   2.075   2.313  10.638  2.4075  0.6286  0.6242
  118OSM    C4F12455   2.182   2.425  10.481  1.0754 -0.0645  0.6447
  118OSM    H4F12456   2.257   2.471  10.549  1.3577  0.4333  0.0088
  118OSM    H4G12457   2.155   2.500  10.403  2.9320  0.8047  0.7734
  118OSM    C5F12458   2.239   2.303  10.410 -1.0816 -1.1854 -0.2330
  118OSM    H5F12459   2.194   2.272  10.313 -0.6113 -1.0025 -0.5149
  118OSM    H5G12460   2.241   2.215  10.477  1.4553  0.3219  1.8390
  118OSM    C6F12461   2.394   2.336  10.381  0.7782 -0.4918  1.0889
  118OSM    H6F12462   2.450   2.360  10.474  3.0216 -1.4404  0.0706
  118OSM    H6G12463   2.388   2.425  10.315  0.6488 -2.2095 -1.3849
  118OSM    C7F12464   2.472   2.218  10.305  0.1790  0.5500  0.4931
  118OSM    H7F12465   2.472   2.228  10.194  3.2188  1.0793  0.4409
  118OSM    H7G12466   2.426   2.120  10.328  2.9453 -0.9858  0.0352
  118OSM    C8F12467   2.614   2.189  10.356  0.0465  0.2035  0.5135
  118OSM    H8F12468   2.643   2.091  10.311  0.5292  0.7719 -0.4582
  118OSM    H8G12469   2.618   2.159  10.463  2.3001 -0.0149  0.4218
  118OSM    C9F12470   2.711   2.303  10.333 -0.0351  0.3417  0.0729
  118OSM    H9F12471   2.693   2.389  10.399  0.3183  0.2183  0.3378
  118OSM   C10F12472   2.824   2.308  10.268 -0.2509  0.6715  0.2227
  118OSM   H10F12473   2.882   2.401  10.263 -0.5778  0.8265 -0.8458
  118OSM   C11F12474   2.890   2.205  10.181 -0.2766  0.5054 -0.3449
  118OSM   H11F12475   2.828   2.113  10.179  0.7399 -0.1803 -1.6248
  118OSM   H11G12476   2.987   2.171  10.224 -0.4584  0.6132  0.1571
  118OSM   C12F12477   2.905   2.226  10.027  0.2212 -0.3051  0.1765
  118OSM   H12F12478   2.818   2.287   9.996  0.4595  1.1656  2.2297
  118OSM   H12G12479   2.922   2.132   9.969 -1.9103 -1.5594  1.4401
  118OSM   C13F12480   3.015   2.328   9.992 -0.0264  0.2890 -0.2683
  118OSM   H13F12481   3.112   2.275   9.983 -0.0448  0.1517  0.3303
  118OSM   H13G12482   3.024   2.411  10.065  1.7714 -1.3976  1.5402
  118OSM   C14F12483   3.008   2.393   9.852 -0.2213 -0.4076  0.2896
  118OSM   H14F12484   3.090   2.468   9.857  0.8028 -1.4939  0.3336
  118OSM   H14G12485   2.918   2.456   9.840  0.3635  0.1825 -1.2304
  118OSM   C15F12486   3.028   2.294   9.743 -0.4293  0.5742 -1.0283
  118OSM   H15F12487   2.975   2.200   9.766 -1.7175  2.2348  3.9380
  118OSM   H15G12488   3.135   2.265   9.752 -1.0977 -1.3319  2.8587
  118OSM   C16F12489   2.999   2.341   9.605  0.0802 -0.2944 -0.0356
  118OSM   H16F12490   3.033   2.447   9.601  0.9282 -0.6134 -2.8640
  118OSM   H16G12491   2.890   2.324   9.589  0.5429 -2.2043 -1.4512
  118OSM   C17F12492   3.077   2.255   9.499  0.2559 -0.2827  0.2189
  118OSM   H17F12493   3.025   2.157   9.498  0.3773 -0.3504  0.5329
  118OSM   H17G12494   3.181   2.236   9.532 -0.1244 -1.4507  0.7917
  118OSM   C18F12495   3.087   2.314   9.356  0.1944 -0.0513  0.0389
  118OSM   H18F12496   2.986   2.316   9.311 -0.0327 -1.9805  0.3681
  118OSM   H18G12497   3.137   2.232   9.299  1.2956 -0.3047  1.3041
  118OSM   H18H12498   3.140   2.412   9.360  0.5122 -0.2273  0.2262
  119OSM      N12499   2.336   2.702  10.924  0.2525 -0.0804  0.4371
  119OSM    C1512500   2.457   2.765  10.993 -0.4986 -0.3116  0.1940
  119OSM   H15A12501   2.445   2.871  11.014  2.2360 -0.3235  2.4255
  119OSM   H15B12502   2.532   2.760  10.916 -0.6152  2.3784 -0.1986
  119OSM   H15C12503   2.482   2.716  11.086 -1.2757 -2.4012 -0.6447
  119OSM    C1412504   2.295   2.809  10.825  0.1142 -0.2746  0.2054
  119OSM   H14A12505   2.378   2.855  10.773 -0.3902  0.1174 -0.2661
  119OSM   H14B12506   2.252   2.891  10.881  2.1520  2.5599 -2.0674
  119OSM   H14C12507   2.216   2.784  10.755  1.3359 -2.4775 -0.4576
  119OSM    C1312508   2.391   2.587  10.848  0.0126  0.3830 -0.2253
  119OSM   H13A12509   2.467   2.529  10.900 -2.3763 -1.4118  1.5205
  119OSM   H13B12510   2.439   2.610  10.754 -2.4338  3.9884 -0.7846
  119OSM   H13C12511   2.313   2.514  10.831 -1.2128  0.5846  3.4745
  119OSM    C1212512   2.225   2.682  11.028 -0.3896  0.1649 -0.3503
  119OSM   H12A12513   2.211   2.781  11.071 -0.0086  0.6796 -1.3736
  119OSM   H12B12514   2.262   2.619  11.108 -1.0226  1.2868  0.8771
  119OSM    C1112515   2.093   2.619  10.987  0.0508  0.7934  0.3147
  119OSM   H11A12516   2.027   2.600  11.073 -0.6895  0.7168 -0.2620
  119OSM   H11B12517   2.113   2.520  10.940  1.6190  0.1216  2.2485
  119OSM      P12518   1.954   2.836  10.954 -0.6801 -0.3249 -0.2799
  119OSM    O1312519   1.864   2.816  11.075  0.2201 -0.4830  0.0864
  119OSM    O1412520   2.068   2.928  10.979  0.3282  0.6864 -0.1815
  119OSM    O1112521   1.869   2.879  10.830  0.4255  0.3457  0.2297
  119OSM    O1212522   2.010   2.699  10.906  0.2755 -0.3640 -0.2164
  119OSM    C1S12523   1.922   2.877  10.697  0.4510  0.7826 -0.3097
  119OSM    H1S12524   1.938   2.773  10.662 -1.3029 -0.0164  1.1220
  119OSM    H1T12525   2.024   2.921  10.703  2.3473 -3.2148 -0.0620
  119OSM     NF12526   1.903   2.919  10.469 -0.3013 -0.4047 -0.2126
  119OSM    HNF12527   1.962   2.984  10.423 -1.4060 -0.2331 -1.4484
  119OSM    C2S12528   1.844   2.964  10.598 -0.7660 -0.0628 -0.2220
  119OSM    H2S12529   1.736   2.939  10.598 -0.4467 -1.5267 -0.2384
  119OSM    C3S12530   1.862   3.111  10.634  0.0819  0.2832 -0.3065
  119OSM    H3S12531   1.970   3.136  10.642 -0.2312  1.8042 -0.5643
  119OSM     O312532   1.812   3.138  10.766  0.1394  0.1880  0.0039
  119OSM    HO312533   1.832   3.052  10.802  1.3671  0.2331 -0.5138
  119OSM    C4S12534   1.797   3.207  10.540  0.0394 -0.7529  0.1869
  119OSM    H4S12535   1.870   3.245  10.466 -0.6674 -1.1542 -0.7457
  119OSM    C5S12536   1.674   3.257  10.546  0.2540 -0.3683  0.1431
  119OSM    H5S12537   1.611   3.216  10.627 -0.0565 -1.9132 -0.8280
  119OSM    C6S12538   1.612   3.363  10.465  0.4251 -0.2889 -0.1017
  119OSM    H6S12539   1.567   3.440  10.530  1.6516  0.9737 -0.7109
  119OSM    H6T12540   1.538   3.319  10.394  3.1825 -1.8592 -2.2123
  119OSM    C7S12541   1.717   3.438  10.377  1.0619  0.7781  0.2640
  119OSM    H7S12542   1.761   3.374  10.298 -0.3010 -1.7814  1.4829
  119OSM    H7T12543   1.796   3.498  10.428  1.4960 -0.9493  1.7234
  119OSM    C8S12544   1.639   3.549  10.296 -0.3774  0.2208  0.0690
  119OSM    H8S12545   1.591   3.608  10.377  1.8491 -0.6462  2.1286
  119OSM    H8T12546   1.553   3.502  10.243  0.0327  0.2053 -0.5987
  119OSM    C9S12547   1.727   3.637  10.206 -0.3520 -0.5695  0.4009
  119OSM    H9S12548   1.801   3.699  10.261  0.3023  2.3664 -3.3930
  119OSM    H9T12549   1.663   3.713  10.156  0.4205  0.0380  0.3222
  119OSM   C10S12550   1.793   3.576  10.085 -0.4093 -0.0664 -0.4711
  119OSM   H10S12551   1.717   3.509  10.039 -1.2223  1.3470 -1.2250
  119OSM   H10T12552   1.886   3.520  10.109  0.9824  1.3482 -2.3115
  119OSM   C11S12553   1.818   3.681   9.980 -0.5621 -0.0032 -0.2273
  119OSM   H11S12554   1.885   3.757  10.027 -0.8027 -0.4112  0.8111
  119OSM   H11T12555   1.725   3.735   9.954 -1.0640  0.7112  2.6952
  119OSM   C12S12556   1.909   3.633   9.863 -0.3889  0.2316  0.2120
  119OSM   H12S12557   2.013   3.603   9.889  0.5844  0.9602 -2.4485
  119OSM   H12T12558   1.908   3.737   9.823  1.3560  0.5880  1.0192
  119OSM   C13S12559   1.855   3.526   9.773 -0.3979  0.2890  0.2386
  119OSM   H13S12560   1.753   3.541   9.730 -0.5404 -0.9477  0.1267
  119OSM   H13T12561   1.846   3.433   9.833  1.4907 -1.0011 -1.3630
  119OSM   C14S12562   1.941   3.500   9.650 -0.2507  0.1737  0.2360
  119OSM   H14S12563   1.887   3.429   9.583  1.8033 -0.0752 -1.2820
  119OSM   H14T12564   2.035   3.445   9.673 -0.1499 -0.1853 -0.9334
  119OSM   C15S12565   1.983   3.621   9.573 -0.2014  1.1119  0.4484
  119OSM   H15S12566   2.074   3.665   9.619 -0.2921 -0.8637  2.6620
  119OSM   H15T12567   1.908   3.703   9.578  1.0471  2.3785 -0.7651
  119OSM   C16S12568   2.014   3.597   9.416 -0.6691  0.5357 -0.4583
  119OSM   H16S12569   1.924   3.550   9.371 -2.2763  0.9689  2.0721
  119OSM   H16T12570   2.108   3.537   9.417 -0.2387  1.1584  1.2422
  119OSM   C17S12571   2.034   3.731   9.346  0.1930  0.2075 -0.4643
  119OSM   H17S12572   2.134   3.765   9.379  0.0285  0.3643 -0.1261
  119OSM   H17T12573   1.955   3.803   9.376  0.5671  0.4816 -0.1413
  119OSM   C18S12574   2.038   3.720   9.190  0.4831  0.3381  0.2207
  119OSM   H18S12575   1.936   3.686   9.161  0.4869  1.0052 -0.6165
  119OSM   H18T12576   2.119   3.652   9.154  1.6848  1.8017  0.0417
  119OSM   H18U12577   2.047   3.823   9.151  2.0661 -0.4056 -1.5761
  119OSM    C1F12578   1.876   2.803  10.408  0.1590  0.2107  0.1567
  119OSM     OF12579   1.785   2.733  10.450  0.5732 -0.0659 -0.6132
  119OSM    C2F12580   1.946   2.757  10.284  0.1148  0.1660 -0.1156
  119OSM    H2F12581   1.886   2.781  10.194 -0.4408 -0.8265 -0.0336
  119OSM    H2G12582   1.959   2.646  10.290  2.4621  0.3711 -0.4086
  119OSM    C3F12583   2.081   2.824  10.258 -0.5614  0.4136 -0.5877
  119OSM    H3F12584   2.146   2.793  10.344 -1.5871 -0.5352 -0.1217
  119OSM    H3G12585   2.066   2.934  10.256 -0.2534  0.4517 -2.2210
  119OSM    C4F12586   2.152   2.772  10.134 -0.3722 -0.2578  0.3635
  119OSM    H4F12587   2.175   2.664  10.148 -1.3881 -0.3730  1.2752
  119OSM    H4G12588   2.243   2.833  10.115 -0.9483  0.5221  0.0787
  119OSM    C5F12589   2.069   2.768  10.008  0.3889 -0.0380  0.3615
  119OSM    H5F12590   2.020   2.866   9.991 -0.4338 -0.8098 -2.2434
  119OSM    H5G12591   1.993   2.687  10.003 -0.9500  1.2409 -1.7232
  119OSM    C6F12592   2.149   2.752   9.881  0.5190 -0.2043  0.3357
  119OSM    H6F12593   2.180   2.646   9.876  0.6000 -0.1213 -1.3790
  119OSM    H6G12594   2.243   2.810   9.868 -0.0198  0.3381 -1.4840
  119OSM    C7F12595   2.072   2.771   9.747 -0.2321 -0.9329 -0.5705
  119OSM    H7F12596   2.052   2.879   9.734  1.6297 -0.4451  0.2498
  119OSM    H7G12597   1.977   2.716   9.762 -0.0116 -1.2883 -0.4514
  119OSM    C8F12598   2.141   2.722   9.622  0.0541  0.0940  1.2694
  119OSM    H8F12599   2.073   2.737   9.536  0.5938 -1.6714  0.4782
  119OSM    H8G12600   2.163   2.614   9.633  0.4198  0.1014  0.6783
  119OSM    C9F12601   2.272   2.779   9.593 -0.7964 -0.6464  0.7655
  119OSM    H9F12602   2.330   2.799   9.684 -1.2073 -2.6203  1.4911
  119OSM   C10F12603   2.326   2.786   9.468 -0.0689 -0.3711  0.1432
  119OSM   H10F12604   2.419   2.845   9.459  0.0458 -0.6256 -0.4137
  119OSM   C11F12605   2.269   2.756   9.334  0.7861  0.1019  0.4801
  119OSM   H11F12606   2.158   2.762   9.338  0.8312  0.6028  1.0977
  119OSM   H11G12607   2.297   2.654   9.299 -1.4555 -1.1323  2.0208
  119OSM   C12F12608   2.320   2.853   9.237 -0.4282 -0.0101 -0.1201
  119OSM   H12F12609   2.430   2.864   9.252 -0.4612  0.7303 -0.3625
  119OSM   H12G12610   2.268   2.949   9.258  1.0586  0.5566  1.2313
  119OSM   C13F12611   2.294   2.815   9.090  0.0296 -0.0403  0.3337
  119OSM   H13F12612   2.331   2.711   9.077  0.7193  0.1339  0.8343
  119OSM   H13G12613   2.339   2.881   9.013 -0.0246  0.5921  0.8341
  119OSM   C14F12614   2.142   2.834   9.052 -0.5794 -0.0982  0.0274
  119OSM   H14F12615   2.101   2.926   9.099 -1.7551 -1.5667  2.0459
  119OSM   H14G12616   2.086   2.747   9.093  0.4019 -0.7289  0.0755
  119OSM   C15F12617   2.125   2.839   8.896 -0.5788  0.0472 -0.6671
  119OSM   H15F12618   2.138   2.732   8.868  0.7039 -0.0142  0.0842
  119OSM   H15G12619   2.205   2.897   8.846  0.5403 -0.0672  0.9271
  119OSM   C16F12620   1.989   2.896   8.848 -0.7933 -0.6179 -0.4560
  119OSM   H16F12621   1.978   2.884   8.738 -2.0697 -1.2117 -0.2820
  119OSM   H16G12622   1.996   3.005   8.866  2.5000 -0.7554 -0.3182
  119OSM   C17F12623   1.869   2.842   8.926  0.1606 -0.4005 -0.2794
  119OSM   H17F12624   1.879   2.844   9.036 -3.9078  1.5540  0.2567
  119OSM   H17G12625   1.875   2.734   8.900 -0.0452 -0.3183 -0.6872
  119OSM   C18F12626   1.729   2.904   8.898  0.8574  0.6781  0.3365
  119OSM   H18F12627   1.698   2.895   8.792  2.7374 -2.1301 -0.0723
  119OSM   H18G12628   1.730   3.013   8.920  0.5229  0.4169  1.7488
  119OSM   H18H12629   1.648   2.860   8.960 -1.0662  0.2718 -2.3084
  120OSM      N12630   0.016   4.216  10.427  0.0842  0.1533  0.4974
  120OSM    C1512631  -0.022   4.073  10.426 -0.3501 -0.0646  0.1361
  120OSM   H15A12632  -0.027   4.033  10.326  3.5752  1.0571 -0.6948
  120OSM   H15B12633  -0.118   4.064  10.475  0.1149 -0.3117  1.0299
  120OSM   H15C12634   0.053   4.020  10.483 -0.5322 -0.5513 -0.0744
  120OSM    C1412635   0.137   4.234  10.345  0.4037 -0.3670  0.0151
  120OSM   H14A12636   0.173   4.334  10.362  1.1043 -0.3736 -1.3043
  120OSM   H14B12637   0.123   4.210  10.241 -1.0139  1.4246 -0.2569
  120OSM   H14C12638   0.214   4.168  10.383 -1.1496 -3.4250 -1.6854
  120OSM    C1312639  -0.097   4.288  10.359 -0.4569  0.2240  0.0141
  120OSM   H13A12640  -0.187   4.294  10.418  0.0183  0.8648  0.6947
  120OSM   H13B12641  -0.114   4.236  10.265 -0.0717  0.3933 -0.1531
  120OSM   H13C12642  -0.070   4.390  10.335 -2.6765  1.1815  1.2848
  120OSM    C1212643   0.038   4.269  10.567  0.7614 -0.5894 -0.6815
  120OSM   H12A12644   0.092   4.192  10.620  6.0713  2.1517 -1.3530
  120OSM   H12B12645  -0.058   4.264  10.616  0.4380 -5.9291 -1.3687
  120OSM    C1112646   0.092   4.413  10.587 -0.4090  0.0674 -0.2504
  120OSM   H11A12647   0.080   4.444  10.693 -2.3990 -0.4875 -0.2683
  120OSM   H11B12648   0.027   4.479  10.526  0.0464  0.4937 -0.2783
  120OSM      P12649   0.302   4.538  10.489 -0.3718  0.1461 -0.1671
  120OSM    O1312650   0.288   4.667  10.564 -0.0271 -0.1032 -0.0973
  120OSM    O1412651   0.437   4.506  10.445  0.0672 -0.8222 -0.0040
  120OSM    O1112652   0.210   4.559  10.363 -0.0482  0.0074  0.2950
  120OSM    O1212653   0.227   4.415  10.552 -0.6516 -0.3385  0.2728
  120OSM    C1S12654   0.240   4.645  10.253 -0.2378 -0.2853  0.6229
  120OSM    H1S12655   0.349   4.666  10.243 -0.3902  0.9743  1.3567
  120OSM    H1T12656   0.199   4.748  10.261  0.7346  0.2032 -0.3593
  120OSM     NF12657   0.272   4.630  10.004  0.6354 -0.5159  0.6713
  120OSM    HNF12658   0.211   4.690   9.952  0.2369  0.2449  1.9796
  120OSM    C2S12659   0.198   4.584  10.123  1.1568 -0.0226 -0.1573
  120OSM    H2S12660   0.215   4.475  10.137 -1.0499 -0.1482  2.2937
  120OSM    C3S12661   0.037   4.598  10.109 -0.2250 -0.8547  0.0552
  120OSM    H3S12662   0.015   4.705  10.088  1.4755 -0.8081 -1.8939
  120OSM     O312663  -0.029   4.561  10.224 -0.1844  0.5353  0.2599
  120OSM    HO312664   0.044   4.559  10.287  2.4118 -1.7602 -2.5184
  120OSM    C4S12665  -0.004   4.513   9.987 -0.6714 -0.9809  0.4194
  120OSM    H4S12666   0.003   4.403   9.997 -1.3386 -1.2359 -1.4856
  120OSM    C5S12667  -0.059   4.569   9.876 -0.4899 -0.2485  0.1144
  120OSM    H5S12668  -0.069   4.679   9.884  2.6130  0.0002  2.8538
  120OSM    C6S12669  -0.104   4.495   9.751 -0.7519 -0.2428  0.0456
  120OSM    H6S12670  -0.200   4.538   9.714 -1.4524 -1.1971  0.7112
  120OSM    H6T12671  -0.144   4.395   9.775 -1.7508  0.2621  0.5732
  120OSM    C7S12672   0.004   4.513   9.643  0.1520  0.4467  0.7867
  120OSM    H7S12673   0.090   4.454   9.680  0.0996 -0.2571 -0.1823
  120OSM    H7T12674   0.054   4.611   9.626  1.7728 -0.6957 -1.6433
  120OSM    C8S12675  -0.027   4.443   9.507  0.6285  0.1101  0.5631
  120OSM    H8S12676  -0.119   4.495   9.470 -0.1238 -2.6444 -1.7386
  120OSM    H8T12677  -0.054   4.336   9.521 -0.1614  0.4729  2.0878
  120OSM    C9S12678   0.085   4.448   9.405  0.2770 -0.1844  0.1133
  120OSM    H9S12679   0.166   4.390   9.453  2.1325  2.0922 -0.1055
  120OSM    H9T12680   0.114   4.552   9.378  2.0277 -1.4989 -3.6748
  120OSM   C10S12681   0.047   4.382   9.268 -0.1622 -0.5689  0.0129
  120OSM   H10S12682  -0.043   4.442   9.243  0.3090  0.7021  1.2610
  120OSM   H10T12683   0.029   4.274   9.289 -0.7917 -0.3904  0.4278
  120OSM   C11S12684   0.156   4.400   9.161  0.4636  0.0772  1.0708
  120OSM   H11S12685   0.152   4.316   9.088 -2.4235  1.0665 -0.0520
  120OSM   H11T12686   0.261   4.407   9.199 -0.1821  0.5807  2.8477
  120OSM   C12S12687   0.134   4.534   9.089 -0.4436  0.4884 -0.6374
  120OSM   H12S12688   0.129   4.617   9.163 -1.7990  0.9356 -1.1900
  120OSM   H12T12689   0.034   4.542   9.041 -1.8061 -1.7507  1.6330
  120OSM   C13S12690   0.239   4.569   8.972 -0.0148  0.5611  0.3219
  120OSM   H13S12691   0.239   4.487   8.898  0.6974  1.1401 -0.3433
  120OSM   H13T12692   0.331   4.577   9.034  0.3939  1.9558 -0.4287
  120OSM   C14S12693   0.226   4.704   8.903 -0.2144  0.5506  0.5768
  120OSM   H14S12694   0.237   4.790   8.973 -0.3401  1.3561 -0.3702
  120OSM   H14T12695   0.123   4.710   8.861  0.5047  0.5021 -1.2636
  120OSM   C15S12696   0.329   4.728   8.792  0.7903  0.4255 -0.4124
  120OSM   H15S12697   0.286   4.813   8.736 -0.3792  0.0075 -0.2002
  120OSM   H15T12698   0.341   4.640   8.725 -1.3593  0.3144 -0.7479
  120OSM   C16S12699   0.460   4.776   8.854 -0.2829 -0.1681  0.5586
  120OSM   H16S12700   0.531   4.694   8.880  2.1020  0.7244 -2.4809
  120OSM   H16T12701   0.444   4.834   8.948 -2.5943  1.5194 -0.7695
  120OSM   C17S12702   0.549   4.871   8.765  0.0874  0.6656  0.2806
  120OSM   H17S12703   0.488   4.947   8.712  1.0541  0.1300 -1.7208
  120OSM   H17T12704   0.597   4.814   8.682  1.7757  0.1957  1.5136
  120OSM   C18S12705   0.640   4.961   8.841  0.4871 -0.4554  0.0974
  120OSM   H18S12706   0.699   5.023   8.771  1.2156 -0.8395  0.3562
  120OSM   H18T12707   0.711   4.894   8.894 -0.6757 -3.1140 -1.4976
  120OSM   H18U12708   0.586   5.026   8.913 -1.0599 -1.3869 -0.1861
  120OSM    C1F12709   0.400   4.623   9.969 -0.1859  0.2333  0.2125
  120OSM     OF12710   0.489   4.582  10.042 -0.3676  0.4853  0.2255
  120OSM    C2F12711   0.425   4.674   9.830 -0.0705 -0.7867 -0.3933
  120OSM    H2F12712   0.531   4.656   9.800  0.0946 -0.4222 -0.0427
  120OSM    H2G12713   0.420   4.783   9.850  0.8288 -0.8010 -0.0570
  120OSM    C3F12714   0.334   4.632   9.716 -0.2975 -0.8894  0.3014
  120OSM    H3F12715   0.229   4.652   9.747 -0.2497 -2.2663  1.4991
  120OSM    H3G12716   0.346   4.522   9.705  2.6029 -0.6094 -0.0981
  120OSM    C4F12717   0.373   4.691   9.579 -0.4480 -1.0279  0.5481
  120OSM    H4F12718   0.363   4.617   9.497  2.6302  1.5068 -2.3801
  120OSM    H4G12719   0.482   4.707   9.581 -0.6570  0.9150 -0.8809
  120OSM    C5F12720   0.293   4.818   9.555  0.4230 -0.0335  0.5224
  120OSM    H5F12721   0.289   4.885   9.643 -1.6027  1.9769 -0.9964
  120OSM    H5G12722   0.187   4.788   9.538  0.2672  0.0211  1.3309
  120OSM    C6F12723   0.321   4.881   9.418 -0.2843  0.1347 -0.0966
  120OSM    H6F12724   0.287   4.813   9.337 -0.9245  0.9049 -0.4825
  120OSM    H6G12725   0.432   4.885   9.408 -0.3805 -0.4917 -1.6513
  120OSM    C7F12726   0.262   5.028   9.406 -0.0347 -0.3445 -0.4737
  120OSM    H7F12727   0.281   5.089   9.497 -0.9123 -1.0434  0.1915
  120OSM    H7G12728   0.152   5.011   9.404 -0.1141  0.1369 -0.4345
  120OSM    C8F12729   0.317   5.087   9.275  0.9123  0.2394 -0.2626
  120OSM    H8F12730   0.334   5.002   9.206  1.5095 -0.2053  0.4233
  120OSM    H8G12731   0.417   5.127   9.304  1.5016 -2.4955  1.8162
  120OSM    C9F12732   0.233   5.199   9.215 -0.7862 -0.5856 -0.1543
  120OSM    H9F12733   0.226   5.284   9.284 -1.1146 -1.5315  1.0132
  120OSM   C10F12734   0.181   5.201   9.091  0.5727  0.2621  0.4178
  120OSM   H10F12735   0.147   5.302   9.064 -0.4389 -0.1890 -0.0840
  120OSM   C11F12736   0.183   5.101   8.978 -0.4854 -0.1847  0.4898
  120OSM   H11F12737   0.081   5.068   8.951  0.0752 -0.8670 -0.8897
  120OSM   H11G12738   0.242   5.012   9.007 -0.1148  0.1938  0.9258
  120OSM   C12F12739   0.248   5.174   8.854  0.5056  0.1089 -0.0318
  120OSM   H12F12740   0.356   5.193   8.874  0.5389 -1.6893  1.8019
  120OSM   H12G12741   0.192   5.269   8.838  1.0240  0.2929 -0.8321
  120OSM   C13F12742   0.231   5.092   8.728 -0.2188  0.2472 -0.1742
  120OSM   H13F12743   0.296   5.002   8.732 -0.1106  0.3077 -0.5533
  120OSM   H13G12744   0.251   5.150   8.636  2.5501 -1.7488 -0.9420
  120OSM   C14F12745   0.089   5.038   8.700 -0.3568 -0.2761  0.2343
  120OSM   H14F12746   0.019   5.116   8.737  0.1602  0.3554 -0.0836
  120OSM   H14G12747   0.076   4.946   8.761 -1.0814 -2.2225 -2.6519
  120OSM   C15F12748   0.057   5.005   8.551 -0.4527  0.0296  0.0322
  120OSM   H15F12749   0.052   5.100   8.494 -0.2481 -0.0359 -0.0942
  120OSM   H15G12750  -0.046   4.964   8.552  0.3268 -2.0879  1.5925
  120OSM   C16F12751   0.141   4.898   8.492 -1.0020  0.0508 -0.0292
  120OSM   H16F12752   0.150   4.804   8.550  0.8705 -0.2448 -0.7435
  120OSM   H16G12753   0.243   4.935   8.470 -0.5909 -0.2929  1.2632
  120OSM   C17F12754   0.072   4.833   8.365  0.1846 -0.5919  0.5757
  120OSM   H17F12755  -0.032   4.799   8.387 -0.7646  1.2834 -0.6891
  120OSM   H17G12756   0.144   4.752   8.344 -1.6902 -1.8666 -1.3876
  120OSM   C18F12757   0.073   4.922   8.240  0.4682 -0.5131  0.4266
  120OSM   H18F12758   0.029   4.862   8.158 -0.2949  1.8068 -0.9606
  120OSM   H18G12759   0.175   4.960   8.216  0.5402 -0.8105  0.2537
  120OSM   H18H12760   0.006   5.010   8.251  0.8134 -0.3360  1.1360
  121OSM      N12761   0.826   0.932  11.012  0.2928  0.0657  0.5179
  121OSM    C1512762   0.858   0.798  11.065  0.3416  0.4422 -0.0073
  121OSM   H15A12763   0.942   0.806  11.133  0.3530 -1.3492  0.2231
  121OSM   H15B12764   0.868   0.728  10.983  0.8446  2.0498 -1.3749
  121OSM   H15C12765   0.783   0.760  11.133  0.7041 -0.2674  0.0024
  121OSM    C1412766   0.693   0.928  10.939  0.2790 -0.0117  0.0268
  121OSM   H14A12767   0.665   1.029  10.911  1.0867  0.3650  0.5350
  121OSM   H14B12768   0.611   0.894  11.001 -0.1033 -0.6519 -0.8086
  121OSM   H14C12769   0.694   0.860  10.855  2.5356 -0.9168  0.7070
  121OSM    C1312770   0.804   1.020  11.130 -0.3061  0.3784 -0.1527
  121OSM   H13A12771   0.885   1.019  11.201 -0.5823  2.0754  0.2420
  121OSM   H13B12772   0.719   0.995  11.192  0.4088 -0.8724  0.3603
  121OSM   H13C12773   0.785   1.125  11.114 -0.9036  0.0948 -1.4400
  121OSM    C1212774   0.944   0.989  10.924  0.1125  1.2091  0.0412
  121OSM   H12A12775   0.980   0.921  10.849  1.8600  2.1212 -0.0077
  121OSM   H12B12776   1.031   0.992  10.988  0.9400 -3.1895 -0.5974
  121OSM    C1112777   0.937   1.129  10.853  0.0507 -0.1962 -0.5137
  121OSM   H11A12778   0.836   1.138  10.806 -0.4074 -1.6403  0.1438
  121OSM   H11B12779   1.015   1.139  10.775 -0.7041  2.2543 -1.0615
  121OSM      P12780   1.093   1.271  11.007 -0.3870  0.3799 -0.0731
  121OSM    O1312781   1.086   1.405  11.073  0.4193  0.3890 -0.2135
  121OSM    O1412782   1.152   1.154  11.075 -0.6362 -0.0829 -0.1326
  121OSM    O1112783   1.164   1.293  10.875 -0.0056 -1.0995 -0.3206
  121OSM    O1212784   0.947   1.228  10.958 -0.4887  0.5043  0.6937
  121OSM    C1S12785   1.292   1.244  10.853 -0.2589  0.1981  0.1974
  121OSM    H1S12786   1.313   1.147  10.903  1.3818  0.8934  0.9030
  121OSM    H1T12787   1.366   1.313  10.898  0.3628 -0.6977  0.5839
  121OSM     NF12788   1.467   1.170  10.679 -0.2595 -0.5475 -0.4321
  121OSM    HNF12789   1.527   1.235  10.633 -0.6191  0.9817  1.1469
  121OSM    C2S12790   1.332   1.228  10.702  0.2798  0.6723  1.0853
  121OSM    H2S12791   1.262   1.157  10.653  2.7103 -1.9589  1.2314
  121OSM    C3S12792   1.308   1.367  10.631 -0.1896  0.1702 -0.1633
  121OSM    H3S12793   1.364   1.452  10.676 -0.3957  0.5000 -0.5183
  121OSM     O312794   1.174   1.420  10.638 -0.4421  0.0995  0.2473
  121OSM    HO312795   1.144   1.374  10.717 -1.6860 -2.0833 -1.4033
  121OSM    C4S12796   1.344   1.354  10.483  0.3795  0.2341  0.2499
  121OSM    H4S12797   1.355   1.253  10.440 -0.0952  0.5329 -0.5948
  121OSM    C5S12798   1.389   1.454  10.407  1.2355 -0.7058 -0.1369
  121OSM    H5S12799   1.396   1.557  10.445  1.4315 -1.2038  1.2701
  121OSM    C6S12800   1.450   1.437  10.271  0.1098 -0.8766 -0.0370
  121OSM    H6S12801   1.435   1.336  10.228  0.4164 -0.1880 -1.8598
  121OSM    H6T12802   1.561   1.445  10.276  0.1270 -1.0966 -0.0661
  121OSM    C7S12803   1.390   1.539  10.167 -0.3769  0.4222  0.2081
  121OSM    H7S12804   1.437   1.638  10.188  1.8081 -0.4052 -0.4667
  121OSM    H7T12805   1.280   1.535  10.183 -0.1501  0.5111  2.0471
  121OSM    C8S12806   1.425   1.493  10.024  1.1873 -0.0336  0.5075
  121OSM    H8S12807   1.385   1.390  10.011  2.2209 -0.6000  1.6138
  121OSM    H8T12808   1.536   1.484  10.023  1.1365 -0.6389  0.2058
  121OSM    C9S12809   1.368   1.590   9.913 -0.3396  0.4847 -0.7801
  121OSM    H9S12810   1.413   1.690   9.935 -1.0153  0.7462 -0.5625
  121OSM    H9T12811   1.260   1.605   9.934 -0.1132 -0.2529  1.0366
  121OSM   C10S12812   1.403   1.536   9.774  0.1899  0.0028 -0.2285
  121OSM   H10S12813   1.342   1.444   9.757 -1.0053  0.4226  1.5208
  121OSM   H10T12814   1.510   1.508   9.767  0.1646 -0.1821  0.1537
  121OSM   C11S12815   1.362   1.641   9.662 -0.0215  0.0397  0.4746
  121OSM   H11S12816   1.398   1.744   9.678 -3.5363  1.7063 -1.2532
  121OSM   H11T12817   1.252   1.649   9.650  0.0828 -2.2602 -4.0604
  121OSM   C12S12818   1.423   1.577   9.529  0.7872 -0.1637 -0.4576
  121OSM   H12S12819   1.364   1.488   9.498 -1.8363  1.3043 -0.0329
  121OSM   H12T12820   1.528   1.551   9.553  0.6819  0.5567  0.8974
  121OSM   C13S12821   1.408   1.663   9.404  0.2537 -0.8681 -0.1831
  121OSM   H13S12822   1.459   1.606   9.324 -0.0758 -1.4828  0.0370
  121OSM   H13T12823   1.463   1.754   9.435 -3.8328  1.5803  0.6867
  121OSM   C14S12824   1.264   1.700   9.364  0.2162  0.4634 -0.3549
  121OSM   H14S12825   1.224   1.766   9.443 -2.5488  0.1529 -1.3850
  121OSM   H14T12826   1.206   1.606   9.377  0.7863 -0.2688 -2.6731
  121OSM   C15S12827   1.253   1.760   9.223  0.0193 -0.2647  0.0218
  121OSM   H15S12828   1.320   1.849   9.222 -0.4614  0.1087  0.2562
  121OSM   H15T12829   1.149   1.791   9.200 -0.9461 -1.3776  2.5628
  121OSM   C16S12830   1.304   1.659   9.119 -0.2994 -0.7986  0.5432
  121OSM   H16S12831   1.260   1.557   9.125  1.1362 -1.6011 -1.4631
  121OSM   H16T12832   1.415   1.654   9.127 -0.1454 -0.6470 -1.1728
  121OSM   C17S12833   1.271   1.702   8.981 -0.0964  0.6484  0.7031
  121OSM   H17S12834   1.311   1.803   8.958 -0.1517  0.0213 -2.7098
  121OSM   H17T12835   1.162   1.701   8.959 -0.1169  0.3961  0.8112
  121OSM   C18S12836   1.335   1.614   8.870 -0.3940  0.0485  0.4878
  121OSM   H18S12837   1.444   1.611   8.892 -0.4782 -1.6719  0.8399
  121OSM   H18T12838   1.305   1.656   8.772 -1.2588 -0.0474  0.7048
  121OSM   H18U12839   1.300   1.508   8.869  1.5871 -0.6455  0.0760
  121OSM    C1F12840   1.488   1.041  10.704 -0.4414  0.6412 -0.6478
  121OSM     OF12841   1.400   0.969  10.738  0.4190  0.0378 -0.8214
  121OSM    C2F12842   1.629   0.993  10.689 -0.5235 -0.0062  0.2255
  121OSM    H2F12843   1.676   0.963  10.785  3.8964  1.0369 -1.3792
  121OSM    H2G12844   1.694   1.076  10.654  1.3263 -1.4720 -0.0256
  121OSM    C3F12845   1.659   0.870  10.595 -0.3128 -0.3007 -0.4392
  121OSM    H3F12846   1.633   0.773  10.642 -0.7036  0.5481  1.1520
  121OSM    H3G12847   1.770   0.869  10.600 -0.3600 -0.1022  0.7576
  121OSM    C4F12848   1.607   0.904  10.454 -0.1313 -0.6670 -0.2334
  121OSM    H4F12849   1.496   0.903  10.457 -0.1259 -0.4657  1.9652
  121OSM    H4G12850   1.644   0.831  10.379  2.2067  1.2257 -1.0943
  121OSM    C5F12851   1.665   1.041  10.402  0.6230  0.1452  0.0710
  121OSM    H5F12852   1.775   1.023  10.399  0.3717 -1.5895  0.3200
  121OSM    H5G12853   1.645   1.125  10.472 -0.3837  1.7298 -1.9959
  121OSM    C6F12854   1.612   1.071  10.262  0.1542 -0.2470  0.6050
  121OSM    H6F12855   1.513   1.119  10.276  1.1625  1.6324  1.6717
  121OSM    H6G12856   1.595   0.979  10.202  2.7636 -0.4231  0.0299
  121OSM    C7F12857   1.689   1.175  10.174  0.5610  0.6070  0.3886
  121OSM    H7F12858   1.799   1.167  10.186  0.3596 -0.9749  1.6520
  121OSM    H7G12859   1.676   1.274  10.223  1.2652  0.4628  0.8801
  121OSM    C8F12860   1.645   1.179  10.028  0.1328  0.0262 -0.0300
  121OSM    H8F12861   1.660   1.284   9.995 -1.3544 -0.0034 -0.8935
  121OSM    H8G12862   1.535   1.175  10.008  0.0214 -0.2706  0.6047
  121OSM    C9F12863   1.714   1.065   9.949  0.9429  0.4516 -0.4837
  121OSM    H9F12864   1.740   0.977  10.010 -1.5431 -1.0698 -1.4603
  121OSM   C10F12865   1.740   1.063   9.823  0.0821  0.2795  0.3096
  121OSM   H10F12866   1.785   0.974   9.776  0.4806  0.0068  1.1989
  121OSM   C11F12867   1.704   1.172   9.727 -0.4925 -0.1769 -0.5935
  121OSM   H11F12868   1.787   1.190   9.655  0.9559  1.6883  1.4209
  121OSM   H11G12869   1.699   1.268   9.783 -1.4884  0.3724 -1.5781
  121OSM   C12F12870   1.574   1.150   9.646  0.1241 -0.2571 -0.1328
  121OSM   H12F12871   1.487   1.162   9.714  0.0523 -0.7244 -0.1399
  121OSM   H12G12872   1.563   1.045   9.611 -1.9627  0.0767 -0.5793
  121OSM   C13F12873   1.566   1.237   9.515  0.0576 -0.0636  0.1307
  121OSM   H13F12874   1.658   1.226   9.454 -1.4590  0.8212 -2.5078
  121OSM   H13G12875   1.554   1.343   9.546  2.8616  0.5358 -0.5516
  121OSM   C14F12876   1.446   1.185   9.429 -0.3633  0.0453  0.1936
  121OSM   H14F12877   1.352   1.228   9.471 -1.1907  0.6505 -2.1260
  121OSM   H14G12878   1.452   1.075   9.434  3.0365  0.1123 -0.2578
  121OSM   C15F12879   1.443   1.239   9.286  0.3745  0.5390  0.2095
  121OSM   H15F12880   1.532   1.197   9.233  0.0627  0.8794 -0.6119
  121OSM   H15G12881   1.436   1.350   9.287 -0.8147  0.4971 -0.5742
  121OSM   C16F12882   1.314   1.196   9.214  0.0869  0.1056 -0.2051
  121OSM   H16F12883   1.216   1.225   9.257  0.2016  1.3059 -0.7329
  121OSM   H16G12884   1.309   1.085   9.212  0.4885  0.0785  0.2064
  121OSM   C17F12885   1.310   1.245   9.064  0.1778  0.4463 -0.5219
  121OSM   H17F12886   1.397   1.207   9.006  0.2905  0.9585 -0.6974
  121OSM   H17G12887   1.311   1.356   9.066 -1.4618  0.5138 -1.4820
  121OSM   C18F12888   1.185   1.205   8.985 -0.1037  0.7436  0.3962
  121OSM   H18F12889   1.207   1.119   8.918 -0.2587  1.5635 -0.7345
  121OSM   H18G12890   1.153   1.296   8.929 -1.1419  0.0712 -0.1258
  121OSM   H18H12891   1.102   1.163   9.046 -0.4890 -0.9698 -1.1903
  122OSM      N12892   2.253   0.174  11.173 -0.6752 -0.8702 -1.3316
  122OSM    C1512893   2.329   0.081  11.267  0.0024  0.4756 -0.1548
  122OSM   H15A12894   2.393   0.018  11.208 -2.6333 -0.0080 -2.7172
  122OSM   H15B12895   2.265   0.026  11.334  0.0289 -1.0713 -1.3476
  122OSM   H15C12896   2.405   0.125  11.330  1.1789 -0.9112 -0.5307
  122OSM    C1412897   2.132   0.104  11.117 -0.1172 -0.2732 -0.5493
  122OSM   H14A12898   2.160   0.014  11.065  1.4842  0.8745 -1.7888
  122OSM   H14B12899   2.076   0.161  11.044  0.5393  0.1446 -0.7416
  122OSM   H14C12900   2.061   0.088  11.197  0.1301  1.2957  0.0222
  122OSM    C1312901   2.215   0.295  11.252 -0.0340 -0.5198  0.0220
  122OSM   H13A12902   2.294   0.323  11.320 -0.1773  0.3003 -0.1334
  122OSM   H13B12903   2.134   0.274  11.321 -0.4536  0.0955 -0.2722
  122OSM   H13C12904   2.188   0.375  11.185 -0.8251 -0.4724  0.3820
  122OSM    C1212905   2.350   0.217  11.066 -0.6448  0.3692  0.1754
  122OSM   H12A12906   2.437   0.267  11.107  0.0912  0.4412 -1.3816
  122OSM   H12B12907   2.307   0.290  11.000 -1.2552 -0.0135  0.1436
  122OSM    C1112908   2.404   0.109  10.970  0.2538  0.2937  0.2204
  122OSM   H11A12909   2.446   0.165  10.884 -0.5339 -0.6551 -0.8249
  122OSM   H11B12910   2.328   0.046  10.917  2.1044 -0.9427 -1.0772
  122OSM      P12911   2.651   0.093  11.052 -0.1778  0.5115  0.3111
  122OSM    O1312912   2.646   0.232  11.100 -0.4625 -0.1322 -0.1431
  122OSM    O1412913   2.744  -0.001  11.125  0.3458  0.0810 -0.1126
  122OSM    O1112914   2.685   0.102  10.897 -0.3838  0.5196  0.5626
  122OSM    O1212915   2.504   0.028  11.036 -0.2333  0.5305 -0.8445
  122OSM    C1S12916   2.704  -0.014  10.814  0.0460  0.4452  0.5597
  122OSM    H1S12917   2.608  -0.070  10.808  0.3682  0.0004 -0.8867
  122OSM    H1T12918   2.774  -0.085  10.864 -1.8529 -2.0721 -0.1280
  122OSM     NF12919   2.758  -0.093  10.581 -0.6219  0.2566 -0.1226
  122OSM    HNF12920   2.845  -0.140  10.567 -0.4957  0.0510  1.2147
  122OSM    C2S12921   2.757   0.027  10.667  0.0379  0.3964 -0.4542
  122OSM    H2S12922   2.681   0.096  10.625 -0.2808  0.3204 -0.0049
  122OSM    C3S12923   2.893   0.097  10.677  0.3496 -0.8895  0.3293
  122OSM    H3S12924   2.979   0.032  10.704  1.9822 -0.5464 -3.4576
  122OSM     O312925   2.901   0.199  10.784  0.2207  0.1695 -0.3745
  122OSM    HO312926   2.814   0.189  10.821 -0.0466 -2.9174 -1.5729
  122OSM    C4S12927   2.912   0.158  10.547 -0.7291 -0.4165  0.3189
  122OSM    H4S12928   2.856   0.249  10.522  1.2036  0.6927 -0.1636
  122OSM    C5S12929   3.004   0.115  10.459 -0.7574 -0.5671  0.3982
  122OSM    H5S12930   3.059   0.020  10.471 -0.1199 -0.0103  2.2033
  122OSM    C6S12931   3.029   0.191  10.330  0.6584  0.0196 -0.1871
  122OSM    H6S12932   3.136   0.219  10.317  0.5880  0.3997  0.0459
  122OSM    H6T12933   2.978   0.289  10.326  1.0390  0.2753  0.8602
  122OSM    C7S12934   2.985   0.097  10.211 -0.5366  0.5228  0.6641
  122OSM    H7S12935   2.874   0.090  10.214 -0.8896  2.0432 -3.1516
  122OSM    H7T12936   3.035  -0.002  10.216 -2.0631 -0.4471 -1.5334
  122OSM    C8S12937   3.019   0.161  10.079 -0.3342  0.7342  0.0852
  122OSM    H8S12938   3.128   0.182  10.071  0.0630  0.9055  4.0592
  122OSM    H8T12939   2.971   0.260  10.089  2.6802  2.2059  1.4432
  122OSM    C9S12940   2.960   0.092   9.959  0.3917 -0.4894 -0.5865
  122OSM    H9S12941   2.866   0.054  10.004  0.1606  1.1880  0.4175
  122OSM    H9T12942   3.013   0.000   9.927  0.6186 -0.4989 -0.1902
  122OSM   C10S12943   2.931   0.187   9.836 -0.3868 -0.8098  0.7130
  122OSM   H10S12944   3.027   0.225   9.796 -1.6981  2.0731  0.0294
  122OSM   H10T12945   2.888   0.278   9.884  1.4353  0.7736 -0.5258
  122OSM   C11S12946   2.864   0.123   9.714 -0.3799  0.3628  0.0413
  122OSM   H11S12947   2.759   0.110   9.749 -0.4832  2.3972  0.6368
  122OSM   H11T12948   2.898   0.021   9.687 -0.0858  0.2533  0.7968
  122OSM   C12S12949   2.853   0.218   9.591  0.0016  0.2026 -0.4444
  122OSM   H12S12950   2.957   0.224   9.552 -0.0374 -0.1399 -0.6140
  122OSM   H12T12951   2.829   0.321   9.622  1.4919  0.1366  1.0575
  122OSM   C13S12952   2.757   0.157   9.492  0.1670 -0.7681  0.0785
  122OSM   H13S12953   2.654   0.160   9.534  0.2434 -1.9164  0.3852
  122OSM   H13T12954   2.786   0.050   9.482 -1.2068 -1.3564  1.8694
  122OSM   C14S12955   2.767   0.213   9.353 -0.0352  0.2047  0.0384
  122OSM   H14S12956   2.866   0.190   9.309  0.1987 -0.0422  0.6796
  122OSM   H14T12957   2.780   0.322   9.370  1.3623  0.1818 -0.7237
  122OSM   C15S12958   2.651   0.155   9.274  0.0845  0.1646 -0.0166
  122OSM   H15S12959   2.556   0.195   9.317  0.9807  0.6034  1.6431
  122OSM   H15T12960   2.655   0.044   9.277 -0.0115  0.1776  0.8934
  122OSM   C16S12961   2.650   0.209   9.136  0.0965  0.3832 -0.8186
  122OSM   H16S12962   2.752   0.182   9.101 -0.3362 -0.0590 -1.7665
  122OSM   H16T12963   2.640   0.319   9.136 -3.5140  0.1852 -0.8931
  122OSM   C17S12964   2.555   0.147   9.044 -0.1241  0.2023  0.5324
  122OSM   H17S12965   2.448   0.172   9.060  0.4920  2.5527  1.3621
  122OSM   H17T12966   2.569   0.037   9.048 -3.1556 -0.2522  1.0285
  122OSM   C18S12967   2.591   0.202   8.902  0.1648  0.1161  0.0885
  122OSM   H18S12968   2.542   0.151   8.816  1.8313  0.0979 -0.8860
  122OSM   H18T12969   2.701   0.195   8.890  0.1814 -3.0041  1.1784
  122OSM   H18U12970   2.569   0.310   8.884 -1.2593 -0.1737  0.0149
  122OSM    C1F12971   2.647  -0.161  10.557  0.2065  0.2836 -0.7167
  122OSM     OF12972   2.537  -0.116  10.565  0.5608  0.2448  0.3751
  122OSM    C2F12973   2.667  -0.307  10.507 -0.1584 -0.5500  0.7072
  122OSM    H2F12974   2.567  -0.345  10.535 -0.7277  1.0404  0.9188
  122OSM    H2G12975   2.751  -0.355  10.561  0.1247  0.5254  1.2535
  122OSM    C3F12976   2.676  -0.310  10.352  0.8485 -0.7347  0.6256
  122OSM    H3F12977   2.735  -0.218  10.331  1.1809 -0.7573  1.4153
  122OSM    H3G12978   2.572  -0.302  10.314  0.3402  0.5499  2.1788
  122OSM    C4F12979   2.761  -0.423  10.290  0.6480 -0.2937  0.2119
  122OSM    H4F12980   2.726  -0.523  10.326  0.7187 -1.0310 -1.6729
  122OSM    H4G12981   2.866  -0.413  10.323 -0.2740 -0.0662  3.5067
  122OSM    C5F12982   2.751  -0.431  10.135  0.2573  0.1548 -0.2472
  122OSM    H5F12983   2.801  -0.340  10.094  0.2301  0.2868  0.0105
  122OSM    H5G12984   2.645  -0.428  10.102  0.5776  1.2634 -1.2335
  122OSM    C6F12985   2.809  -0.554  10.070  0.2268  0.4577 -0.5427
  122OSM    H6F12986   2.906  -0.563  10.123 -0.4809  0.3121  0.7802
  122OSM    H6G12987   2.819  -0.523   9.964 -0.1961  0.9103 -0.4551
  122OSM    C7F12988   2.720  -0.680  10.082 -0.7922  0.5156  0.6565
  122OSM    H7F12989   2.629  -0.668  10.020 -0.2613  1.3197  0.0108
  122OSM    H7G12990   2.687  -0.696  10.187 -3.4926  1.6423  0.0671
  122OSM    C8F12991   2.798  -0.787  10.004 -0.0838  0.4889  0.8829
  122OSM    H8F12992   2.826  -0.740   9.907 -0.2814  0.0876  0.6270
  122OSM    H8G12993   2.745  -0.880   9.973 -0.0867  0.5888  0.5832
  122OSM    C9F12994   2.928  -0.819  10.074  0.3735 -0.6885  0.5068
  122OSM    H9F12995   2.916  -0.834  10.182  0.7325  1.2651  0.8495
  122OSM   C10F12996   3.053  -0.820  10.023  0.7203  0.0579 -0.2255
  122OSM   H10F12997   3.144  -0.848  10.078 -0.0627 -1.8536  0.1562
  122OSM   C11F12998   3.082  -0.784   9.882 -0.1225 -0.5080 -0.5224
  122OSM   H11F12999   3.192  -0.776   9.869  0.4706 -3.1831  1.8914
  122OSM   H11G13000   3.033  -0.694   9.840  0.4214  0.5851  1.1013
  122OSM   C12F13001   3.039  -0.887   9.773  0.5217  0.6589  0.0886
  122OSM   H12F13002   2.929  -0.880   9.759 -0.0039 -1.7847  2.1461
  122OSM   H12G13003   3.063  -0.984   9.821  1.0808  1.3626  1.2948
  122OSM   C13F13004   3.117  -0.877   9.641 -0.1792 -0.0921 -0.3816
  122OSM   H13F13005   3.080  -0.959   9.576 -4.4320  2.1391 -1.1252
  122OSM   H13G13006   3.224  -0.873   9.673 -0.7919 -0.3010  1.9148
  122OSM   C14F13007   3.080  -0.756   9.552  0.3557  0.3594 -0.3896
  122OSM   H14F13008   3.132  -0.666   9.593  3.4988 -1.2709 -0.4553
  122OSM   H14G13009   2.971  -0.748   9.572  0.6497  1.1460  1.0512
  122OSM   C15F13010   3.118  -0.787   9.409 -0.3807 -0.2383 -0.2668
  122OSM   H15F13011   3.031  -0.840   9.364 -0.9149  0.5678 -0.2038
  122OSM   H15G13012   3.215  -0.842   9.411  0.3712  0.9235 -1.9934
  122OSM   C16F13013   3.157  -0.657   9.339  0.2939  0.0836 -0.7254
  122OSM   H16F13014   3.227  -0.594   9.398 -0.1846  0.2288 -0.2985
  122OSM   H16G13015   3.068  -0.591   9.326  0.1078  0.4401  1.8555
  122OSM   C17F13016   3.216  -0.680   9.198 -0.1404 -0.8008  0.4283
  122OSM   H17F13017   3.145  -0.732   9.130 -0.4070 -0.8784  0.7655
  122OSM   H17G13018   3.314  -0.730   9.212  1.1589  1.1990 -0.9419
  122OSM   C18F13019   3.258  -0.552   9.118  0.2752  0.5328  0.4900
  122OSM   H18F13020   3.172  -0.495   9.077 -0.0411  1.2675  2.1092
  122OSM   H18G13021   3.329  -0.576   9.036 -0.2668 -0.2790  0.2405
  122OSM   H18H13022   3.307  -0.478   9.185  3.5906 -0.2121 -0.8916
  123OSM      N13023   1.938   4.326   5.761 -0.3710 -0.4717  1.1997
  123OSM    C1513024   2.061   4.250   5.735 -0.0038  0.2359  0.0687
  123OSM   H15A13025   2.055   4.148   5.771 -0.5558 -0.1983 -1.2120
  123OSM   H15B13026   2.136   4.306   5.790 -0.9882  2.0526 -0.3687
  123OSM   H15C13027   2.088   4.238   5.631  2.8341 -0.6427  0.8239
  123OSM    C1413028   1.953   4.456   5.682  0.3426 -0.3869  0.5586
  123OSM   H14A13029   2.046   4.506   5.705 -0.6573  0.8061  2.2510
  123OSM   H14B13030   1.872   4.527   5.691 -0.3856 -0.6875 -2.5690
  123OSM   H14C13031   1.961   4.435   5.577 -0.4454 -0.2071  0.4591
  123OSM    C1313032   1.817   4.266   5.704 -0.5964 -0.4185 -0.7556
  123OSM   H13A13033   1.823   4.252   5.597 -1.9172 -0.0726 -0.9029
  123OSM   H13B13034   1.732   4.331   5.721  1.5338  1.6120  3.9083
  123OSM   H13C13035   1.799   4.169   5.749 -2.1310  0.8696  1.6028
  123OSM    C1213036   1.920   4.363   5.909  0.4133 -0.0895 -0.3467
  123OSM   H12A13037   1.843   4.438   5.921  0.2168 -0.3037 -0.2505
  123OSM   H12B13038   2.011   4.401   5.953 -0.7220  0.7995  1.3509
  123OSM    C1113039   1.879   4.243   5.999  0.6392 -0.1267  0.4638
  123OSM   H11A13040   1.899   4.273   6.104  1.3093  1.5069 -0.0878
  123OSM   H11B13041   1.957   4.171   5.968  0.6297 -0.2139  0.6445
  123OSM      P13042   1.668   4.142   6.085  0.3332  0.3014 -0.0578
  123OSM    O1313043   1.535   4.103   6.045  0.5993  0.3159  0.5388
  123OSM    O1413044   1.747   4.040   6.154  0.3583  0.3120 -0.0113
  123OSM    O1113045   1.647   4.262   6.184 -0.4592  0.2086 -0.4338
  123OSM    O1213046   1.748   4.185   5.969 -0.1762  0.3188 -0.0038
  123OSM    C1S13047   1.592   4.225   6.315 -0.1212 -0.0393  0.4321
  123OSM    H1S13048   1.589   4.116   6.337 -2.7312  0.2239  1.9223
  123OSM    H1T13049   1.483   4.246   6.313  0.1456  1.4739  0.6271
  123OSM     NF13050   1.570   4.274   6.541 -1.1767  0.2472 -0.4780
  123OSM    HNF13051   1.499   4.344   6.554 -0.2447  0.9477  1.2116
  123OSM    C2S13052   1.664   4.284   6.433 -0.3674 -0.0150 -1.0214
  123OSM    H2S13053   1.754   4.223   6.454 -1.8396 -1.3870  1.9352
  123OSM    C3S13054   1.701   4.434   6.415 -0.3981  0.1284  0.5150
  123OSM    H3S13055   1.604   4.486   6.398 -0.1773  1.6311  3.1600
  123OSM     O313056   1.790   4.470   6.308 -0.1089 -0.3481 -0.0753
  123OSM    HO313057   1.792   4.394   6.249  0.3527 -0.0379 -0.4660
  123OSM    C4S13058   1.767   4.487   6.545  0.1808  0.6040 -0.1720
  123OSM    H4S13059   1.859   4.435   6.576  1.7169  2.9388 -0.5193
  123OSM    C5S13060   1.699   4.570   6.629  0.4377 -0.6779  0.6417
  123OSM    H5S13061   1.601   4.608   6.596  0.1368 -1.1437  0.9713
  123OSM    C6S13062   1.744   4.625   6.766  0.2158 -0.1700 -0.0438
  123OSM    H6S13063   1.703   4.728   6.775 -2.8354 -1.3010  0.5163
  123OSM    H6T13064   1.854   4.616   6.775 -0.0414 -2.4719  1.8236
  123OSM    C7S13065   1.684   4.560   6.889 -0.7056 -0.8622 -0.5585
  123OSM    H7S13066   1.674   4.450   6.876 -1.3452 -0.7249 -1.3058
  123OSM    H7T13067   1.580   4.599   6.899 -0.3662 -0.5677  3.0469
  123OSM    C8S13068   1.766   4.588   7.013 -0.3923  0.4326 -0.0690
  123OSM    H8S13069   1.778   4.697   7.033  0.8550  0.1740  0.6758
  123OSM    H8T13070   1.869   4.549   7.001 -0.1952  0.6589  0.8546
  123OSM    C9S13071   1.702   4.526   7.134 -0.1470 -0.2704  0.4824
  123OSM    H9S13072   1.702   4.416   7.113 -3.0244 -0.2527 -0.0668
  123OSM    H9T13073   1.596   4.559   7.146 -0.5282 -1.4254  0.5006
  123OSM   C10S13074   1.763   4.558   7.272 -0.1654 -0.3459  0.7729
  123OSM   H10S13075   1.772   4.665   7.298  0.5346 -0.1459 -0.2456
  123OSM   H10T13076   1.866   4.518   7.282  0.9434  2.5184  1.6224
  123OSM   C11S13077   1.678   4.481   7.371 -0.7543 -0.0398 -0.6817
  123OSM   H11S13078   1.666   4.379   7.327 -0.2820 -0.0697 -0.7511
  123OSM   H11T13079   1.579   4.528   7.391 -0.8460 -0.1579 -0.8534
  123OSM   C12S13080   1.732   4.460   7.515 -0.6319 -0.0438 -0.1104
  123OSM   H12S13081   1.828   4.405   7.523 -0.0617  1.1019  1.5687
  123OSM   H12T13082   1.655   4.408   7.576  0.0838  1.4140  2.1386
  123OSM   C13S13083   1.768   4.593   7.581  0.9378  0.2625  0.1215
  123OSM   H13S13084   1.666   4.638   7.586  1.4298  1.2746  3.5850
  123OSM   H13T13085   1.840   4.643   7.514  0.7699 -2.1670 -2.0448
  123OSM   C14S13086   1.803   4.596   7.733  0.6436  0.0277  0.0481
  123OSM   H14S13087   1.899   4.542   7.731  0.7478  0.2190 -0.1374
  123OSM   H14T13088   1.725   4.551   7.798  0.2052  0.7639  0.0545
  123OSM   C15S13089   1.819   4.742   7.781  0.5761 -0.3423 -0.6354
  123OSM   H15S13090   1.829   4.742   7.891  1.1727 -1.9464 -0.6658
  123OSM   H15T13091   1.728   4.798   7.749  0.4627 -0.1912 -0.0498
  123OSM   C16S13092   1.945   4.815   7.733 -0.5255  0.5592 -0.0390
  123OSM   H16S13093   1.959   4.820   7.623 -2.5318 -3.0898 -0.6439
  123OSM   H16T13094   2.025   4.766   7.792 -1.6944 -0.2395  0.9366
  123OSM   C17S13095   1.951   4.960   7.782  0.1586 -0.6178  0.2502
  123OSM   H17S13096   1.882   5.009   7.710  1.1714  0.0297 -0.3030
  123OSM   H17T13097   2.050   5.005   7.762 -2.1012  3.3068 -4.1599
  123OSM   C18S13098   1.908   4.993   7.925 -0.3409  0.1813 -0.4073
  123OSM   H18S13099   1.805   4.958   7.947  0.2209 -1.3758 -0.0790
  123OSM   H18T13100   1.903   5.102   7.945 -1.1913  0.5431 -2.4279
  123OSM   H18U13101   1.979   4.942   7.995 -2.6438  0.2528  2.1526
  123OSM    C1F13102   1.565   4.162   6.610  1.1420  0.2100 -0.3101
  123OSM     OF13103   1.616   4.057   6.579  0.0006 -0.0606 -0.1324
  123OSM    C2F13104   1.473   4.170   6.732  0.7858  0.1577  0.5041
  123OSM    H2F13105   1.369   4.140   6.705  0.9630 -0.0669  0.0547
  123OSM    H2G13106   1.461   4.275   6.763  0.1431 -0.2502  1.6924
  123OSM    C3F13107   1.525   4.076   6.843 -0.4228 -0.5467  0.8075
  123OSM    H3F13108   1.618   4.118   6.885 -0.2622 -0.7108  0.6202
  123OSM    H3G13109   1.537   3.974   6.801 -0.1064  0.5006 -1.8516
  123OSM    C4F13110   1.432   4.079   6.966 -0.1486 -0.2744  0.2188
  123OSM    H4F13111   1.331   4.036   6.946  0.0416 -0.5231 -0.2151
  123OSM    H4G13112   1.427   4.188   6.983 -0.0790 -0.1123 -0.7545
  123OSM    C5F13113   1.485   4.036   7.100  0.2651  0.3726 -0.3578
  123OSM    H5F13114   1.594   4.054   7.112  0.4675 -1.7666  1.5353
  123OSM    H5G13115   1.479   3.927   7.117 -1.9560  0.6559  1.0021
  123OSM    C6F13116   1.414   4.109   7.218 -0.4169 -0.0644 -0.5613
  123OSM    H6F13117   1.309   4.072   7.221 -0.9647  1.4439  2.0506
  123OSM    H6G13118   1.414   4.217   7.190  2.0904 -0.1631 -1.1839
  123OSM    C7F13119   1.495   4.090   7.350  0.1205 -0.7255 -0.0536
  123OSM    H7F13120   1.603   4.104   7.329  0.1906 -0.5114  0.4325
  123OSM    H7G13121   1.480   3.989   7.395 -0.7717 -0.4129  0.3673
  123OSM    C8F13122   1.458   4.198   7.456 -0.2512  0.5756 -0.0870
  123OSM    H8F13123   1.451   4.295   7.403 -1.7354  0.0367 -0.9390
  123OSM    H8G13124   1.530   4.189   7.540 -0.4285 -0.5316 -0.0432
  123OSM    C9F13125   1.321   4.178   7.516  0.2936 -0.3875 -0.5096
  123OSM    H9F13126   1.247   4.166   7.435  1.7777  2.3595 -2.4228
  123OSM   C10F13127   1.291   4.146   7.643 -0.1972  1.1237  0.5321
  123OSM   H10F13128   1.185   4.145   7.672 -0.2666  0.1459  0.2842
  123OSM   C11F13129   1.393   4.148   7.755  0.7513  0.1493  0.1309
  123OSM   H11F13130   1.486   4.093   7.729 -0.5966 -2.5274  0.5700
  123OSM   H11G13131   1.351   4.091   7.840  2.1065  1.6027  1.8415
  123OSM   C12F13132   1.429   4.288   7.807  0.3834  0.4292  0.0710
  123OSM   H12F13133   1.340   4.352   7.828 -0.1025  0.1507 -1.0919
  123OSM   H12G13134   1.477   4.348   7.727  0.9318  0.4204  0.3887
  123OSM   C13F13135   1.528   4.279   7.923  0.2740 -0.3984  0.5679
  123OSM   H13F13136   1.624   4.247   7.876  1.5761  2.2577  1.1893
  123OSM   H13G13137   1.490   4.207   7.998  2.2807 -3.1321 -0.8865
  123OSM   C14F13138   1.555   4.419   7.987  0.5934  0.0488  0.3709
  123OSM   H14F13139   1.455   4.449   8.025 -0.1021 -0.6100 -0.8854
  123OSM   H14G13140   1.572   4.490   7.903  0.0962  0.7435  0.8413
  123OSM   C15F13141   1.674   4.432   8.083  0.3536 -0.5654  0.5325
  123OSM   H15F13142   1.679   4.535   8.125  1.2811 -0.1164 -0.6106
  123OSM   H15G13143   1.759   4.444   8.012  0.1451 -0.0172  0.3682
  123OSM   C16F13144   1.686   4.336   8.198 -0.3470  0.0304 -0.6158
  123OSM   H16F13145   1.690   4.229   8.168 -0.5277  0.4480 -2.2773
  123OSM   H16G13146   1.600   4.341   8.268  1.4102  0.2698  1.6078
  123OSM   C17F13147   1.816   4.364   8.269 -0.1522 -0.1867  0.5304
  123OSM   H17F13148   1.825   4.470   8.304 -0.5535 -0.5424  1.7763
  123OSM   H17G13149   1.906   4.356   8.205  1.3222  0.6211  2.3829
  123OSM   C18F13150   1.837   4.283   8.401  0.5279  0.1603 -0.1140
  123OSM   H18F13151   1.757   4.303   8.475  0.1644 -1.1557 -0.1293
  123OSM   H18G13152   1.936   4.318   8.438  0.3034  1.3647 -0.5964
  123OSM   H18H13153   1.824   4.173   8.390 -0.4737 -0.0314  2.2755
  124OSM      N13154   5.272   2.865   6.125 -0.1888  0.0225  0.6845
  124OSM    C1513155   5.376   2.938   6.047  0.7446 -0.5570 -0.4090
  124OSM   H15A13156   5.437   2.870   5.988  1.4330  0.3771 -0.7939
  124OSM   H15B13157   5.446   2.984   6.115  0.3874 -0.4209 -0.1302
  124OSM   H15C13158   5.342   3.023   5.991  0.5705 -0.8684 -0.7790
  124OSM    C1413159   5.181   2.965   6.189 -0.1013  0.1244 -0.7081
  124OSM   H14A13160   5.109   2.927   6.259 -0.2247  0.7119 -0.5213
  124OSM   H14B13161   5.123   3.020   6.117  0.4052  0.8465 -0.5777
  124OSM   H14C13162   5.236   3.038   6.246 -0.1368 -1.2240  1.1297
  124OSM    C1313163   5.193   2.775   6.033  0.3216 -0.1731 -0.5360
  124OSM   H13A13164   5.117   2.728   6.095  0.9048  0.9800  1.1162
  124OSM   H13B13165   5.258   2.699   5.993  1.0312 -0.0451  0.3312
  124OSM   H13C13166   5.138   2.822   5.953  0.5600 -1.4337 -1.4760
  124OSM    C1213167   5.331   2.783   6.231 -0.1387 -0.5592 -0.2195
  124OSM   H12A13168   5.415   2.731   6.187  0.7363 -1.5027  2.3548
  124OSM   H12B13169   5.256   2.720   6.277 -1.0754 -0.4995 -1.6325
  124OSM    C1113170   5.401   2.868   6.339  0.0266  0.0503  0.2341
  124OSM   H11A13171   5.418   2.792   6.420 -1.0715  0.5913  0.9958
  124OSM   H11B13172   5.330   2.943   6.378  1.2582  1.3779  0.0211
  124OSM      P13173   5.649   2.860   6.255  0.2004 -0.0932 -0.0243
  124OSM    O1313174   5.630   2.795   6.123  0.0172  0.1530 -0.2792
  124OSM    O1413175   5.762   2.955   6.260 -0.2552 -0.4111  0.1660
  124OSM    O1113176   5.667   2.746   6.359 -0.8758  0.8648 -0.3183
  124OSM    O1213177   5.518   2.933   6.300 -0.2459  0.5533 -0.2133
  124OSM    C1S13178   5.719   2.771   6.493 -0.0664 -0.6214  0.0987
  124OSM    H1S13179   5.636   2.818   6.548 -1.1152  0.1459 -2.0183
  124OSM    H1T13180   5.809   2.837   6.490 -2.9579  3.7299  0.4290
  124OSM     NF13181   5.804   2.670   6.705 -0.2926  0.2388  0.1225
  124OSM    HNF13182   5.900   2.684   6.729 -0.0360 -0.9741 -0.1426
  124OSM    C2S13183   5.773   2.644   6.569 -0.4528  0.0151  0.6265
  124OSM    H2S13184   5.692   2.568   6.576 -1.1058  0.7442  1.3554
  124OSM    C3S13185   5.895   2.580   6.491 -0.8282 -0.1553  0.5156
  124OSM    H3S13186   5.976   2.656   6.491 -1.2185  0.2713  0.4620
  124OSM     O313187   5.873   2.559   6.350  0.4130  0.0276  0.6511
  124OSM    HO313188   5.781   2.583   6.336  0.3384 -0.0835  0.9450
  124OSM    C4S13189   5.934   2.452   6.566 -0.0045 -0.3611 -0.3875
  124OSM    H4S13190   5.985   2.471   6.661 -1.5911 -1.4612  0.7600
  124OSM    C5S13191   5.894   2.320   6.543 -0.3140 -0.1475  0.0492
  124OSM    H5S13192   5.819   2.295   6.467  0.5745  0.4423 -1.0465
  124OSM    C6S13193   5.931   2.199   6.620  0.0306  0.7981 -0.0719
  124OSM    H6S13194   5.987   2.129   6.555  1.0117 -1.8667  3.3497
  124OSM    H6T13195   5.839   2.139   6.635  1.2716 -1.9517 -2.4641
  124OSM    C7S13196   6.021   2.205   6.746  0.2538  0.4130 -0.0023
  124OSM    H7S13197   6.113   2.266   6.739  0.0487  0.8177  0.8003
  124OSM    H7T13198   6.060   2.104   6.769 -0.4413 -0.0192 -0.6609
  124OSM    C8S13199   5.933   2.240   6.870 -0.1722  0.2969 -0.8073
  124OSM    H8S13200   5.941   2.151   6.936 -1.2137 -0.3315 -1.4935
  124OSM    H8T13201   5.829   2.259   6.837 -0.4990  1.4755  0.8110
  124OSM    C9S13202   5.994   2.345   6.957 -0.3732 -0.4249  0.5145
  124OSM    H9S13203   5.984   2.432   6.889  1.7515  0.2665  0.9988
  124OSM    H9T13204   6.104   2.353   6.973 -0.5297 -1.9848  2.9261
  124OSM   C10S13205   5.915   2.363   7.084  0.6733  0.1298 -0.1541
  124OSM   H10S13206   5.810   2.335   7.058  0.4791 -0.2836  1.0128
  124OSM   H10T13207   5.914   2.469   7.117  0.9431 -0.3529  1.5187
  124OSM   C11S13208   5.965   2.279   7.205  0.8267  0.2989 -0.0347
  124OSM   H11S13209   6.064   2.315   7.239 -0.2110  2.3264  1.0120
  124OSM   H11T13210   5.983   2.174   7.174  2.1309  1.3355 -3.2835
  124OSM   C12S13211   5.863   2.305   7.318 -0.3833 -0.4273  0.3735
  124OSM   H12S13212   5.766   2.260   7.286  0.0310 -1.2504  0.2433
  124OSM   H12T13213   5.852   2.415   7.312  2.5789  0.0583  1.9878
  124OSM   C13S13214   5.909   2.258   7.451 -0.5924  0.1596 -0.5786
  124OSM   H13S13215   6.019   2.272   7.464 -0.9190  2.0673  0.5703
  124OSM   H13T13216   5.891   2.149   7.460  1.4305 -0.1707  0.0337
  124OSM   C14S13217   5.835   2.330   7.568 -0.1829  0.1814  0.2451
  124OSM   H14S13218   5.727   2.317   7.542 -0.4906 -1.1854  2.0288
  124OSM   H14T13219   5.848   2.440   7.570  0.6215  0.1626 -1.5826
  124OSM   C15S13220   5.851   2.255   7.695  0.2717  0.1021 -0.1363
  124OSM   H15S13221   5.815   2.329   7.770 -1.1156 -1.0008  0.3367
  124OSM   H15T13222   5.956   2.233   7.724  0.2138 -0.3479 -0.2744
  124OSM   C16S13223   5.782   2.119   7.708  0.5579 -0.6700 -0.1653
  124OSM   H16S13224   5.849   2.041   7.750  0.3450 -0.9098 -0.2742
  124OSM   H16T13225   5.742   2.085   7.611  2.0623  1.7258 -1.7487
  124OSM   C17S13226   5.658   2.123   7.803  0.2239 -0.2483  0.3901
  124OSM   H17S13227   5.580   2.192   7.765 -0.8032 -2.2291 -1.2837
  124OSM   H17T13228   5.698   2.169   7.896 -2.9537  0.2472  1.6464
  124OSM   C18S13229   5.591   1.987   7.834 -0.4262  0.5815  0.2203
  124OSM   H18S13230   5.671   1.923   7.876  1.1069  1.9360 -0.5186
  124OSM   H18T13231   5.555   1.936   7.742 -0.3378 -1.4562  1.2675
  124OSM   H18U13232   5.510   1.987   7.910  1.0431  0.8687  1.8492
  124OSM    C1F13233   5.713   2.696   6.798 -0.0818  0.4513 -0.5692
  124OSM     OF13234   5.595   2.686   6.770 -0.3381  0.1520  0.2775
  124OSM    C2F13235   5.768   2.730   6.938 -0.5153  0.0414 -0.7643
  124OSM    H2F13236   5.789   2.837   6.963  3.1619 -0.5367 -0.7314
  124OSM    H2G13237   5.857   2.668   6.961 -1.3475 -0.4641  1.2835
  124OSM    C3F13238   5.671   2.690   7.046 -0.7653 -0.2255 -0.0481
  124OSM    H3F13239   5.677   2.579   7.043 -1.2275 -0.2879  0.9613
  124OSM    H3G13240   5.572   2.736   7.025 -0.2507  2.0512  2.0214
  124OSM    C4F13241   5.722   2.727   7.184 -0.0395  0.4599 -0.5752
  124OSM    H4F13242   5.737   2.837   7.189 -0.2816  0.4679  0.2479
  124OSM    H4G13243   5.815   2.676   7.216 -2.0327 -1.1056  3.5666
  124OSM    C5F13244   5.630   2.693   7.300  0.1061  0.3023 -0.2402
  124OSM    H5F13245   5.583   2.593   7.288  0.4280  0.2038 -0.6982
  124OSM    H5G13246   5.546   2.765   7.295  1.3801  1.7406 -1.8688
  124OSM    C6F13247   5.676   2.698   7.449 -0.4668  0.6174  0.5103
  124OSM    H6F13248   5.702   2.800   7.486 -1.9208  1.2215 -0.0377
  124OSM    H6G13249   5.757   2.624   7.462 -0.9639 -0.5177 -2.0787
  124OSM    C7F13250   5.569   2.653   7.543  0.9725  0.1382  0.1152
  124OSM    H7F13251   5.529   2.558   7.502 -1.4005  0.9509  0.3829
  124OSM    H7G13252   5.473   2.710   7.541 -0.7679 -2.6510 -0.0644
  124OSM    C8F13253   5.631   2.630   7.685 -0.1206  0.5709  0.3645
  124OSM    H8F13254   5.717   2.562   7.665 -0.7066  0.5428 -2.6677
  124OSM    H8G13255   5.557   2.573   7.745 -0.2156 -1.4839 -1.5565
  124OSM    C9F13256   5.663   2.754   7.758 -1.0167 -0.2392  0.1799
  124OSM    H9F13257   5.755   2.804   7.722 -1.5879  0.6814 -0.0375
  124OSM   C10F13258   5.606   2.806   7.870  0.3317 -0.3389  0.4458
  124OSM   H10F13259   5.660   2.882   7.929  0.2197 -0.2988  0.4961
  124OSM   C11F13260   5.485   2.756   7.951 -0.0737 -0.1803 -0.7877
  124OSM   H11F13261   5.415   2.689   7.897 -0.4376  0.5583 -1.2561
  124OSM   H11G13262   5.429   2.843   7.992  1.4309  1.6072 -2.3007
  124OSM   C12F13263   5.526   2.674   8.073 -0.6681 -0.4348  0.0172
  124OSM   H12F13264   5.438   2.679   8.141 -2.3459  0.6088 -2.0763
  124OSM   H12G13265   5.613   2.715   8.127 -0.6435  0.8425 -0.9321
  124OSM   C13F13266   5.547   2.531   8.033  0.0912 -0.3055  0.1792
  124OSM   H13F13267   5.632   2.531   7.961 -1.6271 -2.1268 -2.0186
  124OSM   H13G13268   5.462   2.492   7.972  0.6018 -0.5490 -0.3845
  124OSM   C14F13269   5.569   2.431   8.137 -0.0076 -0.0254 -0.3890
  124OSM   H14F13270   5.658   2.457   8.200  0.3779 -1.9910 -0.0565
  124OSM   H14G13271   5.578   2.328   8.097 -3.0328 -0.0036 -1.3564
  124OSM   C15F13272   5.457   2.411   8.240  1.2661  0.5475 -0.5315
  124OSM   H15F13273   5.463   2.488   8.320  0.5758 -1.1705  1.2633
  124OSM   H15G13274   5.483   2.313   8.287 -1.0784  0.5346  0.9138
  124OSM   C16F13275   5.318   2.392   8.181 -0.2242  0.5070  0.5400
  124OSM   H16F13276   5.328   2.322   8.095 -1.7376  2.6045 -1.4573
  124OSM   H16G13277   5.278   2.483   8.131  0.3041  0.2001 -0.4711
  124OSM   C17F13278   5.218   2.331   8.271 -0.1465  0.1667 -0.5780
  124OSM   H17F13279   5.236   2.224   8.295 -1.4685 -0.2308 -1.2695
  124OSM   H17G13280   5.113   2.340   8.235 -0.6266  0.1561  0.7435
  124OSM   C18F13281   5.227   2.404   8.410  0.7405  0.4275  0.3049
  124OSM   H18F13282   5.195   2.510   8.419 -2.4304 -0.4755  1.0517
  124OSM   H18G13283   5.326   2.385   8.456  1.9820  1.4086 -1.8141
  124OSM   H18H13284   5.154   2.360   8.481  0.4323  2.5337  1.3783
  125OSM      N13285   4.785   2.597   6.099  0.5498  1.0686  0.1016
  125OSM    C1513286   4.676   2.656   6.020  0.2947  0.0372 -0.6945
  125OSM   H15A13287   4.640   2.583   5.950 -1.4074 -0.9102  1.0749
  125OSM   H15B13288   4.715   2.747   5.977  3.6504 -0.1617  1.5615
  125OSM   H15C13289   4.592   2.694   6.076 -0.2192 -2.1496  0.1140
  125OSM    C1413290   4.746   2.466   6.166  0.0161  0.0276  0.2503
  125OSM   H14A13291   4.832   2.433   6.222  1.4718  0.8945 -1.4106
  125OSM   H14B13292   4.714   2.391   6.095  1.2235 -2.0599  1.7850
  125OSM   H14C13293   4.660   2.479   6.230 -0.5910  0.3743 -0.6165
  125OSM    C1313294   4.892   2.571   6.001 -0.0378 -0.3944  0.0552
  125OSM   H13A13295   4.868   2.482   5.944 -0.5123  1.9826 -3.8326
  125OSM   H13B13296   4.985   2.551   6.052 -0.5577 -0.7602  0.8920
  125OSM   H13C13297   4.899   2.653   5.931 -0.6232 -0.8189 -0.5146
  125OSM    C1213298   4.830   2.696   6.197 -0.7091 -0.0703  0.0188
  125OSM   H12A13299   4.745   2.725   6.257 -2.1013 -1.7286 -1.0519
  125OSM   H12B13300   4.873   2.782   6.148 -1.6680 -0.7184 -2.0806
  125OSM    C1113301   4.946   2.666   6.297 -0.3450  0.2500 -0.2157
  125OSM   H11A13302   4.898   2.598   6.371 -1.0439  0.9709  0.0029
  125OSM   H11B13303   4.986   2.753   6.353  0.9879 -0.6593  0.2981
  125OSM      P13304   5.127   2.473   6.285  0.1893 -0.3726  0.3121
  125OSM    O1313305   5.037   2.360   6.261 -0.2079  0.0218 -0.4264
  125OSM    O1413306   5.260   2.464   6.212  0.3744 -0.8525  0.1397
  125OSM    O1113307   5.144   2.490   6.439 -0.3638  0.1961 -0.0460
  125OSM    O1213308   5.062   2.611   6.230 -0.0619 -0.5310 -0.2873
  125OSM    C1S13309   5.223   2.601   6.488 -0.3564 -1.0433  0.2262
  125OSM    H1S13310   5.183   2.699   6.457  1.8245 -0.5861 -1.3922
  125OSM    H1T13311   5.326   2.584   6.449 -0.8758 -0.1831 -1.6089
  125OSM     NF13312   5.313   2.688   6.703 -0.3741 -0.2909 -0.2061
  125OSM    HNF13313   5.410   2.673   6.722  0.0113  0.6988 -1.2870
  125OSM    C2S13314   5.230   2.582   6.647 -0.6099  0.1342 -0.3904
  125OSM    H2S13315   5.128   2.595   6.691 -0.9502  0.5541 -1.2887
  125OSM    C3S13316   5.285   2.446   6.691  0.0612 -0.5593  0.5666
  125OSM    H3S13317   5.382   2.425   6.641  0.7596 -0.9916  2.0404
  125OSM     O313318   5.206   2.336   6.644 -0.3278 -0.0522  0.5242
  125OSM    HO313319   5.161   2.380   6.572 -0.5709 -2.2149 -0.7309
  125OSM    C4S13320   5.299   2.445   6.839  0.0988  1.1687 -0.5452
  125OSM    H4S13321   5.205   2.422   6.892  0.0312  1.0055 -0.7328
  125OSM    C5S13322   5.417   2.444   6.907 -0.0748  0.0399 -0.4966
  125OSM    H5S13323   5.510   2.434   6.849  0.2466 -3.0705  0.3716
  125OSM    C6S13324   5.443   2.432   7.055 -0.9217  0.2563 -0.4683
  125OSM    H6S13325   5.482   2.528   7.095  2.0705 -0.8877 -0.4173
  125OSM    H6T13326   5.525   2.365   7.091  0.7778  2.0952 -0.7565
  125OSM    C7S13327   5.325   2.401   7.136  0.1253  0.1853 -0.1185
  125OSM    H7S13328   5.284   2.307   7.093 -0.4972  0.5833 -0.4194
  125OSM    H7T13329   5.242   2.474   7.120  0.6896  1.6130  2.7578
  125OSM    C8S13330   5.344   2.378   7.286  0.0430  0.0352  0.1129
  125OSM    H8S13331   5.376   2.476   7.329 -1.7857  0.6005  0.2471
  125OSM    H8T13332   5.416   2.296   7.308 -0.3762 -0.5442 -0.6615
  125OSM    C9S13333   5.212   2.335   7.357 -0.5698  0.5722  0.5889
  125OSM    H9S13334   5.202   2.224   7.359 -1.0250  0.5341 -1.3354
  125OSM    H9T13335   5.120   2.376   7.310 -0.9678 -1.6733 -0.7587
  125OSM   C10S13336   5.214   2.374   7.499  0.3913  0.3064  0.4436
  125OSM   H10S13337   5.120   2.334   7.543  0.7407  0.0433  0.9520
  125OSM   H10T13338   5.218   2.485   7.507  1.4060  0.1861  2.1305
  125OSM   C11S13339   5.329   2.321   7.587 -0.6680  0.1128  0.7435
  125OSM   H11S13340   5.423   2.363   7.547 -1.5157  1.0024 -0.3813
  125OSM   H11T13341   5.328   2.209   7.585  1.5523  0.0624 -0.6739
  125OSM   C12S13342   5.316   2.380   7.726 -0.7800  0.2226  0.3237
  125OSM   H12S13343   5.307   2.491   7.719 -1.0976  0.1814  0.0710
  125OSM   H12T13344   5.411   2.354   7.778  0.4622 -0.3970 -2.1068
  125OSM   C13S13345   5.201   2.334   7.810  0.1545 -0.1105 -0.3587
  125OSM   H13S13346   5.107   2.384   7.780 -0.5793 -1.3963 -0.2420
  125OSM   H13T13347   5.219   2.372   7.913 -0.2057  0.3297 -0.4579
  125OSM   C14S13348   5.181   2.182   7.832  0.2812  0.2228 -0.5920
  125OSM   H14S13349   5.272   2.142   7.883 -1.5948  0.3147  3.1948
  125OSM   H14T13350   5.169   2.126   7.737  1.3993 -1.5624  0.2553
  125OSM   C15S13351   5.060   2.147   7.921 -0.2984 -0.7097  0.2209
  125OSM   H15S13352   4.980   2.192   7.858 -0.9605  0.6819  1.9323
  125OSM   H15T13353   5.066   2.205   8.016 -0.4673  0.3845 -0.4161
  125OSM   C16S13354   5.043   2.001   7.955 -0.0920  0.1961 -0.5764
  125OSM   H16S13355   5.025   1.944   7.861 -0.4631  0.6987 -0.8153
  125OSM   H16T13356   4.967   1.994   8.036  2.4465  0.2258  1.9583
  125OSM   C17S13357   5.166   1.943   8.032  1.0493  0.2283  0.1804
  125OSM   H17S13358   5.148   1.940   8.141  0.8108  2.6462  0.2745
  125OSM   H17T13359   5.260   1.999   8.011  1.4171 -1.2902 -2.8959
  125OSM   C18S13360   5.185   1.798   7.988 -0.4062  0.0964  0.3635
  125OSM   H18S13361   5.095   1.735   8.005 -0.1266 -0.3951  0.0695
  125OSM   H18T13362   5.267   1.743   8.040 -1.4505  0.8492  2.9418
  125OSM   H18U13363   5.209   1.801   7.880  0.1981  0.7910  0.5118
  125OSM    C1F13364   5.274   2.813   6.694  0.3336 -0.0609  0.1359
  125OSM     OF13365   5.154   2.833   6.670  0.6947  0.2334 -0.1264
  125OSM    C2F13366   5.383   2.924   6.699  0.4501  0.9266 -0.3186
  125OSM    H2F13367   5.428   2.932   6.598 -1.7537  0.1890 -1.4152
  125OSM    H2G13368   5.456   2.888   6.776 -0.8108 -0.2107  0.3735
  125OSM    C3F13369   5.324   3.060   6.739  0.0062  0.0216  0.0344
  125OSM    H3F13370   5.283   3.059   6.842  0.0437  3.2149  0.1842
  125OSM    H3G13371   5.245   3.084   6.665  0.0821 -0.3652 -0.1714
  125OSM    C4F13372   5.431   3.172   6.750 -0.4442  0.5509 -0.2486
  125OSM    H4F13373   5.387   3.271   6.775 -2.4123 -0.1853 -0.6215
  125OSM    H4G13374   5.485   3.185   6.653  0.9255 -0.4199  0.3429
  125OSM    C5F13375   5.530   3.155   6.866  0.2032  0.6426 -0.2439
  125OSM    H5F13376   5.608   3.233   6.859  0.3402  0.4979 -0.3439
  125OSM    H5G13377   5.585   3.059   6.849  0.8973  1.1165 -0.7135
  125OSM    C6F13378   5.464   3.153   7.007 -0.4491  0.3968  0.6062
  125OSM    H6F13379   5.394   3.067   7.016  1.0354 -1.0019 -0.6338
  125OSM    H6G13380   5.402   3.245   7.011 -2.1085 -0.6211 -0.5673
  125OSM    C7F13381   5.572   3.165   7.116  0.3312 -0.0016 -0.5064
  125OSM    H7F13382   5.662   3.212   7.071  0.5148 -1.0578 -1.2654
  125OSM    H7G13383   5.600   3.062   7.147  0.0650  0.5875  1.9496
  125OSM    C8F13384   5.514   3.247   7.240  0.0277 -0.3406 -0.0760
  125OSM    H8F13385   5.463   3.337   7.199  0.6163 -1.0210 -2.4770
  125OSM    H8G13386   5.599   3.269   7.307 -0.9608  0.3281  0.9991
  125OSM    C9F13387   5.419   3.162   7.320 -0.4501  0.0684  0.1759
  125OSM    H9F13388   5.318   3.147   7.279 -1.0105  0.8782  1.2021
  125OSM   C10F13389   5.438   3.127   7.447  0.0355  0.3259 -0.3271
  125OSM   H10F13390   5.363   3.069   7.502  1.8034 -0.4115  1.4199
  125OSM   C11F13391   5.547   3.163   7.544  0.3981 -0.1661  0.6617
  125OSM   H11F13392   5.642   3.196   7.496 -0.3725  3.5689  1.3882
  125OSM   H11G13393   5.569   3.063   7.589  0.9594 -0.7903 -0.9205
  125OSM   C12F13394   5.507   3.260   7.658  0.6143 -0.6857 -0.2282
  125OSM   H12F13395   5.479   3.355   7.608 -3.4911 -1.7405 -0.2886
  125OSM   H12G13396   5.595   3.287   7.721 -0.9040  1.2382  1.1981
  125OSM   C13F13397   5.394   3.204   7.750  0.0055  0.2800  0.3723
  125OSM   H13F13398   5.434   3.101   7.768  1.1247  0.6456  0.0446
  125OSM   H13G13399   5.301   3.197   7.691 -0.2946  2.9881  0.4431
  125OSM   C14F13400   5.376   3.283   7.882  0.2121 -0.0744  1.0684
  125OSM   H14F13401   5.363   3.392   7.867  2.0802  0.1808  1.1286
  125OSM   H14G13402   5.473   3.278   7.935  1.5743 -0.7495 -1.3219
  125OSM   C15F13403   5.257   3.231   7.963 -0.2741 -0.1002 -0.3136
  125OSM   H15F13404   5.258   3.120   7.968  0.9796 -0.0902 -0.0381
  125OSM   H15G13405   5.164   3.254   7.908 -0.6403  0.2742  0.4479
  125OSM   C16F13406   5.261   3.300   8.101 -0.7041  0.2464  0.5687
  125OSM   H16F13407   5.236   3.407   8.086 -1.1907  0.3483  1.9847
  125OSM   H16G13408   5.363   3.279   8.139  1.2457  1.8097 -3.2058
  125OSM   C17F13409   5.158   3.242   8.197  0.2330  0.1792  0.6153
  125OSM   H17F13410   5.203   3.146   8.228 -1.8791 -0.1583  2.9060
  125OSM   H17G13411   5.060   3.216   8.151  0.2428  0.3446  0.4971
  125OSM   C18F13412   5.163   3.333   8.321  0.1072  0.1318 -0.4492
  125OSM   H18F13413   5.168   3.279   8.418 -0.6033  0.8811  0.0220
  125OSM   H18G13414   5.076   3.403   8.322 -1.1951 -1.3786 -1.4128
  125OSM   H18H13415   5.252   3.398   8.331 -1.4293  2.0778  1.8484
  126OSM      N13416   2.151   0.498   6.232 -0.5347 -0.4209 -0.3339
  126OSM    C1513417   2.122   0.382   6.326 -0.5843 -0.0718  0.1882
  126OSM   H15A13418   2.178   0.404   6.416 -0.5287  0.1340  0.1050
  126OSM   H15B13419   2.150   0.292   6.272  1.1675  0.8685 -0.5618
  126OSM   H15C13420   2.018   0.386   6.353 -0.0295 -2.8874  3.4886
  126OSM    C1413421   2.301   0.533   6.246  0.3867  0.5387 -0.3749
  126OSM   H14A13422   2.327   0.617   6.184  0.2226  0.6664 -0.2739
  126OSM   H14B13423   2.369   0.455   6.217  0.1528 -0.5573  1.7951
  126OSM   H14C13424   2.323   0.561   6.348  5.1513 -2.4349 -0.2976
  126OSM    C1313425   2.123   0.452   6.090 -0.0445 -0.0413 -0.0153
  126OSM   H13A13426   2.017   0.434   6.081  0.3648 -2.1689 -1.0386
  126OSM   H13B13427   2.171   0.358   6.069 -1.0930  0.0739 -3.4915
  126OSM   H13C13428   2.145   0.525   6.013  0.7643 -1.2633 -0.9810
  126OSM    C1213429   2.073   0.622   6.263 -0.2236 -0.1390 -0.3462
  126OSM   H12A13430   1.968   0.605   6.246 -0.5995 -0.2706  1.8076
  126OSM   H12B13431   2.106   0.697   6.193  1.3640  0.2485  0.7641
  126OSM    C1113432   2.083   0.683   6.407  0.1235 -0.6024 -0.2059
  126OSM   H11A13433   2.066   0.589   6.464 -0.1240 -1.5028 -1.6782
  126OSM   H11B13434   1.988   0.739   6.416 -1.2556 -2.6299 -1.2958
  126OSM      P13435   2.244   0.872   6.368 -0.1341 -0.2086 -0.3020
  126OSM    O1313436   2.381   0.903   6.400  0.1351 -0.1164 -0.2605
  126OSM    O1413437   2.212   0.861   6.222 -0.1235 -0.2725  0.3682
  126OSM    O1113438   2.148   0.986   6.428 -0.0489 -0.5028 -0.3155
  126OSM    O1213439   2.202   0.745   6.448  0.6142 -0.3026  0.0385
  126OSM    C1S13440   2.075   0.988   6.551  0.2808  0.4587 -0.4816
  126OSM    H1S13441   2.034   0.888   6.575 -0.6502  0.8045 -0.5837
  126OSM    H1T13442   1.992   1.062   6.545  1.1160  1.4338 -0.4498
  126OSM     NF13443   2.100   1.015   6.800 -0.4794  0.9737 -0.0646
  126OSM    HNF13444   2.049   1.096   6.830 -1.0944  0.3019  0.7863
  126OSM    C2S13445   2.162   1.029   6.671 -0.2722 -0.2983  0.1197
  126OSM    H2S13446   2.254   0.967   6.666  0.5890  0.8794  0.9096
  126OSM    C3S13447   2.204   1.176   6.643  0.1429  0.2349 -0.6023
  126OSM    H3S13448   2.114   1.240   6.655  0.4750  0.7526 -0.8118
  126OSM     O313449   2.252   1.207   6.516  0.1231 -0.2180 -0.2549
  126OSM    HO313450   2.230   1.128   6.466 -0.9457 -1.2974  1.7819
  126OSM    C4S13451   2.301   1.210   6.752 -0.6971 -0.7668  0.0494
  126OSM    H4S13452   2.248   1.255   6.837  0.2168  1.6094 -0.5580
  126OSM    C5S13453   2.435   1.192   6.753 -0.9706  0.1659  0.0372
  126OSM    H5S13454   2.482   1.156   6.660 -0.5073 -1.9101  1.0013
  126OSM    C6S13455   2.543   1.223   6.858 -0.7817  0.9324  0.0175
  126OSM    H6S13456   2.610   1.308   6.833  1.4757  0.8802  4.8500
  126OSM    H6T13457   2.610   1.136   6.874 -0.7666  0.9854  0.2377
  126OSM    C7S13458   2.490   1.245   6.997  0.0497 -0.4771  0.3016
  126OSM    H7S13459   2.423   1.168   7.040 -1.5485  0.2736 -0.7323
  126OSM    H7T13460   2.415   1.327   6.997 -0.7834 -1.2117  1.2027
  126OSM    C8S13461   2.600   1.284   7.091  0.6103  0.3069 -0.2693
  126OSM    H8S13462   2.641   1.385   7.069  1.2983 -0.2492 -1.5878
  126OSM    H8T13463   2.682   1.210   7.085  2.1941  2.0623 -1.4202
  126OSM    C9S13464   2.547   1.287   7.231 -0.1740  0.6472 -0.7244
  126OSM    H9S13465   2.499   1.191   7.259  0.2743  0.4913 -0.4837
  126OSM    H9T13466   2.467   1.357   7.261 -0.7710 -0.1701 -0.3691
  126OSM   C10S13467   2.664   1.315   7.332  0.2352  0.3168 -0.0309
  126OSM   H10S13468   2.709   1.413   7.307 -1.3599  1.9024  2.8164
  126OSM   H10T13469   2.745   1.239   7.322 -1.2786 -1.8986  3.0996
  126OSM   C11S13470   2.608   1.322   7.470  0.9310 -0.0070 -0.2089
  126OSM   H11S13471   2.542   1.235   7.491  1.7896 -0.4735  0.7095
  126OSM   H11T13472   2.533   1.403   7.475  0.4378 -0.4266  4.5509
  126OSM   C12S13473   2.721   1.338   7.572  0.3612 -0.9000 -0.2566
  126OSM   H12S13474   2.771   1.433   7.546  3.2930 -2.4681 -0.8012
  126OSM   H12T13475   2.793   1.254   7.566  1.2573 -0.2450  0.9363
  126OSM   C13S13476   2.671   1.358   7.718 -0.3627  0.1976  0.1957
  126OSM   H13S13477   2.640   1.260   7.759  2.0005 -1.2376 -1.2607
  126OSM   H13T13478   2.583   1.425   7.730  0.0120  0.3335  2.9187
  126OSM   C14S13479   2.776   1.429   7.813 -0.1323  0.5225 -1.0125
  126OSM   H14S13480   2.726   1.485   7.895 -0.0002 -1.1376  0.2466
  126OSM   H14T13481   2.835   1.508   7.762  1.3281  0.6231  0.7179
  126OSM   C15S13482   2.885   1.335   7.879 -0.3371 -0.2483  0.6674
  126OSM   H15S13483   2.975   1.391   7.911 -0.1212  0.2458 -0.7478
  126OSM   H15T13484   2.928   1.262   7.807  0.8964 -0.5905  1.7127
  126OSM   C16S13485   2.833   1.257   8.001 -0.1946 -0.4296 -0.5531
  126OSM   H16S13486   2.745   1.196   7.971 -2.7203  1.9437  1.5936
  126OSM   H16T13487   2.785   1.328   8.072 -1.5092  0.3974 -2.2053
  126OSM   C17S13488   2.954   1.170   8.061  0.1594  0.3517 -0.2459
  126OSM   H17S13489   2.933   1.135   8.164 -1.3554 -1.4253 -1.0821
  126OSM   H17T13490   3.042   1.237   8.064  0.6541 -0.1295 -2.1902
  126OSM   C18S13491   2.989   1.038   7.986  0.4207  0.0858  0.0509
  126OSM   H18S13492   3.005   1.068   7.880  2.1435  2.7776  0.9647
  126OSM   H18T13493   2.901   0.971   7.986  1.2985 -1.1009  1.1436
  126OSM   H18U13494   3.087   1.001   8.023  0.1959 -1.7317 -1.0854
  126OSM    C1F13495   2.076   0.883   6.835  0.8577 -0.5731 -0.8630
  126OSM     OF13496   2.116   0.789   6.776  0.1152  0.9186  0.2361
  126OSM    C2F13497   1.991   0.870   6.961  0.2669 -0.7633  0.4922
  126OSM    H2F13498   1.885   0.854   6.930 -0.1348  1.5280  0.4912
  126OSM    H2G13499   1.994   0.970   7.008  1.3023  0.2436 -1.5738
  126OSM    C3F13500   2.051   0.773   7.060  0.4122  0.3538 -0.4365
  126OSM    H3F13501   2.158   0.798   7.073  0.2596  0.4326  0.8040
  126OSM    H3G13502   2.056   0.669   7.022  0.8742  0.2588 -0.1246
  126OSM    C4F13503   1.989   0.786   7.203 -0.2667  0.1215 -0.1925
  126OSM    H4F13504   1.889   0.739   7.201 -1.5558  2.6603  0.5585
  126OSM    H4G13505   1.972   0.890   7.239 -1.9707  0.8868 -2.9188
  126OSM    C5F13506   2.070   0.698   7.305 -0.0609  0.4448  0.5232
  126OSM    H5F13507   2.179   0.720   7.297  0.0282 -0.2230 -0.3019
  126OSM    H5G13508   2.052   0.593   7.274  1.9464 -0.0032  0.6953
  126OSM    C6F13509   2.031   0.726   7.443 -0.2655  0.0815  0.2247
  126OSM    H6F13510   1.924   0.714   7.471  0.4328 -1.3654  2.6212
  126OSM    H6G13511   2.061   0.831   7.466 -0.5892  0.7565 -2.2167
  126OSM    C7F13512   2.102   0.625   7.529 -0.1953  0.4148 -0.3251
  126OSM    H7F13513   2.212   0.643   7.522 -0.3635  0.9694 -2.0174
  126OSM    H7G13514   2.075   0.528   7.482 -0.2712  0.5828 -0.6357
  126OSM    C8F13515   2.058   0.613   7.678  0.5787 -0.0215 -0.0117
  126OSM    H8F13516   2.115   0.533   7.729  1.4673  2.5010  3.2512
  126OSM    H8G13517   1.953   0.578   7.687  0.2792  1.0884  0.9815
  126OSM    C9F13518   2.066   0.743   7.752 -0.3950 -0.0435  0.2081
  126OSM    H9F13519   1.990   0.819   7.726  1.4496  1.8983  0.2117
  126OSM   C10F13520   2.140   0.756   7.871  0.0926 -0.1005 -0.3167
  126OSM   H10F13521   2.154   0.845   7.934  0.9576  0.0887 -0.7580
  126OSM   C11F13522   2.225   0.646   7.926  0.0562  0.2688 -0.2190
  126OSM   H11F13523   2.325   0.682   7.960 -0.0995  2.1257 -1.6324
  126OSM   H11G13524   2.273   0.585   7.846 -1.0924  0.8136 -1.3591
  126OSM   C12F13525   2.150   0.547   8.028 -0.7287  0.0244  0.2289
  126OSM   H12F13526   2.076   0.481   7.977 -0.8579 -1.0629  1.7745
  126OSM   H12G13527   2.095   0.617   8.095 -0.1726  2.1996 -1.4647
  126OSM   C13F13528   2.243   0.466   8.119  1.4101 -0.4156 -0.0830
  126OSM   H13F13529   2.339   0.518   8.142 -0.4895  2.9153  0.9687
  126OSM   H13G13530   2.271   0.377   8.059 -1.5386 -0.1861 -1.9545
  126OSM   C14F13531   2.187   0.418   8.253  0.1466 -0.0188  0.6563
  126OSM   H14F13532   2.190   0.503   8.325  2.1647  0.5408 -0.0126
  126OSM   H14G13533   2.255   0.346   8.303  2.2503  1.5919  0.2530
  126OSM   C15F13534   2.042   0.364   8.246  0.2738  0.0450 -0.6484
  126OSM   H15F13535   2.038   0.286   8.167  2.1890 -1.0527  0.2481
  126OSM   H15G13536   1.980   0.452   8.220  2.2915  1.6265 -0.3590
  126OSM   C16F13537   1.988   0.291   8.380 -0.2129  0.3029  0.6866
  126OSM   H16F13538   2.033   0.348   8.465 -0.2109  0.9729  0.2465
  126OSM   H16G13539   2.030   0.189   8.383 -0.6456  0.1270  0.9224
  126OSM   C17F13540   1.835   0.286   8.400  0.5836 -1.0325 -0.0835
  126OSM   H17F13541   1.820   0.227   8.493  0.4780 -0.8298  0.0304
  126OSM   H17G13542   1.790   0.216   8.326  0.3529 -0.2768 -0.6668
  126OSM   C18F13543   1.757   0.422   8.425  0.1791  0.1995 -0.3059
  126OSM   H18F13544   1.778   0.496   8.345 -0.8836  1.1896  0.2913
  126OSM   H18G13545   1.793   0.465   8.521 -2.0670  1.3104  0.1074
  126OSM   H18H13546   1.651   0.391   8.439  1.2026 -3.1839  0.9511
  127OSM      N13547   4.096   0.307   5.872 -0.4030 -0.2228 -0.0695
  127OSM    C1513548   4.069   0.394   5.748  0.7474 -0.6147 -0.8862
  127OSM   H15A13549   3.964   0.418   5.752  0.2967 -2.4306 -0.7233
  127OSM   H15B13550   4.096   0.340   5.659 -0.6522 -2.4173 -0.2876
  127OSM   H15C13551   4.139   0.476   5.755  3.8709 -3.1131 -0.9704
  127OSM    C1413552   4.003   0.198   5.856  0.4471 -0.3891 -0.4561
  127OSM   H14A13553   4.024   0.110   5.915 -0.5481  0.6224  1.4846
  127OSM   H14B13554   4.002   0.172   5.751  0.8960 -0.6699 -0.3933
  127OSM   H14C13555   3.907   0.237   5.885  1.3909  1.6867  0.0931
  127OSM    C1313556   4.230   0.258   5.862 -0.3774  0.0643 -0.2833
  127OSM   H13A13557   4.250   0.188   5.942  3.3368  0.5220 -0.6199
  127OSM   H13B13558   4.309   0.330   5.882  2.4560 -2.9073  0.2106
  127OSM   H13C13559   4.249   0.213   5.766 -2.4099 -2.2518  0.3137
  127OSM    C1213560   4.077   0.378   6.002  0.2406  0.5167 -0.7679
  127OSM   H12A13561   3.971   0.392   6.015  0.4284  2.1218 -0.7269
  127OSM   H12B13562   4.119   0.478   6.005 -0.7925  0.9381  0.5897
  127OSM    C1113563   4.130   0.312   6.129 -0.6900 -0.4808  0.9597
  127OSM   H11A13564   4.089   0.209   6.140  1.2488 -1.3274  0.5535
  127OSM   H11B13565   4.079   0.366   6.212 -0.1329  1.1571  0.2943
  127OSM      P13566   4.366   0.430   6.164 -0.1798  0.0450  0.2925
  127OSM    O1313567   4.495   0.391   6.112  0.7003 -0.3317  0.1172
  127OSM    O1413568   4.290   0.545   6.112  0.0014 -0.2628 -0.1023
  127OSM    O1113569   4.372   0.434   6.319  0.4356 -0.3430  0.5158
  127OSM    O1213570   4.277   0.300   6.132  0.4539 -0.1260  0.1875
  127OSM    C1S13571   4.385   0.315   6.400  0.9597  0.2671 -0.4900
  127OSM    H1S13572   4.492   0.284   6.397  0.8226 -0.2507 -0.2151
  127OSM    H1T13573   4.331   0.233   6.348  1.3356  1.6730 -3.2740
  127OSM     NF13574   4.363   0.193   6.605 -0.0473  0.1949  0.6730
  127OSM    HNF13575   4.297   0.118   6.609 -0.6515  0.6700 -0.1677
  127OSM    C2S13576   4.322   0.318   6.538 -0.2777 -0.3190 -0.0589
  127OSM    H2S13577   4.358   0.399   6.605 -1.0107  0.4736 -0.5966
  127OSM    C3S13578   4.169   0.336   6.523 -0.6366 -0.8403  0.4015
  127OSM    H3S13579   4.132   0.256   6.456  0.5984 -2.6562  1.7972
  127OSM     O313580   4.135   0.455   6.454  0.9478 -0.8839  0.2252
  127OSM    HO313581   4.214   0.483   6.408  0.6636 -1.0073 -0.3445
  127OSM    C4S13582   4.095   0.316   6.653 -0.0294 -0.4663  0.5216
  127OSM    H4S13583   4.046   0.219   6.671 -2.9646  1.1455  1.9494
  127OSM    C5S13584   4.068   0.417   6.739  0.0159  0.2603  0.3194
  127OSM    H5S13585   4.114   0.517   6.732  2.8957 -0.9200  0.9928
  127OSM    C6S13586   3.984   0.414   6.871 -0.1279  0.2425  0.2005
  127OSM    H6S13587   3.886   0.462   6.849  0.8100  1.2757 -1.9553
  127OSM    H6T13588   4.043   0.471   6.947 -0.4758  1.6534 -0.5511
  127OSM    C7S13589   3.964   0.279   6.948  0.5410  0.6570  0.0676
  127OSM    H7S13590   4.066   0.238   6.958  0.8058  0.8712 -1.5378
  127OSM    H7T13591   3.909   0.211   6.879 -1.3064  2.7068 -0.6104
  127OSM    C8S13592   3.880   0.283   7.078  0.2733  0.1522 -0.1868
  127OSM    H8S13593   3.773   0.306   7.058 -0.2206  1.9740  3.5787
  127OSM    H8T13594   3.908   0.374   7.135  0.2864  0.0269  0.0100
  127OSM    C9S13595   3.883   0.155   7.172 -0.4411  0.0861  0.1234
  127OSM    H9S13596   3.889   0.081   7.089 -1.0190  2.5257 -2.2284
  127OSM    H9T13597   3.786   0.149   7.227  0.5591  3.0878  2.4561
  127OSM   C10S13598   4.013   0.141   7.251  0.2903 -0.4569  0.2692
  127OSM   H10S13599   4.016   0.220   7.329 -0.5491 -0.3216  0.1750
  127OSM   H10T13600   4.096   0.162   7.181 -0.4828  0.2789 -0.4450
  127OSM   C11S13601   4.024  -0.001   7.310  0.1842 -0.4278 -0.6948
  127OSM   H11S13602   4.132  -0.001   7.337  0.6805  3.2036 -2.1258
  127OSM   H11T13603   3.998  -0.083   7.240  1.0991 -1.2713 -0.0733
  127OSM   C12S13604   3.955  -0.026   7.446  0.0763 -0.3946  0.3173
  127OSM   H12S13605   3.846  -0.008   7.441  0.4150  1.9172  0.1486
  127OSM   H12T13606   4.004   0.050   7.511  0.2629 -1.4769  1.4755
  127OSM   C13S13607   3.987  -0.163   7.506  0.4150  0.6457  0.5797
  127OSM   H13S13608   3.977  -0.138   7.613  2.1338  2.8930  0.2790
  127OSM   H13T13609   4.096  -0.182   7.496  0.6644  1.7927  0.9855
  127OSM   C14S13610   3.890  -0.279   7.473  1.0531 -0.0378  0.1044
  127OSM   H14S13611   3.904  -0.368   7.538  0.2829  0.6423  1.2320
  127OSM   H14T13612   3.917  -0.310   7.370  2.0664  0.6869  0.1424
  127OSM   C15S13613   3.739  -0.238   7.451  0.3403  0.4950  0.9265
  127OSM   H15S13614   3.682  -0.332   7.435 -0.9028  1.3930 -0.1292
  127OSM   H15T13615   3.730  -0.172   7.363 -0.8608  0.5673  1.0795
  127OSM   C16S13616   3.687  -0.156   7.565 -0.1776  0.4072  0.0543
  127OSM   H16S13617   3.658  -0.057   7.525  0.9383  0.7235  0.0089
  127OSM   H16T13618   3.771  -0.156   7.638 -0.2989  0.6895  0.1945
  127OSM   C17S13619   3.554  -0.210   7.641 -0.7717  0.1300  0.1251
  127OSM   H17S13620   3.574  -0.317   7.667  0.7082 -0.5275 -3.1483
  127OSM   H17T13621   3.468  -0.221   7.571 -0.4502  1.9735 -0.6178
  127OSM   C18S13622   3.517  -0.138   7.769  0.4260  0.1370 -0.4873
  127OSM   H18S13623   3.426  -0.188   7.810  0.0494  0.4929 -0.8760
  127OSM   H18T13624   3.493  -0.036   7.730  2.6182  1.5411  1.5241
  127OSM   H18U13625   3.604  -0.130   7.838 -0.0973 -0.7538  0.3021
  127OSM    C1F13626   4.487   0.161   6.647  0.9716 -0.4357  0.3579
  127OSM     OF13627   4.577   0.249   6.657 -0.2035  0.0177  0.5451
  127OSM    C2F13628   4.504   0.019   6.686  0.3401 -0.2474  0.1371
  127OSM    H2F13629   4.543  -0.035   6.596  2.3360 -0.7261  1.2434
  127OSM    H2G13630   4.416  -0.038   6.723  1.6008 -2.0366  0.5354
  127OSM    C3F13631   4.605  -0.009   6.796 -0.1655 -0.5499 -0.1078
  127OSM    H3F13632   4.601   0.077   6.866 -1.2774 -0.2279 -0.5484
  127OSM    H3G13633   4.709  -0.005   6.757 -0.7645  1.2501 -1.7351
  127OSM    C4F13634   4.575  -0.121   6.887 -0.0629  0.0173  0.6117
  127OSM    H4F13635   4.590  -0.220   6.838  0.0735 -0.1821  1.0537
  127OSM    H4G13636   4.467  -0.140   6.907  0.7849 -5.7859  1.4692
  127OSM    C5F13637   4.656  -0.125   7.026  0.4135  0.3844  0.3475
  127OSM    H5F13638   4.621  -0.032   7.075 -2.1021  0.7359 -1.9062
  127OSM    H5G13639   4.764  -0.106   7.007  0.1253  0.1571 -1.8091
  127OSM    C6F13640   4.636  -0.248   7.108  0.6161 -0.6690  0.1565
  127OSM    H6F13641   4.711  -0.233   7.189 -0.8101  1.1879  1.2149
  127OSM    H6G13642   4.652  -0.344   7.055  0.4994 -0.8841  0.5082
  127OSM    C7F13643   4.488  -0.249   7.151 -0.6688 -0.0332 -0.0918
  127OSM    H7F13644   4.426  -0.279   7.064  1.0239  0.1644 -1.4223
  127OSM    H7G13645   4.466  -0.148   7.192  0.8095  0.0075  0.6519
  127OSM    C8F13646   4.469  -0.353   7.263  0.2123 -0.1731 -0.0889
  127OSM    H8F13647   4.499  -0.313   7.363  0.2748  0.9986 -0.5629
  127OSM    H8G13648   4.529  -0.443   7.237  0.2319 -0.1023 -0.2836
  127OSM    C9F13649   4.323  -0.387   7.267  0.1884 -0.1744  1.3111
  127OSM    H9F13650   4.274  -0.369   7.170 -0.2399  2.6433  1.9515
  127OSM   C10F13651   4.246  -0.419   7.373  0.1101 -0.3120  0.5379
  127OSM   H10F13652   4.137  -0.432   7.369  0.1597 -1.1005  1.3654
  127OSM   C11F13653   4.294  -0.428   7.516  0.3058 -0.6284  0.6979
  127OSM   H11F13654   4.349  -0.334   7.539  0.3386  0.5817 -3.5089
  127OSM   H11G13655   4.375  -0.504   7.519  0.9574  0.0156  0.0313
  127OSM   C12F13656   4.187  -0.459   7.621  1.0839 -0.6526  0.4319
  127OSM   H12F13657   4.136  -0.553   7.591 -0.0962  0.8561 -2.8006
  127OSM   H12G13658   4.106  -0.384   7.622 -0.9580 -2.7501  0.9957
  127OSM   C13F13659   4.250  -0.473   7.756  0.8550  0.4262  0.2688
  127OSM   H13F13660   4.262  -0.370   7.798 -0.9182  0.4001  0.9329
  127OSM   H13G13661   4.344  -0.531   7.764  2.0139  2.1699 -0.0406
  127OSM   C14F13662   4.165  -0.554   7.867  0.2319  0.0594  1.0162
  127OSM   H14F13663   4.155  -0.654   7.820  1.5496  0.8789 -1.1854
  127OSM   H14G13664   4.062  -0.512   7.859  0.0972 -0.5822 -1.9738
  127OSM   C15F13665   4.229  -0.542   8.011 -0.4775 -0.1071 -0.2539
  127OSM   H15F13666   4.309  -0.620   8.011  0.3034  0.6789  0.2806
  127OSM   H15G13667   4.147  -0.576   8.078 -0.3606  0.8500  0.3910
  127OSM   C16F13668   4.263  -0.407   8.078 -0.4380 -0.3248 -0.4132
  127OSM   H16F13669   4.174  -0.343   8.060  0.5023  1.2260  0.3154
  127OSM   H16G13670   4.354  -0.353   8.046 -1.2981  0.6747 -1.2494
  127OSM   C17F13671   4.275  -0.436   8.224  0.6722 -0.9626  0.0843
  127OSM   H17F13672   4.348  -0.518   8.237 -0.2858 -1.5669  1.8832
  127OSM   H17G13673   4.175  -0.462   8.263 -0.6695  0.2560 -2.3030
  127OSM   C18F13674   4.322  -0.312   8.300  0.6841 -0.3347  0.4117
  127OSM   H18F13675   4.238  -0.240   8.294 -0.5560 -1.7018  0.8505
  127OSM   H18G13676   4.412  -0.274   8.247 -0.3978  0.2939 -1.0445
  127OSM   H18H13677   4.340  -0.336   8.407  0.0595 -0.4117  0.5040
  128OSM      N13678   5.217   5.978   5.938 -0.2634  0.2207 -0.6019
  128OSM    C1513679   5.112   5.978   5.831 -0.0593 -1.1348 -0.7510
  128OSM   H15A13680   5.109   5.882   5.782  0.3753 -1.1024 -0.8407
  128OSM   H15B13681   5.109   6.064   5.766 -2.0645 -1.3942 -1.0628
  128OSM   H15C13682   5.016   5.982   5.881  0.9881 -0.3907  1.3272
  128OSM    C1413683   5.334   5.898   5.887  0.1192  0.6386  0.1370
  128OSM   H14A13684   5.357   5.933   5.788  1.4913 -0.5841 -0.0093
  128OSM   H14B13685   5.309   5.792   5.885  1.6215  0.2755 -0.1973
  128OSM   H14C13686   5.428   5.920   5.935  0.8083  0.8898 -1.2858
  128OSM    C1313687   5.265   6.119   5.962 -0.0473  0.8770 -0.2097
  128OSM   H13A13688   5.194   6.177   6.019  0.6418  1.1077  0.4416
  128OSM   H13B13689   5.275   6.166   5.866  0.4492 -1.3344 -1.3086
  128OSM   H13C13690   5.357   6.115   6.019  1.4994 -1.3258 -2.6849
  128OSM    C1213691   5.153   5.910   6.059 -1.7439  0.3568 -0.3586
  128OSM   H12A13692   5.233   5.871   6.120 -1.6141 -0.4309 -1.0057
  128OSM   H12B13693   5.103   5.821   6.024  1.8076 -1.6288 -0.8860
  128OSM    C1113694   5.061   5.996   6.146  0.1459 -0.4677  0.8275
  128OSM   H11A13695   5.109   6.094   6.163 -0.8392  0.2461 -0.3737
  128OSM   H11B13696   5.062   5.951   6.248  1.2257  0.2733  1.1620
  128OSM      P13697   4.810   5.934   6.089  0.5466  0.0268  0.2243
  128OSM    O1313698   4.680   5.995   6.052 -0.0590  0.3708 -0.3391
  128OSM    O1413699   4.845   5.808   6.022 -0.3665 -0.2588 -0.5327
  128OSM    O1113700   4.804   5.895   6.241  0.3471 -0.1775 -0.3867
  128OSM    O1213701   4.935   6.028   6.082  0.2752  0.3953  0.3119
  128OSM    C1S13702   4.780   6.007   6.334  0.1580  0.2126  0.0486
  128OSM    H1S13703   4.676   6.042   6.317 -0.6858 -1.2378  1.8893
  128OSM    H1T13704   4.849   6.093   6.317 -1.3978  0.8794 -4.1161
  128OSM     NF13705   4.785   6.092   6.567  0.5160  0.7208 -0.3167
  128OSM    HNF13706   4.870   6.121   6.613  0.7317 -0.3010 -0.0544
  128OSM    C2S13707   4.783   5.972   6.483  0.2916  0.2199  0.0218
  128OSM    H2S13708   4.691   5.923   6.520  0.0902  1.8133  1.7847
  128OSM    C3S13709   4.900   5.866   6.508 -0.2700 -0.4595 -0.5057
  128OSM    H3S13710   4.995   5.909   6.469  2.2279 -4.4298  0.6684
  128OSM     O313711   4.884   5.742   6.437  0.8032 -0.4519 -0.2940
  128OSM    HO313712   4.841   5.774   6.357  0.0528 -0.4434  0.1053
  128OSM    C4S13713   4.915   5.825   6.655 -0.6904  0.1332 -0.7068
  128OSM    H4S13714   4.830   5.782   6.708 -0.8411 -0.8197 -1.6949
  128OSM    C5S13715   5.030   5.835   6.726  0.1401 -0.1055  0.4543
  128OSM    H5S13716   5.120   5.867   6.671 -1.8223 -0.3488 -3.2142
  128OSM    C6S13717   5.064   5.802   6.868  0.3856  0.5385 -0.5717
  128OSM    H6S13718   5.148   5.861   6.910 -0.4456 -0.2076  2.4294
  128OSM    H6T13719   5.094   5.696   6.875  0.2118  0.5707  1.2267
  128OSM    C7S13720   4.958   5.835   6.973  0.4445 -0.3151 -0.6075
  128OSM    H7S13721   4.878   5.758   6.964 -1.0922  1.1357 -0.0327
  128OSM    H7T13722   4.919   5.939   6.969 -0.6070 -0.5668  1.4759
  128OSM    C8S13723   5.005   5.824   7.123  0.4007  0.3734 -0.1247
  128OSM    H8S13724   5.098   5.884   7.135  0.7049 -0.1643  0.2390
  128OSM    H8T13725   5.014   5.717   7.151 -0.9863  0.3106  0.1400
  128OSM    C9S13726   4.889   5.874   7.211 -0.6521  0.4753 -0.5396
  128OSM    H9S13727   4.789   5.846   7.170 -0.5854  0.3454 -0.6133
  128OSM    H9T13728   4.885   5.985   7.219  1.5032  0.5381  0.0300
  128OSM   C10S13729   4.883   5.794   7.347  1.0000 -0.6033 -0.2785
  128OSM   H10S13730   4.912   5.689   7.328  0.6115 -0.6834 -0.4376
  128OSM   H10T13731   4.779   5.785   7.385 -0.7386  0.3707 -4.2908
  128OSM   C11S13732   4.971   5.859   7.455  0.4040  0.5410 -0.2059
  128OSM   H11S13733   4.935   5.964   7.460  0.2573  0.4429  1.0221
  128OSM   H11T13734   5.071   5.855   7.406  0.3466 -0.5947 -0.2595
  128OSM   C12S13735   4.966   5.792   7.589  0.4251  0.5263  0.0950
  128OSM   H12S13736   5.000   5.688   7.571  1.1879  0.6400  0.8391
  128OSM   H12T13737   4.861   5.803   7.624 -0.1245  0.1249 -1.3494
  128OSM   C13S13738   5.051   5.852   7.701  0.3921  0.1881  0.0394
  128OSM   H13S13739   5.150   5.863   7.650  0.6731 -0.7846  0.3631
  128OSM   H13T13740   5.077   5.781   7.782 -0.3094  2.0419  1.9845
  128OSM   C14S13741   5.009   5.989   7.753 -0.4120  0.8619 -0.7085
  128OSM   H14S13742   4.906   5.986   7.793  0.1073 -2.0545  0.7445
  128OSM   H14T13743   5.011   6.062   7.669  1.2167  0.7583 -0.8068
  128OSM   C15S13744   5.093   6.035   7.871  0.0086  0.2275 -0.4378
  128OSM   H15S13745   5.062   6.140   7.888 -1.5697 -0.2791 -0.0527
  128OSM   H15T13746   5.204   6.026   7.859  0.1170 -1.2542  1.2838
  128OSM   C16S13747   5.069   5.963   8.012  0.2149  0.0876  0.9052
  128OSM   H16S13748   5.089   5.854   8.010 -2.7831 -0.5443 -0.5799
  128OSM   H16T13749   4.960   5.978   8.029 -0.0874  0.1906 -0.9155
  128OSM   C17S13750   5.136   6.050   8.123  0.3646  0.5659  0.1409
  128OSM   H17S13751   5.094   6.152   8.110 -0.1881  0.2217 -0.9005
  128OSM   H17T13752   5.244   6.058   8.098  0.0687 -1.7457 -2.3256
  128OSM   C18S13753   5.121   5.995   8.265 -0.5914 -0.0211 -0.0390
  128OSM   H18S13754   5.122   5.884   8.266 -0.3667 -0.0476 -1.3829
  128OSM   H18T13755   5.024   6.018   8.312 -0.7708 -1.9528  0.6296
  128OSM   H18U13756   5.204   6.030   8.331  0.7183  1.1032 -2.1579
  128OSM    C1F13757   4.680   6.179   6.577 -0.2189 -0.0036  0.0026
  128OSM     OF13758   4.588   6.165   6.504  0.1612 -0.3348 -0.5326
  128OSM    C2F13759   4.689   6.289   6.674 -0.3638  0.0628 -0.7722
  128OSM    H2F13760   4.645   6.374   6.617 -1.6963 -1.1825 -1.6777
  128OSM    H2G13761   4.782   6.313   6.730 -1.4448 -0.5035  1.4032
  128OSM    C3F13762   4.592   6.275   6.784 -0.0723 -0.1898 -0.1312
  128OSM    H3F13763   4.491   6.245   6.748 -0.0022 -0.8813  0.2406
  128OSM    H3G13764   4.578   6.376   6.828  1.8900  0.0920 -0.0601
  128OSM    C4F13765   4.625   6.180   6.899 -0.7379 -0.1368 -0.5088
  128OSM    H4F13766   4.714   6.229   6.943  0.8982 -3.5503  0.3348
  128OSM    H4G13767   4.673   6.095   6.847  2.1501  1.0168  0.0900
  128OSM    C5F13768   4.501   6.151   6.983 -0.1467 -0.7403  0.5505
  128OSM    H5F13769   4.419   6.110   6.919 -1.4868  1.2758  0.8808
  128OSM    H5G13770   4.452   6.232   7.040  0.3596 -0.6328  0.8393
  128OSM    C6F13771   4.556   6.049   7.086 -0.4900  0.3908  0.4919
  128OSM    H6F13772   4.633   6.109   7.138 -1.0474  1.5446  0.0409
  128OSM    H6G13773   4.602   5.958   7.042  1.1831  1.0378  0.8213
  128OSM    C7F13774   4.451   6.008   7.183  0.4783 -0.2219  0.2038
  128OSM    H7F13775   4.379   5.948   7.123 -0.7007 -0.0935  1.4460
  128OSM    H7G13776   4.403   6.095   7.232 -0.7618 -1.0030  0.4115
  128OSM    C8F13777   4.510   5.920   7.297 -1.3835  1.2463  0.4811
  128OSM    H8F13778   4.556   5.994   7.366 -0.1688  0.2308  0.8073
  128OSM    H8G13779   4.591   5.859   7.250 -2.2480  1.7002 -1.7230
  128OSM    C9F13780   4.399   5.843   7.365  0.2630 -0.3417  0.0528
  128OSM    H9F13781   4.374   5.746   7.318  1.9728 -0.1538 -1.3183
  128OSM   C10F13782   4.326   5.886   7.474  0.3724  0.0206  0.1840
  128OSM   H10F13783   4.235   5.836   7.511 -0.2544  0.8573 -0.1803
  128OSM   C11F13784   4.351   6.012   7.551  0.2472  0.3513 -0.3973
  128OSM   H11F13785   4.261   6.077   7.554  0.1034  0.1274  1.1300
  128OSM   H11G13786   4.431   6.064   7.494 -0.5077  1.1277 -0.7704
  128OSM   C12F13787   4.405   5.978   7.688  0.1687  0.5177 -0.0312
  128OSM   H12F13788   4.325   5.930   7.749  0.6873 -0.3254 -0.0131
  128OSM   H12G13789   4.417   6.075   7.740 -1.5805  0.0134  1.4219
  128OSM   C13F13790   4.541   5.900   7.686 -0.1010  0.3924  0.5533
  128OSM   H13F13791   4.615   5.959   7.628  0.3854 -1.3964 -0.7563
  128OSM   H13G13792   4.534   5.806   7.627 -2.5134  0.5487  0.4981
  128OSM   C14F13793   4.602   5.887   7.825 -0.3414  0.4822  0.0419
  128OSM   H14F13794   4.556   5.968   7.886 -0.2323 -0.1959  1.0669
  128OSM   H14G13795   4.710   5.911   7.813 -0.6030  0.2555 -4.3149
  128OSM   C15F13796   4.565   5.762   7.905 -0.0341  0.8181  0.7289
  128OSM   H15F13797   4.599   5.673   7.849 -3.1070  0.2929 -0.5069
  128OSM   H15G13798   4.455   5.752   7.920 -0.1427 -2.0843 -1.2784
  128OSM   C16F13799   4.631   5.775   8.041  0.0982 -0.0311 -0.1901
  128OSM   H16F13800   4.584   5.861   8.093  0.7606 -0.8306  1.7850
  128OSM   H16G13801   4.742   5.776   8.041  0.2328 -2.5242 -2.2240
  128OSM   C17F13802   4.604   5.654   8.127 -0.2096  0.7724 -0.2718
  128OSM   H17F13803   4.661   5.565   8.091 -0.9412 -0.6259  1.8295
  128OSM   H17G13804   4.500   5.615   8.122 -0.2935  0.9220  0.2299
  128OSM   C18F13805   4.635   5.685   8.273  0.8207 -0.4834 -0.0771
  128OSM   H18F13806   4.621   5.604   8.348  1.7185  0.6391  1.3595
  128OSM   H18G13807   4.582   5.775   8.311 -0.7352 -0.4564 -2.1311
  128OSM   H18H13808   4.738   5.723   8.285 -0.2116  2.2344  0.9807
  129OSM      N13809   3.376   2.285   6.146 -0.7520 -0.4248 -0.4655
  129OSM    C1513810   3.493   2.336   6.069 -0.6450  0.4720 -0.1290
  129OSM   H15A13811   3.568   2.265   6.038  0.9435  1.9924  0.1139
  129OSM   H15B13812   3.546   2.408   6.129  1.0584 -1.7302  1.1538
  129OSM   H15C13813   3.451   2.380   5.979 -0.0346  0.9095 -0.2078
  129OSM    C1413814   3.300   2.413   6.186  0.0111 -0.4582 -0.5080
  129OSM   H14A13815   3.260   2.451   6.093 -1.4555 -1.9955 -0.5730
  129OSM   H14B13816   3.358   2.480   6.248  1.1530 -1.7875 -0.0866
  129OSM   H14C13817   3.216   2.389   6.249  0.8817 -1.3832  0.3399
  129OSM    C1313818   3.289   2.206   6.050 -0.3692 -0.0673  0.1003
  129OSM   H13A13819   3.337   2.110   6.046  0.4774  0.2166  2.2120
  129OSM   H13B13820   3.281   2.245   5.950  0.6840  2.2547  0.8670
  129OSM   H13C13821   3.189   2.200   6.090  0.1603  0.7960  1.6225
  129OSM    C1213822   3.412   2.206   6.266  0.2221  0.2086 -0.3267
  129OSM   H12A13823   3.491   2.250   6.325  2.3380 -0.1680 -2.7055
  129OSM   H12B13824   3.462   2.121   6.222 -0.0339 -0.6808  1.0352
  129OSM    C1113825   3.303   2.151   6.351  0.4791  0.1488 -0.5645
  129OSM   H11A13826   3.250   2.235   6.400 -0.8286 -0.8480 -0.2187
  129OSM   H11B13827   3.346   2.092   6.435 -0.8563  0.7452  0.5803
  129OSM      P13828   3.231   1.921   6.241  0.2483 -0.1253 -0.2139
  129OSM    O1313829   3.109   1.850   6.205 -0.7419 -0.0103  0.4559
  129OSM    O1413830   3.339   1.924   6.143 -0.0286 -0.3775 -0.1518
  129OSM    O1113831   3.295   1.848   6.366  0.4481 -0.0478 -0.7825
  129OSM    O1213832   3.202   2.072   6.283  0.5063 -0.6888  0.1546
  129OSM    C1S13833   3.199   1.815   6.467  0.1256 -0.0334 -0.4154
  129OSM    H1S13834   3.121   1.746   6.432  0.6544  0.6671 -3.2445
  129OSM    H1T13835   3.144   1.904   6.504  0.7582  0.0163  0.4685
  129OSM     NF13836   3.177   1.719   6.709  0.4421 -0.7604 -0.5550
  129OSM    HNF13837   3.186   1.765   6.796 -2.2675 -1.4713  0.1800
  129OSM    C2S13838   3.265   1.765   6.602 -0.4522 -0.0504 -0.3900
  129OSM    H2S13839   3.321   1.676   6.567  2.3724  0.5101  2.2760
  129OSM    C3S13840   3.386   1.850   6.645  0.2080  0.0403 -0.4060
  129OSM    H3S13841   3.354   1.955   6.667  1.2122  0.6181 -1.5894
  129OSM     O313842   3.480   1.864   6.541  0.2550 -0.0480  0.3293
  129OSM    HO313843   3.437   1.843   6.457  1.7182  2.2918 -1.1377
  129OSM    C4S13844   3.452   1.791   6.778  0.8788 -0.1200  0.0707
  129OSM    H4S13845   3.407   1.825   6.873 -3.2210 -0.1121 -1.6822
  129OSM    C5S13846   3.546   1.689   6.780 -0.1874  0.6905  0.2053
  129OSM    H5S13847   3.580   1.640   6.688  1.4699  1.2072  0.5176
  129OSM    C6S13848   3.595   1.620   6.901 -0.5214  0.3270  1.0404
  129OSM    H6S13849   3.704   1.598   6.909 -0.3376  1.0557  0.5838
  129OSM    H6T13850   3.558   1.517   6.882  0.0833  0.2214  0.4024
  129OSM    C7S13851   3.539   1.658   7.037  0.0592  0.0580 -0.0901
  129OSM    H7S13852   3.431   1.679   7.025 -0.0297 -0.8041 -0.8900
  129OSM    H7T13853   3.587   1.753   7.068  0.7322 -0.5812  0.8926
  129OSM    C8S13854   3.567   1.558   7.143  0.0333  0.1869 -0.5630
  129OSM    H8S13855   3.674   1.527   7.146  0.2000  0.6774 -1.1423
  129OSM    H8T13856   3.516   1.465   7.111  0.4670 -0.5420  0.8155
  129OSM    C9S13857   3.502   1.607   7.272 -0.0684  0.1269 -0.2977
  129OSM    H9S13858   3.392   1.591   7.264 -0.6493  1.3607  3.4356
  129OSM    H9T13859   3.515   1.715   7.295 -2.8096  0.4991 -0.1578
  129OSM   C10S13860   3.550   1.539   7.404  0.0531  0.1883 -0.6689
  129OSM   H10S13861   3.548   1.429   7.414 -0.7771  0.3047  0.7561
  129OSM   H10T13862   3.479   1.573   7.483 -0.8561 -0.9455 -0.9836
  129OSM   C11S13863   3.687   1.581   7.449 -0.4282 -0.1363 -0.1583
  129OSM   H11S13864   3.696   1.692   7.448  0.7364 -0.1445  2.3154
  129OSM   H11T13865   3.765   1.545   7.378  0.2139 -1.0651  0.9851
  129OSM   C12S13866   3.727   1.538   7.590  0.0640  0.2201  0.1068
  129OSM   H12S13867   3.833   1.561   7.612  0.0172  1.1385 -0.5504
  129OSM   H12T13868   3.703   1.430   7.599 -0.1146  0.1085 -1.4404
  129OSM   C13S13869   3.657   1.623   7.703 -0.0519 -0.4245  0.7606
  129OSM   H13S13870   3.547   1.615   7.695 -0.1652  0.5481  1.1520
  129OSM   H13T13871   3.673   1.730   7.678 -1.4381 -0.0013  1.5817
  129OSM   C14S13872   3.708   1.596   7.843 -0.2481  0.5469 -0.2882
  129OSM   H14S13873   3.819   1.601   7.842 -0.2172  0.4560  0.8761
  129OSM   H14T13874   3.683   1.492   7.874 -1.0990  0.1948 -2.0461
  129OSM   C15S13875   3.653   1.693   7.952  0.1288  0.6833 -0.0924
  129OSM   H15S13876   3.678   1.795   7.914  0.2063  0.9114  0.5591
  129OSM   H15T13877   3.701   1.676   8.051 -2.9842 -2.2580  1.1116
  129OSM   C16S13878   3.506   1.673   7.968 -0.2258 -0.4225  0.3645
  129OSM   H16S13879   3.488   1.565   7.983 -2.1772  0.1797  2.8926
  129OSM   H16T13880   3.445   1.716   7.885  0.6664  0.9941  0.3983
  129OSM   C17S13881   3.438   1.730   8.102 -0.4315 -0.1230  0.8541
  129OSM   H17S13882   3.493   1.681   8.185  0.7693  0.3628  0.3856
  129OSM   H17T13883   3.335   1.691   8.090  0.1199 -1.5093  0.4480
  129OSM   C18S13884   3.439   1.885   8.111  0.4749  0.3736  0.6514
  129OSM   H18S13885   3.356   1.924   8.174  0.5411  2.5677 -0.5121
  129OSM   H18T13886   3.406   1.917   8.010 -0.6614 -2.3638  0.0525
  129OSM   H18U13887   3.539   1.921   8.142  1.3235 -0.9922 -0.3838
  129OSM    C1F13888   3.080   1.631   6.686 -0.5332  0.9588 -0.3751
  129OSM     OF13889   3.059   1.581   6.577 -0.0886 -0.6718  0.2123
  129OSM    C2F13890   2.995   1.599   6.805  0.4424 -0.6512 -0.3629
  129OSM    H2F13891   2.922   1.518   6.783  0.0871  0.2635 -3.0182
  129OSM    H2G13892   2.943   1.696   6.824  0.5005 -0.6031 -0.4524
  129OSM    C3F13893   3.072   1.587   6.936  0.3250  0.2977 -0.1884
  129OSM    H3F13894   3.111   1.688   6.958  0.4069  0.8023 -2.4066
  129OSM    H3G13895   3.150   1.509   6.920 -1.3840 -0.9866 -3.1823
  129OSM    C4F13896   2.984   1.565   7.059  0.8731  0.4993  0.2502
  129OSM    H4F13897   2.923   1.472   7.049  2.5877 -0.4789 -2.0815
  129OSM    H4G13898   2.920   1.655   7.069  0.1032  0.0182 -0.2451
  129OSM    C5F13899   3.075   1.560   7.173  0.2517  0.0174  0.1418
  129OSM    H5F13900   3.127   1.659   7.172  0.0780  0.1084  0.1030
  129OSM    H5G13901   3.147   1.476   7.166 -0.8886 -0.9079 -1.0135
  129OSM    C6F13902   3.015   1.564   7.320 -0.3183  0.7847  0.1125
  129OSM    H6F13903   2.983   1.458   7.324  0.6848  0.4812  0.3511
  129OSM    H6G13904   2.927   1.631   7.319 -0.4759  0.6942  2.5833
  129OSM    C7F13905   3.120   1.597   7.419  0.1515  0.4951  0.4410
  129OSM    H7F13906   3.168   1.693   7.390  1.0654 -0.4370 -1.3198
  129OSM    H7G13907   3.196   1.515   7.418 -0.1321  0.2327 -0.0091
  129OSM    C8F13908   3.063   1.609   7.553 -0.2734  0.3181 -1.1413
  129OSM    H8F13909   3.028   1.510   7.590  4.4329 -0.5482  1.8895
  129OSM    H8G13910   2.981   1.684   7.563  0.4840  0.8543  2.6956
  129OSM    C9F13911   3.166   1.649   7.648 -0.0080  0.5000 -0.7237
  129OSM    H9F13912   3.268   1.619   7.618  0.7875  0.3206  1.8612
  129OSM   C10F13913   3.147   1.701   7.772  0.3571 -0.4779 -0.3624
  129OSM   H10F13914   3.233   1.725   7.835 -0.8804 -1.9664  2.0229
  129OSM   C11F13915   3.013   1.742   7.836 -0.6064  0.0322 -0.1909
  129OSM   H11F13916   2.928   1.704   7.775 -1.6033 -1.3912  1.9518
  129OSM   H11G13917   3.001   1.852   7.852 -1.8710 -0.3574  2.1036
  129OSM   C12F13918   3.009   1.693   7.989 -0.3005 -0.6378  0.2093
  129OSM   H12F13919   3.075   1.751   8.056 -1.9473  2.0403 -0.3407
  129OSM   H12G13920   3.056   1.592   7.992  0.0379 -0.4794  0.2722
  129OSM   C13F13921   2.866   1.692   8.045 -0.1147  0.6042 -0.0032
  129OSM   H13F13922   2.797   1.660   7.964  0.7335  0.5765 -0.7352
  129OSM   H13G13923   2.834   1.794   8.075  0.7590  0.5045  1.3599
  129OSM   C14F13924   2.838   1.609   8.168 -0.1907  0.4421 -0.0662
  129OSM   H14F13925   2.890   1.640   8.262 -0.4365  3.2808 -0.7579
  129OSM   H14G13926   2.873   1.505   8.151 -2.4961 -0.8271  2.2935
  129OSM   C15F13927   2.692   1.595   8.202 -0.9497 -0.5682  0.1709
  129OSM   H15F13928   2.634   1.530   8.132 -0.6367  0.0575 -0.6903
  129OSM   H15G13929   2.649   1.697   8.209  2.6619  1.0392  6.5073
  129OSM   C16F13930   2.662   1.547   8.348  0.0226  0.0297  0.2307
  129OSM   H16F13931   2.559   1.587   8.360 -0.1390 -0.3078 -0.0324
  129OSM   H16G13932   2.731   1.601   8.417 -0.6150  1.6193 -0.3086
  129OSM   C17F13933   2.678   1.398   8.362  0.9339  0.2026  0.0793
  129OSM   H17F13934   2.627   1.341   8.281 -1.1522  0.9370  0.8162
  129OSM   H17G13935   2.628   1.371   8.458 -0.1754 -0.4770 -0.6712
  129OSM   C18F13936   2.823   1.355   8.400  0.4375  0.0728 -0.6091
  129OSM   H18F13937   2.847   1.396   8.500  0.3945  1.8018 -1.2740
  129OSM   H18G13938   2.893   1.386   8.320 -0.4533 -0.0331 -1.4479
  129OSM   H18H13939   2.825   1.244   8.403  3.1290 -0.0089 -2.0445
  130OSM      N13940   5.654   4.578   5.840  0.0285 -0.3867  0.3633
  130OSM    C1513941   5.598   4.693   5.766  0.5535 -0.3066  0.3820
  130OSM   H15A13942   5.536   4.652   5.687  0.0010  0.7188  0.2651
  130OSM   H15B13943   5.663   4.772   5.732 -0.6137  0.2769 -0.5832
  130OSM   H15C13944   5.528   4.743   5.831  0.4378  0.9301 -0.6601
  130OSM    C1413945   5.560   4.463   5.833 -0.0202  0.2193  0.5485
  130OSM   H14A13946   5.546   4.446   5.727 -0.5829  1.7443  0.3576
  130OSM   H14B13947   5.465   4.494   5.874 -1.0363 -2.0246  0.0454
  130OSM   H14C13948   5.585   4.370   5.882  0.3880 -0.3069 -0.6139
  130OSM    C1313949   5.771   4.537   5.761 -0.0264 -0.7485  0.2000
  130OSM   H13A13950   5.753   4.532   5.655  1.6201  0.0798 -0.1453
  130OSM   H13B13951   5.817   4.443   5.787  1.6730 -0.2470 -0.8788
  130OSM   H13C13952   5.849   4.609   5.777 -0.4056 -0.6098  1.6089
  130OSM    C1213953   5.696   4.624   5.980 -0.0307  0.5072  1.1821
  130OSM   H12A13954   5.764   4.707   5.969 -1.9379  1.8489 -1.6946
  130OSM   H12B13955   5.754   4.540   6.015 -1.7672 -1.9475 -1.3786
  130OSM    C1113956   5.588   4.683   6.069 -0.3226  0.5264  0.4722
  130OSM   H11A13957   5.617   4.692   6.176  0.2941  0.9024  0.2769
  130OSM   H11B13958   5.507   4.607   6.060  0.3952 -0.1217 -0.8710
  130OSM      P13959   5.382   4.842   6.039  0.7151  0.0257 -0.3028
  130OSM    O1313960   5.358   4.988   6.043 -0.7234  0.0930  0.9960
  130OSM    O1413961   5.317   4.769   5.930  0.8748  1.1643  0.9561
  130OSM    O1113962   5.342   4.782   6.176  0.1132 -0.1414 -0.4649
  130OSM    O1213963   5.536   4.809   6.033  0.3476  0.2763 -0.2405
  130OSM    C1S13964   5.364   4.856   6.302 -0.7617  0.0737  0.0767
  130OSM    H1S13965   5.352   4.966   6.291  3.0303  0.4690 -1.7263
  130OSM    H1T13966   5.466   4.838   6.343 -1.4473  0.0161  1.8465
  130OSM     NF13967   5.288   4.913   6.529 -0.3312 -0.0346 -0.3949
  130OSM    HNF13968   5.328   4.872   6.611 -0.6308  1.2684  0.4297
  130OSM    C2S13969   5.264   4.819   6.415 -0.3602 -0.7375 -0.8311
  130OSM    H2S13970   5.157   4.834   6.390 -0.8111  0.3374  1.4953
  130OSM    C3S13971   5.290   4.675   6.457 -0.2819 -0.1521 -0.5264
  130OSM    H3S13972   5.380   4.658   6.519 -0.5760  0.1592 -0.0129
  130OSM     O313973   5.295   4.577   6.350 -0.4061 -0.4397 -0.6110
  130OSM    HO313974   5.321   4.627   6.272  2.6248  1.1282  1.2117
  130OSM    C4S13975   5.176   4.633   6.554 -0.3837 -0.5824  0.0952
  130OSM    H4S13976   5.210   4.656   6.656 -1.8916  0.6900  0.3408
  130OSM    C5S13977   5.053   4.597   6.528 -0.3089  0.0852  0.1255
  130OSM    H5S13978   5.022   4.600   6.422  0.1382 -1.3169 -0.0688
  130OSM    C6S13979   4.954   4.576   6.638  0.8618  0.0202 -0.1796
  130OSM    H6S13980   4.903   4.479   6.621  0.3306  0.4162 -0.9212
  130OSM    H6T13981   4.874   4.653   6.633 -0.1704 -0.6685  3.0231
  130OSM    C7S13982   5.009   4.570   6.787  0.4766 -0.9647  0.4636
  130OSM    H7S13983   5.069   4.663   6.802  0.3193 -0.9656  1.1519
  130OSM    H7T13984   5.083   4.488   6.791 -0.7829 -2.4300 -2.6500
  130OSM    C8S13985   4.895   4.550   6.888 -0.0451  0.1202  0.3873
  130OSM    H8S13986   4.839   4.460   6.855  2.3744 -0.7913 -1.5905
  130OSM    H8T13987   4.831   4.641   6.891  2.5639  2.0430  1.0402
  130OSM    C9S13988   4.935   4.538   7.037  0.0979  1.4358 -0.6509
  130OSM    H9S13989   5.022   4.469   7.047 -1.3058 -0.3306 -0.0074
  130OSM    H9T13990   4.849   4.488   7.087  1.3880  0.3010  0.5408
  130OSM   C10S13991   4.977   4.672   7.095 -0.3145  0.2302 -0.3338
  130OSM   H10S13992   4.887   4.737   7.104  0.5647  1.5538 -0.8621
  130OSM   H10T13993   5.043   4.724   7.022  0.1094 -1.2240 -1.0180
  130OSM   C11S13994   5.047   4.665   7.224 -0.6219 -0.9214 -0.7029
  130OSM   H11S13995   5.081   4.767   7.251  0.5137 -1.1667 -1.1263
  130OSM   H11T13996   5.150   4.623   7.218  0.2974  0.8347  1.5343
  130OSM   C12S13997   4.974   4.596   7.333 -0.3454 -0.0288  0.0432
  130OSM   H12S13998   4.939   4.494   7.306 -0.9387  0.4586 -1.1007
  130OSM   H12T13999   4.885   4.655   7.363  0.2722  1.6839 -1.3288
  130OSM   C13S14000   5.070   4.576   7.454 -0.3032 -0.5392 -0.0607
  130OSM   H13S14001   5.118   4.675   7.470 -0.0634 -0.1725 -2.6309
  130OSM   H13T14002   5.150   4.501   7.436  0.2720  0.3105 -1.1450
  130OSM   C14S14003   4.997   4.549   7.588  0.0827  0.2141  0.1185
  130OSM   H14S14004   4.954   4.447   7.594  0.7679 -0.1281 -0.6217
  130OSM   H14T14005   4.904   4.611   7.587  0.3682  0.6424 -0.9989
  130OSM   C15S14006   5.073   4.593   7.721  0.2707  0.1086  0.9515
  130OSM   H15S14007   5.080   4.703   7.715 -1.8689  0.2258 -1.0081
  130OSM   H15T14008   5.175   4.550   7.718  0.3120  0.2406 -0.3611
  130OSM   C16S14009   5.014   4.546   7.846  0.0988 -0.0716  0.4598
  130OSM   H16S14010   5.071   4.461   7.890  2.9807  0.2724 -2.2721
  130OSM   H16T14011   4.913   4.501   7.832  1.5153 -2.9320 -1.6884
  130OSM   C17S14012   5.007   4.654   7.957 -1.0079 -0.3768 -0.3368
  130OSM   H17S14013   4.950   4.737   7.909 -0.4275  1.6252  2.1918
  130OSM   H17T14014   5.110   4.694   7.969 -1.4998  0.9814 -0.4800
  130OSM   C18S14015   4.942   4.611   8.093 -0.7516  0.0199  0.2447
  130OSM   H18S14016   4.840   4.575   8.068 -0.2164 -0.4906 -1.3175
  130OSM   H18T14017   4.945   4.699   8.161 -1.7945  0.8571 -0.7571
  130OSM   H18U14018   5.002   4.524   8.128 -0.2251  0.3605  0.1933
  130OSM    C1F14019   5.267   5.047   6.514  0.4794 -0.8975 -0.2121
  130OSM     OF14020   5.210   5.096   6.414 -0.0724 -0.1316 -0.2288
  130OSM    C2F14021   5.327   5.138   6.607 -0.4381 -0.3191 -0.3983
  130OSM    H2F14022   5.361   5.226   6.548  2.4122 -0.3414  1.0096
  130OSM    H2G14023   5.420   5.113   6.664  0.0628  1.9703 -0.0776
  130OSM    C3F14024   5.230   5.184   6.717 -1.0117 -0.1381  0.4915
  130OSM    H3F14025   5.200   5.104   6.787 -3.9361  1.2015  0.8980
  130OSM    H3G14026   5.141   5.239   6.681  0.8769  1.1158 -2.6766
  130OSM    C4F14027   5.302   5.295   6.818 -0.6716  0.4909  0.8456
  130OSM    H4F14028   5.313   5.386   6.755 -0.3038 -0.4101 -0.4294
  130OSM    H4G14029   5.403   5.257   6.845  0.7540  1.9016 -2.0597
  130OSM    C5F14030   5.223   5.317   6.947  0.3741 -0.1422 -0.5960
  130OSM    H5F14031   5.209   5.223   7.005  0.4520 -1.3107 -2.3979
  130OSM    H5G14032   5.117   5.343   6.924  0.4280  0.1320 -0.5354
  130OSM    C6F14033   5.278   5.427   7.037 -0.0379  0.2202  0.5332
  130OSM    H6F14034   5.266   5.518   6.974 -0.8842 -0.2053  0.0721
  130OSM    H6G14035   5.382   5.409   7.072 -0.0856  1.2704  1.2637
  130OSM    C7F14036   5.192   5.448   7.165  0.0107  0.1598  0.3251
  130OSM    H7F14037   5.084   5.434   7.140 -0.0230  0.8198  0.0951
  130OSM    H7G14038   5.200   5.554   7.197 -1.7714  0.7797 -1.1130
  130OSM    C8F14039   5.246   5.370   7.286  0.5605  0.1605  0.4200
  130OSM    H8F14040   5.355   5.392   7.296  1.4336 -3.8287  1.6499
  130OSM    H8G14041   5.237   5.265   7.250 -0.7687  0.4491 -0.1564
  130OSM    C9F14042   5.162   5.407   7.410 -0.8006  0.4412 -0.7906
  130OSM    H9F14043   5.059   5.439   7.385 -0.2449 -0.2209 -4.6359
  130OSM   C10F14044   5.206   5.430   7.537 -0.2473 -0.2652  0.9681
  130OSM   H10F14045   5.131   5.437   7.617 -1.2413 -1.3472  0.1677
  130OSM   C11F14046   5.345   5.416   7.582  0.0725  0.1972  0.5767
  130OSM   H11F14047   5.416   5.460   7.509 -0.5072  1.1454  0.5773
  130OSM   H11G14048   5.375   5.309   7.591  0.1188  0.1128 -0.5156
  130OSM   C12F14049   5.378   5.484   7.716 -0.5929  0.3348  0.3990
  130OSM   H12F14050   5.321   5.580   7.719 -0.0218  0.6593  1.2137
  130OSM   H12G14051   5.484   5.512   7.734  0.0637  0.0002 -2.5208
  130OSM   C13F14052   5.336   5.411   7.844 -0.0457  0.2751 -0.7292
  130OSM   H13F14053   5.386   5.312   7.837 -0.0641  0.2812 -0.9626
  130OSM   H13G14054   5.227   5.390   7.837 -0.0103  0.3933 -1.8186
  130OSM   C14F14055   5.360   5.484   7.979  0.0110 -0.1044  0.4062
  130OSM   H14F14056   5.450   5.548   7.964 -0.8429  1.4616  1.6123
  130OSM   H14G14057   5.380   5.412   8.061  2.4209 -0.2330 -0.2177
  130OSM   C15F14058   5.244   5.578   8.020  0.5096  0.1427  1.0724
  130OSM   H15F14059   5.155   5.511   8.013  0.5899  0.2259 -2.2823
  130OSM   H15G14060   5.241   5.652   7.937 -1.7258  0.8545  1.7035
  130OSM   C16F14061   5.265   5.649   8.146 -0.5962  0.5656 -0.0429
  130OSM   H16F14062   5.204   5.741   8.141 -0.7548  0.4161 -0.9919
  130OSM   H16G14063   5.373   5.676   8.153 -0.9338  3.0941 -2.9546
  130OSM   C17F14064   5.237   5.559   8.259  0.3649 -0.2134  0.9506
  130OSM   H17F14065   5.295   5.466   8.238 -0.4688 -0.4413 -0.4390
  130OSM   H17G14066   5.129   5.535   8.271  0.4366 -1.9162 -1.0659
  130OSM   C18F14067   5.284   5.606   8.393 -0.6206 -0.0663  0.1342
  130OSM   H18F14068   5.216   5.692   8.410 -2.3692 -0.9176 -2.0790
  130OSM   H18G14069   5.390   5.641   8.395 -0.9451  0.9181  0.5705
  130OSM   H18H14070   5.261   5.531   8.471  1.6474  0.6687  1.5989
  131OSM      N14071   2.421   6.373   6.127  0.2436  0.1110  0.0614
  131OSM    C1514072   2.379   6.255   6.039 -0.2417 -0.3120  0.8393
  131OSM   H15A14073   2.272   6.241   6.033 -0.3311  0.8071 -0.7075
  131OSM   H15B14074   2.426   6.172   6.090  0.6580 -0.2955  0.0550
  131OSM   H15C14075   2.422   6.273   5.942  1.9116  0.7261  1.9161
  131OSM    C1414076   2.373   6.501   6.067  0.3527  0.1445 -0.4997
  131OSM   H14A14077   2.401   6.512   5.963  1.2642  1.3964 -0.1355
  131OSM   H14B14078   2.418   6.585   6.117 -0.6161 -0.2062  1.0123
  131OSM   H14C14079   2.266   6.499   6.081  0.4600  0.2962  0.3669
  131OSM    C1314080   2.356   6.358   6.262  0.5715 -0.4705 -0.2058
  131OSM   H13A14081   2.376   6.257   6.294  1.3835 -0.5670 -0.9884
  131OSM   H13B14082   2.249   6.352   6.245  0.3546  0.4343  0.6588
  131OSM   H13C14083   2.387   6.434   6.332 -0.4399 -0.5533  0.3599
  131OSM    C1214084   2.577   6.378   6.124  0.3680  0.3567  0.2472
  131OSM   H12A14085   2.614   6.289   6.171 -1.2980  0.1313  1.2166
  131OSM   H12B14086   2.612   6.463   6.181 -0.8321  2.6867 -2.2168
  131OSM    C1114087   2.640   6.397   5.982  0.1107 -0.3424  0.3104
  131OSM   H11A14088   2.597   6.319   5.916 -1.0588 -0.1315  0.7930
  131OSM   H11B14089   2.749   6.377   5.991 -0.0981 -1.0232  1.5870
  131OSM      P14090   2.711   6.644   5.959  0.2080  0.5053 -0.0313
  131OSM    O1314091   2.826   6.630   5.874  0.2997  0.0741  0.0736
  131OSM    O1414092   2.643   6.774   5.945  0.9675 -0.3595  0.3946
  131OSM    O1114093   2.739   6.612   6.110 -0.0259  0.4738 -0.1192
  131OSM    O1214094   2.616   6.520   5.920 -0.2566 -0.7129 -0.2654
  131OSM    C1S14095   2.680   6.694   6.209  0.2608  0.2600 -0.1022
  131OSM    H1S14096   2.573   6.664   6.209  0.6332 -1.1780 -1.0436
  131OSM    H1T14097   2.693   6.804   6.200 -1.4018  0.3671 -1.7948
  131OSM     NF14098   2.648   6.707   6.456  0.1782  0.0408 -0.3022
  131OSM    HNF14099   2.670   6.797   6.493  0.2900 -0.5449  1.1305
  131OSM    C2S14100   2.738   6.665   6.349 -0.0213  0.6156 -0.2863
  131OSM    H2S14101   2.738   6.554   6.350  0.1385  0.6013 -1.1166
  131OSM    C3S14102   2.882   6.721   6.350 -0.8577  0.5822  0.2634
  131OSM    H3S14103   2.874   6.827   6.318  0.4251  1.2719  2.0143
  131OSM     O314104   2.968   6.654   6.251  0.6897  0.1772  0.2238
  131OSM    HO314105   2.915   6.634   6.174  1.8530  0.6627 -0.7357
  131OSM    C4S14106   2.955   6.703   6.482  0.8217 -0.5048  0.4018
  131OSM    H4S14107   2.943   6.602   6.522  0.3331 -0.6970 -0.2170
  131OSM    C5S14108   3.025   6.790   6.552  0.2611  0.6477  0.8853
  131OSM    H5S14109   3.033   6.888   6.501 -0.4448 -0.1394 -0.8047
  131OSM    C6S14110   3.101   6.773   6.680 -0.4716  0.3476 -0.6583
  131OSM    H6S14111   3.130   6.875   6.714  1.6719 -0.8918  1.5209
  131OSM    H6T14112   3.195   6.720   6.656 -1.1961 -1.2160 -0.1501
  131OSM    C7S14113   3.010   6.700   6.778  0.1497  0.1219 -0.0299
  131OSM    H7S14114   3.073   6.699   6.869  1.9483 -0.8456 -1.2162
  131OSM    H7T14115   3.003   6.593   6.748  1.3444  0.2467 -0.8286
  131OSM    C8S14116   2.881   6.768   6.823  0.4973 -0.2493  0.1561
  131OSM    H8S14117   2.809   6.763   6.739 -0.5634 -0.5441  1.0510
  131OSM    H8T14118   2.912   6.873   6.844  0.3799 -0.2137  0.1530
  131OSM    C9S14119   2.813   6.696   6.943  0.1126  0.3868  0.5161
  131OSM    H9S14120   2.717   6.744   6.970 -0.3080 -0.4541  0.5112
  131OSM    H9T14121   2.885   6.705   7.027  2.2463 -1.1124 -1.0365
  131OSM   C10S14122   2.786   6.547   6.928 -0.1979  0.0060  0.2373
  131OSM   H10S14123   2.875   6.481   6.934 -1.2741 -1.4800  0.2822
  131OSM   H10T14124   2.735   6.521   6.833 -2.0732  1.2200  0.8637
  131OSM   C11S14125   2.706   6.499   7.050  0.0798  0.8785 -0.0191
  131OSM   H11S14126   2.672   6.396   7.025  1.5704  0.9200 -2.5104
  131OSM   H11T14127   2.615   6.563   7.060 -0.3871 -0.0601  2.6553
  131OSM   C12S14128   2.792   6.508   7.178  0.1491 -0.3526 -0.8312
  131OSM   H12S14129   2.796   6.615   7.208 -1.4163 -0.5057  0.0751
  131OSM   H12T14130   2.896   6.477   7.156  0.9494  1.1352  0.5782
  131OSM   C13S14131   2.730   6.439   7.300 -0.6590  0.3200  0.5974
  131OSM   H13S14132   2.788   6.445   7.394  0.9882  0.9195 -0.4102
  131OSM   H13T14133   2.708   6.335   7.267  1.3202  0.2857 -0.8418
  131OSM   C14S14134   2.600   6.509   7.341 -0.0998  0.0596 -1.0586
  131OSM   H14S14135   2.530   6.511   7.254 -2.7481  1.6613  0.9219
  131OSM   H14T14136   2.624   6.617   7.352 -0.7393  0.0915  0.2444
  131OSM   C15S14137   2.529   6.451   7.461 -0.4121  0.8152  0.3849
  131OSM   H15S14138   2.553   6.343   7.466 -2.1811  0.3892  0.2712
  131OSM   H15T14139   2.419   6.458   7.449 -0.0660  2.0246 -3.8880
  131OSM   C16S14140   2.577   6.520   7.594  0.3892  0.6909  0.2640
  131OSM   H16S14141   2.533   6.622   7.589 -2.7832 -0.6049 -0.9191
  131OSM   H16T14142   2.687   6.525   7.586  0.2579  1.0818 -2.8201
  131OSM   C17S14143   2.523   6.457   7.718  0.2206  0.0042 -0.1830
  131OSM   H17S14144   2.413   6.447   7.705  0.4674 -2.7684 -0.5571
  131OSM   H17T14145   2.532   6.527   7.804  1.2742  1.5474 -1.4951
  131OSM   C18S14146   2.572   6.313   7.747 -0.0447 -0.2606  1.0113
  131OSM   H18S14147   2.683   6.317   7.745 -0.0199  0.8184 -2.3213
  131OSM   H18T14148   2.520   6.245   7.676 -0.0601 -0.1076  0.8735
  131OSM   H18U14149   2.540   6.293   7.851  4.0764  0.0076  2.5437
  131OSM    C1F14150   2.547   6.629   6.497  0.2151 -0.0564 -0.3995
  131OSM     OF14151   2.527   6.519   6.448 -1.0938 -0.0333 -0.1812
  131OSM    C2F14152   2.450   6.681   6.601 -0.0477 -0.0530  0.1259
  131OSM    H2F14153   2.434   6.787   6.572  1.2594 -0.5981 -2.9270
  131OSM    H2G14154   2.492   6.675   6.704 -0.8349 -1.3563  0.4006
  131OSM    C3F14155   2.317   6.605   6.589  0.2267  0.3652 -0.2611
  131OSM    H3F14156   2.277   6.587   6.487 -0.9443  0.5435  0.1508
  131OSM    H3G14157   2.236   6.664   6.637  0.0738  1.2917 -1.6322
  131OSM    C4F14158   2.329   6.469   6.673  0.0830 -0.3755 -0.5931
  131OSM    H4F14159   2.392   6.395   6.619  0.0605  0.8353 -2.3423
  131OSM    H4G14160   2.223   6.437   6.669 -0.3722  0.8286  0.8029
  131OSM    C5F14161   2.360   6.488   6.827 -0.1147  0.2461  0.0925
  131OSM    H5F14162   2.328   6.590   6.857 -2.6806 -0.6064  0.4835
  131OSM    H5G14163   2.466   6.469   6.856 -0.6099 -2.5788  0.4227
  131OSM    C6F14164   2.275   6.393   6.908  0.1522  0.6991 -0.6182
  131OSM    H6F14165   2.286   6.292   6.865 -2.2176  0.7095 -1.4112
  131OSM    H6G14166   2.166   6.416   6.907  0.2040  0.9787 -1.8660
  131OSM    C7F14167   2.317   6.384   7.054 -0.2203  0.0995  0.4851
  131OSM    H7F14168   2.313   6.493   7.077  0.8427  0.2568 -0.0227
  131OSM    H7G14169   2.419   6.344   7.070  0.4140  1.0204 -0.9838
  131OSM    C8F14170   2.206   6.326   7.141  0.3276 -0.9115 -0.7171
  131OSM    H8F14171   2.108   6.375   7.126 -0.5091 -2.3124 -0.0848
  131OSM    H8G14172   2.230   6.350   7.247  1.7272 -3.9022 -0.2413
  131OSM    C9F14173   2.205   6.176   7.142 -0.2449 -0.1350  0.3890
  131OSM    H9F14174   2.250   6.128   7.054  0.8470 -0.5362  1.1433
  131OSM   C10F14175   2.176   6.104   7.248 -0.8856 -0.2372 -0.1865
  131OSM   H10F14176   2.167   5.996   7.232 -1.2594  0.1857 -3.5112
  131OSM   C11F14177   2.136   6.150   7.389 -0.4865  0.0435 -0.4366
  131OSM   H11F14178   2.026   6.136   7.392 -0.5757  0.6973 -0.4256
  131OSM   H11G14179   2.170   6.254   7.412  0.8783 -0.4480 -0.1539
  131OSM   C12F14180   2.217   6.069   7.493 -0.3248  0.3446 -0.5963
  131OSM   H12F14181   2.322   6.096   7.516 -0.0781 -0.4498 -0.7504
  131OSM   H12G14182   2.215   5.961   7.465 -1.0702 -0.0951  1.0379
  131OSM   C13F14183   2.145   6.065   7.631  0.0204  0.2009  0.4021
  131OSM   H13F14184   2.189   5.989   7.699 -1.9321 -1.3861 -0.0186
  131OSM   H13G14185   2.040   6.034   7.609  0.3999  0.2305 -1.6443
  131OSM   C14F14186   2.135   6.200   7.703 -0.4270  0.5848  0.0601
  131OSM   H14F14187   2.061   6.263   7.649 -3.1311 -1.4500  1.1491
  131OSM   H14G14188   2.232   6.252   7.713 -0.1280  0.3196 -1.3409
  131OSM   C15F14189   2.073   6.178   7.843 -0.5070 -0.3520 -0.2880
  131OSM   H15F14190   2.129   6.093   7.887  0.1135 -0.0989 -0.5864
  131OSM   H15G14191   1.970   6.140   7.828 -0.8268 -0.0692  0.9955
  131OSM   C16F14192   2.066   6.302   7.931  0.1190  0.3683 -0.1852
  131OSM   H16F14193   1.998   6.371   7.877  1.4211  1.9788  0.1272
  131OSM   H16G14194   2.167   6.346   7.947  0.0021  1.1997 -1.6249
  131OSM   C17F14195   2.006   6.278   8.071 -0.1540 -1.1137  0.4864
  131OSM   H17F14196   2.066   6.200   8.123 -0.7878 -2.1761 -0.3237
  131OSM   H17G14197   1.907   6.228   8.060 -0.7929  0.1374  0.4054
  131OSM   C18F14198   1.989   6.387   8.169 -0.5424 -0.2491  0.1028
  131OSM   H18F14199   1.930   6.471   8.126  0.8410 -0.1509 -1.7458
  131OSM   H18G14200   2.087   6.434   8.194 -1.0489  1.8107 -1.5001
  131OSM   H18H14201   1.937   6.351   8.260 -0.1141  2.6179  1.6190
  132OSM      N14202   0.295   0.912   5.950 -0.4579  0.6403 -0.2766
  132OSM    C1514203   0.416   0.972   5.881 -0.2464 -0.3225  0.2448
  132OSM   H15A14204   0.460   1.051   5.940  1.5232 -0.6645 -0.5537
  132OSM   H15B14205   0.401   1.012   5.782  1.5976 -1.0595 -0.3711
  132OSM   H15C14206   0.500   0.904   5.883  0.5903  0.7026  1.4188
  132OSM    C1414207   0.174   1.010   5.925  0.8887  0.2786  0.2492
  132OSM   H14A14208   0.205   1.107   5.962 -1.1961  1.5220 -1.1084
  132OSM   H14B14209   0.087   0.974   5.977 -0.4841  1.1910 -1.3448
  132OSM   H14C14210   0.146   1.027   5.823 -1.0242  2.4083  1.0620
  132OSM    C1314211   0.269   0.782   5.881 -0.5410  0.4182  0.4072
  132OSM   H13A14212   0.345   0.709   5.905 -1.7005 -0.6538  0.9901
  132OSM   H13B14213   0.250   0.784   5.775 -3.0007 -0.7062  0.7557
  132OSM   H13C14214   0.179   0.737   5.921 -0.0288 -0.0119  1.1058
  132OSM    C1214215   0.333   0.883   6.085  1.0999  0.8409 -0.4022
  132OSM   H12A14216   0.430   0.836   6.093  1.3702  1.4708  0.0824
  132OSM   H12B14217   0.269   0.808   6.129  2.9045 -0.8999 -0.5877
  132OSM    C1114218   0.347   1.008   6.181  0.0801 -0.0827  0.6923
  132OSM   H11A14219   0.413   1.086   6.136  0.2396 -0.6509 -0.0747
  132OSM   H11B14220   0.400   0.971   6.271  1.5921 -2.1159 -0.9239
  132OSM      P14221   0.125   1.007   6.304 -0.4853  0.0257 -0.0662
  132OSM    O1314222   0.065   1.118   6.381  0.1665 -0.0985 -0.3425
  132OSM    O1414223   0.035   0.916   6.237  0.7583  0.2586 -0.0268
  132OSM    O1114224   0.215   0.912   6.396 -0.0338 -0.0737 -0.2187
  132OSM    O1214225   0.227   1.075   6.204 -0.0285  0.0622 -0.0424
  132OSM    C1S14226   0.264   0.958   6.524  0.3232 -0.3767  0.7554
  132OSM    H1S14227   0.177   0.994   6.583 -1.4031  0.6374 -2.2306
  132OSM    H1T14228   0.325   1.050   6.512 -3.1771  1.9286 -1.0014
  132OSM     NF14229   0.372   0.902   6.740  0.4182 -0.1516  0.2887
  132OSM    HNF14230   0.469   0.921   6.748  0.3570  0.8414 -1.0221
  132OSM    C2S14231   0.334   0.846   6.610  0.2574  0.0881  0.4750
  132OSM    H2S14232   0.249   0.777   6.628 -0.8564  1.5899  1.1267
  132OSM    C3S14233   0.447   0.774   6.533 -0.2932 -1.0943 -0.6218
  132OSM    H3S14234   0.518   0.856   6.512 -1.4765  0.7052  1.8991
  132OSM     O314235   0.409   0.727   6.402  0.0262 -0.4817  0.4317
  132OSM    HO314236   0.320   0.758   6.384  0.1809  0.2872  0.9687
  132OSM    C4S14237   0.508   0.675   6.618  0.2950  0.1064  0.3583
  132OSM    H4S14238   0.567   0.720   6.698  1.7244 -1.6324  0.3461
  132OSM    C5S14239   0.492   0.543   6.617 -0.1095  0.5155  0.0772
  132OSM    H5S14240   0.419   0.494   6.550  1.6803 -0.0235 -1.5704
  132OSM    C6S14241   0.557   0.453   6.720 -0.7080  0.2813 -0.2218
  132OSM    H6S14242   0.629   0.385   6.669 -2.3944  1.1671 -4.2083
  132OSM    H6T14243   0.482   0.387   6.767  0.4848 -0.5685  0.5526
  132OSM    C7S14244   0.621   0.518   6.846  0.7559  0.4357  0.6522
  132OSM    H7S14245   0.549   0.589   6.892  4.5013  2.8735  3.3015
  132OSM    H7T14246   0.721   0.563   6.828  1.5369 -1.6960 -0.7538
  132OSM    C8S14247   0.638   0.412   6.961 -0.6301  1.0088  0.7616
  132OSM    H8S14248   0.721   0.346   6.928 -0.4969  2.6428 -2.5734
  132OSM    H8T14249   0.546   0.350   6.968  1.7218 -2.6035  2.7072
  132OSM    C9S14250   0.670   0.467   7.094  0.6674 -0.2986  0.7580
  132OSM    H9S14251   0.583   0.530   7.120  0.2472 -1.0549  1.2295
  132OSM    H9T14252   0.755   0.538   7.094  0.3719  0.0579  0.4704
  132OSM   C10S14253   0.695   0.360   7.201  0.3619  0.2532  0.7329
  132OSM   H10S14254   0.792   0.311   7.177 -0.5000 -1.9897  1.5029
  132OSM   H10T14255   0.616   0.283   7.187  0.5843  0.3019 -1.0337
  132OSM   C11S14256   0.691   0.428   7.339  0.3493  0.0001  1.1136
  132OSM   H11S14257   0.597   0.486   7.347  0.2324  0.5273 -2.6066
  132OSM   H11T14258   0.776   0.499   7.351  0.6927  0.0446 -1.1098
  132OSM   C12S14259   0.693   0.330   7.453  0.7502  0.4980 -0.3475
  132OSM   H12S14260   0.799   0.294   7.451  0.5310 -0.1708 -0.0800
  132OSM   H12T14261   0.617   0.250   7.438 -0.8949  1.8204  0.6673
  132OSM   C13S14262   0.670   0.383   7.589 -0.1541  0.0957 -0.3846
  132OSM   H13S14263   0.707   0.306   7.661 -1.1321 -0.4262 -0.4134
  132OSM   H13T14264   0.563   0.410   7.603 -0.2775 -0.0408 -1.0393
  132OSM   C14S14265   0.758   0.509   7.627 -0.0811  0.4863 -0.1984
  132OSM   H14S14266   0.713   0.597   7.575 -0.8785  0.3709  0.2780
  132OSM   H14T14267   0.863   0.490   7.595 -0.6838  0.0293 -1.9744
  132OSM   C15S14268   0.764   0.529   7.782 -0.1608 -0.3235 -0.4504
  132OSM   H15S14269   0.842   0.465   7.828 -0.4732  0.7333  1.6268
  132OSM   H15T14270   0.667   0.496   7.825 -0.5490 -0.3744 -1.3237
  132OSM   C16S14271   0.796   0.676   7.815  0.3126 -0.2501 -0.0470
  132OSM   H16S14272   0.725   0.744   7.764  1.3377 -0.4666 -1.8505
  132OSM   H16T14273   0.897   0.704   7.777 -0.0894  0.1575 -0.8258
  132OSM   C17S14274   0.793   0.690   7.969  0.3545  0.6668 -0.0856
  132OSM   H17S14275   0.836   0.789   7.994  0.1634  0.8406 -0.4460
  132OSM   H17T14276   0.850   0.613   8.025 -2.8199 -1.4039  0.5397
  132OSM   C18S14277   0.653   0.697   8.034 -0.0337  0.8339  0.4993
  132OSM   H18S14278   0.658   0.689   8.144  1.3788 -0.0704  0.3954
  132OSM   H18T14279   0.611   0.600   7.998 -0.8568  2.4811 -3.5661
  132OSM   H18U14280   0.591   0.775   7.984 -0.8199  0.2385  0.5170
  132OSM    C1F14281   0.292   0.954   6.832  0.2736  0.3537 -0.6249
  132OSM     OF14282   0.172   0.925   6.825  0.3524  0.2971  0.1442
  132OSM    C2F14283   0.356   1.042   6.934 -0.1525 -0.2634 -0.3251
  132OSM    H2F14284   0.287   1.124   6.965  0.6354  0.0142  0.7678
  132OSM    H2G14285   0.447   1.093   6.896  0.5852 -1.5439 -0.3294
  132OSM    C3F14286   0.413   0.963   7.057  0.2364 -0.9920 -0.3567
  132OSM    H3F14287   0.521   0.990   7.065  0.0720 -0.3145 -0.3722
  132OSM    H3G14288   0.421   0.856   7.029 -2.0505 -0.5638 -3.0626
  132OSM    C4F14289   0.335   0.991   7.187  0.3432  0.1016  0.2178
  132OSM    H4F14290   0.227   0.976   7.162  0.3847 -0.1834  0.2067
  132OSM    H4G14291   0.367   1.094   7.213  1.7531 -0.1223 -0.5829
  132OSM    C5F14292   0.368   0.904   7.302  0.2602  0.5156 -0.5625
  132OSM    H5F14293   0.355   0.797   7.275 -3.0486  0.2908  1.3637
  132OSM    H5G14294   0.300   0.933   7.385  1.3695 -2.4384  1.5550
  132OSM    C6F14295   0.510   0.922   7.364  0.0453  0.0495  0.3889
  132OSM    H6F14296   0.535   1.030   7.367 -0.7537  0.2746 -0.6521
  132OSM    H6G14297   0.565   0.874   7.280 -1.9689  0.0187 -0.9736
  132OSM    C7F14298   0.536   0.872   7.503  0.0515  0.2612 -0.0362
  132OSM    H7F14299   0.643   0.887   7.531  0.1084  3.2575 -1.4320
  132OSM    H7G14300   0.524   0.762   7.500 -3.0085  0.4584  1.5577
  132OSM    C8F14301   0.456   0.928   7.623  0.4719 -0.5650 -0.5840
  132OSM    H8F14302   0.505   0.889   7.715  1.3583  0.8212 -0.4462
  132OSM    H8G14303   0.354   0.884   7.614 -0.0698  0.5600 -0.1128
  132OSM    C9F14304   0.448   1.079   7.620  0.1738  0.1489  0.0775
  132OSM    H9F14305   0.412   1.124   7.526 -0.5637  1.5760  1.0132
  132OSM   C10F14306   0.480   1.158   7.724 -1.1216 -0.3264  0.2103
  132OSM   H10F14307   0.464   1.267   7.721  1.3048  0.1016  0.1201
  132OSM   C11F14308   0.536   1.118   7.854 -0.0092 -0.8039  0.5745
  132OSM   H11F14309   0.629   1.057   7.844  0.6296  0.3124 -0.6457
  132OSM   H11G14310   0.456   1.072   7.915 -2.5217  0.5554 -1.4863
  132OSM   C12F14311   0.588   1.239   7.939  0.0504 -0.7667  0.1023
  132OSM   H12F14312   0.506   1.312   7.960 -0.6669 -1.9636  1.7659
  132OSM   H12G14313   0.668   1.298   7.891  2.2791 -1.3485  2.8420
  132OSM   C13F14314   0.659   1.188   8.061  0.2562  0.3528  0.5190
  132OSM   H13F14315   0.664   1.266   8.139 -3.4607  0.4159  0.8445
  132OSM   H13G14316   0.759   1.149   8.031  0.4339 -1.4327  3.0664
  132OSM   C14F14317   0.600   1.070   8.137  0.6632 -0.1100  0.0183
  132OSM   H14F14318   0.602   0.975   8.080 -0.7296 -2.4843  3.6303
  132OSM   H14G14319   0.493   1.098   8.152 -0.1104 -2.5702 -0.4120
  132OSM   C15F14320   0.670   1.064   8.271 -0.0781 -0.1467 -0.9198
  132OSM   H15F14321   0.677   1.158   8.330 -0.2631 -1.6548  1.6366
  132OSM   H15G14322   0.769   1.016   8.258  0.1660 -0.1919  0.8163
  132OSM   C16F14323   0.616   0.963   8.378 -0.0539 -0.5377 -0.3212
  132OSM   H16F14324   0.693   0.885   8.396  1.0535  0.5771 -0.0564
  132OSM   H16G14325   0.522   0.913   8.345 -1.9867  1.2157  2.0731
  132OSM   C17F14326   0.578   1.017   8.517 -0.4725 -0.3206  0.1451
  132OSM   H17F14327   0.681   1.036   8.554 -0.9501  0.1037  1.2995
  132OSM   H17G14328   0.533   0.939   8.581 -1.1465  0.3202  0.4641
  132OSM   C18F14329   0.480   1.137   8.535  1.0516  0.5930  0.6887
  132OSM   H18F14330   0.465   1.151   8.644  0.4720  2.3120  0.4164
  132OSM   H18G14331   0.380   1.112   8.492  0.6052 -0.1898  2.1124
  132OSM   H18H14332   0.516   1.236   8.500  0.3319  0.1020 -1.5997
  133OSM      N14333   2.286   2.063   6.033  0.0501 -0.0456  0.3314
  133OSM    C1514334   2.404   2.080   6.123 -0.2085 -0.1635 -0.5802
  133OSM   H15A14335   2.473   2.140   6.066  1.0295 -4.2108 -3.8356
  133OSM   H15B14336   2.451   1.987   6.151  0.7437  0.6742  0.7425
  133OSM   H15C14337   2.383   2.126   6.218  0.9534  0.9674 -0.8454
  133OSM    C1414338   2.242   2.199   5.981  0.0510 -0.0168 -0.1502
  133OSM   H14A14339   2.183   2.193   5.891 -0.2712  0.6067  0.0098
  133OSM   H14B14340   2.328   2.257   5.951 -0.1594  0.1538 -0.4264
  133OSM   H14C14341   2.183   2.240   6.062 -1.1235 -2.0255  0.0723
  133OSM    C1314342   2.325   1.985   5.911  0.7075  0.8946 -0.4796
  133OSM   H13A14343   2.388   2.040   5.844 -1.2546  1.3335 -2.0832
  133OSM   H13B14344   2.237   1.956   5.855 -0.5548  1.3338  1.1899
  133OSM   H13C14345   2.378   1.894   5.935 -0.3427  0.5033  0.4961
  133OSM    C1214346   2.171   1.997   6.107 -0.1180  0.6654 -0.6150
  133OSM   H12A14347   2.203   1.895   6.122  0.9392  1.1690  0.8310
  133OSM   H12B14348   2.077   1.987   6.054 -0.0411 -1.3617 -0.4602
  133OSM    C1114349   2.122   2.055   6.246 -0.4259 -0.1338  0.6066
  133OSM   H11A14350   2.196   2.027   6.324  0.8019 -3.2248 -1.4634
  133OSM   H11B14351   2.025   2.005   6.261  0.4171 -2.0477  0.0302
  133OSM      P14352   1.957   2.263   6.246  0.1965 -0.0931 -0.1750
  133OSM    O1314353   1.977   2.409   6.238 -0.1463  0.2288  1.0227
  133OSM    O1414354   1.868   2.203   6.143  0.2249  0.0676  0.1306
  133OSM    O1114355   1.910   2.234   6.397 -0.3754 -0.2068  0.7954
  133OSM    O1214356   2.098   2.193   6.239  0.1832 -0.1502  0.0395
  133OSM    C1S14357   1.766   2.220   6.414  0.9258 -0.2337 -0.1357
  133OSM    H1S14358   1.733   2.133   6.353  0.4419 -0.1397 -0.0102
  133OSM    H1T14359   1.712   2.307   6.370 -0.8524  0.6434  3.4400
  133OSM     NF14360   1.578   2.189   6.572  0.5519 -0.0390 -0.1913
  133OSM    HNF14361   1.507   2.256   6.593  0.1515 -1.2187  2.5826
  133OSM    C2S14362   1.722   2.225   6.562 -0.2393  0.0785 -0.3856
  133OSM    H2S14363   1.782   2.150   6.617  0.0670  0.9024  0.4277
  133OSM    C3S14364   1.747   2.362   6.631 -0.5999  0.1488  0.1247
  133OSM    H3S14365   1.687   2.440   6.579 -1.7828 -1.5391 -1.1715
  133OSM     O314366   1.888   2.392   6.615  0.0836 -0.1706  0.1735
  133OSM    HO314367   1.925   2.329   6.553  1.9755  1.5087 -0.5081
  133OSM    C4S14368   1.698   2.357   6.773 -0.0484 -0.2326  0.2082
  133OSM    H4S14369   1.593   2.391   6.779 -0.0175 -0.1048  0.0428
  133OSM    C5S14370   1.757   2.329   6.889  0.0507 -0.6870 -0.3401
  133OSM    H5S14371   1.863   2.301   6.890  0.4056  0.5533 -1.2228
  133OSM    C6S14372   1.680   2.337   7.016  0.2051 -0.3027  0.6464
  133OSM    H6S14373   1.720   2.427   7.068  1.1470  0.2369 -0.9575
  133OSM    H6T14374   1.709   2.251   7.081  2.2982 -0.3462 -0.2632
  133OSM    C7S14375   1.528   2.351   7.018  0.1327  0.4582  0.1755
  133OSM    H7S14376   1.488   2.262   6.965 -0.3696  1.3452 -0.9987
  133OSM    H7T14377   1.496   2.444   6.965 -2.1264 -0.5432 -0.3257
  133OSM    C8S14378   1.474   2.341   7.164  0.1563  0.3345  1.0394
  133OSM    H8S14379   1.517   2.257   7.222 -0.0335 -1.5135 -1.3279
  133OSM    H8T14380   1.365   2.322   7.178 -0.1060  0.7953 -0.1823
  133OSM    C9S14381   1.492   2.471   7.242 -0.6761 -0.6399 -0.1596
  133OSM    H9S14382   1.452   2.553   7.178 -1.8138 -1.2284 -0.2282
  133OSM    H9T14383   1.598   2.502   7.250 -1.5390  2.6157  0.2625
  133OSM   C10S14384   1.423   2.472   7.377 -0.2539  0.1009  0.5230
  133OSM   H10S14385   1.457   2.380   7.429  1.7782 -0.5249 -1.6916
  133OSM   H10T14386   1.314   2.459   7.363 -0.1215  0.7414 -1.3084
  133OSM   C11S14387   1.451   2.596   7.472  0.1967 -0.2751  0.4039
  133OSM   H11S14388   1.391   2.686   7.444  0.1310 -0.0089  1.3790
  133OSM   H11T14389   1.559   2.618   7.472  0.7213 -2.5796  0.5626
  133OSM   C12S14390   1.412   2.557   7.613 -0.1538  0.6998  0.0342
  133OSM   H12S14391   1.453   2.635   7.681  0.4013  0.4852 -0.0437
  133OSM   H12T14392   1.467   2.463   7.634 -0.0928  0.8645  0.6266
  133OSM   C13S14393   1.259   2.546   7.643 -0.6177 -0.0912 -0.9090
  133OSM   H13S14394   1.202   2.485   7.569  1.3018 -0.1745 -2.3954
  133OSM   H13T14395   1.229   2.653   7.640 -1.6068 -0.3038  0.2760
  133OSM   C14S14396   1.228   2.488   7.782  0.6249  0.5124  0.1888
  133OSM   H14S14397   1.289   2.395   7.783  2.4601  1.6470  2.3610
  133OSM   H14T14398   1.122   2.461   7.804  1.3177 -0.4478  2.8641
  133OSM   C15S14399   1.273   2.586   7.899 -0.3796  0.0969  0.7906
  133OSM   H15S14400   1.260   2.692   7.867 -1.5993 -0.3456 -0.2561
  133OSM   H15T14401   1.384   2.575   7.907 -0.4715 -0.8750  0.8217
  133OSM   C16S14402   1.207   2.558   8.033 -0.5271  0.0394  0.4302
  133OSM   H16S14403   1.230   2.451   8.052 -2.3275 -0.3003  0.8578
  133OSM   H16T14404   1.100   2.573   8.010 -0.6938  0.9848  1.7065
  133OSM   C17S14405   1.253   2.642   8.147  0.4267  0.4869 -0.4609
  133OSM   H17S14406   1.185   2.621   8.232  2.0243 -1.3102  0.4382
  133OSM   H17T14407   1.247   2.749   8.119  1.9444  0.6611 -0.1728
  133OSM   C18S14408   1.398   2.626   8.188 -0.2572 -0.0253  0.0920
  133OSM   H18S14409   1.466   2.650   8.103 -0.5246  1.6737  0.3199
  133OSM   H18T14410   1.423   2.521   8.211  1.1528  0.6901  2.1242
  133OSM   H18U14411   1.422   2.683   8.280  0.5152  0.1621 -0.2090
  133OSM    C1F14412   1.526   2.070   6.553  0.5517  0.4098 -0.1610
  133OSM     OF14413   1.601   1.977   6.536 -0.0904  1.0109  0.5571
  133OSM    C2F14414   1.375   2.056   6.528  0.0546 -0.3015  0.3759
  133OSM    H2F14415   1.359   2.000   6.433 -0.8672  0.9523 -0.2208
  133OSM    H2G14416   1.319   2.151   6.522 -1.9186 -1.5358 -2.5945
  133OSM    C3F14417   1.316   1.965   6.637 -0.2272  0.0623 -0.0623
  133OSM    H3F14418   1.335   1.856   6.625 -2.8277 -0.3605 -1.0593
  133OSM    H3G14419   1.205   1.967   6.629 -0.2986  0.2638  0.9117
  133OSM    C4F14420   1.347   2.003   6.784 -0.7728 -1.1268 -0.1846
  133OSM    H4F14421   1.321   2.109   6.801  0.7536 -0.8147  0.3690
  133OSM    H4G14422   1.454   1.987   6.809 -1.0959 -2.0071  0.6977
  133OSM    C5F14423   1.259   1.920   6.879  0.4325  0.4297  1.2676
  133OSM    H5F14424   1.299   1.817   6.866  0.7812  0.6907  0.1924
  133OSM    H5G14425   1.153   1.914   6.845  0.5209 -0.0070  1.0563
  133OSM    C6F14426   1.249   1.965   7.021 -0.2969  0.3626 -0.3482
  133OSM    H6F14427   1.180   1.891   7.068  1.7538 -0.6410  1.2619
  133OSM    H6G14428   1.205   2.065   7.037 -3.4894 -1.2151  1.9906
  133OSM    C7F14429   1.390   1.948   7.090  0.3258  0.5023  0.1084
  133OSM    H7F14430   1.467   2.013   7.044  1.7720 -0.5151  1.0333
  133OSM    H7G14431   1.424   1.843   7.083  0.1835  0.5029 -0.7957
  133OSM    C8F14432   1.390   1.986   7.238  0.1286 -0.0185 -0.6119
  133OSM    H8F14433   1.316   1.915   7.280 -0.8604 -0.4328 -2.8899
  133OSM    H8G14434   1.345   2.084   7.263 -2.8050 -1.8239  1.8364
  133OSM    C9F14435   1.521   1.960   7.307 -0.1212 -0.3066  0.0759
  133OSM    H9F14436   1.594   1.899   7.251 -0.1943  0.3069 -0.7118
  133OSM   C10F14437   1.561   2.004   7.426  0.1827 -0.5977 -0.3772
  133OSM   H10F14438   1.658   1.971   7.465  1.5861  1.7719 -1.6067
  133OSM   C11F14439   1.474   2.097   7.509  0.2975 -0.2361 -0.3101
  133OSM   H11F14440   1.384   2.140   7.461 -0.2345 -0.1988  0.6914
  133OSM   H11G14441   1.532   2.188   7.534 -0.2701 -0.1525  0.7280
  133OSM   C12F14442   1.421   2.027   7.635  0.4099 -0.9227 -0.1615
  133OSM   H12F14443   1.493   1.955   7.680  0.5787 -1.6641 -1.5719
  133OSM   H12G14444   1.331   1.973   7.599 -0.4789  0.6797 -0.4293
  133OSM   C13F14445   1.387   2.127   7.752  0.0234 -0.5680  0.4421
  133OSM   H13F14446   1.304   2.193   7.719 -2.0394 -2.7713  0.9583
  133OSM   H13G14447   1.485   2.180   7.760 -0.1796  0.1217 -1.1901
  133OSM   C14F14448   1.349   2.058   7.883 -0.4278  0.2335  0.2416
  133OSM   H14F14449   1.417   1.972   7.904 -1.8235 -0.6050  1.5652
  133OSM   H14G14450   1.242   2.030   7.889 -0.7585  1.1589 -0.8605
  133OSM   C15F14451   1.358   2.149   7.998  0.2761 -0.3901 -0.3283
  133OSM   H15F14452   1.281   2.229   7.993 -1.6454 -2.1207  0.1527
  133OSM   H15G14453   1.456   2.201   7.990 -0.8203  1.5398 -2.3310
  133OSM   C16F14454   1.344   2.073   8.131  0.6496 -0.4988  0.0858
  133OSM   H16F14455   1.435   2.010   8.144  1.0120 -0.2362 -1.0937
  133OSM   H16G14456   1.270   1.990   8.128  0.2306 -0.1086 -0.7526
  133OSM   C17F14457   1.332   2.164   8.253 -0.5362  0.1236  0.4167
  133OSM   H17F14458   1.303   2.115   8.348 -0.7384 -1.0487 -0.2372
  133OSM   H17G14459   1.254   2.240   8.231 -0.8015 -0.3879 -0.4515
  133OSM   C18F14460   1.465   2.243   8.281  0.0902  0.3027  0.5917
  133OSM   H18F14461   1.450   2.315   8.364 -1.7052  1.0861 -0.3523
  133OSM   H18G14462   1.504   2.300   8.194 -2.0079  2.1754  0.8100
  133OSM   H18H14463   1.541   2.169   8.315 -0.8908 -2.6058 -2.8366
  134OSM      N14464   0.218   3.445   5.961 -0.4459 -0.8549  0.0308
  134OSM    C1514465   0.296   3.414   5.834  0.2244 -0.1785  0.0626
  134OSM   H15A14466   0.366   3.333   5.847  1.0326  0.3905 -0.6101
  134OSM   H15B14467   0.356   3.502   5.813 -0.2064  0.0754 -0.1138
  134OSM   H15C14468   0.217   3.401   5.762  0.0009  2.7040 -0.3389
  134OSM    C1414469   0.122   3.557   5.928 -0.3743  0.9460  0.1384
  134OSM   H14A14470   0.051   3.520   5.855  1.7133 -0.7452 -1.1352
  134OSM   H14B14471   0.186   3.634   5.888  0.9469  0.4724  1.2615
  134OSM   H14C14472   0.079   3.600   6.018 -0.2568  2.7304 -0.6162
  134OSM    C1314473   0.137   3.323   5.993 -0.2795 -0.0460  0.3424
  134OSM   H13A14474   0.084   3.337   6.085  1.6774 -3.2212  2.1199
  134OSM   H13B14475   0.190   3.231   6.013 -3.6273 -2.3084 -0.5024
  134OSM   H13C14476   0.065   3.301   5.916  0.8879  0.4123 -0.9349
  134OSM    C1214477   0.310   3.471   6.076 -0.5016  0.3597  0.0084
  134OSM   H12A14478   0.377   3.554   6.059 -0.0093 -0.2856 -1.3570
  134OSM   H12B14479   0.363   3.379   6.094 -1.7475 -0.3149  0.3480
  134OSM    C1114480   0.238   3.503   6.211  0.3131 -0.6969 -0.0048
  134OSM   H11A14481   0.324   3.505   6.281  0.7155  1.3526 -0.5110
  134OSM   H11B14482   0.167   3.425   6.247 -1.5550  0.5162 -0.8968
  134OSM      P14483   0.056   3.667   6.310 -0.1673  0.3204  0.7047
  134OSM    O1314484   0.037   3.812   6.305 -0.1354 -0.0850  1.0447
  134OSM    O1414485  -0.048   3.578   6.262  0.2003  0.3510  0.0388
  134OSM    O1114486   0.108   3.623   6.455  0.4348 -0.1607  0.0785
  134OSM    O1214487   0.179   3.641   6.217 -0.6970  0.2004  0.1830
  134OSM    C1S14488   0.233   3.671   6.506  0.1632  0.3465  0.7916
  134OSM    H1S14489   0.260   3.770   6.464  0.4329 -0.3385 -0.7277
  134OSM    H1T14490   0.316   3.616   6.457 -0.6900  0.0320 -0.3724
  134OSM     NF14491   0.356   3.776   6.689 -0.0483 -0.2568 -0.0059
  134OSM    HNF14492   0.445   3.733   6.700 -0.5203 -1.1672  0.3885
  134OSM    C2S14493   0.245   3.687   6.658 -0.1412  0.2528  0.2319
  134OSM    H2S14494   0.150   3.734   6.690 -0.8368 -1.1584  0.3170
  134OSM    C3S14495   0.259   3.539   6.713  0.3409  0.2358  0.5569
  134OSM    H3S14496   0.349   3.489   6.671  1.6679  2.4495  0.6218
  134OSM     O314497   0.146   3.469   6.668  0.2164 -0.3343 -0.6470
  134OSM    HO314498   0.118   3.513   6.588 -0.3277  0.5272 -0.0057
  134OSM    C4S14499   0.267   3.548   6.866  0.2668 -0.4070 -0.1097
  134OSM    H4S14500   0.177   3.540   6.929 -0.0066 -0.8772 -0.5545
  134OSM    C5S14501   0.380   3.583   6.934 -0.3446 -0.3155  0.8351
  134OSM    H5S14502   0.477   3.599   6.885 -0.4138  0.2394  0.8800
  134OSM    C6S14503   0.387   3.610   7.079  0.7009  0.6186 -0.6435
  134OSM    H6S14504   0.462   3.539   7.120  1.5999  1.9772  0.1420
  134OSM    H6T14505   0.288   3.583   7.122 -0.1365 -0.4747 -3.0865
  134OSM    C7S14506   0.421   3.751   7.122  0.3031 -0.0213  0.2145
  134OSM    H7S14507   0.373   3.829   7.058  0.7853 -1.4738 -2.0307
  134OSM    H7T14508   0.530   3.765   7.108  0.5470 -0.8235  1.2376
  134OSM    C8S14509   0.402   3.775   7.277 -0.2933  0.5975  0.2477
  134OSM    H8S14510   0.298   3.741   7.297 -0.2166  0.0690 -0.2329
  134OSM    H8T14511   0.400   3.886   7.280  1.7614  0.6591  0.7734
  134OSM    C9S14512   0.507   3.719   7.371 -0.1677  0.0565  0.2451
  134OSM    H9S14513   0.604   3.762   7.336 -1.0030  1.2964 -0.6085
  134OSM    H9T14514   0.512   3.610   7.353 -0.0222  0.1025  0.0014
  134OSM   C10S14515   0.481   3.769   7.516  0.2659 -0.1358 -0.2472
  134OSM   H10S14516   0.428   3.867   7.514 -0.3595 -0.4791 -1.4399
  134OSM   H10T14517   0.580   3.783   7.564  0.7024 -0.5144 -1.0365
  134OSM   C11S14518   0.398   3.674   7.597 -0.6300 -0.0514  0.2203
  134OSM   H11S14519   0.449   3.576   7.601  1.0057  0.6000 -2.1830
  134OSM   H11T14520   0.300   3.671   7.546 -0.9469  1.3661  0.6828
  134OSM   C12S14521   0.353   3.730   7.736 -0.5156  0.1364 -0.5905
  134OSM   H12S14522   0.263   3.680   7.778  1.2367 -2.3512  0.5141
  134OSM   H12T14523   0.310   3.832   7.726  0.7305  1.0055  1.9201
  134OSM   C13S14524   0.454   3.731   7.855 -0.6197  0.2953 -1.2184
  134OSM   H13S14525   0.552   3.758   7.809 -0.5292  0.3186 -1.0119
  134OSM   H13T14526   0.459   3.633   7.907  2.2109  0.1838 -1.5509
  134OSM   C14S14527   0.396   3.824   7.967 -0.0038  0.6718 -0.6807
  134OSM   H14S14528   0.290   3.800   7.991  0.9514 -1.8994  1.3700
  134OSM   H14T14529   0.413   3.931   7.940  1.4110  0.6907  0.1657
  134OSM   C15S14530   0.491   3.816   8.093  0.3844  0.4852  0.0260
  134OSM   H15S14531   0.595   3.814   8.052  0.5825 -1.3398  0.5520
  134OSM   H15T14532   0.484   3.719   8.145 -0.1976  0.4937 -0.0310
  134OSM   C16S14533   0.474   3.920   8.198  0.0956 -0.1622  0.2559
  134OSM   H16S14534   0.368   3.945   8.218  0.1399  1.7946 -1.6610
  134OSM   H16T14535   0.515   4.018   8.166  0.8553 -0.3694  0.5563
  134OSM   C17S14536   0.543   3.873   8.327  0.8472 -0.6996  0.1191
  134OSM   H17S14537   0.653   3.865   8.313  0.8170 -1.0579  0.0684
  134OSM   H17T14538   0.501   3.773   8.354 -0.4676  0.4191  2.5585
  134OSM   C18S14539   0.524   3.968   8.446 -0.1292  0.0985 -0.7525
  134OSM   H18S14540   0.564   3.925   8.541 -1.0132  0.3940 -0.2357
  134OSM   H18T14541   0.415   3.977   8.469 -0.5629 -0.8091 -2.3299
  134OSM   H18U14542   0.557   4.072   8.425  2.8497 -0.7134 -0.5479
  134OSM    C1F14543   0.346   3.906   6.663 -0.8930  0.2321  0.0735
  134OSM     OF14544   0.244   3.967   6.632  0.4016 -0.0380  0.2062
  134OSM    C2F14545   0.474   3.980   6.642 -0.1489 -0.1142 -0.3006
  134OSM    H2F14546   0.480   4.027   6.541 -0.7189  1.1052  0.2194
  134OSM    H2G14547   0.552   3.902   6.653  0.6057  0.9186  2.2959
  134OSM    C3F14548   0.503   4.094   6.737 -0.0207  0.0591 -0.2803
  134OSM    H3F14549   0.423   4.171   6.731 -1.3995 -1.4578 -2.5790
  134OSM    H3G14550   0.599   4.144   6.710 -0.9606  2.5343  0.6229
  134OSM    C4F14551   0.517   4.047   6.875  0.2802 -0.1651  0.3455
  134OSM    H4F14552   0.598   3.972   6.884 -0.1527 -0.7690 -0.6559
  134OSM    H4G14553   0.425   3.999   6.915  2.2631 -1.7920  3.3028
  134OSM    C5F14554   0.560   4.150   6.967  0.0648  0.3212 -0.1441
  134OSM    H5F14555   0.486   4.232   6.977 -0.6365 -0.3605  0.2877
  134OSM    H5G14556   0.654   4.194   6.927 -0.0533 -0.3538 -1.1900
  134OSM    C6F14557   0.581   4.095   7.109 -1.1705 -0.3857 -0.4186
  134OSM    H6F14558   0.654   4.013   7.092  0.7453  0.6140  2.3292
  134OSM    H6G14559   0.491   4.048   7.154  0.4235 -3.0580  0.1839
  134OSM    C7F14560   0.619   4.203   7.212 -0.7468 -0.1759 -0.3277
  134OSM    H7F14561   0.621   4.165   7.317  0.9598  0.0783 -0.2491
  134OSM    H7G14562   0.544   4.283   7.194  0.5341  0.8954 -1.1161
  134OSM    C8F14563   0.766   4.254   7.190 -0.5309  0.6834  0.1896
  134OSM    H8F14564   0.782   4.295   7.088 -0.0801  0.2938  0.1024
  134OSM    H8G14565   0.830   4.163   7.194 -2.3225 -0.6096  1.0382
  134OSM    C9F14566   0.803   4.359   7.298 -0.4611  0.2862 -0.6413
  134OSM    H9F14567   0.847   4.311   7.387 -2.8231 -2.1246 -0.6593
  134OSM   C10F14568   0.791   4.491   7.293  0.9432 -0.1484 -0.4731
  134OSM   H10F14569   0.828   4.543   7.382  0.9397 -1.8725  0.5775
  134OSM   C11F14570   0.728   4.575   7.180  0.8240 -0.0929 -0.0326
  134OSM   H11F14571   0.673   4.514   7.105 -1.1537  2.8049 -1.1437
  134OSM   H11G14572   0.805   4.623   7.117  1.9360 -0.5609  0.9363
  134OSM   C12F14573   0.639   4.682   7.246  0.0854  1.2440  0.3507
  134OSM   H12F14574   0.614   4.759   7.171 -0.3033  2.0443  1.2781
  134OSM   H12G14575   0.709   4.725   7.321  0.1952 -1.3986  1.9166
  134OSM   C13F14576   0.514   4.643   7.319 -0.2608  0.0748 -0.6188
  134OSM   H13F14577   0.546   4.592   7.413 -1.0064 -1.6991 -1.2944
  134OSM   H13G14578   0.464   4.561   7.263  1.8916 -2.0913  0.4454
  134OSM   C14F14579   0.425   4.761   7.350 -0.1646 -0.0293  0.6691
  134OSM   H14F14580   0.374   4.792   7.256  1.2068 -0.1277 -0.1415
  134OSM   H14G14581   0.496   4.841   7.383  0.2929 -0.5155  0.8700
  134OSM   C15F14582   0.324   4.720   7.456 -0.1064 -0.7147  0.3868
  134OSM   H15F14583   0.382   4.669   7.535 -1.1829 -0.3166  1.4582
  134OSM   H15G14584   0.265   4.637   7.410 -0.1190  0.5757 -2.1006
  134OSM   C16F14585   0.225   4.834   7.489 -0.5929  0.1020  0.3672
  134OSM   H16F14586   0.198   4.898   7.403 -0.3022  0.8997  0.8620
  134OSM   H16G14587   0.274   4.896   7.567  0.1889 -1.4906  1.1842
  134OSM   C17F14588   0.089   4.794   7.558 -0.3206 -0.9933 -0.3671
  134OSM   H17F14589   0.040   4.885   7.599  1.7116 -0.4771  1.0626
  134OSM   H17G14590   0.109   4.727   7.644  1.7469 -1.7989 -1.3900
  134OSM   C18F14591   0.001   4.734   7.448  0.3251 -0.1661  0.2509
  134OSM   H18F14592  -0.098   4.698   7.484  0.4769  0.0960  0.9475
  134OSM   H18G14593   0.055   4.647   7.404  2.8646  1.7529 -0.6579
  134OSM   H18H14594  -0.014   4.815   7.373 -0.4293 -1.4929 -1.0829
  135OSM      N14595   4.776   6.663   6.255  0.2014  0.6979 -0.5126
  135OSM    C1514596   4.888   6.735   6.329 -0.0950 -0.8464 -0.1626
  135OSM   H15A14597   4.954   6.767   6.250 -1.2093  1.1837 -0.3187
  135OSM   H15B14598   4.934   6.673   6.405  0.6980 -3.3811 -2.5657
  135OSM   H15C14599   4.841   6.816   6.383 -1.6444 -1.3321 -0.7224
  135OSM    C1414600   4.649   6.644   6.342  0.1892  0.2520  0.3126
  135OSM   H14A14601   4.621   6.738   6.388  1.9025  0.3544  1.2318
  135OSM   H14B14602   4.660   6.562   6.412  2.1786 -0.7872 -1.1005
  135OSM   H14C14603   4.563   6.608   6.288 -1.4285  0.9533  2.2685
  135OSM    C1314604   4.746   6.745   6.134  0.3001 -0.3314  0.1777
  135OSM   H13A14605   4.686   6.686   6.067  0.1876 -2.7941  2.2486
  135OSM   H13B14606   4.837   6.763   6.078  0.7334 -2.4108  0.1326
  135OSM   H13C14607   4.700   6.839   6.161 -0.7527 -0.5714 -0.7409
  135OSM    C1214608   4.830   6.525   6.208 -0.0313 -0.4362 -0.4060
  135OSM   H12A14609   4.901   6.537   6.128 -0.3833 -2.4741 -1.0787
  135OSM   H12B14610   4.755   6.461   6.163 -1.1116 -1.0845  2.1375
  135OSM    C1114611   4.899   6.443   6.319 -0.1349  0.4315  0.0819
  135OSM   H11A14612   4.902   6.333   6.301  2.5704 -0.3765  4.1298
  135OSM   H11B14613   4.834   6.455   6.409  1.7408 -0.6389  1.6524
  135OSM      P14614   5.151   6.461   6.238  0.0323 -0.6020  0.2275
  135OSM    O1314615   5.098   6.453   6.099 -0.0800  0.2501  0.1726
  135OSM    O1414616   5.261   6.559   6.261  0.4922 -0.0485 -0.6534
  135OSM    O1114617   5.179   6.313   6.302 -0.1724 -0.3588 -0.3472
  135OSM    O1214618   5.033   6.503   6.327 -0.6295 -0.7090  0.3184
  135OSM    C1S14619   5.231   6.316   6.433  0.0229 -0.3057  0.0983
  135OSM    H1S14620   5.165   6.366   6.507 -1.0275 -2.2092  0.5076
  135OSM    H1T14621   5.331   6.362   6.451 -1.5300  3.8016 -0.7367
  135OSM     NF14622   5.236   6.169   6.635  0.4857  0.3944 -0.1809
  135OSM    HNF14623   5.328   6.167   6.675  0.4810  0.3497 -0.1733
  135OSM    C2S14624   5.235   6.168   6.491  0.4475 -0.3015 -0.1914
  135OSM    H2S14625   5.142   6.118   6.456 -0.0551  1.0160 -0.8079
  135OSM    C3S14626   5.357   6.098   6.416  0.3996 -0.2920 -0.1893
  135OSM    H3S14627   5.440   6.154   6.463 -1.7124 -0.0148  3.5751
  135OSM     O314628   5.375   6.108   6.275  0.0789 -0.2454  0.3412
  135OSM    HO314629   5.311   6.177   6.258 -1.3148 -0.9346  2.4359
  135OSM    C4S14630   5.349   5.951   6.456 -0.5574 -0.0019  0.6576
  135OSM    H4S14631   5.252   5.901   6.436 -0.0864  0.1073 -2.4265
  135OSM    C5S14632   5.454   5.871   6.499 -0.3910 -0.1970 -0.1007
  135OSM    H5S14633   5.551   5.922   6.495 -1.1274  1.4118  1.1874
  135OSM    C6S14634   5.448   5.727   6.544  0.0999 -0.7010  0.3645
  135OSM    H6S14635   5.483   5.656   6.466 -0.6997  0.7374 -1.3632
  135OSM    H6T14636   5.341   5.699   6.556 -0.1052 -0.5346 -1.0070
  135OSM    C7S14637   5.527   5.696   6.675 -0.0002 -0.2441 -0.0879
  135OSM    H7S14638   5.621   5.755   6.687 -0.7132  0.8078  0.5188
  135OSM    H7T14639   5.548   5.588   6.683  1.0499 -0.0185  0.3351
  135OSM    C8S14640   5.448   5.745   6.796  0.1842  0.2641 -0.2343
  135OSM    H8S14641   5.348   5.699   6.784  0.4545  0.0979 -2.1581
  135OSM    H8T14642   5.439   5.854   6.776  2.3424  0.5253 -0.0225
  135OSM    C9S14643   5.513   5.701   6.928 -0.0746 -1.4089 -0.4091
  135OSM    H9S14644   5.613   5.750   6.925 -0.7691  0.2618  1.4459
  135OSM    H9T14645   5.542   5.594   6.919  0.9235 -1.2523  0.6919
  135OSM   C10S14646   5.443   5.752   7.052 -0.8983 -0.3482 -0.5802
  135OSM   H10S14647   5.339   5.713   7.049  0.1665 -3.5304 -2.6135
  135OSM   H10T14648   5.429   5.862   7.047 -0.1622 -0.0945  1.7031
  135OSM   C11S14649   5.504   5.718   7.190  0.4193 -0.4687 -0.2209
  135OSM   H11S14650   5.609   5.754   7.181  0.3059 -0.2141 -0.5782
  135OSM   H11T14651   5.488   5.609   7.198 -2.5845 -0.1756 -0.9799
  135OSM   C12S14652   5.416   5.797   7.293  0.1088 -0.5207  0.2773
  135OSM   H12S14653   5.436   5.761   7.396  1.7985  0.3429  0.2966
  135OSM   H12T14654   5.309   5.779   7.268  0.1547 -0.7415  0.2396
  135OSM   C13S14655   5.448   5.950   7.288  0.4384 -0.0792  0.0301
  135OSM   H13S14656   5.403   5.993   7.197 -0.7219 -0.2038  0.5274
  135OSM   H13T14657   5.554   5.971   7.262 -0.7188  3.4593 -2.4822
  135OSM   C14S14658   5.392   6.024   7.405  0.1212 -0.1769 -0.0476
  135OSM   H14S14659   5.468   6.033   7.485  0.3743  2.7009 -0.5006
  135OSM   H14T14660   5.299   5.967   7.429 -0.6192  1.4054  0.9734
  135OSM   C15S14661   5.340   6.167   7.377 -0.0401 -0.2546 -0.5072
  135OSM   H15S14662   5.261   6.150   7.301  0.9876  0.7435 -1.8391
  135OSM   H15T14663   5.424   6.223   7.330  2.8206 -1.3935  2.8268
  135OSM   C16S14664   5.276   6.242   7.496 -0.7485 -0.3787  0.1425
  135OSM   H16S14665   5.209   6.170   7.546  0.9092 -0.4114  2.5106
  135OSM   H16T14666   5.208   6.322   7.459 -0.0072 -0.4577 -1.4537
  135OSM   C17S14667   5.373   6.290   7.603  0.2550 -0.1309 -0.0132
  135OSM   H17S14668   5.438   6.377   7.579 -0.4434  0.6547  0.8866
  135OSM   H17T14669   5.435   6.206   7.640 -1.5191 -1.7689 -0.6348
  135OSM   C18S14670   5.302   6.333   7.731  0.4018 -0.8787 -0.0272
  135OSM   H18S14671   5.379   6.358   7.807  0.0419 -0.2784  0.1514
  135OSM   H18T14672   5.222   6.262   7.760 -2.7821  1.9863 -1.1313
  135OSM   H18U14673   5.246   6.425   7.704 -0.3327 -1.2002  0.3819
  135OSM    C1F14674   5.128   6.190   6.708  0.4329  0.2414  0.3269
  135OSM     OF14675   5.017   6.182   6.661 -0.4852 -0.0967 -0.2150
  135OSM    C2F14676   5.148   6.228   6.853  0.2316  1.0638 -0.1678
  135OSM    H2F14677   5.211   6.319   6.854  1.0296  0.5508 -1.5072
  135OSM    H2G14678   5.193   6.132   6.888 -0.5344  0.4470 -0.8190
  135OSM    C3F14679   5.008   6.258   6.928  0.6787  0.2089 -0.0454
  135OSM    H3F14680   4.936   6.176   6.909  0.7069 -0.3058  1.9076
  135OSM    H3G14681   4.959   6.349   6.889 -1.6908 -1.1454 -0.4097
  135OSM    C4F14682   5.045   6.268   7.074 -0.7457 -0.0812  0.4253
  135OSM    H4F14683   5.113   6.356   7.084 -2.4348  1.0236  3.7335
  135OSM    H4G14684   5.097   6.172   7.090 -0.2495 -0.6632 -3.5924
  135OSM    C5F14685   4.920   6.290   7.165 -0.4297  0.4811 -0.3569
  135OSM    H5F14686   4.870   6.191   7.161  2.0600 -0.8382 -0.9008
  135OSM    H5G14687   4.855   6.367   7.118 -0.4094  1.4826  1.1740
  135OSM    C6F14688   4.949   6.299   7.315  0.0264  0.5599  0.6197
  135OSM    H6F14689   5.012   6.388   7.338  1.4148  0.3563 -2.0346
  135OSM    H6G14690   5.014   6.212   7.338 -0.1533  0.6458  1.5188
  135OSM    C7F14691   4.818   6.305   7.398  0.2543  0.1766  0.3940
  135OSM    H7F14692   4.773   6.204   7.398  0.4554  0.0879  0.5711
  135OSM    H7G14693   4.740   6.370   7.352 -0.2307 -0.4979  0.2521
  135OSM    C8F14694   4.845   6.363   7.537  0.1115  0.0353  0.0162
  135OSM    H8F14695   4.864   6.472   7.531 -0.4545  0.1415  0.0324
  135OSM    H8G14696   4.943   6.321   7.568 -0.3236 -0.7444  0.3734
  135OSM    C9F14697   4.736   6.343   7.638 -0.3845  0.2304 -0.2275
  135OSM    H9F14698   4.635   6.325   7.597  0.0367 -0.5176 -0.9600
  135OSM   C10F14699   4.750   6.343   7.771  0.7873 -0.1628  0.4893
  135OSM   H10F14700   4.655   6.336   7.826 -0.5937  0.7000 -1.6819
  135OSM   C11F14701   4.879   6.365   7.853 -0.1040  0.4142  0.4182
  135OSM   H11F14702   4.967   6.391   7.790  2.2490  2.0876  4.1126
  135OSM   H11G14703   4.914   6.271   7.902  3.4552  1.0438 -0.6352
  135OSM   C12F14704   4.864   6.474   7.952 -0.2031 -0.9399 -0.7477
  135OSM   H12F14705   4.813   6.424   8.037 -1.2944 -0.7397 -1.2639
  135OSM   H12G14706   4.793   6.547   7.907 -1.4037  0.0078  2.4238
  135OSM   C13F14707   4.995   6.548   7.991 -0.5683  0.2875  0.1846
  135OSM   H13F14708   4.972   6.629   8.064  5.0714 -0.0828  2.9238
  135OSM   H13G14709   5.047   6.599   7.908  0.9448  1.7738  1.9504
  135OSM   C14F14710   5.101   6.464   8.059 -0.6960  0.9007  0.6649
  135OSM   H14F14711   5.139   6.383   7.992 -0.8982  1.7879 -0.5670
  135OSM   H14G14712   5.058   6.412   8.147  0.5961  0.7139  1.2202
  135OSM   C15F14713   5.223   6.535   8.124 -0.2721  0.4098  0.4203
  135OSM   H15F14714   5.196   6.623   8.187  0.2389 -0.6535  2.2093
  135OSM   H15G14715   5.285   6.571   8.039 -1.2876 -0.9166 -0.9206
  135OSM   C16F14716   5.303   6.443   8.218 -0.0069 -0.3876 -0.4878
  135OSM   H16F14717   5.239   6.397   8.295  0.9483  0.8131  1.0912
  135OSM   H16G14718   5.377   6.512   8.265 -0.0326  0.6307 -1.8627
  135OSM   C17F14719   5.396   6.345   8.141  0.3473  0.5007 -0.7816
  135OSM   H17F14720   5.479   6.398   8.088  1.3745 -0.5786 -0.3000
  135OSM   H17G14721   5.336   6.294   8.064 -0.5753 -0.3912  0.4971
  135OSM   C18F14722   5.470   6.242   8.229  0.7218 -0.2861 -0.1044
  135OSM   H18F14723   5.566   6.198   8.194  1.7386  1.3992  0.4568
  135OSM   H18G14724   5.410   6.156   8.264 -0.0656  0.8226  1.3786
  135OSM   H18H14725   5.497   6.300   8.319  1.7494 -0.5163 -0.2526
  136OSM      N14726   3.239   3.900   5.987 -0.3479 -0.2392 -0.0351
  136OSM    C1514727   3.201   3.992   5.874  0.2247 -0.3928 -0.8994
  136OSM   H15A14728   3.125   4.058   5.913  1.0983  0.5650 -0.7782
  136OSM   H15B14729   3.157   3.933   5.796 -2.0022 -1.1300  0.7982
  136OSM   H15C14730   3.277   4.059   5.837 -2.6525  2.3053 -2.4434
  136OSM    C1414731   3.127   3.810   6.018  0.2008 -0.4398  0.5716
  136OSM   H14A14732   3.043   3.874   6.040  0.9483  0.6857  0.2288
  136OSM   H14B14733   3.148   3.755   6.108 -0.1031 -2.8235 -0.7210
  136OSM   H14C14734   3.113   3.742   5.935 -0.4331  0.3235  0.0336
  136OSM    C1314735   3.361   3.830   5.953 -0.3667  0.4020 -0.4587
  136OSM   H13A14736   3.381   3.756   6.029 -1.8186  1.8583  1.4141
  136OSM   H13B14737   3.445   3.898   5.954 -1.3711  1.7100 -1.0199
  136OSM   H13C14738   3.366   3.771   5.862 -1.5358  0.6532 -0.6985
  136OSM    C1214739   3.270   3.986   6.110 -0.8865  0.2961  0.1939
  136OSM   H12A14740   3.319   3.924   6.183  0.2340  0.5444 -0.3245
  136OSM   H12B14741   3.181   4.013   6.164  0.0503 -2.5775  3.5615
  136OSM    C1114742   3.361   4.111   6.092  0.3932  0.3172 -0.2658
  136OSM   H11A14743   3.355   4.172   6.186 -0.9180  1.2865 -0.9404
  136OSM   H11B14744   3.304   4.182   6.028  0.2536  1.8833  1.5012
  136OSM      P14745   3.597   4.045   6.154  0.1190  0.1519 -0.0953
  136OSM    O1314746   3.619   3.895   6.168  0.5265  0.0942  0.5160
  136OSM    O1414747   3.724   4.119   6.119  0.1493 -0.4275  0.3536
  136OSM    O1114748   3.541   4.102   6.289  0.4050 -0.0075  0.2563
  136OSM    O1214749   3.488   4.081   6.048  0.2628 -0.1989 -0.9841
  136OSM    C1S14750   3.548   4.239   6.336  0.0293 -0.5232  0.4891
  136OSM    H1S14751   3.499   4.308   6.264  1.4106  0.2247  0.2473
  136OSM    H1T14752   3.652   4.275   6.348 -0.7184  1.5177  1.2541
  136OSM     NF14753   3.458   4.401   6.498 -0.6838  0.4934  0.3310
  136OSM    HNF14754   3.517   4.453   6.559  0.2860 -0.0488 -0.1126
  136OSM    C2S14755   3.480   4.256   6.478  0.5492 -0.1054 -0.3108
  136OSM    H2S14756   3.382   4.204   6.471  1.2810 -1.6590  0.3221
  136OSM    C3S14757   3.570   4.192   6.588  0.1364  0.4706 -0.7035
  136OSM    H3S14758   3.667   4.247   6.590  0.1901  0.3646  1.7567
  136OSM     O314759   3.606   4.055   6.558  0.0265  0.0335 -0.3977
  136OSM    HO314760   3.591   4.050   6.463  0.6723 -0.6463 -0.4680
  136OSM    C4S14761   3.504   4.204   6.723 -0.2064 -0.4189  0.9313
  136OSM    H4S14762   3.407   4.153   6.731  0.9761 -3.0817 -0.3182
  136OSM    C5S14763   3.546   4.280   6.831 -0.3122  0.5356 -0.1142
  136OSM    H5S14764   3.639   4.337   6.820  0.7354 -1.4281 -2.3088
  136OSM    C6S14765   3.489   4.298   6.963  0.3639 -0.3178 -0.0068
  136OSM    H6S14766   3.378   4.292   6.956  0.4126  0.2933 -1.7429
  136OSM    H6T14767   3.509   4.400   7.001 -0.7824  0.9820 -2.6571
  136OSM    C7S14768   3.535   4.192   7.059 -0.1213  0.6603 -0.5513
  136OSM    H7S14769   3.641   4.207   7.089  0.3902  1.0036 -2.4229
  136OSM    H7T14770   3.524   4.096   7.005  0.0184  0.6121 -0.4949
  136OSM    C8S14771   3.438   4.176   7.171 -0.0950  0.0700 -0.4521
  136OSM    H8S14772   3.362   4.099   7.146  0.6098 -0.8002 -0.0052
  136OSM    H8T14773   3.382   4.268   7.197 -0.9549 -0.5723  0.0383
  136OSM    C9S14774   3.504   4.131   7.302  0.0956 -0.4753  0.1177
  136OSM    H9S14775   3.586   4.060   7.281  1.2730  0.8298  0.1579
  136OSM    H9T14776   3.431   4.073   7.362 -1.9607  1.1773 -0.6219
  136OSM   C10S14777   3.553   4.252   7.386  0.1210  0.2343  0.9927
  136OSM   H10S14778   3.481   4.336   7.380  0.8835  0.9908  2.0831
  136OSM   H10T14779   3.652   4.282   7.347  0.0951  0.1771  0.8834
  136OSM   C11S14780   3.588   4.208   7.530  0.7184 -0.5511  0.0506
  136OSM   H11S14781   3.609   4.298   7.592 -0.3300 -0.1736 -0.1115
  136OSM   H11T14782   3.678   4.143   7.531  1.3483  0.3034  0.6936
  136OSM   C12S14783   3.470   4.154   7.602  0.1386 -0.7261  0.1752
  136OSM   H12S14784   3.464   4.045   7.582  0.7176 -0.6215 -0.6162
  136OSM   H12T14785   3.378   4.207   7.572 -0.5485 -0.9127  1.8057
  136OSM   C13S14786   3.480   4.150   7.763  0.1835  0.6586 -0.4318
  136OSM   H13S14787   3.386   4.109   7.806  1.1458 -1.1418  0.0584
  136OSM   H13T14788   3.486   4.257   7.792  2.2736  0.7224 -0.9123
  136OSM   C14S14789   3.593   4.065   7.819  0.7446  0.2730 -0.6193
  136OSM   H14S14790   3.692   4.108   7.794  0.9515 -0.0697 -0.3938
  136OSM   H14T14791   3.590   3.964   7.773 -0.3475 -0.3373  0.7239
  136OSM   C15S14792   3.568   4.044   7.969  0.3545  0.0962 -0.2235
  136OSM   H15S14793   3.644   3.974   8.010 -1.6094 -1.5897  0.7120
  136OSM   H15T14794   3.484   3.972   7.977  0.2829  0.3651  2.2000
  136OSM   C16S14795   3.546   4.165   8.058 -0.0655  0.5825 -0.2008
  136OSM   H16S14796   3.438   4.188   8.050 -0.4550 -0.0452  2.4962
  136OSM   H16T14797   3.599   4.256   8.020  0.2496  1.2861  1.8103
  136OSM   C17S14798   3.590   4.146   8.198 -0.0464 -0.0847  1.1161
  136OSM   H17S14799   3.697   4.116   8.208  0.2029 -0.0665 -1.0799
  136OSM   H17T14800   3.530   4.058   8.231 -0.4051 -1.4849 -2.7539
  136OSM   C18S14801   3.576   4.263   8.293 -0.4406 -0.0087  0.0335
  136OSM   H18S14802   3.628   4.353   8.255 -0.7741 -0.1386 -0.7487
  136OSM   H18T14803   3.630   4.227   8.383  1.3564  2.7504  0.1502
  136OSM   H18U14804   3.472   4.286   8.327 -1.0252  0.8947 -2.1627
  136OSM    C1F14805   3.359   4.465   6.445  0.5998  0.1351  0.3609
  136OSM     OF14806   3.270   4.405   6.384 -0.1110 -0.2868  0.5247
  136OSM    C2F14807   3.367   4.609   6.459  0.3267 -0.3776  0.0475
  136OSM    H2F14808   3.300   4.654   6.382 -0.8580  1.0288  1.8106
  136OSM    H2G14809   3.474   4.640   6.453  0.3689 -0.3816  0.6981
  136OSM    C3F14810   3.317   4.660   6.589 -0.1626 -0.1357  0.1153
  136OSM    H3F14811   3.215   4.614   6.590 -0.4253  0.3836 -0.9342
  136OSM    H3G14812   3.296   4.769   6.581 -2.4862 -0.5665 -0.6539
  136OSM    C4F14813   3.399   4.630   6.714  0.2594 -0.2826 -0.4751
  136OSM    H4F14814   3.477   4.708   6.717  1.3372 -1.3380 -0.2192
  136OSM    H4G14815   3.450   4.531   6.714  1.2462  0.2066 -1.5066
  136OSM    C5F14816   3.312   4.633   6.836 -0.3757  0.2936  0.2119
  136OSM    H5F14817   3.289   4.528   6.861  0.0421  0.1041 -0.1825
  136OSM    H5G14818   3.223   4.696   6.816  0.7531  1.8256 -0.2289
  136OSM    C6F14819   3.369   4.683   6.971 -0.2671 -0.3061  0.2135
  136OSM    H6F14820   3.362   4.793   6.970  0.9549 -0.2308 -0.8882
  136OSM    H6G14821   3.477   4.660   6.974 -0.0098  0.8781  0.3199
  136OSM    C7F14822   3.299   4.626   7.102  0.6707 -0.2700  0.3951
  136OSM    H7F14823   3.280   4.519   7.084  2.3053 -0.5274  0.0202
  136OSM    H7G14824   3.201   4.678   7.100 -0.4132 -2.2205 -1.5866
  136OSM    C8F14825   3.400   4.623   7.220 -0.1866 -0.4576  0.7899
  136OSM    H8F14826   3.493   4.570   7.192 -0.9023 -1.2365 -0.1983
  136OSM    H8G14827   3.363   4.559   7.304 -1.3269  0.5081  1.0499
  136OSM    C9F14828   3.417   4.752   7.287 -0.0888  0.8892  1.0559
  136OSM    H9F14829   3.346   4.828   7.252  0.4201  0.8412 -0.1206
  136OSM   C10F14830   3.505   4.780   7.384 -0.3798 -0.0495  0.2451
  136OSM   H10F14831   3.502   4.875   7.440  0.5468 -0.7554  1.5277
  136OSM   C11F14832   3.602   4.676   7.436 -0.4121 -0.5924 -0.8639
  136OSM   H11F14833   3.706   4.696   7.400  0.1153 -0.5524  0.5981
  136OSM   H11G14834   3.569   4.574   7.406 -1.2216 -0.1114 -1.6522
  136OSM   C12F14835   3.607   4.679   7.594 -0.7401  0.1093 -0.1926
  136OSM   H12F14836   3.685   4.608   7.630 -0.5148 -0.7106 -2.1644
  136OSM   H12G14837   3.511   4.638   7.632 -0.1543  0.6519  2.0026
  136OSM   C13F14838   3.644   4.814   7.655  0.2245  0.1008 -1.1902
  136OSM   H13F14839   3.557   4.884   7.646 -0.6325 -1.0660 -2.3370
  136OSM   H13G14840   3.730   4.855   7.598  1.1829  0.4467  0.4723
  136OSM   C14F14841   3.682   4.819   7.807  0.3675 -0.0391 -0.4523
  136OSM   H14F14842   3.714   4.923   7.828 -1.7297  0.3809  1.0238
  136OSM   H14G14843   3.766   4.749   7.826 -0.1458 -0.5316  0.0733
  136OSM   C15F14844   3.573   4.779   7.901  0.1085  0.7109  0.4320
  136OSM   H15F14845   3.542   4.673   7.887  1.9143  0.3416 -1.1579
  136OSM   H15G14846   3.486   4.847   7.888 -0.5883  0.2086  2.1329
  136OSM   C16F14847   3.630   4.792   8.045 -0.3749  0.1368  0.0332
  136OSM   H16F14848   3.697   4.880   8.051 -0.1075 -0.1266  1.0664
  136OSM   H16G14849   3.696   4.703   8.056  0.2775  0.6401  0.2313
  136OSM   C17F14850   3.524   4.813   8.146  1.1058 -0.3371 -0.8038
  136OSM   H17F14851   3.447   4.732   8.144  0.1826  0.4460  0.8594
  136OSM   H17G14852   3.478   4.910   8.121 -0.1707 -0.6272  0.3038
  136OSM   C18F14853   3.581   4.821   8.287 -0.2480 -0.1822 -0.0080
  136OSM   H18F14854   3.501   4.858   8.354 -0.8523  0.1239 -0.8823
  136OSM   H18G14855   3.661   4.899   8.287 -0.3314 -0.0968  0.2758
  136OSM   H18H14856   3.619   4.720   8.310 -0.3939 -0.5650 -1.3302
  137OSM      N14857   3.780   2.754   6.219 -0.4260 -0.1030 -0.1022
  137OSM    C1514858   3.674   2.729   6.116  0.1203 -0.4981 -0.0256
  137OSM   H15A14859   3.604   2.811   6.124  0.5381 -0.1715  0.3866
  137OSM   H15B14860   3.623   2.636   6.138  0.2743 -0.4663  0.4909
  137OSM   H15C14861   3.726   2.724   6.022  1.9503  1.8886  0.7354
  137OSM    C1414862   3.882   2.652   6.198 -0.0089  0.4098  0.0015
  137OSM   H14A14863   3.978   2.682   6.238  0.1330  1.6649 -1.2187
  137OSM   H14B14864   3.896   2.622   6.095 -1.7024 -0.5022 -0.0060
  137OSM   H14C14865   3.853   2.561   6.250  1.8358  0.6870  1.6426
  137OSM    C1314866   3.839   2.894   6.199 -0.5702  0.0664  0.1660
  137OSM   H13A14867   3.874   2.909   6.097  0.8419  2.4187  0.9260
  137OSM   H13B14868   3.922   2.907   6.266 -1.2519 -0.9820  1.2488
  137OSM   H13C14869   3.764   2.966   6.226 -0.6447  0.5460 -1.2365
  137OSM    C1214870   3.713   2.750   6.356  0.1626  0.1539  0.6392
  137OSM   H12A14871   3.636   2.826   6.365 -1.2667 -1.0343 -0.8871
  137OSM   H12B14872   3.787   2.755   6.434  1.0365 -0.7096 -0.1121
  137OSM    C1114873   3.635   2.622   6.397 -0.5454 -0.3764 -0.0420
  137OSM   H11A14874   3.619   2.629   6.507 -5.1448 -0.4932 -0.4888
  137OSM   H11B14875   3.692   2.528   6.383 -1.6886 -1.1238  0.1588
  137OSM      P14876   3.381   2.686   6.384 -0.3600  0.3050  0.3113
  137OSM    O1314877   3.290   2.724   6.275 -0.3924 -0.2192 -0.3682
  137OSM    O1414878   3.323   2.597   6.483 -0.6255 -0.2674  0.1580
  137OSM    O1114879   3.433   2.817   6.458 -0.1401 -0.0073  0.4309
  137OSM    O1214880   3.510   2.615   6.327  0.2280  0.5439  0.0027
  137OSM    C1S14881   3.355   2.940   6.463  0.6360  0.3446  0.2427
  137OSM    H1S14882   3.249   2.933   6.430  0.5335  1.0192  0.4312
  137OSM    H1T14883   3.409   3.005   6.390 -1.6496  2.1769  0.0756
  137OSM     NF14884   3.278   3.131   6.601  0.1904 -0.1705 -0.5529
  137OSM    HNF14885   3.325   3.218   6.585  0.6527 -0.0216  1.3646
  137OSM    C2S14886   3.366   3.018   6.596 -0.2666  0.3528  0.1493
  137OSM    H2S14887   3.334   2.952   6.679 -1.1136 -0.6928 -0.9744
  137OSM    C3S14888   3.518   3.059   6.615 -0.6278  0.3619  0.1550
  137OSM    H3S14889   3.548   3.141   6.547  0.7206  0.2390  0.5695
  137OSM     O314890   3.607   2.952   6.593  0.4228  0.8268  0.4838
  137OSM    HO314891   3.543   2.883   6.576 -0.2389  1.2392  1.2270
  137OSM    C4S14892   3.543   3.116   6.749 -0.1235  0.7219 -0.1759
  137OSM    H4S14893   3.515   3.222   6.753 -1.7468  0.3908 -1.6513
  137OSM    C5S14894   3.572   3.053   6.863  0.1778 -0.0162  0.1541
  137OSM    H5S14895   3.594   2.945   6.863  0.1785 -0.0207 -0.5705
  137OSM    C6S14896   3.576   3.131   6.995 -0.4380 -0.0517  0.0062
  137OSM    H6S14897   3.634   3.226   6.986  0.1918 -0.5414 -1.2910
  137OSM    H6T14898   3.627   3.073   7.074  0.5998  0.5574 -0.1950
  137OSM    C7S14899   3.431   3.176   7.040 -0.2996  0.2723 -0.3687
  137OSM    H7S14900   3.371   3.084   7.054  2.3026 -1.4462  0.2761
  137OSM    H7T14901   3.386   3.236   6.957  0.2375 -1.9874 -2.4242
  137OSM    C8S14902   3.429   3.250   7.175  0.0291 -0.4539  0.3114
  137OSM    H8S14903   3.508   3.328   7.163 -2.6815  2.0512 -3.3651
  137OSM    H8T14904   3.463   3.176   7.251 -1.6346 -0.3513  1.1856
  137OSM    C9S14905   3.297   3.325   7.215 -0.8404  0.3589  0.2029
  137OSM    H9S14906   3.213   3.253   7.202 -2.7529  2.4386  0.3961
  137OSM    H9T14907   3.287   3.410   7.145  3.9856  2.0108  1.1611
  137OSM   C10S14908   3.304   3.386   7.355  0.1392 -0.8877 -0.2755
  137OSM   H10S14909   3.221   3.458   7.368  0.5612 -0.1983 -1.3250
  137OSM   H10T14910   3.401   3.439   7.367  0.1852 -1.0151 -0.0569
  137OSM   C11S14911   3.298   3.285   7.469 -0.0909  0.2422  1.2255
  137OSM   H11S14912   3.396   3.233   7.472  0.4822  1.0380 -1.1006
  137OSM   H11T14913   3.217   3.214   7.440  0.9468 -1.0915  1.5029
  137OSM   C12S14914   3.264   3.335   7.609  0.0010 -0.2679  0.0896
  137OSM   H12S14915   3.162   3.380   7.607 -0.5206 -1.3020  1.8316
  137OSM   H12T14916   3.344   3.404   7.642 -0.0108 -1.0543  1.8681
  137OSM   C13S14917   3.261   3.220   7.711 -1.2155  0.2977 -0.2766
  137OSM   H13S14918   3.334   3.141   7.682 -2.0242  0.4579 -3.0225
  137OSM   H13T14919   3.159   3.175   7.714 -0.3416 -1.7599  0.3439
  137OSM   C14S14920   3.274   3.276   7.851  0.0536 -0.0438  0.6515
  137OSM   H14S14921   3.188   3.344   7.867 -0.7452 -1.4481  2.8067
  137OSM   H14T14922   3.371   3.330   7.843 -0.6556  1.1789 -0.1052
  137OSM   C15S14923   3.267   3.165   7.956 -0.4176 -0.2528 -0.0846
  137OSM   H15S14924   3.353   3.098   7.933 -0.7103  0.0817 -2.4592
  137OSM   H15T14925   3.178   3.101   7.938 -1.4347  1.2673 -0.6910
  137OSM   C16S14926   3.263   3.210   8.106 -0.1405  0.0762 -0.6183
  137OSM   H16S14927   3.344   3.277   8.144 -0.9447 -0.1662  1.7420
  137OSM   H16T14928   3.278   3.115   8.161 -1.5031 -2.4315 -4.2703
  137OSM   C17S14929   3.134   3.276   8.152  0.2500  0.3821 -0.7788
  137OSM   H17S14930   3.117   3.361   8.083 -0.9418  0.2347 -0.6864
  137OSM   H17T14931   3.157   3.304   8.256 -0.0830 -2.1781  0.0648
  137OSM   C18S14932   3.002   3.185   8.153 -0.2681 -0.0512 -0.2572
  137OSM   H18S14933   3.013   3.093   8.214  2.8622  0.9139  0.7969
  137OSM   H18T14934   2.992   3.151   8.047 -1.0677  1.4365 -0.6865
  137OSM   H18U14935   2.910   3.232   8.192  1.0387  1.2306  1.3911
  137OSM    C1F14936   3.144   3.131   6.604 -0.3864  0.3806  0.7032
  137OSM     OF14937   3.091   3.024   6.598  0.4856 -0.3527  0.5056
  137OSM    C2F14938   3.066   3.265   6.604  0.4198  0.2856 -0.0437
  137OSM    H2F14939   3.066   3.286   6.495  1.1002 -0.4730 -0.1980
  137OSM    H2G14940   3.131   3.345   6.645  1.3951 -0.3670 -0.2854
  137OSM    C3F14941   2.916   3.257   6.647 -0.6613  0.2441 -0.0721
  137OSM    H3F14942   2.838   3.214   6.581 -0.7613  2.1911 -1.3015
  137OSM    H3G14943   2.891   3.365   6.656  0.8216  0.8205 -2.2024
  137OSM    C4F14944   2.889   3.215   6.793 -0.0436 -0.7087 -0.2643
  137OSM    H4F14945   2.939   3.116   6.806  3.4525  1.1340  1.8524
  137OSM    H4G14946   2.781   3.218   6.818  0.4222 -0.1960  1.8437
  137OSM    C5F14947   2.965   3.300   6.890 -0.2656  0.1141  0.2695
  137OSM    H5F14948   2.932   3.405   6.881  0.7481  0.4438  0.3045
  137OSM    H5G14949   3.074   3.296   6.866 -0.2383  0.6283  0.3043
  137OSM    C6F14950   2.940   3.258   7.039  0.6735  0.0559  0.1121
  137OSM    H6F14951   3.025   3.299   7.097  1.9028  0.9906 -2.2567
  137OSM    H6G14952   2.939   3.148   7.052  1.3156  0.1023  0.5794
  137OSM    C7F14953   2.807   3.316   7.090 -0.3326  0.0368 -0.8062
  137OSM    H7F14954   2.735   3.257   7.029  0.7414 -1.0435 -1.0666
  137OSM    H7G14955   2.787   3.423   7.067 -1.1268  0.1946  0.4898
  137OSM    C8F14956   2.779   3.299   7.248 -0.0484  0.3552  0.7155
  137OSM    H8F14957   2.798   3.191   7.264  0.1685  0.2395 -0.2877
  137OSM    H8G14958   2.672   3.295   7.276 -0.1237 -1.9593  0.2461
  137OSM    C9F14959   2.864   3.386   7.338  0.0187 -0.4775  0.1036
  137OSM    H9F14960   2.972   3.376   7.321 -0.1073 -0.7657 -0.5908
  137OSM   C10F14961   2.821   3.481   7.423 -0.2259 -0.4183 -0.2921
  137OSM   H10F14962   2.900   3.546   7.463  0.5716 -0.8523 -1.1223
  137OSM   C11F14963   2.674   3.524   7.442  0.1779 -0.5615  0.1258
  137OSM   H11F14964   2.630   3.544   7.542 -0.4332 -0.7446 -0.1045
  137OSM   H11G14965   2.601   3.460   7.388 -3.1659  1.6112  1.7544
  137OSM   C12F14966   2.659   3.654   7.362  0.1775 -0.0305  0.5659
  137OSM   H12F14967   2.727   3.731   7.404  1.6966 -2.0868  2.0459
  137OSM   H12G14968   2.550   3.677   7.370 -0.5567  0.8019 -5.9790
  137OSM   C13F14969   2.664   3.643   7.203  0.4100 -0.2322  0.1567
  137OSM   H13F14970   2.588   3.574   7.163 -1.2633  1.2733  0.6060
  137OSM   H13G14971   2.764   3.601   7.178  1.0392  1.7521 -0.8843
  137OSM   C14F14972   2.632   3.780   7.138 -0.5214 -0.1924  0.5158
  137OSM   H14F14973   2.698   3.857   7.183 -0.2065 -0.4053  0.4192
  137OSM   H14G14974   2.529   3.821   7.150  0.5643  2.5516  1.2044
  137OSM   C15F14975   2.652   3.764   6.985  0.0180  0.4561  0.0559
  137OSM   H15F14976   2.630   3.657   6.965 -0.2780  1.0400 -3.3992
  137OSM   H15G14977   2.758   3.776   6.953  0.6989  0.1695  2.0870
  137OSM   C16F14978   2.564   3.848   6.891 -0.4039  0.6797  0.0590
  137OSM   H16F14979   2.457   3.832   6.914 -0.4317  1.0574  0.1940
  137OSM   H16G14980   2.575   3.817   6.785 -0.6753  2.0727 -0.3990
  137OSM   C17F14981   2.606   3.997   6.898 -0.5257 -0.3051 -1.0120
  137OSM   H17F14982   2.714   4.014   6.882 -0.1489 -1.1098  0.4867
  137OSM   H17G14983   2.575   4.024   7.002 -0.1909 -0.9020 -0.7501
  137OSM   C18F14984   2.532   4.081   6.795 -0.4547 -1.2137  0.5587
  137OSM   H18F14985   2.429   4.087   6.835  0.4047 -2.0962  3.1118
  137OSM   H18G14986   2.552   4.035   6.695 -0.5821  0.2868 -0.1851
  137OSM   H18H14987   2.579   4.181   6.791  0.1787 -1.5351 -0.4900
  138OSM      N14988   0.672   5.418   5.562 -0.6256 -0.1039  0.0185
  138OSM    C1514989   0.700   5.558   5.507  0.2019  0.1488  0.8602
  138OSM   H15A14990   0.801   5.562   5.471  0.6206  0.8067  2.0325
  138OSM   H15B14991   0.698   5.623   5.594 -0.8358  0.1319  0.8649
  138OSM   H15C14992   0.626   5.589   5.434 -1.7979 -0.9923  2.2899
  138OSM    C1414993   0.660   5.314   5.456  0.5592  0.4577 -0.4820
  138OSM   H14A14994   0.589   5.337   5.378  0.8204 -1.5694 -1.3719
  138OSM   H14B14995   0.634   5.218   5.498  1.0126  0.6186  0.1975
  138OSM   H14C14996   0.762   5.302   5.423  1.5796  1.4975  2.0061
  138OSM    C1314997   0.798   5.384   5.636  0.8326 -0.4190  0.1304
  138OSM   H13A14998   0.796   5.453   5.719 -0.1788  1.3618 -1.2763
  138OSM   H13B14999   0.886   5.393   5.573 -0.0386 -1.4247 -1.3004
  138OSM   H13C15000   0.794   5.283   5.672  0.6579  0.0283  1.4372
  138OSM    C1215001   0.549   5.414   5.650 -0.7834 -0.2061 -0.2105
  138OSM   H12A15002   0.536   5.309   5.673 -1.9923  0.2283  1.2665
  138OSM   H12B15003   0.471   5.458   5.590 -0.6933 -1.1366 -1.0413
  138OSM    C1115004   0.563   5.481   5.794 -0.1224  0.2807 -0.2291
  138OSM   H11A15005   0.467   5.500   5.847 -0.4428  2.1516 -1.3877
  138OSM   H11B15006   0.611   5.580   5.782  0.9258 -0.2461 -0.5127
  138OSM      P15007   0.735   5.452   5.994  0.1692  0.1074 -0.1241
  138OSM    O1315008   0.786   5.333   6.072 -0.1864  0.0682 -0.2100
  138OSM    O1415009   0.830   5.554   5.950  0.5699 -0.1281  0.3054
  138OSM    O1115010   0.624   5.519   6.078  0.1531 -0.4362  0.5341
  138OSM    O1215011   0.648   5.395   5.869  0.2967  0.6054 -0.1722
  138OSM    C1S15012   0.535   5.441   6.161 -0.0018 -0.1741 -0.5040
  138OSM    H1S15013   0.512   5.340   6.120 -3.4959 -1.2632  3.4272
  138OSM    H1T15014   0.428   5.473   6.157 -1.0183 -3.1580  0.2726
  138OSM     NF15015   0.462   5.361   6.384 -0.7424  0.7556  0.5223
  138OSM    HNF15016   0.386   5.411   6.425 -1.8414  1.0257 -1.6554
  138OSM    C2S15017   0.574   5.425   6.312  0.5978 -0.7119 -0.5340
  138OSM    H2S15018   0.669   5.367   6.313  1.1993  0.2206 -1.4320
  138OSM    C3S15019   0.606   5.566   6.372  0.4763  0.0453  0.4252
  138OSM    H3S15020   0.513   5.627   6.374  0.7865  0.5032  1.4215
  138OSM     O315021   0.699   5.642   6.297 -0.0884  0.4161 -0.9942
  138OSM    HO315022   0.677   5.599   6.214 -0.4441 -0.9550 -0.2242
  138OSM    C4S15023   0.654   5.549   6.514 -0.2215 -0.0790  0.2765
  138OSM    H4S15024   0.587   5.591   6.591 -0.9282  0.5406 -0.6513
  138OSM    C5S15025   0.771   5.485   6.541 -0.5017  0.0709  0.1397
  138OSM    H5S15026   0.817   5.430   6.458 -1.8523 -1.5443  0.4198
  138OSM    C6S15027   0.832   5.473   6.678 -0.3985  0.8494 -0.1349
  138OSM    H6S15028   0.933   5.517   6.684  0.1798 -0.2731 -1.1259
  138OSM    H6T15029   0.850   5.367   6.705  1.6746  1.0772 -0.4491
  138OSM    C7S15030   0.751   5.511   6.802 -0.3756  0.3499  0.4599
  138OSM    H7S15031   0.647   5.472   6.797  0.4526 -1.8662 -0.7428
  138OSM    H7T15032   0.746   5.622   6.790  0.8176  0.3167 -0.4978
  138OSM    C8S15033   0.817   5.476   6.938  0.0189 -0.6840 -0.2630
  138OSM    H8S15034   0.909   5.526   6.975  0.4239 -0.2610 -1.7789
  138OSM    H8T15035   0.822   5.365   6.953 -1.4643 -0.7751 -0.3373
  138OSM    C9S15036   0.721   5.506   7.056 -0.7729  0.3144 -0.0087
  138OSM    H9S15037   0.626   5.451   7.040 -1.3706  0.9791  1.1382
  138OSM    H9T15038   0.698   5.614   7.043 -0.3277  0.3303 -0.7465
  138OSM   C10S15039   0.790   5.482   7.198  0.1408  0.1989  0.0084
  138OSM   H10S15040   0.885   5.539   7.203  0.6837 -0.6226 -0.5827
  138OSM   H10T15041   0.803   5.374   7.220 -0.0467 -0.0443 -0.9992
  138OSM   C11S15042   0.717   5.527   7.330 -0.3148  0.1948  0.4363
  138OSM   H11S15043   0.615   5.482   7.332  0.1046 -0.8138  2.8174
  138OSM   H11T15044   0.698   5.636   7.326 -2.2150 -0.0982  0.6093
  138OSM   C12S15045   0.809   5.486   7.446 -0.0122 -0.3686 -0.0537
  138OSM   H12S15046   0.916   5.511   7.432  0.2743 -1.9724 -0.9646
  138OSM   H12T15047   0.806   5.375   7.455 -0.5676 -0.5736 -2.1486
  138OSM   C13S15048   0.760   5.543   7.579 -0.0492 -0.3301  0.1224
  138OSM   H13S15049   0.651   5.527   7.591 -0.1063 -1.0705 -1.1983
  138OSM   H13T15050   0.781   5.652   7.582  2.6037 -0.7622  0.5862
  138OSM   C14S15051   0.824   5.473   7.699  0.2977  0.0048 -0.3064
  138OSM   H14S15052   0.924   5.517   7.721  0.4413 -0.0326 -0.8613
  138OSM   H14T15053   0.835   5.367   7.669  0.3462 -0.2091  0.4575
  138OSM   C15S15054   0.733   5.477   7.819  0.4724  0.1676 -0.7651
  138OSM   H15S15055   0.642   5.419   7.791  0.6791 -0.7263  0.3310
  138OSM   H15T15056   0.696   5.576   7.852 -0.7841 -0.3733 -0.4604
  138OSM   C16S15057   0.806   5.420   7.947 -0.0702  0.2350  0.5996
  138OSM   H16S15058   0.911   5.458   7.947  0.3083 -0.1522 -3.9776
  138OSM   H16T15059   0.809   5.314   7.914  0.7635  0.3599  0.2246
  138OSM   C17S15060   0.727   5.441   8.067  0.2406  0.9117 -0.0159
  138OSM   H17S15061   0.645   5.366   8.059 -0.4984  1.6969  0.1423
  138OSM   H17T15062   0.684   5.543   8.065  0.5741  1.0628  0.2576
  138OSM   C18S15063   0.805   5.416   8.199  0.4527 -0.3331  0.4929
  138OSM   H18S15064   0.870   5.326   8.193 -0.6544 -1.1773  0.9438
  138OSM   H18T15065   0.735   5.408   8.284 -3.3980 -0.1164 -2.3662
  138OSM   H18U15066   0.882   5.495   8.213  1.0321 -0.6682 -0.6682
  138OSM    C1F15067   0.437   5.233   6.390  0.2530  0.3563  0.3062
  138OSM     OF15068   0.490   5.163   6.306  0.6137 -0.0839  0.2457
  138OSM    C2F15069   0.352   5.183   6.499  0.2834 -0.1488 -0.5772
  138OSM    H2F15070   0.321   5.077   6.485  0.2284 -0.5568  2.1009
  138OSM    H2G15071   0.259   5.243   6.508  0.4356 -0.1961  1.6666
  138OSM    C3F15072   0.425   5.194   6.635 -0.4090 -0.2873  0.2075
  138OSM    H3F15073   0.453   5.299   6.658  0.7194 -0.7775  1.2082
  138OSM    H3G15074   0.520   5.137   6.624  0.1870  1.0204 -2.0456
  138OSM    C4F15075   0.338   5.146   6.756 -0.9146  0.7213  0.2974
  138OSM    H4F15076   0.299   5.048   6.722  0.1929  0.6423 -0.8317
  138OSM    H4G15077   0.250   5.214   6.755 -0.1410  1.7661  0.4882
  138OSM    C5F15078   0.411   5.147   6.892 -0.5500  1.0240 -0.5563
  138OSM    H5F15079   0.452   5.248   6.910 -0.1656  0.2618  3.8968
  138OSM    H5G15080   0.480   5.060   6.897 -1.3794  0.3760 -0.1028
  138OSM    C6F15081   0.320   5.099   7.005  0.0722 -0.3718 -0.1469
  138OSM    H6F15082   0.266   5.010   6.969 -0.6010  0.8770 -2.4081
  138OSM    H6G15083   0.238   5.172   7.023  2.5445  2.4140  0.6058
  138OSM    C7F15084   0.399   5.078   7.139 -0.0664  0.1316  0.1308
  138OSM    H7F15085   0.485   5.011   7.119 -1.3106 -1.3178 -0.5406
  138OSM    H7G15086   0.334   5.031   7.216  0.2380  1.2394  1.1033
  138OSM    C8F15087   0.454   5.209   7.201 -0.1569 -0.3430 -0.0102
  138OSM    H8F15088   0.517   5.269   7.132  0.5322  1.4392  2.0549
  138OSM    H8G15089   0.534   5.181   7.272 -1.9222 -0.1471  2.1678
  138OSM    C9F15090   0.349   5.293   7.273 -0.2336 -0.1215 -0.3112
  138OSM    H9F15091   0.282   5.334   7.196  2.4236  0.8342 -2.2376
  138OSM   C10F15092   0.332   5.307   7.407 -0.7051  0.2949 -0.3777
  138OSM   H10F15093   0.243   5.358   7.447 -0.3286 -0.9964  2.3365
  138OSM   C11F15094   0.414   5.263   7.524  0.6634  0.3618 -0.0752
  138OSM   H11F15095   0.473   5.350   7.562  1.8028  0.9472 -2.9250
  138OSM   H11G15096   0.478   5.176   7.502  0.7242  0.4090 -0.0869
  138OSM   C12F15097   0.323   5.213   7.641 -0.2570 -0.4980  0.4949
  138OSM   H12F15098   0.298   5.105   7.630 -2.2186 -0.1261  0.9983
  138OSM   H12G15099   0.226   5.266   7.644 -0.3098 -0.6316  1.3627
  138OSM   C13F15100   0.408   5.208   7.769 -0.0763 -0.1237  0.2338
  138OSM   H13F15101   0.425   5.308   7.814 -1.2237  0.3140 -0.2554
  138OSM   H13G15102   0.504   5.161   7.737 -0.9824 -0.3366 -2.4175
  138OSM   C14F15103   0.343   5.115   7.873 -0.1144 -0.1711 -0.3393
  138OSM   H14F15104   0.335   5.011   7.836 -0.4668 -0.3554  0.2590
  138OSM   H14G15105   0.238   5.142   7.894  0.1394  1.3461 -0.8283
  138OSM   C15F15106   0.410   5.127   8.007  0.3948 -0.9271 -1.0102
  138OSM   H15F15107   0.516   5.153   7.991  0.4108 -0.9873 -0.9998
  138OSM   H15G15108   0.413   5.031   8.063 -0.9432  0.7434  2.2183
  138OSM   C16F15109   0.346   5.236   8.099 -0.0480  0.3573  0.2369
  138OSM   H16F15110   0.238   5.217   8.117 -0.0610 -1.4007 -1.4230
  138OSM   H16G15111   0.362   5.333   8.047  2.9829  0.7607  1.6944
  138OSM   C17F15112   0.406   5.258   8.234  0.4341  0.7424 -0.3958
  138OSM   H17F15113   0.365   5.350   8.281 -0.5689 -0.2244  0.7120
  138OSM   H17G15114   0.517   5.266   8.227  0.3453  1.3569 -1.1986
  138OSM   C18F15115   0.370   5.138   8.326 -0.2399  0.0599  0.1823
  138OSM   H18F15116   0.418   5.047   8.285 -0.4097 -0.3793  0.9325
  138OSM   H18G15117   0.261   5.116   8.323 -0.4222  0.9581 -2.4242
  138OSM   H18H15118   0.401   5.154   8.432 -2.3473  1.6662  0.6221
  139OSM      N15119   6.177   0.451   6.265 -0.8174  0.5746 -0.2732
  139OSM    C1515120   6.070   0.476   6.366 -0.0895 -0.4672  0.5272
  139OSM   H15A15121   6.020   0.568   6.339  0.9049  0.4321  1.6308
  139OSM   H15B15122   6.112   0.495   6.463 -3.5414 -0.6748  2.2336
  139OSM   H15C15123   5.999   0.395   6.377  0.4733 -0.7282  2.5237
  139OSM    C1415124   6.221   0.311   6.280  0.3796  0.4055  0.7854
  139OSM   H14A15125   6.307   0.291   6.218 -0.8419  1.4965 -1.3872
  139OSM   H14B15126   6.143   0.242   6.251 -0.8036  0.4130  3.6171
  139OSM   H14C15127   6.238   0.286   6.384 -0.5817 -0.1945  0.8149
  139OSM    C1315128   6.122   0.451   6.121  0.2765  0.0020 -0.1539
  139OSM   H13A15129   6.205   0.446   6.053  1.1405  1.5919  0.7162
  139OSM   H13B15130   6.066   0.541   6.103 -0.2912 -0.3095  0.0195
  139OSM   H13C15131   6.053   0.369   6.108  1.3758 -1.3931  2.0712
  139OSM    C1215132   6.293   0.551   6.285  0.2222 -0.4181 -0.0141
  139OSM   H12A15133   6.255   0.651   6.270 -0.1330 -0.6930 -1.0316
  139OSM   H12B15134   6.367   0.542   6.206  3.2991  1.7842  2.3794
  139OSM    C1115135   6.377   0.542   6.416  0.8138  0.0074 -0.2991
  139OSM   H11A15136   6.301   0.509   6.490  0.1726  1.2551 -0.3788
  139OSM   H11B15137   6.415   0.641   6.449  1.8466 -1.3747  3.1442
  139OSM      P15138   6.609   0.474   6.328 -0.1692  0.6892 -0.0136
  139OSM    O1315139   6.659   0.337   6.288 -0.1198 -0.2045  0.8568
  139OSM    O1415140   6.600   0.573   6.216  0.0119  0.1783 -0.0052
  139OSM    O1115141   6.706   0.526   6.453 -0.4246  0.9042  0.0663
  139OSM    O1215142   6.480   0.448   6.404 -0.1153  0.3518  0.5365
  139OSM    C1S15143   6.731   0.661   6.487  0.8462  0.4192 -0.9791
  139OSM    H1S15144   6.646   0.727   6.461 -1.0445 -1.4921  0.1036
  139OSM    H1T15145   6.821   0.699   6.434  1.9009 -2.2865 -1.3059
  139OSM     NF15146   6.755   0.798   6.679 -0.2806  0.0310  0.0841
  139OSM    HNF15147   6.834   0.828   6.732 -0.1614 -0.7179  0.3369
  139OSM    C2S15148   6.746   0.664   6.643 -0.1715  0.2319 -0.2442
  139OSM    H2S15149   6.655   0.620   6.689  0.5481 -1.1902 -0.1174
  139OSM    C3S15150   6.863   0.583   6.694 -0.9680  0.1732  0.8717
  139OSM    H3S15151   6.959   0.617   6.648 -1.2595  0.2559  0.3184
  139OSM     O315152   6.861   0.447   6.651  0.2490 -0.4135 -0.1824
  139OSM    HO315153   6.808   0.441   6.572 -0.6008  3.8487 -0.1764
  139OSM    C4S15154   6.874   0.598   6.843 -0.0143  0.6133 -0.1317
  139OSM    H4S15155   6.791   0.547   6.894 -1.7113  3.2102 -0.1375
  139OSM    C5S15156   6.986   0.632   6.912 -0.6558 -0.1025 -0.1479
  139OSM    H5S15157   7.080   0.651   6.859 -1.7204  0.7837 -1.7936
  139OSM    C6S15158   6.989   0.611   7.064 -0.3013 -0.0266  0.6956
  139OSM    H6S15159   6.893   0.600   7.120 -0.8500  4.0981  0.8693
  139OSM    H6T15160   7.038   0.700   7.108  0.6986  0.0028 -0.4341
  139OSM    C7S15161   7.072   0.482   7.081  0.4632  0.3672 -0.0153
  139OSM    H7S15162   7.155   0.470   7.009  0.6567  0.0534  0.2552
  139OSM    H7T15163   7.011   0.390   7.067  2.7104 -1.2244  0.0387
  139OSM    C8S15164   7.133   0.468   7.217 -0.2771 -0.0917  0.1210
  139OSM    H8S15165   7.188   0.561   7.245  0.5846 -0.9250  1.2486
  139OSM    H8T15166   7.202   0.382   7.215 -0.0895  0.0621 -0.7837
  139OSM    C9S15167   7.026   0.458   7.325 -0.4952  0.2990  0.1785
  139OSM    H9S15168   6.975   0.361   7.307  0.4033 -0.1048 -0.2234
  139OSM    H9T15169   6.944   0.533   7.333 -1.1794 -0.3935 -0.2442
  139OSM   C10S15170   7.095   0.461   7.464  0.2521  0.0617 -0.4742
  139OSM   H10S15171   7.113   0.569   7.486 -1.8043 -0.2207  3.5448
  139OSM   H10T15172   7.187   0.400   7.475 -0.1636 -0.6493 -0.8692
  139OSM   C11S15173   6.994   0.415   7.573  0.5818  0.5561 -0.4005
  139OSM   H11S15174   6.971   0.307   7.560  1.1271  0.2395  1.0399
  139OSM   H11T15175   6.898   0.472   7.565  0.4111  0.2296 -0.7037
  139OSM   C12S15176   7.048   0.436   7.714 -0.5415 -0.6772 -0.1952
  139OSM   H12S15177   7.064   0.541   7.745  1.7126 -0.4589 -1.8501
  139OSM   H12T15178   7.150   0.392   7.723 -0.0390 -0.4179 -3.5115
  139OSM   C13S15179   6.964   0.353   7.820 -1.0036 -0.0576 -0.0241
  139OSM   H13S15180   6.921   0.264   7.769 -0.3083 -0.8433  0.7448
  139OSM   H13T15181   6.882   0.415   7.862  0.1210  0.4568  1.5020
  139OSM   C14S15182   7.047   0.296   7.933  0.4613 -0.0656 -0.0800
  139OSM   H14S15183   7.128   0.225   7.903  0.3106 -0.4432  0.4009
  139OSM   H14T15184   6.973   0.238   7.992  0.1002  2.4924  2.1658
  139OSM   C15S15185   7.116   0.388   8.041  0.1774 -0.0433 -0.1871
  139OSM   H15S15186   7.155   0.473   7.981  0.0381  0.3712  0.2989
  139OSM   H15T15187   7.200   0.341   8.096 -0.0457  0.8432  0.9530
  139OSM   C16S15188   7.016   0.453   8.143  0.0387  0.5934 -0.0176
  139OSM   H16S15189   6.967   0.380   8.211 -1.7774  3.5181  2.0458
  139OSM   H16T15190   6.935   0.501   8.084  0.3836 -0.2851 -1.2550
  139OSM   C17S15191   7.091   0.555   8.232  0.3726  0.6481  0.3809
  139OSM   H17S15192   7.014   0.610   8.292 -1.1192 -0.8911 -0.0562
  139OSM   H17T15193   7.153   0.623   8.170  1.4666  0.5859  1.3612
  139OSM   C18S15194   7.179   0.497   8.347  0.1757 -0.2779  0.3817
  139OSM   H18S15195   7.115   0.456   8.428  1.8643 -1.9531  0.9664
  139OSM   H18T15196   7.242   0.575   8.394 -0.6337  0.3015  0.5223
  139OSM   H18U15197   7.239   0.408   8.316  0.8773 -0.6805  2.7314
  139OSM    C1F15198   6.645   0.887   6.672 -0.0951 -0.7067 -0.7817
  139OSM     OF15199   6.536   0.847   6.634  0.4835  0.2098 -0.0891
  139OSM    C2F15200   6.656   1.026   6.725  0.5851 -0.2198 -0.1704
  139OSM    H2F15201   6.609   1.100   6.657 -1.8228  0.1738  1.7632
  139OSM    H2G15202   6.762   1.057   6.737  0.6363 -0.8665  1.2219
  139OSM    C3F15203   6.587   1.032   6.867 -0.1008  0.1459  0.4546
  139OSM    H3F15204   6.480   1.001   6.873  0.0069 -0.1089  1.1762
  139OSM    H3G15205   6.596   1.138   6.900 -0.3872  0.2681  0.1413
  139OSM    C4F15206   6.664   0.955   6.972 -0.6314  0.2534 -0.8805
  139OSM    H4F15207   6.769   0.990   6.972 -0.9628  1.3780  1.1919
  139OSM    H4G15208   6.667   0.846   6.950 -1.0895 -0.6748  2.9973
  139OSM    C5F15209   6.618   0.979   7.116 -0.3049  0.5455 -0.3978
  139OSM    H5F15210   6.525   0.919   7.128 -0.6456  1.4818  2.2890
  139OSM    H5G15211   6.579   1.083   7.124  2.1514  1.5490 -0.6227
  139OSM    C6F15212   6.731   0.945   7.224  0.2436  0.4193 -0.0212
  139OSM    H6F15213   6.814   1.014   7.199 -0.1727  0.7503 -0.5385
  139OSM    H6G15214   6.767   0.842   7.203  0.8038  0.2914  1.4584
  139OSM    C7F15215   6.683   0.968   7.366  0.0512  0.2495 -1.0891
  139OSM    H7F15216   6.607   0.895   7.401  0.6146  0.0445 -0.2578
  139OSM    H7G15217   6.637   1.068   7.373 -0.3015  0.0376 -0.3273
  139OSM    C8F15218   6.801   0.962   7.468 -0.4943  0.1636  0.2819
  139OSM    H8F15219   6.767   1.033   7.546  0.8531  1.5492 -0.3213
  139OSM    H8G15220   6.896   0.997   7.421  0.9108 -4.8204 -1.1534
  139OSM    C9F15221   6.828   0.822   7.521 -0.2689 -1.1093 -0.5972
  139OSM    H9F15222   6.887   0.754   7.457  0.1316 -0.5283 -0.8466
  139OSM   C10F15223   6.788   0.784   7.640 -0.0476 -0.7205 -0.0064
  139OSM   H10F15224   6.826   0.687   7.675  0.4329  0.0629  1.7510
  139OSM   C11F15225   6.698   0.855   7.745 -0.5917 -1.1839 -0.0173
  139OSM   H11F15226   6.611   0.786   7.749 -1.7343  0.2317  0.2832
  139OSM   H11G15227   6.661   0.953   7.708  0.9545 -0.4782  0.2437
  139OSM   C12F15228   6.766   0.867   7.882 -0.3967  0.1720  0.0207
  139OSM   H12F15229   6.772   0.766   7.928 -1.0467 -0.4721 -1.2784
  139OSM   H12G15230   6.705   0.936   7.945  0.1279 -0.7345  1.5877
  139OSM   C13F15231   6.896   0.941   7.874  0.2814 -0.4627  0.2676
  139OSM   H13F15232   6.878   1.045   7.842 -1.5795 -0.1261  2.2056
  139OSM   H13G15233   6.969   0.882   7.814 -0.6439  0.4328 -1.8247
  139OSM   C14F15234   6.964   0.947   8.008  0.5164 -0.1268 -0.5037
  139OSM   H14F15235   7.059   1.002   7.992  0.8009 -0.8839 -1.5542
  139OSM   H14G15236   6.997   0.847   8.045 -0.9228 -0.0676  1.0880
  139OSM   C15F15237   6.880   0.999   8.125 -0.1904  0.5161  0.7211
  139OSM   H15F15238   6.790   0.935   8.132 -1.1731  1.9483  1.6874
  139OSM   H15G15239   6.861   1.108   8.112  1.5390  0.5926 -1.8839
  139OSM   C16F15240   6.954   0.977   8.253  0.1615  0.7799  0.5299
  139OSM   H16F15241   7.052   1.028   8.265  0.1661  0.5377  1.6064
  139OSM   H16G15242   6.983   0.870   8.257  0.5429  0.7401 -1.8215
  139OSM   C17F15243   6.883   1.009   8.376 -0.9083 -0.2307  0.3854
  139OSM   H17F15244   6.826   1.102   8.357  0.1646  0.6211  1.1574
  139OSM   H17G15245   6.955   1.017   8.460  1.4369 -0.9018 -1.4350
  139OSM   C18F15246   6.802   0.887   8.424 -0.3702  0.3861 -0.1856
  139OSM   H18F15247   6.723   0.857   8.351  0.0463 -1.7251  0.1590
  139OSM   H18G15248   6.752   0.903   8.522  1.4029  1.7829  0.5570
  139OSM   H18H15249   6.870   0.800   8.434  0.6165  1.1461 -0.0693
  140OSM      N15250   2.065   1.236   6.160 -0.4759 -0.1295 -0.4850
  140OSM    C1515251   1.985   1.331   6.075  0.6393  0.3079  0.0643
  140OSM   H15A15252   2.040   1.348   5.984  2.2400 -0.5919  0.8198
  140OSM   H15B15253   1.970   1.423   6.131 -1.3514  0.5284 -0.7420
  140OSM   H15C15254   1.886   1.293   6.054  0.3274  1.8187 -1.4059
  140OSM    C1415255   2.097   1.115   6.083 -0.7077 -0.2588  0.2359
  140OSM   H14A15256   2.014   1.095   6.017 -0.6885  2.0356 -0.5702
  140OSM   H14B15257   2.100   1.027   6.145  4.1346  0.7666  1.8909
  140OSM   H14C15258   2.185   1.123   6.021 -0.9026 -1.9016 -0.2876
  140OSM    C1315259   2.202   1.291   6.191 -0.0802 -0.3208  0.4252
  140OSM   H13A15260   2.271   1.210   6.208  0.0189 -0.1900  0.6424
  140OSM   H13B15261   2.200   1.364   6.271 -2.0265  1.5836 -1.2296
  140OSM   H13C15262   2.251   1.328   6.102 -0.4409  1.7505  1.0257
  140OSM    C1215263   1.992   1.198   6.288 -0.1768 -0.7111  0.1853
  140OSM   H12A15264   2.049   1.125   6.344 -0.0923 -1.4391 -0.8324
  140OSM   H12B15265   1.898   1.154   6.257 -0.1730 -0.8469  0.3663
  140OSM    C1115266   1.971   1.308   6.396  0.7595  0.1679  0.7369
  140OSM   H11A15267   2.072   1.352   6.413  0.9371  1.2176 -2.4280
  140OSM   H11B15268   1.927   1.268   6.490 -0.4084  1.5420  0.8031
  140OSM      P15269   1.725   1.376   6.335 -0.4317 -0.0368  0.1751
  140OSM    O1315270   1.669   1.502   6.287 -0.5094  0.0267  0.5682
  140OSM    O1415271   1.692   1.256   6.254 -0.3121 -0.1513 -0.0133
  140OSM    O1115272   1.694   1.347   6.483  0.5875  0.0361 -0.3536
  140OSM    O1215273   1.883   1.397   6.340  0.1659 -0.7194 -0.0495
  140OSM    C1S15274   1.724   1.435   6.589 -0.2827  0.0685  0.5890
  140OSM    H1S15275   1.672   1.533   6.584  1.5039  1.0779  0.9619
  140OSM    H1T15276   1.832   1.459   6.584 -0.0008 -1.3763 -1.8655
  140OSM     NF15277   1.743   1.461   6.825 -0.3767 -0.3804  0.4983
  140OSM    HNF15278   1.838   1.443   6.847  0.1287 -0.7920 -1.7596
  140OSM    C2S15279   1.685   1.371   6.728 -0.7667 -0.2820 -0.3330
  140OSM    H2S15280   1.577   1.364   6.749 -0.7647  1.4716  0.4197
  140OSM    C3S15281   1.748   1.229   6.747  0.0781  0.2205  0.7065
  140OSM    H3S15282   1.858   1.244   6.734  0.1479 -0.7607 -0.0187
  140OSM     O315283   1.716   1.137   6.637  0.6274 -0.4378 -0.1368
  140OSM    HO315284   1.707   1.195   6.561 -0.6285 -0.4418 -0.0064
  140OSM    C4S15285   1.718   1.176   6.884  0.9003 -0.3259 -0.1196
  140OSM    H4S15286   1.796   1.196   6.958  1.4481  0.2445 -0.8409
  140OSM    C5S15287   1.604   1.121   6.930 -0.1663 -0.1227 -0.1540
  140OSM    H5S15288   1.514   1.119   6.866  0.4281 -1.1276 -0.9945
  140OSM    C6S15289   1.593   1.066   7.072 -0.6341  0.0450  1.0300
  140OSM    H6S15290   1.611   0.956   7.066 -0.4796  0.1541 -2.7040
  140OSM    H6T15291   1.487   1.084   7.099 -1.8857 -2.0237 -1.9937
  140OSM    C7S15292   1.691   1.119   7.175  0.6386 -0.0303 -0.0153
  140OSM    H7S15293   1.690   1.230   7.180  0.5047 -0.0162 -0.3289
  140OSM    H7T15294   1.787   1.078   7.139  0.0481 -2.0927  0.6484
  140OSM    C8S15295   1.657   1.056   7.312 -0.4322 -0.0602 -0.5815
  140OSM    H8S15296   1.682   0.947   7.313 -2.2344 -0.5167 -0.7860
  140OSM    H8T15297   1.555   1.075   7.351 -0.2166 -1.0422  0.5383
  140OSM    C9S15298   1.760   1.104   7.413  0.7459  0.2774 -0.5180
  140OSM    H9S15299   1.763   1.214   7.424  1.8999  0.4130 -1.9383
  140OSM    H9T15300   1.860   1.076   7.375 -0.5508 -1.1980 -3.1261
  140OSM   C10S15301   1.731   1.029   7.549  0.5682  0.8121  0.2393
  140OSM   H10S15302   1.746   0.922   7.521 -2.9735  1.0419 -3.3521
  140OSM   H10T15303   1.622   1.032   7.572  0.6154  1.1973  0.4262
  140OSM   C11S15304   1.806   1.086   7.659 -0.5053  0.1850  0.2113
  140OSM   H11S15305   1.810   1.197   7.657  2.1695  0.1976  1.5711
  140OSM   H11T15306   1.913   1.057   7.647 -0.3340  0.6425  0.6028
  140OSM   C12S15307   1.740   1.058   7.792  0.1019 -0.7513 -0.7320
  140OSM   H12S15308   1.732   0.952   7.822 -2.1015 -0.5328 -0.3421
  140OSM   H12T15309   1.635   1.095   7.800  0.8846  1.4741 -0.0089
  140OSM   C13S15310   1.827   1.127   7.893  0.7561  0.0552  0.4389
  140OSM   H13S15311   1.822   1.236   7.871 -2.6650 -0.4078 -1.7778
  140OSM   H13T15312   1.931   1.092   7.874  0.7388  0.2297  0.0130
  140OSM   C14S15313   1.775   1.103   8.035 -0.6291  0.4585  0.7456
  140OSM   H14S15314   1.775   0.994   8.055 -1.0489  1.0706  4.9464
  140OSM   H14T15315   1.669   1.137   8.044 -0.2099  1.9772  0.1076
  140OSM   C15S15316   1.859   1.163   8.151  0.0689  0.4296  0.1104
  140OSM   H15S15317   1.905   1.255   8.110 -2.0602  0.5995 -2.1654
  140OSM   H15T15318   1.931   1.091   8.196 -0.5426  0.4390  1.1321
  140OSM   C16S15319   1.774   1.189   8.273 -0.5040  0.0922  0.6598
  140OSM   H16S15320   1.746   1.089   8.313  2.7531 -1.3713 -0.3336
  140OSM   H16T15321   1.677   1.233   8.243 -1.4402 -2.4351 -0.2980
  140OSM   C17S15322   1.842   1.274   8.386  0.4420  0.5266  0.3297
  140OSM   H17S15323   1.857   1.376   8.344  1.3998 -0.9219 -3.2704
  140OSM   H17T15324   1.942   1.231   8.410  1.3733  2.9523  1.0410
  140OSM   C18S15325   1.757   1.267   8.516 -0.4162 -0.3630 -0.4569
  140OSM   H18S15326   1.767   1.169   8.566 -0.2324  0.0727  0.3690
  140OSM   H18T15327   1.653   1.305   8.504  0.0400  1.4451  0.9425
  140OSM   H18U15328   1.809   1.343   8.578  2.0876 -1.8293 -0.6340
  140OSM    C1F15329   1.686   1.583   6.839  0.3635  0.3186 -0.4213
  140OSM     OF15330   1.563   1.594   6.849 -0.1895  0.3762 -0.4960
  140OSM    C2F15331   1.781   1.702   6.852 -0.1063 -0.3991  0.6142
  140OSM    H2F15332   1.825   1.717   6.751  0.4716 -0.2999  0.8726
  140OSM    H2G15333   1.862   1.671   6.921  1.2720  0.8069 -0.3873
  140OSM    C3F15334   1.710   1.825   6.913 -0.3111  0.3411 -0.0160
  140OSM    H3F15335   1.669   1.797   7.012 -0.2106  2.4842  0.6936
  140OSM    H3G15336   1.624   1.846   6.847  0.4584  2.8765 -0.3407
  140OSM    C4F15337   1.802   1.948   6.923 -0.1883  0.7950 -0.8159
  140OSM    H4F15338   1.736   2.030   6.959 -2.9316 -1.9503  0.8706
  140OSM    H4G15339   1.853   1.974   6.827 -0.5785 -1.5918 -1.7436
  140OSM    C5F15340   1.917   1.936   7.027  0.0210  0.3476 -0.0548
  140OSM    H5F15341   1.991   2.018   7.022  1.0715 -0.6211 -3.9263
  140OSM    H5G15342   1.984   1.851   7.003 -0.1049  0.6676 -1.6126
  140OSM    C6F15343   1.871   1.937   7.177  0.3208  0.4350  0.6229
  140OSM    H6F15344   1.796   1.857   7.192  2.3745 -1.6363  0.4524
  140OSM    H6G15345   1.836   2.040   7.196 -0.6218  0.2489 -0.0046
  140OSM    C7F15346   1.982   1.912   7.275 -0.2911 -0.9842 -0.1647
  140OSM    H7F15347   2.042   2.006   7.273  0.4902 -1.4736 -0.2232
  140OSM    H7G15348   2.053   1.839   7.230  0.2730  0.2125 -1.2569
  140OSM    C8F15349   1.937   1.880   7.418  0.5138 -0.6102  0.2183
  140OSM    H8F15350   1.867   1.794   7.414  0.5816 -0.6268 -1.1958
  140OSM    H8G15351   1.887   1.975   7.447 -0.9957 -0.7148 -1.8250
  140OSM    C9F15352   2.049   1.858   7.519 -0.9523 -0.6407 -0.5582
  140OSM    H9F15353   2.137   1.797   7.496  0.8193  0.5494  2.5028
  140OSM   C10F15354   2.046   1.920   7.641 -0.3553  0.2313  0.1076
  140OSM   H10F15355   2.130   1.901   7.710  0.0399  0.9398 -0.1694
  140OSM   C11F15356   1.932   2.009   7.691 -0.2795  0.2412  0.3954
  140OSM   H11F15357   1.834   1.983   7.646  0.3431 -0.7552 -0.4217
  140OSM   H11G15358   1.941   2.118   7.675 -0.6962  0.3450  0.8676
  140OSM   C12F15359   1.909   1.982   7.844  0.6520 -0.0269  0.8029
  140OSM   H12F15360   2.004   2.004   7.897 -0.6545  1.3255  2.7718
  140OSM   H12G15361   1.880   1.875   7.852  0.8958 -0.5670 -3.3550
  140OSM   C13F15362   1.795   2.069   7.915  0.0376  0.1702  0.4528
  140OSM   H13F15363   1.699   2.028   7.878 -0.1814  0.0953  1.0893
  140OSM   H13G15364   1.797   2.173   7.877  3.0901  0.4485  1.1380
  140OSM   C14F15365   1.805   2.050   8.068  0.2834  0.1099 -0.5716
  140OSM   H14F15366   1.794   1.941   8.087  0.3725  0.0531 -0.8294
  140OSM   H14G15367   1.713   2.096   8.110 -0.7771 -0.4474 -2.1802
  140OSM   C15F15368   1.925   2.122   8.135  1.0776 -0.5123 -1.4408
  140OSM   H15F15369   1.928   2.228   8.102  2.1863 -0.2735 -0.6131
  140OSM   H15G15370   2.018   2.072   8.100  0.5909 -0.9959 -2.0711
  140OSM   C16F15371   1.923   2.113   8.287 -0.1577 -0.3077 -0.4451
  140OSM   H16F15372   1.904   2.010   8.324  0.8133 -0.6163 -0.7897
  140OSM   H16G15373   1.837   2.170   8.330 -1.0774 -2.4090  0.6341
  140OSM   C17F15374   2.050   2.167   8.352  0.3072 -0.3018 -0.6017
  140OSM   H17F15375   2.058   2.278   8.342  0.3061 -0.3587 -1.3202
  140OSM   H17G15376   2.141   2.133   8.297  0.6606 -0.2790 -0.0419
  140OSM   C18F15377   2.069   2.120   8.493  0.1411  0.4578  0.0993
  140OSM   H18F15378   1.980   2.160   8.546  0.0959  1.2895 -0.5782
  140OSM   H18G15379   2.160   2.160   8.543 -1.2371  2.3155  1.2655
  140OSM   H18H15380   2.073   2.009   8.499  0.0557  0.4229 -0.4100
  141OSM      N15381   0.394   3.987   6.121  0.1424 -0.0018  0.8308
  141OSM    C1515382   0.296   4.095   6.105 -0.1170  0.6171 -0.4202
  141OSM   H15A15383   0.285   4.107   5.998 -0.4325 -0.6442 -0.5504
  141OSM   H15B15384   0.326   4.191   6.143  1.0771  1.1436 -2.5169
  141OSM   H15C15385   0.201   4.065   6.148  1.1005 -1.8991  0.7226
  141OSM    C1415386   0.326   3.861   6.066 -0.2516  0.1906  1.1510
  141OSM   H14A15387   0.389   3.775   6.082  0.9624  0.7826 -0.1758
  141OSM   H14B15388   0.315   3.874   5.959  0.3515 -2.4280  0.7089
  141OSM   H14C15389   0.234   3.837   6.116 -0.1088  0.9023  1.7743
  141OSM    C1315390   0.502   4.022   6.029  0.3375  0.6964  0.0080
  141OSM   H13A15391   0.589   3.959   6.036  0.5956  1.2053  1.6173
  141OSM   H13B15392   0.535   4.120   6.057 -1.2449  0.8494  1.5055
  141OSM   H13C15393   0.470   4.024   5.925 -0.3529 -0.9182  0.1503
  141OSM    C1215394   0.428   3.977   6.271 -0.7228 -0.0640  0.0134
  141OSM   H12A15395   0.333   3.982   6.322 -0.9783  2.3094 -0.5707
  141OSM   H12B15396   0.473   4.069   6.303 -1.5769  1.5766 -3.0559
  141OSM    C1115397   0.505   3.843   6.319 -0.3905  0.1751  0.0619
  141OSM   H11A15398   0.426   3.765   6.328 -2.0968  1.3409 -3.0814
  141OSM   H11B15399   0.550   3.868   6.417 -2.1208 -0.4556  1.0693
  141OSM      P15400   0.637   3.660   6.181 -0.0461 -0.0825 -0.0314
  141OSM    O1315401   0.543   3.633   6.070  0.0513  0.1045  0.1859
  141OSM    O1415402   0.778   3.630   6.144  0.0041  0.2261 -0.3115
  141OSM    O1115403   0.599   3.561   6.300  0.2937 -0.1663 -0.0233
  141OSM    O1215404   0.615   3.810   6.232  0.3459  0.2180 -0.3300
  141OSM    C1S15405   0.697   3.559   6.411  0.3467  0.3770 -0.8280
  141OSM    H1S15406   0.705   3.652   6.472 -0.3697 -1.9024  3.1139
  141OSM    H1T15407   0.797   3.526   6.376  0.9479  1.6760 -0.3906
  141OSM     NF15408   0.705   3.455   6.648 -0.0695  0.2360  0.1908
  141OSM    HNF15409   0.777   3.389   6.673  1.0841  0.1794 -2.8367
  141OSM    C2S15410   0.649   3.455   6.520  0.6454  0.6765  0.5462
  141OSM    H2S15411   0.541   3.465   6.545  0.0330  0.6819 -1.9182
  141OSM    C3S15412   0.660   3.313   6.459 -0.4522 -0.2558  0.2132
  141OSM    H3S15413   0.768   3.300   6.479 -0.6722 -0.2344  1.4736
  141OSM     O315414   0.651   3.304   6.317  0.0755 -0.1910  0.0949
  141OSM    HO315415   0.644   3.397   6.295  0.0172 -0.3889 -0.7634
  141OSM    C4S15416   0.582   3.210   6.538 -0.6032  0.7122 -0.1478
  141OSM    H4S15417   0.474   3.230   6.532 -0.6930  0.4707  0.6137
  141OSM    C5S15418   0.626   3.094   6.587  0.3664 -0.6855 -0.0435
  141OSM    H5S15419   0.732   3.071   6.570  0.3750  0.2075 -1.3258
  141OSM    C6S15420   0.531   2.992   6.654  0.2580 -0.4265 -0.2509
  141OSM    H6S15421   0.532   2.893   6.603  1.8027 -0.4339 -0.2756
  141OSM    H6T15422   0.428   3.032   6.662  0.3934  0.0796 -0.9163
  141OSM    C7S15423   0.562   2.964   6.801  0.5946  0.1058  0.0473
  141OSM    H7S15424   0.666   2.926   6.797 -0.2891 -2.4032 -1.5473
  141OSM    H7T15425   0.503   2.873   6.826  1.6507 -1.2532 -2.1394
  141OSM    C8S15426   0.530   3.079   6.891  0.9360 -0.6486  0.2736
  141OSM    H8S15427   0.432   3.126   6.868  2.2212  3.2673  1.8836
  141OSM    H8T15428   0.613   3.151   6.871  0.5220 -0.2294  0.0214
  141OSM    C9S15429   0.522   3.023   7.039 -0.1812  0.3678 -0.1768
  141OSM    H9S15430   0.615   2.970   7.066 -0.7311 -0.4963  0.0633
  141OSM    H9T15431   0.439   2.949   7.045 -0.5980  0.7858 -0.6720
  141OSM   C10S15432   0.507   3.140   7.137  0.3947  0.3904 -0.6155
  141OSM   H10S15433   0.427   3.198   7.088 -1.9982 -1.6277  0.6739
  141OSM   H10T15434   0.597   3.206   7.137  1.7818 -1.3538 -2.4455
  141OSM   C11S15435   0.462   3.105   7.277  0.3779 -0.1604  0.5241
  141OSM   H11S15436   0.531   3.025   7.312  0.1424 -0.9354 -0.6883
  141OSM   H11T15437   0.362   3.057   7.270 -0.0048  0.8610 -2.1876
  141OSM   C12S15438   0.463   3.222   7.368  0.2842 -0.1603  0.1609
  141OSM   H12S15439   0.395   3.304   7.337 -0.0483  0.1213  1.5422
  141OSM   H12T15440   0.562   3.269   7.379  0.1951  0.3303 -1.0153
  141OSM   C13S15441   0.420   3.176   7.510 -0.6238  0.5540  0.1740
  141OSM   H13S15442   0.458   3.074   7.533 -1.4549  0.7723  2.8840
  141OSM   H13T15443   0.311   3.160   7.524 -0.1919 -1.5610  1.7147
  141OSM   C14S15444   0.470   3.269   7.618  0.0057 -0.0228  0.1254
  141OSM   H14S15445   0.419   3.365   7.599  0.9529  0.9131  1.9879
  141OSM   H14T15446   0.576   3.298   7.599  0.1985  0.1283  1.3354
  141OSM   C15S15447   0.435   3.225   7.759 -0.2655 -0.6217  0.2312
  141OSM   H15S15448   0.486   3.128   7.778 -1.2437 -1.2784 -0.3772
  141OSM   H15T15449   0.325   3.205   7.757  0.0245 -2.3428 -1.9522
  141OSM   C16S15450   0.478   3.335   7.868  0.7148  1.0212  1.0142
  141OSM   H16S15451   0.420   3.426   7.843  0.0711  0.3539 -0.0382
  141OSM   H16T15452   0.587   3.350   7.855  0.8719  0.7910  2.0050
  141OSM   C17S15453   0.447   3.289   8.009  0.7474  0.0941  0.6793
  141OSM   H17S15454   0.515   3.201   8.021  0.2646 -0.8544 -2.5936
  141OSM   H17T15455   0.339   3.272   8.026  0.3111  1.2777 -0.7199
  141OSM   C18S15456   0.487   3.375   8.129  0.2296 -0.1917  0.3995
  141OSM   H18S15457   0.433   3.472   8.128 -0.7479 -0.7136  0.8723
  141OSM   H18T15458   0.597   3.387   8.129  0.3263 -0.9036 -0.8328
  141OSM   H18U15459   0.472   3.324   8.226  1.3795 -0.7630  0.3029
  141OSM    C1F15460   0.689   3.562   6.723 -0.2071 -0.1750 -0.4574
  141OSM     OF15461   0.614   3.656   6.699 -0.1479  0.4152  0.1945
  141OSM    C2F15462   0.757   3.551   6.856  0.0872  0.9163  0.0413
  141OSM    H2F15463   0.855   3.500   6.844 -0.1533  0.7272 -1.2425
  141OSM    H2G15464   0.696   3.485   6.921  0.4825 -1.4220 -1.8155
  141OSM    C3F15465   0.778   3.691   6.920  0.2611  0.3288 -0.4793
  141OSM    H3F15466   0.675   3.724   6.948 -0.6803 -2.2385 -0.6099
  141OSM    H3G15467   0.836   3.763   6.858  1.7696 -0.3233  0.1265
  141OSM    C4F15468   0.844   3.669   7.057 -0.0773  0.2612  0.1615
  141OSM    H4F15469   0.947   3.629   7.051  0.6019  1.9660  0.0179
  141OSM    H4G15470   0.779   3.594   7.108 -1.9885  0.8223 -1.2994
  141OSM    C5F15471   0.848   3.800   7.131  0.1714  0.3882  0.4351
  141OSM    H5F15472   0.743   3.830   7.152  0.5805  2.0290  0.3010
  141OSM    H5G15473   0.883   3.886   7.070  0.5071  1.5877  2.2391
  141OSM    C6F15474   0.927   3.795   7.264  0.4815 -0.2856  0.0090
  141OSM    H6F15475   1.030   3.756   7.256 -0.0147 -1.2965 -2.2718
  141OSM    H6G15476   0.894   3.721   7.340  0.5556 -1.1185 -0.7669
  141OSM    C7F15477   0.935   3.939   7.332  0.8997  0.6138  0.2259
  141OSM    H7F15478   0.833   3.983   7.334 -0.4501 -2.1811 -1.2115
  141OSM    H7G15479   0.991   4.002   7.260 -1.4874  3.2246  0.5074
  141OSM    C8F15480   1.009   3.939   7.461  0.7945  0.1246 -0.5217
  141OSM    H8F15481   1.024   4.045   7.489  2.5629  0.3922 -2.2897
  141OSM    H8G15482   1.114   3.904   7.448  0.8893  0.7512 -1.4927
  141OSM    C9F15483   0.944   3.862   7.566  0.0949  0.1876 -0.0351
  141OSM    H9F15484   0.983   3.760   7.563  2.0915  0.9029  0.2655
  141OSM   C10F15485   0.847   3.890   7.647 -0.5778  0.0806  0.6260
  141OSM   H10F15486   0.806   3.814   7.715  1.1678  0.4685  2.1910
  141OSM   C11F15487   0.789   4.030   7.651 -0.6681 -0.3737  0.3213
  141OSM   H11F15488   0.743   4.060   7.554 -1.3288 -0.8991  0.4634
  141OSM   H11G15489   0.873   4.102   7.662 -0.3786 -0.6121 -0.2925
  141OSM   C12F15490   0.682   4.054   7.750 -0.0277  0.1152  0.1841
  141OSM   H12F15491   0.725   4.038   7.851 -2.0552  3.1295  1.6564
  141OSM   H12G15492   0.598   3.983   7.732 -0.7913  1.6381 -2.9384
  141OSM   C13F15493   0.606   4.190   7.746 -0.2984  0.3414  0.4123
  141OSM   H13F15494   0.576   4.212   7.641  1.6384  0.1033 -0.2298
  141OSM   H13G15495   0.670   4.275   7.778  1.0129 -0.4535 -0.0352
  141OSM   C14F15496   0.479   4.204   7.838  0.3264  0.5601  0.6099
  141OSM   H14F15497   0.511   4.185   7.942 -1.2196  1.3194  1.2486
  141OSM   H14G15498   0.411   4.120   7.812  2.7197 -1.4890  0.5777
  141OSM   C15F15499   0.407   4.342   7.830  0.0060 -0.2186 -0.2427
  141OSM   H15F15500   0.383   4.376   7.727 -1.0352  1.1489  0.4131
  141OSM   H15G15501   0.469   4.422   7.876 -0.4782  1.1459 -1.8730
  141OSM   C16F15502   0.280   4.337   7.922  0.1182 -0.5049  0.1687
  141OSM   H16F15503   0.302   4.273   8.010 -0.6903 -1.0945 -0.0443
  141OSM   H16G15504   0.200   4.284   7.864  0.4413 -2.6348  1.5290
  141OSM   C17F15505   0.228   4.475   7.968 -0.2938 -0.3513  0.0763
  141OSM   H17F15506   0.313   4.533   8.010 -0.2468 -0.9058  0.7608
  141OSM   H17G15507   0.159   4.462   8.054  1.1049  0.7500  1.4149
  141OSM   C18F15508   0.170   4.561   7.854  0.3749  0.8193  0.4243
  141OSM   H18F15509   0.241   4.550   7.769  0.0560  2.4125 -0.0824
  141OSM   H18G15510   0.158   4.665   7.890 -1.2393  0.8192 -0.0340
  141OSM   H18H15511   0.076   4.506   7.833  0.0065  0.9809  1.5864
  142OSM      N15512   5.952   6.068   5.897 -0.4291 -0.0010  0.6501
  142OSM    C1515513   5.812   6.048   5.845  0.0416  0.9823 -0.1025
  142OSM   H15A15514   5.738   6.104   5.901  1.3973  0.9079  1.8687
  142OSM   H15B15515   5.770   5.949   5.854  0.1026  0.9038 -0.6842
  142OSM   H15C15516   5.800   6.065   5.739 -0.4299  0.5540 -0.1238
  142OSM    C1415517   5.953   6.034   6.040 -0.1780 -0.0044  0.2657
  142OSM   H14A15518   6.053   6.008   6.071 -0.0496 -1.5494 -1.3580
  142OSM   H14B15519   5.901   5.942   6.063  0.8515 -0.2856  1.6282
  142OSM   H14C15520   5.906   6.114   6.096 -0.1143  0.1655  0.0789
  142OSM    C1315521   6.041   5.981   5.820  0.5299 -0.0458 -0.2310
  142OSM   H13A15522   6.147   5.997   5.835  0.8112 -1.4311 -0.5591
  142OSM   H13B15523   6.021   6.002   5.716  0.9887  0.0116 -0.3115
  142OSM   H13C15524   6.013   5.877   5.819  1.3075 -0.2973  1.0922
  142OSM    C1215525   5.996   6.215   5.873 -0.3553  0.0383  0.3668
  142OSM   H12A15526   6.028   6.237   5.772  1.3105 -0.8147  0.6642
  142OSM   H12B15527   6.086   6.225   5.932 -0.6511 -1.7715  1.2057
  142OSM    C1115528   5.901   6.333   5.901 -0.2196 -0.1662 -0.4106
  142OSM   H11A15529   5.805   6.316   5.847  0.5083 -2.2564 -1.1388
  142OSM   H11B15530   5.956   6.423   5.864 -1.9851  0.4084 -1.7711
  142OSM      P15531   5.731   6.336   6.111 -0.5562  0.0995  0.2324
  142OSM    O1315532   5.684   6.477   6.136 -0.7682 -0.0504 -0.0381
  142OSM    O1415533   5.646   6.251   6.027 -0.7136  0.1490 -0.2541
  142OSM    O1115534   5.754   6.266   6.248  0.0589  0.7381  0.3018
  142OSM    O1215535   5.878   6.352   6.046 -0.4303  0.0669 -0.4025
  142OSM    C1S15536   5.849   6.319   6.339  0.1760 -0.3347 -0.1238
  142OSM    H1S15537   5.845   6.430   6.343 -0.6390 -0.3922  2.6840
  142OSM    H1T15538   5.954   6.290   6.316  0.4819  0.4153  0.2937
  142OSM     NF15539   5.911   6.332   6.572 -0.3408  0.0843  0.2821
  142OSM    HNF15540   5.998   6.288   6.594 -1.1860 -0.9576  1.7576
  142OSM    C2S15541   5.824   6.266   6.484 -0.2837  0.0409  1.1039
  142OSM    H2S15542   5.722   6.290   6.521  0.7631  2.3533  2.7798
  142OSM    C3S15543   5.842   6.112   6.468  0.4758 -0.3660 -0.5476
  142OSM    H3S15544   5.948   6.104   6.438  0.7523 -0.4088  0.4122
  142OSM     O315545   5.777   6.040   6.367 -0.0468  0.3570  0.2174
  142OSM    HO315546   5.744   6.106   6.305 -0.2425 -1.3136 -1.5547
  142OSM    C4S15547   5.820   6.047   6.597  0.5839  0.3813  0.2204
  142OSM    H4S15548   5.727   6.081   6.647 -0.0720  0.9294 -1.3134
  142OSM    C5S15549   5.904   5.957   6.656 -0.3201 -0.0247 -0.0305
  142OSM    H5S15550   5.999   5.933   6.606  0.6163 -0.7912  1.9840
  142OSM    C6S15551   5.876   5.879   6.784 -0.7104  0.1369  0.0085
  142OSM    H6S15552   5.897   5.770   6.776  1.4617  0.4822  0.2249
  142OSM    H6T15553   5.767   5.889   6.802 -0.7899  0.2610 -0.5089
  142OSM    C7S15554   5.948   5.932   6.913  0.1167  0.1973 -0.0550
  142OSM    H7S15555   5.888   6.019   6.947 -1.9005 -1.4841  0.8970
  142OSM    H7T15556   6.053   5.958   6.889  0.5612 -1.7170 -0.3519
  142OSM    C8S15557   5.947   5.821   7.021  1.1338  0.3038 -0.0697
  142OSM    H8S15558   6.000   5.728   6.991  2.5010  1.5991 -1.8861
  142OSM    H8T15559   5.843   5.808   7.059  1.4369  0.3613  0.8012
  142OSM    C9S15560   6.031   5.863   7.143  0.4417  0.5656 -0.3640
  142OSM    H9S15561   5.994   5.960   7.183 -3.7004 -1.1788  0.5556
  142OSM    H9T15562   6.137   5.872   7.111  0.7316 -2.1187 -0.3918
  142OSM   C10S15563   6.010   5.767   7.257 -0.4960 -0.1902 -0.1435
  142OSM   H10S15564   6.105   5.758   7.314 -1.0280 -0.8835  0.6501
  142OSM   H10T15565   5.972   5.670   7.218 -0.0117  0.0450 -1.2464
  142OSM   C11S15566   5.928   5.837   7.370  0.7481  0.4237  0.5145
  142OSM   H11S15567   5.820   5.829   7.343  1.5355  1.6290 -3.6963
  142OSM   H11T15568   5.948   5.946   7.386 -3.2331  1.1613  1.6388
  142OSM   C12S15569   5.950   5.765   7.512  0.0681 -0.8250  0.3289
  142OSM   H12S15570   6.056   5.770   7.546  0.0388 -1.6647  0.5777
  142OSM   H12T15571   5.914   5.660   7.503 -0.6304 -0.5794  0.2171
  142OSM   C13S15572   5.858   5.824   7.618  0.2626 -0.0849  0.1133
  142OSM   H13S15573   5.870   5.935   7.626  0.1419  0.0647 -1.4866
  142OSM   H13T15574   5.895   5.771   7.708  0.1966 -0.8051 -0.2765
  142OSM   C14S15575   5.713   5.800   7.589  0.6504  0.3089 -0.4082
  142OSM   H14S15576   5.686   5.699   7.553 -3.9314  0.5323  1.6881
  142OSM   H14T15577   5.673   5.871   7.514 -0.3834 -1.3357 -1.4870
  142OSM   C15S15578   5.630   5.817   7.722 -0.5162 -0.0530  0.2563
  142OSM   H15S15579   5.648   5.722   7.776  0.3640  0.4606  0.8989
  142OSM   H15T15580   5.520   5.824   7.704 -0.3818 -0.9544 -0.9847
  142OSM   C16S15581   5.666   5.935   7.819  0.8719 -0.2085 -0.6085
  142OSM   H16S15582   5.664   6.030   7.761 -1.1385  0.0121 -0.2264
  142OSM   H16T15583   5.773   5.925   7.849 -0.2911  0.9398  4.9295
  142OSM   C17S15584   5.579   5.943   7.939  0.1161  0.2552 -0.3528
  142OSM   H17S15585   5.470   5.932   7.920 -0.0562 -1.8320  1.4446
  142OSM   H17T15586   5.578   6.048   7.975 -0.7534  0.1604 -0.0640
  142OSM   C18S15587   5.627   5.856   8.056  0.0895  0.2693  0.6038
  142OSM   H18S15588   5.734   5.872   8.084  0.4560  0.3500 -0.7830
  142OSM   H18T15589   5.612   5.751   8.024 -2.6984  1.2216 -1.6033
  142OSM   H18U15590   5.560   5.876   8.142 -1.0361  2.5336 -0.7191
  142OSM    C1F15591   5.893   6.459   6.610 -0.1327 -0.0901 -0.3095
  142OSM     OF15592   5.804   6.528   6.564 -0.1953 -0.0579 -0.5549
  142OSM    C2F15593   6.006   6.503   6.698  0.0397 -0.1143  0.3018
  142OSM    H2F15594   6.092   6.525   6.631 -0.5690  0.6889 -0.2251
  142OSM    H2G15595   6.039   6.414   6.756  1.8978 -0.6867 -1.4815
  142OSM    C3F15596   5.963   6.625   6.790  0.0474 -1.0908  0.2634
  142OSM    H3F15597   5.868   6.600   6.841  0.1827  1.2412  1.8172
  142OSM    H3G15598   5.945   6.713   6.725 -4.2733 -2.1557 -0.2760
  142OSM    C4F15599   6.068   6.645   6.899  0.3060 -0.6469  0.3797
  142OSM    H4F15600   6.168   6.665   6.855  0.1610  0.1694  0.4121
  142OSM    H4G15601   6.075   6.561   6.972  1.2701  0.8130  2.0497
  142OSM    C5F15602   6.036   6.768   6.995 -0.0311  0.5460  0.2194
  142OSM    H5F15603   5.925   6.774   7.001 -0.0919  0.4905 -0.7265
  142OSM    H5G15604   6.055   6.859   6.934  0.2842  1.2883  1.4008
  142OSM    C6F15605   6.106   6.768   7.132  0.1797 -0.0813 -0.0155
  142OSM    H6F15606   6.217   6.770   7.126  0.1857  1.0084  0.2159
  142OSM    H6G15607   6.081   6.673   7.184 -2.1790 -0.1701 -1.2019
  142OSM    C7F15608   6.045   6.873   7.225  0.1683  0.3994  0.0894
  142OSM    H7F15609   5.941   6.834   7.236 -0.0458  0.7158 -0.7214
  142OSM    H7G15610   6.041   6.976   7.183  0.1258  0.5390  0.4322
  142OSM    C8F15611   6.121   6.864   7.356  0.2097 -0.2745  0.0558
  142OSM    H8F15612   6.225   6.893   7.327 -0.3324  1.0517 -0.6915
  142OSM    H8G15613   6.130   6.764   7.402  2.6963  0.5378  1.5530
  142OSM    C9F15614   6.070   6.962   7.457 -0.0065 -0.2006  0.5041
  142OSM    H9F15615   6.049   7.064   7.422  0.9951  0.0793  0.7025
  142OSM   C10F15616   6.044   6.940   7.588 -0.2748  0.0525  0.2832
  142OSM   H10F15617   5.996   7.020   7.645  0.1290  0.1841  0.4405
  142OSM   C11F15618   6.060   6.808   7.655  0.3505 -0.2928  0.2584
  142OSM   H11F15619   6.111   6.731   7.593  1.6877 -0.4502  1.5144
  142OSM   H11G15620   5.959   6.764   7.668  0.7970 -1.0801  1.1903
  142OSM   C12F15621   6.130   6.815   7.793  0.2794  0.1136  1.1341
  142OSM   H12F15622   6.240   6.831   7.790  0.8280 -3.1542  0.3389
  142OSM   H12G15623   6.113   6.711   7.827 -2.4486  1.0673  2.9889
  142OSM   C13F15624   6.059   6.908   7.886 -0.4278  0.0731  0.0400
  142OSM   H13F15625   5.948   6.901   7.877 -0.3351 -0.4793 -0.7772
  142OSM   H13G15626   6.085   7.009   7.847 -1.6348 -0.3685 -2.0239
  142OSM   C14F15627   6.111   6.893   8.033 -0.9048  0.1361  0.9677
  142OSM   H14F15628   6.222   6.888   8.030 -0.8798  0.0064  1.9279
  142OSM   H14G15629   6.072   6.804   8.087  1.0991 -1.1901  0.3766
  142OSM   C15F15630   6.097   7.019   8.120  0.2596 -0.3140 -0.8258
  142OSM   H15F15631   5.991   7.038   8.144  0.3813 -1.5429  0.8674
  142OSM   H15G15632   6.139   7.106   8.065  2.2488 -0.7853 -0.1684
  142OSM   C16F15633   6.176   7.011   8.248  0.0778 -0.6688  0.5042
  142OSM   H16F15634   6.278   6.978   8.221  0.5898  0.5491  0.8917
  142OSM   H16G15635   6.138   6.936   8.322 -2.4592 -0.6438 -0.6504
  142OSM   C17F15636   6.179   7.157   8.298  0.0055 -0.3057  0.2834
  142OSM   H17F15637   6.077   7.198   8.315 -0.0844  0.5440 -1.9952
  142OSM   H17G15638   6.219   7.224   8.218 -1.4444 -1.6236 -1.6505
  142OSM   C18F15639   6.270   7.183   8.418  0.0901 -0.2624 -0.0235
  142OSM   H18F15640   6.236   7.139   8.515  1.6658 -1.5609 -0.0120
  142OSM   H18G15641   6.291   7.290   8.436 -0.1282  0.3900 -3.0818
  142OSM   H18H15642   6.370   7.139   8.399  0.2599  0.4485 -0.8226
  143OSM      N15643   1.125   5.568   6.195  0.2479  0.5789 -0.1337
  143OSM    C1515644   1.243   5.661   6.204  0.5280  0.1683  0.3887
  143OSM   H15A15645   1.329   5.600   6.180 -0.6208 -0.5814 -2.2576
  143OSM   H15B15646   1.242   5.702   6.303 -1.9060  0.9122  0.1129
  143OSM   H15C15647   1.224   5.731   6.123 -1.5263 -0.8536 -0.0864
  143OSM    C1415648   1.093   5.511   6.064 -0.8181  0.0822  0.2005
  143OSM   H14A15649   1.035   5.420   6.074 -1.6491  0.6148  0.3535
  143OSM   H14B15650   1.181   5.488   6.006 -0.6431 -0.5094  0.6870
  143OSM   H14C15651   1.029   5.572   6.002  1.8133 -0.5096 -3.4094
  143OSM    C1315652   1.160   5.459   6.282 -0.1029  0.4377 -0.1733
  143OSM   H13A15653   1.172   5.494   6.383  1.6509 -0.7004  0.0532
  143OSM   H13B15654   1.261   5.424   6.265  0.0140  0.3352  0.7043
  143OSM   H13C15655   1.095   5.373   6.284  1.1983 -0.5680  1.3738
  143OSM    C1215656   1.004   5.642   6.249  0.6431 -0.7044  0.4182
  143OSM   H12A15657   0.913   5.583   6.258 -0.7200  1.3724  1.0320
  143OSM   H12B15658   0.975   5.712   6.172  1.6341 -1.8676 -1.0641
  143OSM    C1115659   1.032   5.722   6.381 -0.2903 -0.3810  0.6841
  143OSM   H11A15660   1.082   5.643   6.441 -2.5609 -3.0578 -0.6874
  143OSM   H11B15661   0.932   5.740   6.428 -0.5277  1.6072 -0.4740
  143OSM      P15662   1.018   5.977   6.306 -0.1747 -0.0215 -0.0768
  143OSM    O1315663   1.098   6.092   6.256 -0.6887  0.1803  0.9450
  143OSM    O1415664   0.915   5.929   6.208  0.3708 -0.1308 -0.4799
  143OSM    O1115665   0.950   6.020   6.438  0.2407 -0.1722 -0.1617
  143OSM    O1215666   1.103   5.847   6.356 -0.1826  0.4513  0.0155
  143OSM    C1S15667   1.028   6.082   6.538  0.4024  0.0884  0.0170
  143OSM    H1S15668   1.061   6.183   6.508 -0.0966  1.5170  3.7433
  143OSM    H1T15669   1.120   6.025   6.561 -0.3990 -1.4898 -0.5206
  143OSM     NF15670   1.021   6.149   6.767 -0.0363  0.1814 -0.5745
  143OSM    HNF15671   1.091   6.089   6.806 -0.1955 -0.5303 -1.3441
  143OSM    C2S15672   0.938   6.083   6.666 -0.4659  0.0598  0.1309
  143OSM    H2S15673   0.858   6.156   6.638  2.1607  2.5148 -1.5324
  143OSM    C3S15674   0.884   5.942   6.696 -0.9025 -0.0582  0.0553
  143OSM    H3S15675   0.968   5.870   6.688 -0.7877 -0.0498  1.0123
  143OSM     O315676   0.777   5.904   6.610 -0.8214 -0.5111  0.3281
  143OSM    HO315677   0.765   5.974   6.545 -0.7848  0.1192  0.9901
  143OSM    C4S15678   0.826   5.928   6.831 -1.0839 -0.4116 -0.0915
  143OSM    H4S15679   0.720   5.958   6.831 -1.1400 -0.5699 -1.0663
  143OSM    C5S15680   0.887   5.896   6.946 -0.4797  0.1341  0.4979
  143OSM    H5S15681   0.993   5.866   6.945  0.1825  2.2816 -1.4867
  143OSM    C6S15682   0.811   5.879   7.074 -0.0037  0.3126 -0.4361
  143OSM    H6S15683   0.860   5.793   7.124  0.4486  1.5657  1.3688
  143OSM    H6T15684   0.705   5.854   7.053 -0.1152  2.3391 -2.7876
  143OSM    C7S15685   0.809   6.002   7.171  0.8555  0.1157 -0.3843
  143OSM    H7S15686   0.720   6.063   7.145 -0.8820 -2.4488 -0.7716
  143OSM    H7T15687   0.902   6.063   7.165 -0.6389  2.8822  2.1046
  143OSM    C8S15688   0.767   5.955   7.313  0.5002  0.2030  1.0859
  143OSM    H8S15689   0.692   5.874   7.303  1.0459 -0.2272  0.3554
  143OSM    H8T15690   0.707   6.038   7.357 -0.0295  1.0041 -1.0082
  143OSM    C9S15691   0.887   5.929   7.407 -0.0740 -0.2984 -0.6742
  143OSM    H9S15692   0.978   5.987   7.379  0.7780 -1.4848 -0.4837
  143OSM    H9T15693   0.912   5.821   7.397  1.0306 -0.1423  0.2774
  143OSM   C10S15694   0.855   5.949   7.558 -0.3106  0.2181 -0.0738
  143OSM   H10S15695   0.757   5.900   7.575  0.3032 -0.5806  1.3654
  143OSM   H10T15696   0.853   6.052   7.598  1.0420  0.7572 -1.2902
  143OSM   C11S15697   0.953   5.870   7.650  0.0626 -0.8450 -0.0565
  143OSM   H11S15698   1.048   5.927   7.661 -0.4873  0.0957 -0.0750
  143OSM   H11T15699   0.984   5.769   7.615  1.0159 -0.9538  1.0159
  143OSM   C12S15700   0.883   5.846   7.787 -0.0266  0.2971 -0.3753
  143OSM   H12S15701   0.796   5.785   7.758  0.2953  0.2620 -1.2918
  143OSM   H12T15702   0.836   5.938   7.827 -0.8226  0.4130 -1.5325
  143OSM   C13S15703   0.971   5.761   7.883  0.2391  0.9205 -0.4896
  143OSM   H13S15704   1.025   5.675   7.837  1.4209 -0.3426  2.9538
  143OSM   H13T15705   0.906   5.706   7.955 -1.8833  2.4599 -1.1150
  143OSM   C14S15706   1.082   5.849   7.947  0.0489 -0.4973  0.2393
  143OSM   H14S15707   1.037   5.924   8.015  1.7931  0.1498  0.7116
  143OSM   H14T15708   1.153   5.886   7.870 -1.8379 -0.3890 -1.5352
  143OSM   C15S15709   1.170   5.769   8.040  0.1003  0.1163 -0.0716
  143OSM   H15S15710   1.255   5.839   8.056 -1.5917  2.6408 -1.3464
  143OSM   H15T15711   1.217   5.675   8.005  0.3383 -0.7957  2.5013
  143OSM   C16S15712   1.114   5.736   8.180 -0.3413 -0.3582 -0.5157
  143OSM   H16S15713   1.054   5.645   8.161 -1.9313  0.7899 -1.2373
  143OSM   H16T15714   1.050   5.816   8.223 -0.4048  0.1712 -1.5613
  143OSM   C17S15715   1.225   5.707   8.284 -0.1964  0.5779 -0.0575
  143OSM   H17S15716   1.275   5.803   8.310 -0.0736  0.4404  0.2171
  143OSM   H17T15717   1.296   5.636   8.239  0.3181  2.4812 -2.4601
  143OSM   C18S15718   1.164   5.639   8.411 -0.2527 -1.0645 -0.0656
  143OSM   H18S15719   1.137   5.533   8.392  2.9410 -1.6565 -1.9624
  143OSM   H18T15720   1.083   5.703   8.452  0.0447 -0.1557 -0.8655
  143OSM   H18U15721   1.238   5.640   8.494 -2.1572 -1.5163  1.7538
  143OSM    C1F15722   1.043   6.284   6.776 -0.0694 -0.2318 -0.5297
  143OSM     OF15723   0.996   6.360   6.689 -0.3108 -0.7314 -0.1064
  143OSM    C2F15724   1.124   6.333   6.894 -0.4276  0.1906 -0.0397
  143OSM    H2F15725   1.102   6.442   6.903 -2.9096 -0.2359 -0.1418
  143OSM    H2G15726   1.231   6.315   6.875 -0.6590 -0.7072 -0.5299
  143OSM    C3F15727   1.084   6.260   7.026  0.3892 -0.1453  0.1249
  143OSM    H3F15728   1.130   6.160   7.041  0.8228 -0.1877 -1.3803
  143OSM    H3G15729   0.977   6.237   7.047  1.0030 -1.0266  2.6471
  143OSM    C4F15730   1.139   6.342   7.137  0.0393  0.8604 -0.4573
  143OSM    H4F15731   1.105   6.448   7.130  1.8057  1.4774 -0.4653
  143OSM    H4G15732   1.250   6.343   7.133  0.0167  1.2890 -1.1040
  143OSM    C5F15733   1.100   6.281   7.277  0.8160  0.2322 -0.7359
  143OSM    H5F15734   1.159   6.187   7.278  0.6685  0.1328  1.0238
  143OSM    H5G15735   1.004   6.226   7.280  0.5920  0.5744 -1.3717
  143OSM    C6F15736   1.128   6.379   7.392  0.3015  0.0186 -0.4228
  143OSM    H6F15737   1.065   6.470   7.395  1.7127  1.0011  2.4008
  143OSM    H6G15738   1.235   6.408   7.380  0.1131  0.4030 -1.2486
  143OSM    C7F15739   1.102   6.301   7.513  0.1682  1.2502 -0.6045
  143OSM    H7F15740   1.170   6.213   7.510  1.4831  2.1642  0.8700
  143OSM    H7G15741   0.999   6.258   7.508  1.0107 -0.7266 -2.3545
  143OSM    C8F15742   1.116   6.369   7.652 -0.4142 -0.1714 -0.2700
  143OSM    H8F15743   1.046   6.455   7.652  1.2873  1.3048 -2.0709
  143OSM    H8G15744   1.216   6.417   7.659  0.0698 -0.6867 -2.8060
  143OSM    C9F15745   1.089   6.276   7.767 -0.2688  0.7869 -0.0507
  143OSM    H9F15746   1.047   6.176   7.754 -1.4801  1.1619  0.7887
  143OSM   C10F15747   1.124   6.300   7.893  0.1162 -0.9018  0.0208
  143OSM   H10F15748   1.095   6.223   7.966 -0.5534 -1.0312 -0.3672
  143OSM   C11F15749   1.196   6.429   7.930 -0.4791  0.0063 -0.6059
  143OSM   H11F15750   1.216   6.498   7.846 -0.0720 -0.4900 -0.9209
  143OSM   H11G15751   1.294   6.392   7.967  0.2521 -0.0429 -2.4955
  143OSM   C12F15752   1.129   6.513   8.039 -1.2227 -0.1062 -0.1119
  143OSM   H12F15753   1.076   6.443   8.107 -1.2342 -0.5345 -0.5606
  143OSM   H12G15754   1.056   6.582   7.993 -0.3844 -0.1012 -1.4855
  143OSM   C13F15755   1.228   6.584   8.142 -0.3727 -0.1119 -0.1069
  143OSM   H13F15756   1.283   6.657   8.078 -1.5995  1.6427  0.7771
  143OSM   H13G15757   1.300   6.506   8.175  0.1337  0.4471  0.1223
  143OSM   C14F15758   1.167   6.646   8.266 -0.6056 -0.8558 -0.8972
  143OSM   H14F15759   1.227   6.622   8.356  1.6844  0.0644 -2.1141
  143OSM   H14G15760   1.058   6.622   8.266 -0.7837 -0.1009 -1.5259
  143OSM   C15F15761   1.161   6.799   8.264 -0.6591  0.6000  0.0892
  143OSM   H15F15762   1.077   6.838   8.325 -0.7951  1.4428 -0.6144
  143OSM   H15G15763   1.152   6.832   8.158  1.5876  1.1758  0.0247
  143OSM   C16F15764   1.290   6.859   8.320  0.5130  0.4378 -0.0664
  143OSM   H16F15765   1.366   6.818   8.250  1.6818  1.3098  0.6469
  143OSM   H16G15766   1.313   6.813   8.419 -0.1420 -0.6269 -0.3920
  143OSM   C17F15767   1.282   7.010   8.318  0.2876  0.1161  0.3864
  143OSM   H17F15768   1.191   7.044   8.372  1.3896  1.0239  1.7320
  143OSM   H17G15769   1.274   7.052   8.215 -1.2018 -1.8898 -0.3770
  143OSM   C18F15770   1.399   7.076   8.380 -0.4779  0.3318  0.0497
  143OSM   H18F15771   1.494   7.040   8.334 -0.4283  0.4697  0.0453
  143OSM   H18G15772   1.394   7.055   8.489 -1.0689 -0.7165 -0.1586
  143OSM   H18H15773   1.389   7.186   8.369 -1.0916  0.2898  0.1330
  144OSM      N15774   0.315   6.058   6.159 -0.8642  0.3031 -0.1178
  144OSM    C1515775   0.442   6.086   6.085 -0.6878 -0.0480 -0.5599
  144OSM   H15A15776   0.502   6.166   6.127  0.8994 -0.4112 -2.0167
  144OSM   H15B15777   0.418   6.137   5.993 -1.2401  0.4043 -0.1752
  144OSM   H15C15778   0.515   6.008   6.074  1.4007  1.6973  0.2153
  144OSM    C1415779   0.241   5.949   6.090  0.0209 -1.0988  0.0430
  144OSM   H14A15780   0.228   5.974   5.986 -2.8519 -1.0044  0.3296
  144OSM   H14B15781   0.137   5.936   6.119 -0.9911  2.9105 -1.0984
  144OSM   H14C15782   0.292   5.856   6.104  2.6570  0.3318  0.5410
  144OSM    C1315783   0.358   6.003   6.294 -0.7115  0.5892 -0.1480
  144OSM   H13A15784   0.280   6.014   6.368 -0.5122 -1.4120  0.4099
  144OSM   H13B15785   0.442   6.057   6.335  1.7941 -2.6492 -0.6061
  144OSM   H13C15786   0.390   5.901   6.277  0.4318  1.0456 -0.8681
  144OSM    C1215787   0.234   6.188   6.176  0.4052 -0.6620 -0.8009
  144OSM   H12A15788   0.276   6.253   6.250 -1.2217 -0.9366  0.4214
  144OSM   H12B15789   0.132   6.172   6.208  0.3314  2.1110  0.5812
  144OSM    C1115790   0.212   6.266   6.039  0.4347 -0.6861  0.1139
  144OSM   H11A15791   0.134   6.343   6.057  0.2531 -1.1232  1.2335
  144OSM   H11B15792   0.186   6.188   5.965  0.6957 -1.8702  1.2306
  144OSM      P15793   0.363   6.480   6.076 -0.1269  0.6434  0.4232
  144OSM    O1315794   0.486   6.546   6.024  0.2882 -0.3369 -0.0510
  144OSM    O1415795   0.243   6.569   6.076  0.1723 -0.0850  0.1924
  144OSM    O1115796   0.381   6.433   6.228  0.2175  0.1055  0.3949
  144OSM    O1215797   0.328   6.342   5.997 -0.7373 -0.3018  0.0746
  144OSM    C1S15798   0.341   6.527   6.332  0.1028 -0.1810 -0.5794
  144OSM    H1S15799   0.235   6.557   6.324  0.2904  1.1948  1.4177
  144OSM    H1T15800   0.391   6.627   6.330  1.1244 -0.6492  0.1566
  144OSM     NF15801   0.281   6.537   6.575 -0.4193 -0.3338 -0.2207
  144OSM    HNF15802   0.330   6.599   6.635 -0.5576  0.1749 -0.6259
  144OSM    C2S15803   0.354   6.457   6.474  0.1310  0.2593  0.2524
  144OSM    H2S15804   0.305   6.357   6.470  2.1644 -0.7542 -0.6241
  144OSM    C3S15805   0.503   6.429   6.503 -0.2469 -0.4069  0.2806
  144OSM    H3S15806   0.543   6.533   6.512 -1.5717 -0.0001  1.7968
  144OSM     O315807   0.573   6.367   6.395 -0.0949 -0.0511  0.1435
  144OSM    HO315808   0.513   6.389   6.324 -2.6931 -1.3872  1.7687
  144OSM    C4S15809   0.525   6.363   6.632  0.1662  0.4483 -0.3099
  144OSM    H4S15810   0.499   6.257   6.648  1.8272 -0.0210 -0.5029
  144OSM    C5S15811   0.592   6.412   6.740 -0.1062 -0.6542  0.3399
  144OSM    H5S15812   0.637   6.512   6.737 -1.2136 -0.0852  1.7782
  144OSM    C6S15813   0.617   6.352   6.874 -0.4891  0.0918 -0.1397
  144OSM    H6S15814   0.722   6.316   6.878 -0.3807  0.3682 -0.4177
  144OSM    H6T15815   0.561   6.257   6.882 -1.9838  0.7251 -2.2593
  144OSM    C7S15816   0.599   6.437   7.004 -0.2129  0.2979  0.1974
  144OSM    H7S15817   0.512   6.506   7.001  0.0952  0.6943  0.2049
  144OSM    H7T15818   0.683   6.511   6.998 -0.3256  0.3486 -1.2162
  144OSM    C8S15819   0.618   6.346   7.132  0.4210 -0.4351  0.0796
  144OSM    H8S15820   0.724   6.317   7.122  0.3271 -1.1216  0.9664
  144OSM    H8T15821   0.552   6.257   7.137 -3.2207  2.0429  0.5460
  144OSM    C9S15822   0.597   6.418   7.264 -0.7438 -0.1766  0.1522
  144OSM    H9S15823   0.497   6.465   7.250  0.6922  2.4409 -2.6017
  144OSM    H9T15824   0.663   6.507   7.276  0.1572 -0.9356  0.9843
  144OSM   C10S15825   0.635   6.326   7.378 -0.4593  0.8098  0.5076
  144OSM   H10S15826   0.742   6.300   7.372 -1.0302 -1.6827 -0.0127
  144OSM   H10T15827   0.587   6.225   7.376  0.7845  0.2182 -0.4313
  144OSM   C11S15828   0.621   6.392   7.517  0.3927  0.1348 -0.2700
  144OSM   H11S15829   0.519   6.432   7.537  1.5414  2.8664  0.5218
  144OSM   H11T15830   0.682   6.485   7.522  0.3380  0.1824 -0.4855
  144OSM   C12S15831   0.672   6.299   7.627 -0.6729  0.1916  0.3202
  144OSM   H12S15832   0.781   6.284   7.613 -0.5831  0.2165  0.9757
  144OSM   H12T15833   0.606   6.212   7.605 -2.7048  1.7408 -0.0658
  144OSM   C13S15834   0.645   6.350   7.768  0.4524  0.3310 -0.2111
  144OSM   H13S15835   0.534   6.356   7.777  0.1444 -1.2386 -2.2345
  144OSM   H13T15836   0.693   6.449   7.784 -0.1721  1.3287 -3.7486
  144OSM   C14S15837   0.706   6.253   7.876  0.7138 -0.8609  0.2753
  144OSM   H14S15838   0.814   6.238   7.855  1.0433 -1.4498  2.2006
  144OSM   H14T15839   0.662   6.151   7.865 -0.5322 -0.6139  2.2867
  144OSM   C15S15840   0.675   6.295   8.023  0.3776  0.2235 -0.1068
  144OSM   H15S15841   0.720   6.227   8.099 -1.6271 -1.0201  0.0632
  144OSM   H15T15842   0.565   6.292   8.039  0.6407 -0.7497  1.7642
  144OSM   C16S15843   0.724   6.438   8.063  0.3067  0.1345  0.0716
  144OSM   H16S15844   0.666   6.508   7.999  0.1021 -0.3299 -0.2465
  144OSM   H16T15845   0.830   6.456   8.035 -0.0721  3.8238  0.4665
  144OSM   C17S15846   0.711   6.471   8.215  0.1493  0.2855  0.2343
  144OSM   H17S15847   0.610   6.441   8.252  1.3322 -3.7973  0.6730
  144OSM   H17T15848   0.723   6.581   8.222  0.8294  0.6109 -3.7027
  144OSM   C18S15849   0.807   6.395   8.308 -0.1387 -0.4626  0.3121
  144OSM   H18S15850   0.802   6.287   8.285  1.9846 -0.2236 -1.5627
  144OSM   H18T15851   0.779   6.435   8.408 -1.4269 -1.6262  0.4533
  144OSM   H18U15852   0.913   6.423   8.292 -0.5794  2.0152  1.1948
  144OSM    C1F15853   0.147   6.539   6.581  0.5619 -0.0269  0.3044
  144OSM     OF15854   0.085   6.465   6.505 -0.3118 -0.1031  0.2497
  144OSM    C2F15855   0.084   6.614   6.686  0.4769  0.1012 -0.4580
  144OSM    H2F15856   0.051   6.715   6.652  0.8310  0.2636 -0.3207
  144OSM    H2G15857   0.153   6.625   6.772 -0.3348  0.9246  0.1127
  144OSM    C3F15858  -0.037   6.541   6.741 -0.0028 -0.5247  0.0308
  144OSM    H3F15859  -0.011   6.434   6.749  0.2333 -0.5995 -1.4893
  144OSM    H3G15860  -0.116   6.561   6.665  1.4996  0.4973 -1.3034
  144OSM    C4F15861  -0.092   6.611   6.872 -0.3384 -0.2486 -0.2042
  144OSM    H4F15862  -0.122   6.713   6.839  1.3936  0.4101  0.1516
  144OSM    H4G15863  -0.006   6.628   6.941 -0.7425  0.9056  0.0429
  144OSM    C5F15864  -0.203   6.531   6.948 -0.5531 -0.1504 -0.2053
  144OSM    H5F15865  -0.167   6.426   6.947  1.3593  0.3163  3.3145
  144OSM    H5G15866  -0.288   6.545   6.879  0.6663  0.4690 -1.6522
  144OSM    C6F15867  -0.224   6.601   7.084  0.0977 -0.0078  0.8234
  144OSM    H6F15868  -0.221   6.710   7.062  0.2776 -0.4113 -1.3051
  144OSM    H6G15869  -0.139   6.583   7.154  1.0089 -0.6204 -0.4036
  144OSM    C7F15870  -0.358   6.559   7.148 -0.5227 -0.2400 -0.3297
  144OSM    H7F15871  -0.345   6.449   7.139 -1.6256 -0.4400  0.2611
  144OSM    H7G15872  -0.444   6.586   7.083  0.5816 -0.6988 -2.0349
  144OSM    C8F15873  -0.381   6.614   7.292 -0.6506  0.0484 -0.1958
  144OSM    H8F15874  -0.413   6.720   7.287 -1.7289 -0.1829  1.3912
  144OSM    H8G15875  -0.287   6.607   7.350 -1.4699 -1.1089  1.0443
  144OSM    C9F15876  -0.486   6.521   7.348  0.0803 -0.4396  0.3104
  144OSM    H9F15877  -0.566   6.496   7.276 -0.8284 -0.4103  1.2972
  144OSM   C10F15878  -0.485   6.468   7.472  0.1674  0.0487 -0.4425
  144OSM   H10F15879  -0.560   6.391   7.498  0.0726  0.6010  1.0219
  144OSM   C11F15880  -0.379   6.483   7.574 -0.3116  0.1579 -0.1198
  144OSM   H11F15881  -0.332   6.583   7.560 -2.2019  1.0320 -0.6231
  144OSM   H11G15882  -0.309   6.399   7.558 -0.3582 -0.2406  1.5747
  144OSM   C12F15883  -0.433   6.484   7.718 -0.1512  0.0253 -0.1552
  144OSM   H12F15884  -0.519   6.418   7.740 -0.3928 -0.2416 -1.7889
  144OSM   H12G15885  -0.452   6.590   7.745 -1.7193 -0.3877  0.4403
  144OSM   C13F15886  -0.320   6.429   7.818 -0.3061  0.0678  0.2300
  144OSM   H13F15887  -0.219   6.463   7.787  0.0369 -2.5701 -1.9149
  144OSM   H13G15888  -0.303   6.320   7.803 -0.1357  0.4067 -2.4482
  144OSM   C14F15889  -0.365   6.441   7.963 -0.4523  0.6689  0.1492
  144OSM   H14F15890  -0.470   6.404   7.970 -0.3314  0.5708  2.2805
  144OSM   H14G15891  -0.347   6.540   8.009  3.1249  0.3519 -0.3064
  144OSM   C15F15892  -0.283   6.349   8.058 -0.0683 -0.4106 -0.0655
  144OSM   H15F15893  -0.271   6.244   8.024  0.6957 -1.0730  2.0556
  144OSM   H15G15894  -0.333   6.338   8.156 -0.1157  2.6621  0.3649
  144OSM   C16F15895  -0.137   6.408   8.075 -0.0330  0.2527 -0.6733
  144OSM   H16F15896  -0.131   6.518   8.093  0.0664  0.1072  0.1983
  144OSM   H16G15897  -0.075   6.385   7.985  1.7419 -0.9670  0.8009
  144OSM   C17F15898  -0.051   6.346   8.182  0.5627  0.2850  0.7143
  144OSM   H17F15899   0.050   6.392   8.175  1.0038 -0.8758 -1.0906
  144OSM   H17G15900  -0.034   6.240   8.155 -0.2385  0.5253 -0.8509
  144OSM   C18F15901  -0.118   6.357   8.322 -0.0734  0.1108  0.0687
  144OSM   H18F15902  -0.222   6.319   8.328  0.0378 -0.0191  1.5544
  144OSM   H18G15903  -0.124   6.464   8.349  2.0073 -0.1362  1.8404
  144OSM   H18H15904  -0.058   6.307   8.401  3.0013  2.3721 -0.6481
  145SAPE     N15905   3.715   1.299  10.824 -0.0589 -0.0599 -0.1098
  145SAPE   HN115906   3.615   1.312  10.849  0.1035 -1.9347  1.8479
  145SAPE   HN215907   3.747   1.217  10.880 -2.4353  0.2865  1.9369
  145SAPE   HN315908   3.762   1.386  10.855  1.8181 -0.6699 -1.0783
  145SAPE   C1215909   3.714   1.276  10.676 -0.3282  0.7637  0.2763
  145SAPE  H12A15910   3.668   1.175  10.669  1.1286  0.1796 -1.9386
  145SAPE  H12B15911   3.815   1.290  10.631 -1.0413 -0.4029 -1.7938
  145SAPE   C1115912   3.614   1.368  10.608  0.3160 -0.8517 -0.1370
  145SAPE  H11A15913   3.603   1.336  10.502  0.5200 -1.7938  0.1150
  145SAPE  H11B15914   3.652   1.472  10.619 -0.9319 -0.5078  1.3542
  145SAPE     P15915   3.403   1.491  10.723 -0.7112  0.1178 -0.0465
  145SAPE   O1315916   3.266   1.443  10.755 -0.0919 -0.6551  0.2323
  145SAPE   O1415917   3.475   1.551  10.832 -0.5816  0.3513 -0.5128
  145SAPE   O1215918   3.486   1.366  10.675  0.5110  0.2136 -0.5226
  145SAPE   O1115919   3.407   1.585  10.597 -0.3588  0.0693 -0.1193
  145SAPE    C115920   3.344   1.537  10.479 -1.0171 -0.3910 -0.0456
  145SAPE    HA15921   3.373   1.593  10.388 -2.7958  0.9932  0.1920
  145SAPE    HB15922   3.370   1.434  10.449 -1.1599 -0.9258  1.5374
  145SAPE    C215923   3.188   1.576  10.478 -0.0431  0.2882  0.2084
  145SAPE    HS15924   3.135   1.526  10.561  1.2261 -2.4813 -0.5243
  145SAPE   O2115925   3.126   1.539  10.350  0.1976 -0.5490 -0.2779
  145SAPE   C2115926   3.115   1.402  10.326  0.0141 -0.1598  0.4241
  145SAPE   O2215927   3.153   1.318  10.397  0.1621  0.5177  0.1963
  145SAPE   C2215928   3.091   1.374  10.174 -0.1006 -1.2059  0.0597
  145SAPE   H2R15929   3.039   1.456  10.119 -0.1612 -2.9003 -2.5766
  145SAPE   H2S15930   3.195   1.360  10.140  0.3287 -0.1814  0.9008
  145SAPE    C315931   3.164   1.722  10.516  0.0058 -0.8015 -0.3106
  145SAPE    HX15932   3.210   1.756  10.612  1.1271  0.5625 -1.2934
  145SAPE    HY15933   3.054   1.736  10.523  0.2273  0.7243  0.6580
  145SAPE   O3115934   3.213   1.810  10.411  0.8639 -0.0725  0.8586
  145SAPE   C3115935   3.131   1.890  10.351  0.1649 -0.7546 -0.1921
  145SAPE   O3215936   3.023   1.926  10.396 -0.2048  0.0354 -0.4134
  145SAPE   C3215937   3.191   1.953  10.232 -0.5485  0.3613 -0.3476
  145SAPE   H2X15938   3.298   1.925  10.223 -0.5172  0.7581 -1.4118
  145SAPE   H2Y15939   3.182   2.063  10.241 -0.2878  0.3156  0.5866
  145SAPE   C2315940   3.006   1.254  10.152  0.3048 -0.0010 -0.0471
  145SAPE   H3R15941   2.904   1.264  10.194  0.5216  1.7936  0.1319
  145SAPE   H3S15942   3.061   1.172  10.203  0.2976  1.0004  1.6356
  145SAPE   C2415943   2.967   1.219  10.003  0.3530  0.3817  0.2041
  145SAPE   H4R15944   2.890   1.291   9.967 -0.0859 -0.7110 -1.1283
  145SAPE   H4S15945   2.909   1.126  10.019 -0.6147  1.0347  0.5834
  145SAPE   C2515946   3.072   1.218   9.896 -0.0368  0.4841 -0.5274
  145SAPE   H5R15947   3.173   1.229   9.938 -0.5017  0.9399  0.4959
  145SAPE   C2615948   3.052   1.224   9.765 -0.3261 -0.7531  0.4868
  145SAPE   H6R15949   3.142   1.203   9.704  0.3935 -0.3992  1.4042
  145SAPE   C2715950   2.918   1.225   9.697  0.3215  0.5159  0.5325
  145SAPE   H7R15951   2.920   1.285   9.604 -1.8725 -0.7281 -0.4008
  145SAPE   H7S15952   2.848   1.275   9.768 -0.7847  0.4861 -0.5085
  145SAPE   C2815953   2.846   1.102   9.660  0.0055  0.1545  0.4990
  145SAPE   H8R15954   2.845   1.022   9.736  2.2332 -0.2602  0.1782
  145SAPE   C2915955   2.797   1.067   9.535  0.3566 -0.2270  0.5972
  145SAPE   H9R15956   2.761   0.964   9.518  0.1984 -0.7229  3.3769
  145SAPE  C21015957   2.795   1.151   9.407 -0.2183  0.1718  0.2462
  145SAPE  H10R15958   2.868   1.105   9.337 -2.6314 -1.1909 -1.5269
  145SAPE  H10S15959   2.837   1.252   9.427 -1.6623  0.8524 -0.0334
  145SAPE  C21115960   2.659   1.156   9.336  0.2288 -0.3328 -0.2120
  145SAPE  H11R15961   2.579   1.109   9.395 -1.2017  1.3915 -0.6559
  145SAPE  C21215962   2.615   1.228   9.228 -0.3949 -1.2419 -0.3204
  145SAPE  H12R15963   2.510   1.238   9.197  0.0443  2.0127 -1.1683
  145SAPE  C21315964   2.709   1.319   9.148  0.4194  0.1090  0.4053
  145SAPE  H13R15965   2.749   1.398   9.214  1.0437 -0.9505  1.3286
  145SAPE  H13S15966   2.648   1.372   9.071  0.4584  0.3212  0.5204
  145SAPE  C21415967   2.832   1.254   9.087 -0.2380  0.2316  0.2188
  145SAPE  H14R15968   2.896   1.194   9.154  0.4905  2.3296  1.5053
  145SAPE  C21515969   2.880   1.279   8.963  0.2521  0.0889 -0.8157
  145SAPE  H15R15970   2.971   1.224   8.936 -0.2717 -0.7048 -1.0081
  145SAPE  C21615971   2.819   1.375   8.871  0.4369 -0.0416  1.1584
  145SAPE  H16R15972   2.897   1.435   8.820 -0.3133  0.0136  0.0419
  145SAPE  H16S15973   2.755   1.448   8.926  0.4738  1.1578 -0.3456
  145SAPE  C21715974   2.748   1.315   8.746  0.5542 -0.2632 -0.0597
  145SAPE  H17R15975   2.825   1.253   8.696  0.8016  1.3011 -1.7079
  145SAPE  H17S15976   2.720   1.395   8.673 -2.0698 -0.8191  0.2205
  145SAPE  C21815977   2.618   1.238   8.793  0.2722 -0.1689  0.0670
  145SAPE  H18R15978   2.608   1.249   8.903 -1.1769  1.6793 -0.1879
  145SAPE  H18S15979   2.622   1.132   8.762  0.3008  0.1781 -1.1901
  145SAPE  C21915980   2.484   1.300   8.751  0.1766  0.4365  0.1337
  145SAPE  H19R15981   2.482   1.323   8.642 -0.0192  0.2150  0.0901
  145SAPE  H19S15982   2.477   1.395   8.809 -1.0541  0.0772  0.6053
  145SAPE  C22015983   2.376   1.205   8.793 -0.3254  0.0627  0.1885
  145SAPE  H20R15984   2.273   1.236   8.764 -0.8639 -0.5996  1.3087
  145SAPE  H20S15985   2.360   1.192   8.903 -2.6010 -0.3394 -0.1317
  145SAPE  H20T15986   2.400   1.105   8.751 -1.7264 -0.4530  0.5393
  145SAPE   C3315987   3.131   1.900  10.102  0.3664 -0.7353 -0.2598
  145SAPE   H3X15988   3.168   1.981  10.034 -1.3509  0.9107  0.6773
  145SAPE   H3Y15989   3.020   1.904  10.111  0.2745 -1.0479 -1.1314
  145SAPE   C3415990   3.183   1.763  10.062  0.1247 -0.4527 -1.0171
  145SAPE   H4X15991   3.145   1.685  10.131 -2.2538  2.3117  1.1072
  145SAPE   H4Y15992   3.293   1.775  10.069 -0.1188  2.7580 -0.9153
  145SAPE   C3515993   3.138   1.712   9.920  0.3483 -0.1988 -0.3664
  145SAPE   H5X15994   3.028   1.701   9.932  0.5974 -0.2699  2.4787
  145SAPE   H5Y15995   3.178   1.609   9.905  1.3158  0.0057  0.6372
  145SAPE   C3615996   3.163   1.805   9.797  0.3400  0.4119 -0.3093
  145SAPE   H6X15997   3.274   1.802   9.795  0.3332 -2.7187 -1.3083
  145SAPE   H6Y15998   3.132   1.909   9.824  1.0922  0.7138 -0.5740
  145SAPE   C3715999   3.093   1.759   9.674  0.0850 -0.3501 -0.4258
  145SAPE   H7X16000   3.116   1.827   9.589  0.1166  0.4062  0.1710
  145SAPE   H7Y16001   2.982   1.754   9.680  0.0082  1.9301  2.6272
  145SAPE   C3816002   3.133   1.617   9.625  0.1471 -0.2948 -0.6796
  145SAPE   H8X16003   3.086   1.553   9.703 -1.9566  0.9543 -0.8361
  145SAPE   H8Y16004   3.242   1.598   9.616 -0.0203 -1.7105  0.0661
  145SAPE   C3916005   3.077   1.593   9.484  0.1777  0.4679 -0.4260
  145SAPE   H9X16006   2.975   1.636   9.481  0.2447  0.5985 -1.4426
  145SAPE   H9Y16007   3.072   1.483   9.471  0.0555  0.4796 -0.4836
  145SAPE  C31016008   3.168   1.654   9.377 -0.0471  0.4224 -0.6650
  145SAPE  H10X16009   3.274   1.632   9.402 -0.3139  1.4990  1.6937
  145SAPE  H10Y16010   3.154   1.764   9.378  2.0958  0.7429 -1.0042
  145SAPE  C31116011   3.127   1.591   9.241  0.2505  0.5093 -0.3093
  145SAPE  H11X16012   3.017   1.591   9.226 -0.0781 -2.1447  1.3088
  145SAPE  H11Y16013   3.155   1.483   9.240  1.4370  0.7100 -4.1241
  145SAPE  C31216014   3.197   1.653   9.118 -0.1245  0.6220 -0.8060
  145SAPE  H12X16015   3.307   1.648   9.133 -0.2068  0.3826 -0.2478
  145SAPE  H12Y16016   3.185   1.760   9.089  0.9143  1.2355  0.8632
  145SAPE  C31316017   3.166   1.571   8.995  0.3277 -0.5657  1.0673
  145SAPE  H13X16018   3.056   1.556   8.995  0.2199  0.0780 -0.1070
  145SAPE  H13Y16019   3.205   1.469   9.009  1.6721 -0.0955  0.8510
  145SAPE  C31416020   3.211   1.636   8.858  0.1966  0.8592 -0.2418
  145SAPE  H14X16021   3.322   1.643   8.859  0.3675 -1.1150 -0.7896
  145SAPE  H14Y16022   3.173   1.739   8.844 -1.6608  0.3366  0.4928
  145SAPE  C31516023   3.165   1.558   8.730  0.2329 -0.0410  0.0353
  145SAPE  H15X16024   3.092   1.623   8.677 -0.4794 -1.4336 -0.7653
  145SAPE  H15Y16025   3.121   1.458   8.751 -0.7869  0.8690  2.5854
  145SAPE  C31616026   3.276   1.519   8.636 -0.2003  0.1720  0.6163
  145SAPE  H16X16027   3.336   1.433   8.671 -0.3210 -0.8071 -1.4135
  145SAPE  H16Y16028   3.337   1.610   8.620  0.8495 -0.2287  2.0959
  145SAPE  C31716029   3.231   1.471   8.494 -0.1153  0.4587 -0.8835
  145SAPE  H17X16030   3.173   1.377   8.506  1.5092 -0.6356 -1.2487
  145SAPE  H17Y16031   3.326   1.447   8.443  0.3797  0.8089 -0.1476
  145SAPE  C31816032   3.152   1.577   8.426 -0.7022 -0.4855  0.8890
  145SAPE  H18X16033   3.050   1.580   8.469 -0.1193 -3.2459  2.7273
  145SAPE  H18Y16034   3.150   1.546   8.319  2.1019 -2.0713  1.2052
  145SAPE  H18Z16035   3.199   1.678   8.431 -1.7800  0.1227 -0.4297
  146SAPE     N16036   3.024   4.059  10.400  0.3380 -0.6624  0.1899
  146SAPE   HN116037   3.090   4.080  10.477 -2.5425 -1.1989  3.0571
  146SAPE   HN216038   3.050   3.970  10.352  1.3465  0.3628 -1.2253
  146SAPE   HN316039   3.026   4.134  10.329 -3.1755 -1.1608 -0.6544
  146SAPE   C1216040   2.884   4.055  10.468  0.3742  0.2584 -0.3506
  146SAPE  H12A16041   2.836   4.155  10.462 -0.0575  0.0402 -0.5588
  146SAPE  H12B16042   2.901   4.037  10.576  0.5210  0.4571 -0.3385
  146SAPE   C1116043   2.805   3.939  10.402 -0.9400 -0.3651 -0.5309
  146SAPE  H11A16044   2.801   3.978  10.298  2.5153  1.0499 -0.2856
  146SAPE  H11B16045   2.700   3.937  10.438 -0.6028  0.7180  0.5738
  146SAPE     P16046   2.847   3.694  10.500  0.0497 -0.3117  0.1995
  146SAPE   O1316047   2.949   3.699  10.603 -0.2446 -0.2835  0.2224
  146SAPE   O1416048   2.706   3.702  10.544  0.1065 -0.6621 -0.2523
  146SAPE   O1216049   2.876   3.813  10.407 -0.2967  0.0853 -0.2731
  146SAPE   O1116050   2.864   3.562  10.412  0.3249  0.1490 -0.1343
  146SAPE    C116051   2.928   3.556  10.289  0.2538 -0.7819  0.0848
  146SAPE    HA16052   3.003   3.637  10.281  0.9858 -1.4559 -0.0339
  146SAPE    HB16053   2.985   3.461  10.281 -0.2726 -0.9314 -4.4058
  146SAPE    C216054   2.825   3.535  10.171 -0.1271  0.8517  0.1986
  146SAPE    HS16055   2.874   3.496  10.078 -1.0055 -0.7907  0.3762
  146SAPE   O2116056   2.750   3.648  10.141  1.3749  0.7808  0.1621
  146SAPE   C2116057   2.829   3.745  10.083  0.7197  0.1072 -0.1521
  146SAPE   O2216058   2.948   3.728  10.059  0.7281 -0.4929  0.2584
  146SAPE   C2216059   2.756   3.867  10.041 -0.6387 -0.5536 -0.4442
  146SAPE   H2R16060   2.668   3.847   9.975 -0.7806 -1.4255 -0.0081
  146SAPE   H2S16061   2.723   3.915  10.135  2.2092  1.2484 -0.2485
  146SAPE    C316062   2.721   3.418  10.214  0.0418  0.8706  0.4040
  146SAPE    HX16063   2.679   3.456  10.309 -1.5536 -0.2982  0.2083
  146SAPE    HY16064   2.777   3.323  10.231  0.6247  1.1077 -0.1520
  146SAPE   O3116065   2.615   3.388  10.121 -0.2010  0.4497  0.1906
  146SAPE   C3116066   2.505   3.455  10.115 -0.1665 -0.3390  0.0678
  146SAPE   O3216067   2.469   3.544  10.197 -0.1063  0.1561  0.3930
  146SAPE   C3216068   2.439   3.418   9.984  0.0270  0.2105 -0.2107
  146SAPE   H2X16069   2.339   3.466   9.989 -0.2676 -0.4891  0.6530
  146SAPE   H2Y16070   2.418   3.309   9.991 -0.7900  0.4963  3.2083
  146SAPE   C2316071   2.845   3.964   9.947 -0.9460 -0.3136 -0.2216
  146SAPE   H3R16072   2.897   3.904   9.869  1.0055  0.3653  0.4917
  146SAPE   H3S16073   2.927   4.007  10.009 -0.9698 -2.9532  1.8596
  146SAPE   C2416074   2.763   4.086   9.889  0.7256  0.8097 -0.0229
  146SAPE   H4R16075   2.717   4.134   9.978  0.4331 -0.0430  0.2896
  146SAPE   H4S16076   2.679   4.052   9.826  0.5845 -0.6031  0.8734
  146SAPE   C2516077   2.865   4.174   9.835 -0.3949 -0.6593  0.6854
  146SAPE   H5R16078   2.931   4.224   9.908 -0.4633  0.5744 -0.0843
  146SAPE   C2616079   2.881   4.200   9.706  0.8192  0.5602  0.0854
  146SAPE   H6R16080   2.960   4.269   9.674  3.7394 -2.5909 -0.1329
  146SAPE   C2716081   2.793   4.142   9.590 -0.2467  0.1199  0.5622
  146SAPE   H7R16082   2.686   4.151   9.617 -0.4621  2.1626 -0.7647
  146SAPE   H7S16083   2.825   4.038   9.568  1.3342  0.9417 -1.3468
  146SAPE   C2816084   2.803   4.228   9.466  0.2533 -0.2319  0.1843
  146SAPE   H8R16085   2.770   4.332   9.477  0.8747 -0.0699  0.5059
  146SAPE   C2916086   2.849   4.193   9.347 -0.5561  0.1286 -1.0697
  146SAPE   H9R16087   2.832   4.265   9.265  0.7100  3.1722  1.1448
  146SAPE  C21016088   2.916   4.068   9.304 -0.1683  0.9261 -0.0067
  146SAPE  H10R16089   2.850   4.021   9.228 -1.1983  1.3481  0.6008
  146SAPE  H10S16090   2.915   3.993   9.387 -1.3056  0.8761 -0.0544
  146SAPE  C21116091   3.056   4.084   9.248 -0.2119  0.9408  0.6755
  146SAPE  H11R16092   3.141   4.069   9.316  0.1760  1.2487  0.2625
  146SAPE  C21216093   3.083   4.108   9.115 -0.4397  0.1547  0.3048
  146SAPE  H12R16094   3.188   4.118   9.083 -0.0653  0.7966  1.6452
  146SAPE  C21316095   2.985   4.129   9.003 -0.1461  0.6301 -0.3566
  146SAPE  H13R16096   3.023   4.191   8.919 -1.1705 -1.8467 -2.7939
  146SAPE  H13S16097   2.899   4.184   9.048  0.1504  0.6487  0.1992
  146SAPE  C21416098   2.939   3.997   8.944  0.4570  0.3914 -0.7399
  146SAPE  H14R16099   2.842   3.955   8.976  1.7704 -2.2723  0.0067
  146SAPE  C21516100   3.004   3.933   8.848  0.7643 -0.0715 -0.1078
  146SAPE  H15R16101   2.954   3.839   8.821 -0.5192  0.6113 -0.2362
  146SAPE  C21616102   3.133   3.980   8.782  0.9979 -0.2953  0.6066
  146SAPE  H16R16103   3.197   3.890   8.770  1.0163 -0.6047  2.6581
  146SAPE  H16S16104   3.187   4.047   8.853  0.6149  0.5063  0.1451
  146SAPE  C21716105   3.106   4.040   8.651 -0.0614  0.1816  0.3931
  146SAPE  H17R16106   3.207   4.064   8.611 -0.3888  0.9186 -0.0188
  146SAPE  H17S16107   3.068   4.143   8.672 -0.0828  0.2600 -0.0147
  146SAPE  C21816108   3.024   3.954   8.542  0.1544  0.0412 -0.8028
  146SAPE  H18R16109   2.916   3.954   8.567  0.3485  1.2616  0.1257
  146SAPE  H18S16110   3.075   3.855   8.533 -1.1746 -0.7079 -0.3064
  146SAPE  C21916111   3.023   3.996   8.394  0.2182  0.1068 -0.6945
  146SAPE  H19R16112   2.994   4.103   8.397 -1.0626 -0.2312  1.0986
  146SAPE  H19S16113   2.945   3.940   8.339 -0.0880  0.3233 -0.4864
  146SAPE  C22016114   3.151   3.982   8.312  0.4914 -0.2216 -0.2498
  146SAPE  H20R16115   3.229   4.054   8.346 -0.5403  1.4470 -1.2710
  146SAPE  H20S16116   3.134   4.006   8.205  0.0436  1.7275  0.2104
  146SAPE  H20T16117   3.186   3.879   8.333  1.0134  0.2821  1.4818
  146SAPE   C3316118   2.518   3.444   9.856  0.5257 -0.4251 -0.1616
  146SAPE   H3X16119   2.470   3.374   9.783  1.0819 -0.1196 -0.8276
  146SAPE   H3Y16120   2.625   3.424   9.876  0.7235  0.1906 -0.5779
  146SAPE   C3416121   2.505   3.585   9.810 -0.7275  0.0395 -0.3631
  146SAPE   H4X16122   2.572   3.650   9.869 -2.5130  1.6429  0.0068
  146SAPE   H4Y16123   2.407   3.638   9.817 -0.8983 -0.3558  5.8601
  146SAPE   C3516124   2.570   3.608   9.667  0.3994 -0.2013 -1.1366
  146SAPE   H5X16125   2.506   3.562   9.589  0.3401  1.1981 -1.9628
  146SAPE   H5Y16126   2.665   3.552   9.660  0.5584  0.0086 -0.7172
  146SAPE   C3616127   2.593   3.759   9.643  1.0685  0.0237 -0.1722
  146SAPE   H6X16128   2.678   3.782   9.711  1.6115  1.1202 -1.1854
  146SAPE   H6Y16129   2.501   3.818   9.664  1.2663  1.2171 -2.3019
  146SAPE   C3716130   2.632   3.788   9.498 -0.6368 -0.2099 -0.0338
  146SAPE   H7X16131   2.726   3.731   9.481 -0.2353  0.9575 -2.0514
  146SAPE   H7Y16132   2.669   3.892   9.485  1.6117 -0.9768 -0.2486
  146SAPE   C3816133   2.531   3.762   9.378 -0.1673  0.0395 -0.3465
  146SAPE   H8X16134   2.458   3.846   9.379  1.1530  1.2415 -0.2844
  146SAPE   H8Y16135   2.479   3.667   9.400 -0.0618  0.2596  0.9282
  146SAPE   C3916136   2.601   3.761   9.248 -0.5902  0.4322  0.4839
  146SAPE   H9X16137   2.646   3.660   9.234 -0.1522  0.3226  2.4381
  146SAPE   H9Y16138   2.683   3.835   9.238  0.8593 -1.0008  1.1871
  146SAPE  C31016139   2.515   3.781   9.127 -0.7138 -0.0032  0.1551
  146SAPE  H10X16140   2.486   3.888   9.128  0.1357  0.2271  0.3291
  146SAPE  H10Y16141   2.429   3.711   9.123  0.4222 -1.3870 -1.9116
  146SAPE  C31116142   2.590   3.756   8.995  0.3599  0.5465  0.9573
  146SAPE  H11X16143   2.617   3.648   8.990  0.6479  0.5019  2.7711
  146SAPE  H11Y16144   2.679   3.821   8.985  0.1125  0.6769 -0.5025
  146SAPE  C31216145   2.503   3.784   8.876  0.2196 -0.4166 -0.1333
  146SAPE  H12X16146   2.478   3.891   8.860 -2.6827 -1.0039 -0.2429
  146SAPE  H12Y16147   2.418   3.712   8.875  0.8455 -1.1763  0.1931
  146SAPE  C31316148   2.576   3.747   8.742 -0.2914 -0.7955  0.6393
  146SAPE  H13X16149   2.675   3.795   8.752 -1.0314  0.5653  1.6595
  146SAPE  H13Y16150   2.516   3.798   8.663  0.2258  0.5656  1.1025
  146SAPE  C31416151   2.598   3.597   8.732  0.4446 -0.5702 -0.0956
  146SAPE  H14X16152   2.495   3.555   8.728 -0.2737  0.8714  1.6432
  146SAPE  H14Y16153   2.650   3.557   8.822  0.2216 -1.2560 -0.2679
  146SAPE  C31516154   2.677   3.560   8.607  0.0787 -0.4194  0.1277
  146SAPE  H15X16155   2.621   3.603   8.520  1.9515 -1.3654 -1.6289
  146SAPE  H15Y16156   2.678   3.450   8.590 -0.0952 -0.4162  0.0890
  146SAPE  C31616157   2.817   3.618   8.588 -0.1519  0.2043 -0.3136
  146SAPE  H16X16158   2.868   3.590   8.683  0.3046  0.1457 -0.5710
  146SAPE  H16Y16159   2.817   3.728   8.577  0.6721  0.4583  1.7751
  146SAPE  C31716160   2.883   3.549   8.461  0.0696 -0.2777 -0.0237
  146SAPE  H17X16161   2.813   3.542   8.375 -0.0309  0.0392  0.0319
  146SAPE  H17Y16162   2.885   3.443   8.493 -3.6625 -0.5875 -0.3240
  146SAPE  C31816163   3.014   3.607   8.410  0.1186 -0.1497  0.4450
  146SAPE  H18X16164   3.079   3.630   8.497  0.0506 -1.4142  0.8440
  146SAPE  H18Y16165   2.994   3.698   8.349  0.9457 -0.0277  0.3470
  146SAPE  H18Z16166   3.060   3.533   8.342  1.0667  1.3730 -0.6484
  147SAPE     N16167   5.846   4.627  10.903 -0.2240  0.5273 -0.2971
  147SAPE   HN116168   5.921   4.606  10.834  0.7828 -0.0443  0.9193
  147SAPE   HN216169   5.831   4.729  10.901 -0.0198  0.5581 -2.4256
  147SAPE   HN316170   5.878   4.597  10.998  0.8019  1.3437 -0.3653
  147SAPE   C1216171   5.718   4.555  10.854  0.3115 -0.3496 -0.3152
  147SAPE  H12A16172   5.647   4.556  10.939  1.6992 -0.6348  0.8775
  147SAPE  H12B16173   5.752   4.450  10.843  1.9843 -0.1239  2.1187
  147SAPE   C1116174   5.683   4.634  10.726  0.1046  0.0528  0.2454
  147SAPE  H11A16175   5.621   4.575  10.655  0.9475 -1.0501  0.3966
  147SAPE  H11B16176   5.774   4.643  10.663 -1.2572 -0.2321 -1.8663
  147SAPE     P16177   5.485   4.807  10.731 -0.0009  0.1139 -0.2826
  147SAPE   O1316178   5.396   4.708  10.793 -0.3399  0.2587  0.1723
  147SAPE   O1416179   5.464   4.952  10.758 -0.1060 -0.1914 -0.3761
  147SAPE   O1216180   5.638   4.769  10.762  0.1137 -0.2496  0.1029
  147SAPE   O1116181   5.488   4.775  10.582  0.0279  0.1159 -0.0107
  147SAPE    C116182   5.405   4.848  10.484 -0.4410  0.5428 -0.8030
  147SAPE    HA16183   5.399   4.956  10.508 -1.6499  0.3184 -0.0155
  147SAPE    HB16184   5.449   4.837  10.383 -2.0590  0.2185 -1.5069
  147SAPE    C216185   5.264   4.777  10.477  0.0062 -0.1426 -0.0964
  147SAPE    HS16186   5.228   4.789  10.581  0.5531  2.0887 -0.1078
  147SAPE   O2116187   5.266   4.639  10.431 -0.0715 -1.3885 -0.0780
  147SAPE   C2116188   5.176   4.558  10.479 -0.1001  0.3540  0.2685
  147SAPE   O2216189   5.100   4.570  10.572  0.2168 -0.1308  0.6086
  147SAPE   C2216190   5.192   4.429  10.408  0.3207  0.6610  0.5397
  147SAPE   H2R16191   5.281   4.430  10.341  0.8089  2.6969  1.1652
  147SAPE   H2S16192   5.194   4.344  10.480 -2.2893 -0.1064 -0.1694
  147SAPE    C316193   5.170   4.860  10.391 -0.3786 -0.0955  0.0333
  147SAPE    HX16194   5.160   4.958  10.442  0.2905 -0.3024  0.5758
  147SAPE    HY16195   5.069   4.813  10.398 -0.2152 -0.5542 -0.6040
  147SAPE   O3116196   5.213   4.876  10.254 -0.3182  0.6640  0.0574
  147SAPE   C3116197   5.113   4.935  10.180 -0.5911  0.1954  0.2269
  147SAPE   O3216198   5.004   4.961  10.220  0.3329  0.0836 -0.7897
  147SAPE   C3216199   5.164   4.955  10.033  0.3453 -0.5237  0.0495
  147SAPE   H2X16200   5.180   4.853   9.992 -0.0919  0.0047 -1.4719
  147SAPE   H2Y16201   5.258   5.014  10.047  0.4897 -1.0515  1.5479
  147SAPE   C2316202   5.081   4.397  10.308 -0.4553  0.2432  0.0455
  147SAPE   H3R16203   4.983   4.383  10.358 -0.4037 -0.5933 -0.0861
  147SAPE   H3S16204   5.107   4.304  10.254 -1.2607 -0.3846  0.7266
  147SAPE   C2416205   5.068   4.507  10.192 -0.6719  0.1360 -0.1349
  147SAPE   H4R16206   5.013   4.593  10.237  0.0776  0.3528  0.3885
  147SAPE   H4S16207   4.993   4.463  10.124 -1.1055  1.3059 -0.4343
  147SAPE   C2516208   5.192   4.542  10.108 -0.5099 -0.2662  0.1478
  147SAPE   H5R16209   5.289   4.534  10.159 -0.0443  1.8492 -0.2914
  147SAPE   C2616210   5.186   4.580   9.979  0.0308 -0.1817  0.1346
  147SAPE   H6R16211   5.285   4.592   9.933  1.7453 -0.2986  3.5030
  147SAPE   C2716212   5.062   4.603   9.897 -0.1384 -0.2733  0.4788
  147SAPE   H7R16213   5.066   4.674   9.811  1.1989  1.2918  1.7775
  147SAPE   H7S16214   4.975   4.632   9.959  0.7680  4.0705  0.0384
  147SAPE   C2816215   5.028   4.471   9.830 -0.4013 -0.7162 -0.1130
  147SAPE   H8R16216   4.960   4.403   9.885  0.6892 -1.1722  0.7072
  147SAPE   C2916217   5.078   4.418   9.713 -0.3424  0.1822 -0.1973
  147SAPE   H9R16218   5.040   4.319   9.681 -1.6327  0.7513 -0.5025
  147SAPE  C21016219   5.164   4.483   9.617  0.2350 -0.1495 -0.0236
  147SAPE  H10R16220   5.189   4.398   9.550 -0.5823  0.9439 -1.7700
  147SAPE  H10S16221   5.253   4.524   9.669  0.3634 -1.0006  0.4531
  147SAPE  C21116222   5.118   4.602   9.532  0.5805 -0.3025  0.0495
  147SAPE  H11R16223   5.012   4.633   9.535  0.2511 -1.4079  0.2429
  147SAPE  C21216224   5.201   4.657   9.443  0.0736  0.3849  0.4456
  147SAPE  H12R16225   5.168   4.745   9.386 -1.5515  0.6114  1.6650
  147SAPE  C21316226   5.340   4.621   9.411  0.4926 -0.9845 -0.6545
  147SAPE  H13R16227   5.338   4.545   9.331 -2.1765 -2.7203  0.9024
  147SAPE  H13S16228   5.392   4.563   9.490 -2.4085 -2.3442  0.4279
  147SAPE  C21416229   5.431   4.731   9.364  0.2031  0.2039 -0.4357
  147SAPE  H14R16230   5.479   4.786   9.446 -2.2932  0.7358  0.7582
  147SAPE  C21516231   5.475   4.769   9.246  0.3611 -0.3021  1.3779
  147SAPE  H15R16232   5.541   4.857   9.238  3.2413 -2.4307  0.0879
  147SAPE  C21616233   5.439   4.712   9.115 -0.6264  0.8361  0.4634
  147SAPE  H16R16234   5.459   4.602   9.116  0.3315  1.0040  0.3449
  147SAPE  H16S16235   5.501   4.761   9.037 -0.5202 -2.3577 -1.6543
  147SAPE  C21716236   5.292   4.734   9.075 -0.1165 -0.2909  0.4175
  147SAPE  H17R16237   5.254   4.837   9.092  1.0798  0.3504 -0.6039
  147SAPE  H17S16238   5.222   4.666   9.129 -1.1232  0.2662 -0.1434
  147SAPE  C21816239   5.269   4.691   8.928 -0.3468 -0.6341  0.7759
  147SAPE  H18R16240   5.161   4.673   8.905 -0.2205  0.6096 -0.9476
  147SAPE  H18S16241   5.327   4.599   8.906 -2.2819 -1.6100 -0.5926
  147SAPE  C21916242   5.331   4.789   8.823  0.5264 -0.0618  0.1525
  147SAPE  H19R16243   5.332   4.729   8.729 -1.0563  0.4942 -0.2530
  147SAPE  H19S16244   5.428   4.833   8.854 -0.7134  2.2073  1.0863
  147SAPE  C22016245   5.236   4.915   8.804 -0.0264  0.0558  0.5692
  147SAPE  H20R16246   5.133   4.873   8.791  0.1585 -1.0586  2.2598
  147SAPE  H20S16247   5.265   4.981   8.720  2.1826 -0.8136  0.5805
  147SAPE  H20T16248   5.233   4.983   8.891 -1.7873 -0.9465  1.3612
  147SAPE   C3316249   5.063   5.025   9.937 -0.2063 -0.2923 -0.2718
  147SAPE   H3X16250   5.046   5.128   9.972  0.5320 -1.0346  2.5349
  147SAPE   H3Y16251   4.974   4.959   9.945  0.9378 -1.7972  0.7611
  147SAPE   C3416252   5.118   5.017   9.797 -0.5516  0.1821 -0.0312
  147SAPE   H4X16253   5.137   4.908   9.785 -1.2944  0.0420  0.0132
  147SAPE   H4Y16254   5.215   5.070   9.788  0.4238 -1.6380 -0.6807
  147SAPE   C3516255   5.015   5.070   9.693  0.3829  0.4785  0.7298
  147SAPE   H5X16256   5.011   5.180   9.703  0.1511  0.3104  2.7656
  147SAPE   H5Y16257   4.913   5.032   9.717 -0.2383  0.8277 -1.1425
  147SAPE   C3616258   5.048   5.041   9.550  0.2273 -0.3427  0.6164
  147SAPE   H6X16259   4.955   5.071   9.498  0.9275  1.5146  0.3746
  147SAPE   H6Y16260   5.064   4.932   9.534  0.1576 -0.0756 -1.5700
  147SAPE   C3716261   5.164   5.122   9.490  0.1517 -1.0557  0.5447
  147SAPE   H7X16262   5.253   5.108   9.555  1.0000  1.3561  0.0185
  147SAPE   H7Y16263   5.129   5.228   9.491  0.4641 -0.9408 -0.0266
  147SAPE   C3816264   5.208   5.069   9.353  0.6133 -0.1742 -0.1158
  147SAPE   H8X16265   5.110   5.078   9.302  1.4686  2.3416 -1.5194
  147SAPE   H8Y16266   5.245   4.965   9.350 -0.2724 -0.4754 -1.2385
  147SAPE   C3916267   5.298   5.165   9.273 -0.6462  0.1634 -0.1719
  147SAPE   H9X16268   5.394   5.175   9.328 -0.9877  0.5870  0.3520
  147SAPE   H9Y16269   5.241   5.259   9.261 -0.0042  0.5096 -0.5400
  147SAPE  C31016270   5.322   5.107   9.138  0.2388 -0.3211  0.0519
  147SAPE  H10X16271   5.229   5.106   9.078  0.6821 -1.8191 -0.6347
  147SAPE  H10Y16272   5.353   5.001   9.139  1.7627  0.0845 -0.2146
  147SAPE  C31116273   5.425   5.177   9.058  0.1646  0.1313 -0.0513
  147SAPE  H11X16274   5.396   5.284   9.048 -1.1671 -0.0925  1.1235
  147SAPE  H11Y16275   5.420   5.141   8.953  0.8945  1.3696 -0.5352
  147SAPE  C31216276   5.570   5.152   9.101  0.5408 -0.4343  0.1028
  147SAPE  H12X16277   5.584   5.043   9.119 -0.0764 -0.5031  0.1854
  147SAPE  H12Y16278   5.577   5.201   9.200  0.4402 -2.9839  1.4390
  147SAPE  C31316279   5.679   5.202   9.007 -0.0198 -0.1751  0.1849
  147SAPE  H13X16280   5.779   5.191   9.055  0.2848 -1.5932 -0.7006
  147SAPE  H13Y16281   5.653   5.306   8.981  1.1508  0.1804  0.3900
  147SAPE  C31416282   5.680   5.115   8.880  0.1205  0.1165 -0.6431
  147SAPE  H14X16283   5.582   5.118   8.828 -0.1791 -2.2134 -0.3098
  147SAPE  H14Y16284   5.702   5.013   8.916 -0.1015  1.0150  2.3474
  147SAPE  C31516285   5.789   5.153   8.787 -0.2919 -0.2113 -0.0820
  147SAPE  H15X16286   5.787   5.259   8.756  2.4529  0.0632  0.4008
  147SAPE  H15Y16287   5.769   5.085   8.701 -2.5996 -1.0600  1.0646
  147SAPE  C31616288   5.931   5.125   8.840 -0.0161 -0.1380 -1.0151
  147SAPE  H16X16289   5.938   5.026   8.891  0.1794  0.5353  0.3203
  147SAPE  H16Y16290   5.954   5.197   8.921 -1.6678 -0.9972  0.2750
  147SAPE  C31716291   6.032   5.116   8.725 -0.6535 -0.4766  0.5754
  147SAPE  H17X16292   6.027   5.211   8.667 -0.5200 -0.2408  0.9515
  147SAPE  H17Y16293   5.996   5.034   8.659  3.3281 -1.9028 -0.0788
  147SAPE  C31816294   6.171   5.081   8.767 -0.5733 -0.1648 -0.1187
  147SAPE  H18X16295   6.216   5.156   8.836 -1.2163  0.0319  0.0873
  147SAPE  H18Y16296   6.244   5.080   8.683 -0.9900  2.2077 -0.5718
  147SAPE  H18Z16297   6.174   4.982   8.817  0.7740 -1.2243 -2.1665
  148SAPE     N16298   6.115   0.875  10.792  0.1351 -0.7827  0.2016
  148SAPE   HN116299   6.112   0.809  10.711  1.8420 -0.4003 -0.2086
  148SAPE   HN216300   6.032   0.937  10.789 -0.9613 -2.2144 -0.4072
  148SAPE   HN316301   6.199   0.936  10.786 -0.3542 -0.2190 -1.4916
  148SAPE   C1216302   6.122   0.788  10.913 -0.2835 -0.3138 -0.4923
  148SAPE  H12A16303   6.099   0.852  11.001 -0.3205 -0.4700 -0.3868
  148SAPE  H12B16304   6.223   0.742  10.918 -0.5672 -0.8262  2.8624
  148SAPE   C1116305   6.024   0.671  10.893 -0.1962 -0.6204 -0.3680
  148SAPE  H11A16306   5.926   0.701  10.935  0.0307 -2.1060  1.3405
  148SAPE  H11B16307   6.057   0.589  10.960 -1.3122 -1.4716 -0.8328
  148SAPE     P16308   6.083   0.491  10.718 -0.1885 -0.5731  0.2805
  148SAPE   O1316309   6.228   0.497  10.723  0.2162 -0.7071 -0.3426
  148SAPE   O1416310   6.026   0.377  10.796  0.0710 -0.2511 -0.2080
  148SAPE   O1216311   6.021   0.624  10.760 -0.4233 -0.0279 -0.3509
  148SAPE   O1116312   6.041   0.467  10.569  0.4851  0.5415 -0.0886
  148SAPE    C116313   5.910   0.503  10.520  0.0120  0.1019 -0.3544
  148SAPE    HA16314   5.842   0.539  10.600  0.4906  0.6097 -0.1712
  148SAPE    HB16315   5.933   0.583  10.446  3.4383 -0.9383 -0.5797
  148SAPE    C216316   5.830   0.392  10.448 -0.3855  0.2272  0.2633
  148SAPE    HS16317   5.797   0.306  10.511  3.6429 -1.5693  0.2245
  148SAPE   O2116318   5.905   0.346  10.333  0.4518  0.1632  0.1409
  148SAPE   C2116319   5.970   0.236  10.340  0.6885  0.7449 -0.2098
  148SAPE   O2216320   5.963   0.156  10.430 -0.3960  0.2929 -0.1807
  148SAPE   C2216321   6.032   0.211  10.206 -0.0455  0.4298  0.1076
  148SAPE   H2R16322   5.944   0.168  10.153 -1.0142  0.9303  1.2919
  148SAPE   H2S16323   6.069   0.300  10.151  0.2028 -1.0204 -2.2296
  148SAPE    C316324   5.695   0.452  10.396  0.7367 -0.5001 -0.7867
  148SAPE    HX16325   5.650   0.479  10.494 -0.3785  0.6200 -1.5817
  148SAPE    HY16326   5.637   0.373  10.345  0.7512 -1.6878  0.9637
  148SAPE   O3116327   5.710   0.577  10.322  0.1828  0.3030 -0.0782
  148SAPE   C3116328   5.713   0.575  10.190 -0.4677 -0.3411 -0.7853
  148SAPE   O3216329   5.687   0.471  10.127  0.1693  0.0325 -0.8842
  148SAPE   C3216330   5.768   0.697  10.120  0.0605  0.2034  0.2973
  148SAPE   H2X16331   5.878   0.703  10.131  0.3248 -0.5318 -1.5964
  148SAPE   H2Y16332   5.712   0.785  10.158  1.4674  1.0514  0.4808
  148SAPE   C2316333   6.140   0.099  10.216  0.0664 -0.2750  0.3097
  148SAPE   H3R16334   6.104   0.007  10.267  0.8714 -2.3274 -2.6239
  148SAPE   H3S16335   6.220   0.138  10.283 -0.6254 -2.3526  2.4806
  148SAPE   C2416336   6.198   0.049  10.082  0.3544 -0.2346  0.3993
  148SAPE   H4R16337   6.255  -0.039  10.119  0.9555 -0.1630 -0.3237
  148SAPE   H4S16338   6.269   0.128  10.049 -2.0578  1.3709 -1.2795
  148SAPE   C2516339   6.091   0.013   9.984 -0.4479  0.0935 -0.2158
  148SAPE   H5R16340   6.010  -0.049  10.025 -2.8661  1.6238 -2.4114
  148SAPE   C2616341   6.089   0.061   9.858  0.2640 -0.0648  0.1833
  148SAPE   H6R16342   6.015   0.027   9.785  1.6979  1.9753 -2.3879
  148SAPE   C2716343   6.196   0.148   9.787 -0.0822  0.0687  0.8941
  148SAPE   H7R16344   6.235   0.094   9.698 -0.3367  1.8311 -0.3313
  148SAPE   H7S16345   6.278   0.166   9.860  0.7134 -0.2697  0.0921
  148SAPE   C2816346   6.160   0.287   9.733 -0.1252  0.0526  0.1220
  148SAPE   H8R16347   6.172   0.372   9.802 -0.4552  1.1588 -1.1278
  148SAPE   C2916348   6.112   0.315   9.611  0.3162 -0.3121  0.4337
  148SAPE   H9R16349   6.077   0.415   9.581 -3.2366 -2.3112 -3.0940
  148SAPE  C21016350   6.078   0.219   9.501  0.2303 -0.4888 -0.6118
  148SAPE  H10R16351   5.977   0.246   9.463 -1.0694 -1.7165  1.7322
  148SAPE  H10S16352   6.055   0.120   9.547 -1.7043  0.6246  0.9596
  148SAPE  C21116353   6.190   0.208   9.398 -0.1872 -0.3467 -0.0211
  148SAPE  H11R16354   6.287   0.170   9.434  0.5946 -1.0714 -2.6635
  148SAPE  C21216355   6.180   0.223   9.265 -0.3520  0.5582 -0.4714
  148SAPE  H12R16356   6.270   0.213   9.202 -0.1956 -0.0360 -0.1577
  148SAPE  C21316357   6.056   0.260   9.183 -0.2356 -0.1114  0.2580
  148SAPE  H13R16358   6.063   0.365   9.149  1.7242  0.6315  2.5986
  148SAPE  H13S16359   5.963   0.244   9.242 -1.3371 -0.0942 -1.4357
  148SAPE  C21416360   6.039   0.184   9.055  0.0692  0.8485  0.5742
  148SAPE  H14R16361   5.941   0.134   9.050 -0.1922  1.5019 -2.5212
  148SAPE  C21516362   6.125   0.168   8.954 -0.2265 -0.2709  0.2161
  148SAPE  H15R16363   6.097   0.110   8.866  0.7792 -0.0420 -0.2747
  148SAPE  C21616364   6.261   0.230   8.939  0.2405  0.0399  1.0495
  148SAPE  H16R16365   6.340   0.152   8.929  1.2684  0.9769  1.6163
  148SAPE  H16S16366   6.286   0.296   9.024  1.5234 -0.9962  1.5170
  148SAPE  C21716367   6.288   0.333   8.811 -0.7455  0.3560 -0.8690
  148SAPE  H17R16368   6.220   0.421   8.822 -0.4745  0.4550  0.1533
  148SAPE  H17S16369   6.277   0.281   8.713  2.0238  0.2007 -1.1696
  148SAPE  C21816370   6.435   0.370   8.822 -0.4241 -0.2028  0.1225
  148SAPE  H18R16371   6.502   0.283   8.804  0.1416  0.4038 -0.8069
  148SAPE  H18S16372   6.459   0.405   8.925 -0.4412 -0.0416  0.0726
  148SAPE  C21916373   6.464   0.481   8.719 -0.4536  0.0374  0.1834
  148SAPE  H19R16374   6.400   0.569   8.740  0.1628  0.1192  1.8751
  148SAPE  H19S16375   6.429   0.443   8.621 -0.2940 -0.1703  0.2045
  148SAPE  C22016376   6.612   0.544   8.702 -0.3905  0.2096  0.2327
  148SAPE  H20R16377   6.612   0.622   8.623 -1.1432  0.1112  0.1278
  148SAPE  H20S16378   6.680   0.465   8.665  0.1435  1.3295 -1.2947
  148SAPE  H20T16379   6.661   0.579   8.795 -0.7915 -2.2988  1.4602
  148SAPE   C3316380   5.747   0.698   9.964  0.3713 -0.1320  0.3375
  148SAPE   H3X16381   5.640   0.673   9.954 -0.2360  1.5939  1.9396
  148SAPE   H3Y16382   5.826   0.637   9.915  2.0703  1.0520  1.4896
  148SAPE   C3416383   5.754   0.845   9.907  0.0659 -0.1864  0.7787
  148SAPE   H4X16384   5.859   0.876   9.922  0.3922 -0.4472 -0.7437
  148SAPE   H4Y16385   5.680   0.895   9.974 -0.1899  0.7655 -0.1780
  148SAPE   C3516386   5.706   0.844   9.757 -0.6702  0.5499  0.4845
  148SAPE   H5X16387   5.606   0.795   9.752 -0.9453  1.0904  0.6174
  148SAPE   H5Y16388   5.777   0.784   9.695 -0.7401 -1.2435  2.0253
  148SAPE   C3616389   5.688   0.994   9.719 -0.7446 -0.1957  0.4019
  148SAPE   H6X16390   5.779   1.056   9.731 -0.1373 -1.4011  2.7984
  148SAPE   H6Y16391   5.621   1.030   9.800 -1.0267  1.2930 -0.4718
  148SAPE   C3716392   5.619   1.025   9.583  0.1091  0.2249  0.8093
  148SAPE   H7X16393   5.575   1.127   9.572  0.5534  0.5050  1.5655
  148SAPE   H7Y16394   5.538   0.949   9.581  0.7000 -0.4071  0.4478
  148SAPE   C3816395   5.707   1.007   9.457 -0.6763 -0.5293  0.6902
  148SAPE   H8X16396   5.753   0.907   9.443  0.4476  0.0740 -0.1089
  148SAPE   H8Y16397   5.785   1.087   9.459  1.3688 -2.3914 -0.1256
  148SAPE   C3916398   5.624   1.030   9.328  0.0391 -0.2994  0.0361
  148SAPE   H9X16399   5.697   1.065   9.253 -0.6289 -0.3351 -0.6377
  148SAPE   H9Y16400   5.554   1.116   9.335  1.2727  0.9155 -1.7887
  148SAPE  C31016401   5.555   0.892   9.294 -0.0671  0.0896 -0.4180
  148SAPE  H10X16402   5.498   0.865   9.385  1.1441  0.2665  0.4160
  148SAPE  H10Y16403   5.634   0.816   9.277  0.5639  0.6608 -0.0988
  148SAPE  C31116404   5.475   0.884   9.165 -0.2492  0.0844  0.2694
  148SAPE  H11X16405   5.386   0.951   9.166 -2.3522 -2.4591 -1.6209
  148SAPE  H11Y16406   5.427   0.788   9.136 -0.7880  0.4175  0.0396
  148SAPE  C31216407   5.557   0.930   9.041 -0.0692  0.0628 -0.1715
  148SAPE  H12X16408   5.651   0.871   9.047  0.5437  1.1043  0.6961
  148SAPE  H12Y16409   5.595   1.034   9.049  0.3567 -0.1469  0.6392
  148SAPE  C31316410   5.488   0.879   8.915  0.4813  0.0653  0.3948
  148SAPE  H13X16411   5.388   0.926   8.904  0.4993 -0.1223 -0.6262
  148SAPE  H13Y16412   5.480   0.769   8.927  1.6879  0.0672  1.4643
  148SAPE  C31416413   5.563   0.930   8.791 -1.3146 -0.2983 -0.2030
  148SAPE  H14X16414   5.664   0.885   8.806 -1.5139  0.3112  4.5098
  148SAPE  H14Y16415   5.595   1.033   8.817  0.0871 -0.5205 -0.9369
  148SAPE  C31516416   5.494   0.933   8.653  0.2821 -0.3824  0.0590
  148SAPE  H15X16417   5.399   0.987   8.676  1.8266  2.3211  0.5678
  148SAPE  H15Y16418   5.472   0.832   8.613  1.6008 -0.2488 -1.0720
  148SAPE  C31616419   5.566   1.019   8.548 -0.2157 -0.0301 -0.1101
  148SAPE  H16X16420   5.672   0.986   8.544  0.1454  1.0188  0.5015
  148SAPE  H16Y16421   5.580   1.122   8.587  3.2991  0.7472 -2.8823
  148SAPE  C31716422   5.497   1.000   8.412 -0.4563  0.2435  0.3018
  148SAPE  H17X16423   5.390   1.024   8.428 -0.1717  3.2468 -1.5451
  148SAPE  H17Y16424   5.496   0.896   8.374  0.7587  0.4555 -0.3645
  148SAPE  C31816425   5.563   1.094   8.307  0.2863 -0.5665  0.0111
  148SAPE  H18X16426   5.551   1.066   8.200  2.4143 -1.9729  0.0729
  148SAPE  H18Y16427   5.673   1.099   8.325  0.4192  0.6433 -0.9788
  148SAPE  H18Z16428   5.527   1.198   8.321  1.0976 -0.4980  1.8852
  149SAPE     N16429   0.967   2.726  11.172  0.4633  0.3843  0.2546
  149SAPE   HN116430   0.908   2.660  11.226 -1.6808  1.0457 -1.1516
  149SAPE   HN216431   1.066   2.695  11.177 -0.1901 -1.8094  0.7704
  149SAPE   HN316432   0.955   2.817  11.221  2.1695 -0.4976  2.5304
  149SAPE   C1216433   0.923   2.731  11.035  0.2844  0.9769  0.0313
  149SAPE  H12A16434   1.007   2.764  10.970 -0.2787  0.3855 -1.0246
  149SAPE  H12B16435   0.850   2.815  11.033  0.4755  1.1823  1.1358
  149SAPE   C1116436   0.862   2.594  10.985 -0.1805 -0.2503  0.1899
  149SAPE  H11A16437   0.850   2.612  10.876  3.2484  0.3120 -0.2155
  149SAPE  H11B16438   0.764   2.597  11.036 -0.1324  1.2009  0.2581
  149SAPE     P16439   1.059   2.433  10.909 -0.3290  0.0145  0.2648
  149SAPE   O1316440   1.097   2.545  10.816 -0.2147 -0.5678 -0.3209
  149SAPE   O1416441   1.164   2.375  10.998  0.5692  0.1524  0.1091
  149SAPE   O1216442   0.938   2.482  11.002  0.1061  1.0031 -0.6300
  149SAPE   O1116443   0.991   2.317  10.830 -0.5133 -0.4969  0.1150
  149SAPE    C116444   0.859   2.318  10.778  0.2387 -0.3472 -0.3599
  149SAPE    HA16445   0.795   2.283  10.862  0.6094 -1.3686 -0.4920
  149SAPE    HB16446   0.831   2.419  10.741 -3.0928 -1.4246 -1.0952
  149SAPE    C216447   0.837   2.229  10.642 -0.3026 -0.0509  0.2092
  149SAPE    HS16448   0.851   2.120  10.663  0.2121 -0.6348 -2.7023
  149SAPE   O2116449   0.931   2.263  10.535  0.1196  0.2459  0.0515
  149SAPE   C2116450   0.925   2.179  10.428  0.1244 -0.2941 -0.4152
  149SAPE   O2216451   0.874   2.067  10.429 -0.4754 -0.5152  0.4401
  149SAPE   C2216452   1.002   2.251  10.310 -0.2603 -0.2742 -0.4912
  149SAPE   H2R16453   0.982   2.360  10.311 -1.9552 -0.5241 -2.1230
  149SAPE   H2S16454   1.109   2.223  10.320 -0.0706 -0.9354 -3.4768
  149SAPE    C316455   0.688   2.236  10.603  0.0001 -0.7417  0.3496
  149SAPE    HX16456   0.629   2.203  10.691 -0.7688 -0.0577  0.1005
  149SAPE    HY16457   0.655   2.156  10.534 -1.5143  0.9978 -1.0588
  149SAPE   O3116458   0.649   2.369  10.566  0.0368 -0.2712 -0.3335
  149SAPE   C3116459   0.645   2.396  10.438 -0.1801  0.1497  0.2817
  149SAPE   O3216460   0.667   2.314  10.352 -0.7563  0.1372 -0.5092
  149SAPE   C3216461   0.604   2.540  10.425 -0.1293  0.1705 -0.0266
  149SAPE   H2X16462   0.643   2.601  10.509 -0.1017  0.4767 -0.2607
  149SAPE   H2Y16463   0.495   2.537  10.445  0.0846 -0.2694  1.1273
  149SAPE   C2316464   0.957   2.203  10.170 -0.5178  0.3677  0.4548
  149SAPE   H3R16465   0.849   2.178  10.166 -0.3959 -0.0271 -1.0067
  149SAPE   H3S16466   1.014   2.113  10.137 -0.9268 -0.3947  1.7606
  149SAPE   C2416467   0.978   2.307  10.061 -0.0508 -0.3710 -0.0357
  149SAPE   H4R16468   1.088   2.315  10.050  0.2314 -0.4967  2.1072
  149SAPE   H4S16469   0.953   2.401  10.115 -0.5659 -1.0186  0.8898
  149SAPE   C2516470   0.913   2.304   9.925  0.8361 -0.6636 -0.6156
  149SAPE   H5R16471   0.803   2.315   9.927  0.9889  1.1097  0.1492
  149SAPE   C2616472   0.965   2.261   9.809 -0.2421  0.7709  0.3114
  149SAPE   H6R16473   0.905   2.261   9.717  0.0524  0.6384  0.1162
  149SAPE   C2716474   1.106   2.214   9.782 -0.1944 -0.1444 -0.0085
  149SAPE   H7R16475   1.173   2.231   9.869 -0.8168  0.1147  0.4266
  149SAPE   H7S16476   1.152   2.270   9.697  1.0303  0.6633  1.1451
  149SAPE   C2816477   1.090   2.067   9.755 -0.3849 -0.1761  0.4788
  149SAPE   H8R16478   1.054   2.010   9.842 -1.8170  3.8029  2.7302
  149SAPE   C2916479   1.121   2.009   9.637 -0.3317  0.5645  0.5190
  149SAPE   H9R16480   1.098   1.903   9.620 -0.3532  0.5198  0.8137
  149SAPE  C21016481   1.182   2.078   9.522 -0.2209 -0.3925  1.2653
  149SAPE  H10R16482   1.248   2.004   9.472  1.0466  1.2762  0.3735
  149SAPE  H10S16483   1.253   2.160   9.545 -1.2072  1.4815 -1.8573
  149SAPE  C21116484   1.073   2.119   9.422  0.2019 -0.3462 -0.2879
  149SAPE  H11R16485   0.968   2.089   9.427  0.0511  0.1069 -0.6600
  149SAPE  C21216486   1.110   2.174   9.309 -0.4593 -0.1687  0.0352
  149SAPE  H12R16487   1.024   2.212   9.253 -0.4081  0.9983  0.7311
  149SAPE  C21316488   1.243   2.224   9.262  0.7250  0.2458 -0.6287
  149SAPE  H13R16489   1.306   2.253   9.348 -0.2672 -1.4081  0.7176
  149SAPE  H13S16490   1.223   2.312   9.197 -1.2728  0.1891 -0.1782
  149SAPE  C21416491   1.323   2.116   9.190  0.2309 -0.5536  0.2754
  149SAPE  H14R16492   1.370   2.048   9.261  0.5308  0.7610  1.3788
  149SAPE  C21516493   1.367   2.119   9.059 -0.2948 -0.7359  0.0120
  149SAPE  H15R16494   1.417   2.028   9.026 -1.0322 -1.2844  0.3723
  149SAPE  C21616495   1.324   2.218   8.948 -0.3629  0.4359  0.1020
  149SAPE  H16R16496   1.391   2.307   8.943 -0.0326  0.1258 -2.3984
  149SAPE  H16S16497   1.218   2.250   8.948 -1.1085 -1.7690 -1.8158
  149SAPE  C21716498   1.350   2.143   8.812  0.2373 -0.0264 -0.0007
  149SAPE  H17R16499   1.290   2.201   8.737  0.6174 -0.6248 -0.7841
  149SAPE  H17S16500   1.310   2.040   8.799  1.4606 -0.3421 -1.5813
  149SAPE  C21816501   1.497   2.161   8.774  0.5760 -0.0203  0.0779
  149SAPE  H18R16502   1.569   2.146   8.856 -1.4760 -0.1385  1.9494
  149SAPE  H18S16503   1.506   2.269   8.750 -0.2296  0.8821  3.3561
  149SAPE  C21916504   1.545   2.073   8.656  0.1931 -0.4603  0.1021
  149SAPE  H19R16505   1.458   2.063   8.587 -0.3860 -3.1562  1.1126
  149SAPE  H19S16506   1.574   1.974   8.697 -3.2400 -1.6658 -0.0536
  149SAPE  C22016507   1.660   2.153   8.583  0.3066  0.2386  0.5948
  149SAPE  H20R16508   1.741   2.180   8.655 -0.0033  0.1569  0.9767
  149SAPE  H20S16509   1.629   2.249   8.537 -1.7682 -1.1768 -1.2003
  149SAPE  H20T16510   1.706   2.089   8.504  0.2346 -0.7965  1.3718
  149SAPE   C3316511   0.630   2.617  10.298  0.1664 -0.3989 -0.2358
  149SAPE   H3X16512   0.734   2.655  10.285  0.2582 -0.5982 -0.0785
  149SAPE   H3Y16513   0.566   2.708  10.297 -3.9648 -3.0290  0.6838
  149SAPE   C3416514   0.584   2.540  10.177  0.1199  0.8200 -0.0634
  149SAPE   H4X16515   0.480   2.508  10.196  0.1030  0.3780 -0.8707
  149SAPE   H4Y16516   0.649   2.451  10.163 -2.1339 -0.7505 -1.0695
  149SAPE   C3516517   0.593   2.625  10.050 -0.4131 -0.1052 -0.6866
  149SAPE   H5X16518   0.693   2.672  10.040 -0.4255  0.2655  0.7135
  149SAPE   H5Y16519   0.516   2.705  10.062 -1.4612 -1.1716 -0.0602
  149SAPE   C3616520   0.548   2.542   9.923 -0.2199  0.0171  0.6773
  149SAPE   H6X16521   0.458   2.480   9.946 -0.7293  0.5143  0.0776
  149SAPE   H6Y16522   0.632   2.473   9.901 -0.6174  0.3610 -2.4424
  149SAPE   C3716523   0.533   2.632   9.796  0.2440  0.5507  0.8812
  149SAPE   H7X16524   0.632   2.681   9.780  0.8272 -1.2732 -1.9653
  149SAPE   H7Y16525   0.449   2.704   9.804  1.9470  2.8455 -0.5370
  149SAPE   C3816526   0.504   2.544   9.670 -0.1290  0.2458  0.6873
  149SAPE   H8X16527   0.417   2.476   9.681  0.2484 -0.7021 -1.5350
  149SAPE   H8Y16528   0.600   2.488   9.666 -1.3833 -1.9630 -1.0770
  149SAPE   C3916529   0.494   2.641   9.546  0.5753  0.8635 -0.0925
  149SAPE   H9X16530   0.560   2.728   9.562  1.4912 -0.2482  2.7052
  149SAPE   H9Y16531   0.392   2.684   9.560 -0.1447 -0.9483  0.5889
  149SAPE  C31016532   0.505   2.581   9.400 -0.0291 -0.3921 -0.3919
  149SAPE  H10X16533   0.437   2.495   9.383 -0.3888 -0.0718 -0.5958
  149SAPE  H10Y16534   0.610   2.544   9.396  0.7083  1.3481  1.2393
  149SAPE  C31116535   0.496   2.687   9.285 -0.0034 -0.1933 -0.0203
  149SAPE  H11X16536   0.554   2.777   9.315 -1.6872  1.0035 -0.2209
  149SAPE  H11Y16537   0.389   2.714   9.277  0.2058  0.7070  0.1706
  149SAPE  C31216538   0.554   2.651   9.147 -0.3438  0.2595 -0.4258
  149SAPE  H12X16539   0.652   2.601   9.162 -0.7940 -0.6172 -0.4052
  149SAPE  H12Y16540   0.574   2.745   9.091 -2.4013 -0.0970 -1.8532
  149SAPE  C31316541   0.455   2.572   9.057 -0.2917 -0.4557  0.1624
  149SAPE  H13X16542   0.363   2.631   9.037  0.5187  0.1946 -1.9044
  149SAPE  H13Y16543   0.433   2.475   9.107 -1.1674  0.6502  2.0580
  149SAPE  C31416544   0.515   2.553   8.918  0.4114  0.0627 -0.2579
  149SAPE  H14X16545   0.610   2.499   8.934 -0.2899 -0.6836  1.6476
  149SAPE  H14Y16546   0.522   2.650   8.864  1.0039  0.0423 -0.2286
  149SAPE  C31516547   0.430   2.453   8.835  0.6212 -0.6789  0.2323
  149SAPE  H15X16548   0.474   2.474   8.735 -0.9277  3.3693  0.2203
  149SAPE  H15Y16549   0.324   2.485   8.834  1.2254  1.6647 -2.0075
  149SAPE  C31616550   0.448   2.302   8.863 -0.0905  0.6816  0.7339
  149SAPE  H16X16551   0.406   2.273   8.963 -0.1298  0.3027  0.6101
  149SAPE  H16Y16552   0.555   2.274   8.863 -0.1013  0.6104 -0.4455
  149SAPE  C31716553   0.390   2.195   8.763 -0.4622 -0.1666  0.3762
  149SAPE  H17X16554   0.282   2.221   8.760 -0.2442  0.7355 -1.8002
  149SAPE  H17Y16555   0.394   2.092   8.803 -0.5342 -0.1063  0.5420
  149SAPE  C31816556   0.451   2.206   8.621  0.7463 -0.6723 -0.7833
  149SAPE  H18X16557   0.409   2.296   8.570  0.5894  0.6490  1.5474
  149SAPE  H18Y16558   0.415   2.117   8.565 -0.1517 -0.3783 -0.6992
  149SAPE  H18Z16559   0.561   2.216   8.620  0.6190  1.2340 -1.9082
  150SAPE     N16560   3.246   2.645  10.879 -0.0190 -0.4066  0.3052
  150SAPE   HN116561   3.338   2.683  10.908 -0.3562  0.8670 -0.2209
  150SAPE   HN216562   3.191   2.628  10.965  0.4303 -0.8769  0.5044
  150SAPE   HN316563   3.257   2.556  10.825 -1.2249  0.3437 -1.2634
  150SAPE   C1216564   3.169   2.733  10.787  0.0312 -0.6029 -0.2482
  150SAPE  H12A16565   3.228   2.775  10.703 -1.3455  3.1564  0.4896
  150SAPE  H12B16566   3.140   2.828  10.837  1.5027  1.1538 -2.5356
  150SAPE   C1116567   3.040   2.660  10.738 -0.0136  0.6365  0.3204
  150SAPE  H11A16568   3.011   2.710  10.643  0.1437 -0.9431 -0.5930
  150SAPE  H11B16569   2.960   2.683  10.812 -0.3282  1.4721 -0.2688
  150SAPE     P16570   2.981   2.438  10.604 -0.0490 -0.4061  0.4519
  150SAPE   O1316571   3.013   2.294  10.602 -0.1779  0.7216  0.6100
  150SAPE   O1416572   2.837   2.474  10.618 -0.1094  0.0429 -0.0271
  150SAPE   O1216573   3.073   2.522  10.705 -0.3498 -0.0823  0.2532
  150SAPE   O1116574   3.020   2.501  10.464 -1.0307  0.0650  0.1180
  150SAPE    C116575   3.155   2.562  10.452  0.2721  0.5192 -0.1357
  150SAPE    HA16576   3.152   2.669  10.484 -1.0087  0.8937 -1.3658
  150SAPE    HB16577   3.232   2.508  10.511  2.0889  1.0568 -1.9140
  150SAPE    C216578   3.204   2.549  10.310 -0.1011 -0.2826 -0.6916
  150SAPE    HS16579   3.296   2.608  10.296  0.8729 -1.6175 -0.1490
  150SAPE   O2116580   3.094   2.588  10.217  0.6930 -0.1712 -0.2977
  150SAPE   C2116581   3.079   2.721  10.212 -0.5627 -0.0269  0.4417
  150SAPE   O2216582   3.151   2.805  10.264  0.0387  0.1076 -0.0198
  150SAPE   C2216583   2.950   2.744  10.133  0.1801  0.1449 -0.0757
  150SAPE   H2R16584   2.895   2.648  10.136  1.6015 -0.6856  0.9239
  150SAPE   H2S16585   2.886   2.814  10.191  1.3031  0.6603  0.5840
  150SAPE    C316586   3.257   2.401  10.284 -0.5383  0.4643  0.8403
  150SAPE    HX16587   3.172   2.332  10.305 -0.9487  0.9770  0.8908
  150SAPE    HY16588   3.345   2.382  10.350 -0.0915  1.3610  0.5110
  150SAPE   O3116589   3.296   2.391  10.145 -0.0794  0.4895  0.4335
  150SAPE   C3116590   3.387   2.293  10.126  0.2428 -0.4376  0.0764
  150SAPE   O3216591   3.413   2.206  10.209 -0.0514 -0.2957 -0.2941
  150SAPE   C3216592   3.442   2.307   9.978 -0.7245  1.4384 -0.1855
  150SAPE   H2X16593   3.550   2.333   9.980  0.0882 -1.5101 -0.6761
  150SAPE   H2Y16594   3.388   2.387   9.924  0.7297  1.2005 -2.1166
  150SAPE   C2316595   2.980   2.792   9.984 -0.3530  0.6499  0.8351
  150SAPE   H3R16596   2.884   2.783   9.929 -0.2997 -2.2041  1.0587
  150SAPE   H3S16597   3.058   2.731   9.935  0.3079 -1.7349  4.4595
  150SAPE   C2416598   3.044   2.936   9.975  0.1611 -0.0244  0.3756
  150SAPE   H4R16599   3.140   2.922  10.030  0.1623 -0.1783  0.3365
  150SAPE   H4S16600   2.986   3.011  10.034 -2.9079 -1.4950 -0.5239
  150SAPE   C2516601   3.059   2.983   9.831 -0.6408 -0.4556  0.0327
  150SAPE   H5R16602   3.109   2.909   9.768  1.3660  1.6903 -1.0613
  150SAPE   C2616603   3.020   3.100   9.782 -0.0123 -0.2905  0.0355
  150SAPE   H6R16604   3.051   3.125   9.680 -0.2090 -1.5510 -0.3448
  150SAPE   C2716605   2.952   3.213   9.856 -0.2695  0.7864 -0.0591
  150SAPE   H7R16606   3.021   3.282   9.909 -2.5267  0.8639  3.0076
  150SAPE   H7S16607   2.900   3.167   9.942  0.9791  0.2019  0.4098
  150SAPE   C2816608   2.865   3.287   9.756 -0.4289  0.0488 -0.6813
  150SAPE   H8R16609   2.761   3.250   9.750 -0.4482 -0.1767  0.6982
  150SAPE   C2916610   2.914   3.390   9.680  0.4059  0.0363  0.4942
  150SAPE   H9R16611   2.842   3.433   9.608  0.0624  0.9842  1.3817
  150SAPE  C21016612   3.050   3.443   9.677  0.6428 -0.3789 -0.5097
  150SAPE  H10R16613   3.089   3.425   9.574  1.6244  0.1438 -0.2424
  150SAPE  H10S16614   3.111   3.384   9.748 -1.3325 -1.7949  0.0983
  150SAPE  C21116615   3.087   3.591   9.698  0.2771  0.8226  0.1565
  150SAPE  H11R16616   3.085   3.613   9.806  0.4275 -2.6315  1.0051
  150SAPE  C21216617   3.131   3.682   9.613  0.1274 -0.1695  0.2976
  150SAPE  H12R16618   3.145   3.783   9.655  1.4091 -0.8857  1.6890
  150SAPE  C21316619   3.146   3.657   9.464 -0.7716 -0.5181 -0.4197
  150SAPE  H13R16620   3.154   3.550   9.433  1.1327 -0.2374 -0.9846
  150SAPE  H13S16621   3.246   3.698   9.440 -0.4625 -0.8499  0.3079
  150SAPE  C21416622   3.051   3.736   9.372  0.7063  0.3442 -0.8513
  150SAPE  H14R16623   3.045   3.840   9.410 -2.1388 -0.0954  0.0955
  150SAPE  C21516624   2.975   3.690   9.275  0.1269  0.1132  0.4779
  150SAPE  H15R16625   2.907   3.757   9.220  0.4968  0.1511  0.0563
  150SAPE  C21616626   2.966   3.547   9.224 -0.3296  0.4283 -0.7975
  150SAPE  H16R16627   2.867   3.504   9.251 -0.2566 -0.7034 -2.2321
  150SAPE  H16S16628   3.043   3.477   9.262 -0.8619 -0.6690 -1.6914
  150SAPE  C21716629   2.965   3.552   9.075 -0.2436 -0.0144 -0.0880
  150SAPE  H17R16630   3.049   3.617   9.043 -1.4079  0.3583 -2.6815
  150SAPE  H17S16631   2.876   3.609   9.040 -0.5934 -0.4021  0.1579
  150SAPE  C21816632   2.971   3.417   9.004 -0.4528  0.0937 -0.1850
  150SAPE  H18R16633   3.075   3.386   9.029 -0.3330  0.6363  0.0152
  150SAPE  H18S16634   2.963   3.433   8.894  1.9488 -1.4045 -0.6385
  150SAPE  C21916635   2.865   3.312   9.042  0.0971 -0.6242  0.5932
  150SAPE  H19R16636   2.890   3.259   9.136  0.9065 -1.2837  0.0105
  150SAPE  H19S16637   2.870   3.234   8.964 -0.1342 -0.3113  0.2580
  150SAPE  C22016638   2.717   3.361   9.041 -0.1819  0.1158  0.4177
  150SAPE  H20R16639   2.672   3.361   8.939  1.8445 -1.3079 -0.5302
  150SAPE  H20S16640   2.694   3.456   9.094  3.0964  0.9132  0.6429
  150SAPE  H20T16641   2.658   3.283   9.095 -0.1974 -0.3788 -0.3039
  150SAPE   C3316642   3.415   2.170   9.913  0.1635  1.1796 -0.2627
  150SAPE   H3X16643   3.307   2.144   9.916  0.6238 -0.8680  2.4391
  150SAPE   H3Y16644   3.473   2.085   9.957 -1.0238  0.8603  0.7230
  150SAPE   C3416645   3.451   2.167   9.764 -0.0955 -0.3510 -0.1067
  150SAPE   H4X16646   3.561   2.181   9.762 -0.2773  1.2426 -0.2859
  150SAPE   H4Y16647   3.406   2.251   9.706 -0.1117 -0.2357  0.0732
  150SAPE   C3516648   3.401   2.045   9.687 -0.2791  0.4046 -0.0597
  150SAPE   H5X16649   3.290   2.041   9.695 -0.2426  1.3222  1.3345
  150SAPE   H5Y16650   3.443   1.949   9.722 -1.5876 -0.5101 -0.9266
  150SAPE   C3616651   3.436   2.053   9.539  0.2875  0.0761 -0.4760
  150SAPE   H6X16652   3.542   2.086   9.536  0.5946 -0.8128 -0.0115
  150SAPE   H6Y16653   3.387   2.140   9.490  0.5661 -0.6826 -2.1709
  150SAPE   C3716654   3.422   1.919   9.470 -0.3037 -0.4422  0.7437
  150SAPE   H7X16655   3.327   1.864   9.491  0.1750 -1.1924  0.9899
  150SAPE   H7Y16656   3.503   1.851   9.505 -0.5130 -1.6521 -0.9474
  150SAPE   C3816657   3.438   1.938   9.321 -0.4971  0.1490  0.4655
  150SAPE   H8X16658   3.446   1.836   9.276 -4.0923  1.4433 -3.7875
  150SAPE   H8Y16659   3.533   1.993   9.300  0.3465 -2.2665 -2.8398
  150SAPE   C3916660   3.320   2.000   9.240  0.2799 -0.1420 -0.3710
  150SAPE   H9X16661   3.281   2.090   9.292 -0.7955  0.4525 -2.1025
  150SAPE   H9Y16662   3.239   1.927   9.218 -0.5007  0.6299 -0.0951
  150SAPE  C31016663   3.367   2.067   9.108  0.0407  0.4536 -0.2488
  150SAPE  H10X16664   3.428   1.996   9.047  0.1465  0.1986  0.1523
  150SAPE  H10Y16665   3.428   2.153   9.141  0.4785 -0.5852  1.8229
  150SAPE  C31116666   3.255   2.127   9.024  0.2361 -0.5653 -0.3551
  150SAPE  H11X16667   3.298   2.187   8.940 -1.2776 -1.7118 -2.0285
  150SAPE  H11Y16668   3.196   2.198   9.085  0.5255  1.6006 -2.4373
  150SAPE  C31216669   3.169   2.019   8.956  0.3095 -0.1780 -0.6984
  150SAPE  H12X16670   3.100   1.976   9.032 -0.0102  1.2717 -0.1433
  150SAPE  H12Y16671   3.226   1.939   8.905  0.7508 -1.3317  1.4840
  150SAPE  C31316672   3.076   2.083   8.852  0.2881  0.0643  0.0905
  150SAPE  H13X16673   3.138   2.127   8.771  0.2911  0.3188  0.2307
  150SAPE  H13Y16674   3.016   2.165   8.896  2.4340  2.1369 -0.6482
  150SAPE  C31416675   2.984   1.977   8.784  0.0355  0.4101 -0.3862
  150SAPE  H14X16676   2.928   1.933   8.869 -1.8190  2.3854 -0.4985
  150SAPE  H14Y16677   3.032   1.895   8.726 -1.1838  0.1747 -1.1023
  150SAPE  C31516678   2.883   2.042   8.688 -0.1604  0.2622 -0.1736
  150SAPE  H15X16679   2.863   2.147   8.718  0.0449  0.5559 -1.0383
  150SAPE  H15Y16680   2.785   1.990   8.688 -0.1284  0.1286  1.4527
  150SAPE  C31616681   2.937   2.036   8.546 -0.1543 -0.5056  0.6812
  150SAPE  H16X16682   2.940   1.929   8.517 -1.6619 -0.1338 -0.9932
  150SAPE  H16Y16683   3.043   2.072   8.544 -0.2096 -0.1796 -2.9142
  150SAPE  C31716684   2.843   2.117   8.460  0.0706  0.2933 -0.0016
  150SAPE  H17X16685   2.839   2.225   8.488  0.4969  0.5533 -0.9074
  150SAPE  H17Y16686   2.745   2.066   8.445  1.0319 -1.6017 -0.1248
  150SAPE  C31816687   2.885   2.129   8.320  0.0583  0.5025 -0.1250
  150SAPE  H18X16688   2.820   2.198   8.262 -1.9305  0.3596  1.8164
  150SAPE  H18Y16689   2.882   2.034   8.262 -3.7591  1.4752 -1.8042
  150SAPE  H18Z16690   2.991   2.163   8.331  0.2189 -0.2249  0.6303
  151SAPE     N16691   0.634   4.301  10.459  0.3050 -0.2639  0.2293
  151SAPE   HN116692   0.616   4.380  10.395 -2.2138 -0.0904  1.0295
  151SAPE   HN216693   0.552   4.298  10.523 -1.1969 -0.2602 -1.6054
  151SAPE   HN316694   0.722   4.331  10.505 -0.6496  2.7885  0.2788
  151SAPE   C1216695   0.647   4.169  10.380 -0.1761 -0.6847 -0.1106
  151SAPE  H12A16696   0.701   4.099  10.448  0.1109 -0.9623 -0.6140
  151SAPE  H12B16697   0.725   4.177  10.301  0.7016 -2.4112  0.5184
  151SAPE   C1116698   0.518   4.112  10.313 -0.4397 -0.3129 -0.3020
  151SAPE  H11A16699   0.541   4.013  10.270  1.4359 -1.2831  2.6368
  151SAPE  H11B16700   0.479   4.184  10.237  3.1388  2.8521  0.5366
  151SAPE     P16701   0.380   3.957  10.478 -0.1602 -0.2093  0.2013
  151SAPE   O1316702   0.396   3.973  10.628  0.5282  0.2272  0.9148
  151SAPE   O1416703   0.244   3.913  10.436 -0.4905  0.1801 -0.1466
  151SAPE   O1216704   0.410   4.095  10.410  0.3576  0.0955  0.5363
  151SAPE   O1116705   0.487   3.850  10.423 -0.1061  0.0083 -0.6758
  151SAPE    C116706   0.458   3.754  10.320 -1.0483  0.3142 -0.1547
  151SAPE    HA16707   0.362   3.701  10.339 -1.3236  0.1919 -1.7415
  151SAPE    HB16708   0.440   3.808  10.224 -1.4884 -1.0467 -0.8780
  151SAPE    C216709   0.577   3.654  10.303  0.7823  0.5922  0.1527
  151SAPE    HS16710   0.607   3.616  10.403  0.3151  2.5948  1.1061
  151SAPE   O2116711   0.684   3.733  10.253 -0.1985 -0.3551  0.1655
  151SAPE   C2116712   0.808   3.681  10.268  0.5231 -0.0874 -0.4779
  151SAPE   O2216713   0.831   3.584  10.333  0.1330 -0.1742 -1.0509
  151SAPE   C2216714   0.923   3.761  10.201 -0.2412 -0.6102  0.6112
  151SAPE   H2R16715   1.020   3.750  10.255  0.9461  2.6959 -0.5471
  151SAPE   H2S16716   0.945   3.716  10.102 -1.3906  0.1169  0.0052
  151SAPE    C316717   0.532   3.528  10.220 -0.4116 -0.6424 -0.0266
  151SAPE    HX16718   0.446   3.491  10.281 -1.9337  1.4031 -0.8391
  151SAPE    HY16719   0.618   3.459  10.207 -0.0090  0.0829 -1.3637
  151SAPE   O3116720   0.476   3.566  10.091  0.1919  0.0567 -0.1249
  151SAPE   C3116721   0.558   3.577   9.993  0.5945 -0.1553  1.1537
  151SAPE   O3216722   0.671   3.533   9.983 -0.1689  0.7277  0.2542
  151SAPE   C3216723   0.486   3.663   9.889  0.6167 -0.0520  0.1451
  151SAPE   H2X16724   0.419   3.741   9.931  0.3151 -0.8306  1.1426
  151SAPE   H2Y16725   0.427   3.590   9.829  0.8379  1.4782 -2.0510
  151SAPE   C2316726   0.892   3.907  10.178 -0.3911 -0.0810 -0.4699
  151SAPE   H3R16727   0.990   3.958  10.190 -0.3459  0.2739 -2.1118
  151SAPE   H3S16728   0.817   3.939  10.252  0.5859 -0.2793  0.6342
  151SAPE   C2416729   0.835   3.939  10.039  0.5430  0.1207  0.4853
  151SAPE   H4R16730   0.732   3.898  10.025 -0.0686  1.2247  1.5719
  151SAPE   H4S16731   0.894   3.884   9.963 -1.1676 -0.9707 -0.1203
  151SAPE   C2516732   0.853   4.090  10.001 -0.1903  0.2712 -0.2542
  151SAPE   H5R16733   0.954   4.123  10.031 -0.3829  0.9480 -0.3492
  151SAPE   C2616734   0.752   4.178   9.964 -0.4255  0.1372  0.0427
  151SAPE   H6R16735   0.774   4.284   9.944 -3.6600  0.5757 -1.8875
  151SAPE   C2716736   0.609   4.136   9.939 -1.1589  0.6280 -0.6556
  151SAPE   H7R16737   0.574   4.061  10.012  2.4621 -0.2436  0.4169
  151SAPE   H7S16738   0.606   4.086   9.840 -0.7435 -2.1661  0.6707
  151SAPE   C2816739   0.527   4.259   9.940 -0.9890  0.8270  0.6997
  151SAPE   H8R16740   0.560   4.339  10.008  1.0337  0.1406  0.5852
  151SAPE   C2916741   0.412   4.260   9.873 -0.2571 -0.2146  0.1399
  151SAPE   H9R16742   0.349   4.349   9.878 -1.7925 -1.3320  1.3778
  151SAPE  C21016743   0.359   4.153   9.775 -0.3512  0.3507 -0.5831
  151SAPE  H10R16744   0.443   4.091   9.735 -0.3407 -1.0451  1.4523
  151SAPE  H10S16745   0.331   4.208   9.683  1.0784  2.0691 -0.0431
  151SAPE  C21116746   0.249   4.055   9.812 -0.2115 -0.3755  0.5710
  151SAPE  H11R16747   0.215   4.050   9.916 -0.9581 -1.1137  0.3001
  151SAPE  C21216748   0.166   3.993   9.728  0.0311  0.0175  0.4393
  151SAPE  H12R16749   0.093   3.920   9.764  0.8664 -2.2992 -2.1981
  151SAPE  C21316750   0.171   4.001   9.574  0.4117  0.2594 -0.3909
  151SAPE  H13R16751   0.240   3.927   9.527  1.2506  0.2598  0.8046
  151SAPE  H13S16752   0.222   4.096   9.548 -0.3998  0.7537 -0.1975
  151SAPE  C21416753   0.031   3.993   9.513  0.1767  0.1671  0.0467
  151SAPE  H14R16754  -0.052   4.024   9.578  0.2638  3.6960 -1.3448
  151SAPE  C21516755   0.002   3.969   9.381 -0.1070  1.1934 -0.1515
  151SAPE  H15R16756  -0.100   3.977   9.340  0.4221  1.1250 -1.5125
  151SAPE  C21616757   0.113   3.950   9.278  0.6421 -0.1536  0.2570
  151SAPE  H16R16758   0.110   3.841   9.257  1.8444  0.1846 -1.9645
  151SAPE  H16S16759   0.214   3.975   9.315  0.0837  0.3710  1.4672
  151SAPE  C21716760   0.095   4.020   9.147  0.1673 -1.0814  0.3989
  151SAPE  H17R16761   0.189   4.003   9.090 -0.1380  0.6320 -0.6654
  151SAPE  H17S16762   0.090   4.130   9.157 -0.6518 -0.9176 -1.4359
  151SAPE  C21816763  -0.026   3.973   9.066 -0.5387  0.9662 -0.3081
  151SAPE  H18R16764  -0.119   3.988   9.126  1.0356  3.1780  1.7447
  151SAPE  H18S16765  -0.009   3.867   9.039 -1.7950  0.3851  1.0246
  151SAPE  C21916766  -0.038   4.051   8.934 -0.1462  0.1705 -0.1136
  151SAPE  H19R16767  -0.037   4.159   8.959 -0.4096  0.0962  0.2122
  151SAPE  H19S16768  -0.126   4.006   8.883  0.3507 -0.6003 -0.3238
  151SAPE  C22016769   0.075   4.023   8.834  0.1464  0.7027 -0.2347
  151SAPE  H20R16770   0.056   4.074   8.737  1.7042  1.3049 -0.2667
  151SAPE  H20S16771   0.085   3.913   8.826 -1.4935  0.3678  1.5199
  151SAPE  H20T16772   0.166   4.072   8.876 -0.8271  1.7958  0.6536
  151SAPE   C3316773   0.590   3.718   9.786 -0.1434  0.4067  0.0202
  151SAPE   H3X16774   0.635   3.643   9.718 -0.8200  1.4777 -1.6871
  151SAPE   H3Y16775   0.669   3.775   9.839 -0.4760 -0.1727  1.1572
  151SAPE   C3416776   0.519   3.804   9.679 -0.7532  0.1450 -0.7946
  151SAPE   H4X16777   0.483   3.896   9.730 -0.6108 -0.4183  0.3334
  151SAPE   H4Y16778   0.434   3.751   9.632 -1.1384  2.3139 -2.7643
  151SAPE   C3516779   0.608   3.842   9.560  0.5423 -0.6336 -0.0318
  151SAPE   H5X16780   0.536   3.895   9.493 -0.4052 -0.0499  1.3721
  151SAPE   H5Y16781   0.634   3.742   9.521 -0.1413 -1.3638  1.3030
  151SAPE   C3616782   0.723   3.932   9.599 -0.3833 -0.0967  0.7703
  151SAPE   H6X16783   0.805   3.871   9.642  0.6216  0.8384  0.2215
  151SAPE   H6Y16784   0.691   3.998   9.683 -0.4575  0.1751  0.5296
  151SAPE   C3716785   0.784   4.008   9.477  0.6124  0.3684 -0.2800
  151SAPE   H7X16786   0.876   4.064   9.506  1.2043 -0.6723 -0.0754
  151SAPE   H7Y16787   0.711   4.081   9.437 -0.0237  0.4101  0.9185
  151SAPE   C3816788   0.844   3.916   9.363  0.4599 -0.3603 -0.5264
  151SAPE   H8X16789   0.758   3.849   9.342 -2.4045  2.6682  0.6888
  151SAPE   H8Y16790   0.924   3.851   9.406 -1.2212 -2.3804 -0.2836
  151SAPE   C3916791   0.887   3.996   9.242 -0.0895 -0.2575  0.1660
  151SAPE   H9X16792   0.957   4.078   9.270 -1.4176  0.2819  2.1236
  151SAPE   H9Y16793   0.791   4.038   9.206 -0.4992 -1.3486 -0.0525
  151SAPE  C31016794   0.956   3.920   9.130 -0.4042 -0.5750 -0.5842
  151SAPE  H10X16795   0.896   3.841   9.079  1.6270 -0.9878 -2.4662
  151SAPE  H10Y16796   1.046   3.864   9.163 -0.2559  0.2084  0.3785
  151SAPE  C31116797   0.990   4.009   9.006 -0.0840 -0.0929 -0.5017
  151SAPE  H11X16798   1.058   4.087   9.044  2.3816 -2.7127  0.8326
  151SAPE  H11Y16799   0.894   4.051   8.969 -0.3035  0.7487  0.9326
  151SAPE  C31216800   1.066   3.925   8.900 -0.3183  0.3696  0.0918
  151SAPE  H12X16801   0.998   3.839   8.883 -0.6956  0.8573 -0.9559
  151SAPE  H12Y16802   1.162   3.890   8.944 -0.5192 -0.1871  0.0832
  151SAPE  C31316803   1.092   4.005   8.771  0.0066  0.3075  0.2270
  151SAPE  H13X16804   1.137   3.936   8.697 -2.8318 -1.7394  0.2465
  151SAPE  H13Y16805   1.158   4.092   8.791  1.0318 -0.5773  0.8043
  151SAPE  C31416806   0.960   4.057   8.714 -0.2196  0.2099  0.6294
  151SAPE  H14X16807   0.912   4.126   8.786 -1.7891 -1.6747  1.4772
  151SAPE  H14Y16808   0.888   3.977   8.686 -0.0924 -0.1150  1.1998
  151SAPE  C31516809   0.981   4.120   8.579 -0.1321  0.3613  0.3538
  151SAPE  H15X16810   1.025   4.042   8.513 -0.0016  0.0407  0.8148
  151SAPE  H15Y16811   1.058   4.197   8.602  2.0439 -1.3312 -0.7724
  151SAPE  C31616812   0.858   4.174   8.507  0.0933 -0.1268  0.3918
  151SAPE  H16X16813   0.788   4.213   8.584  0.6534 -0.5106  1.1044
  151SAPE  H16Y16814   0.808   4.102   8.439 -1.0264 -0.0554  1.1205
  151SAPE  C31716815   0.886   4.305   8.420 -0.1781 -0.5463 -0.5607
  151SAPE  H17X16816   0.991   4.300   8.381 -0.2835 -1.3334 -0.7582
  151SAPE  H17Y16817   0.882   4.382   8.499  0.1637 -3.0651  2.0774
  151SAPE  C31816818   0.792   4.329   8.300  0.6661  0.3936  0.2863
  151SAPE  H18X16819   0.691   4.293   8.328 -0.0755  1.3104 -1.1351
  151SAPE  H18Y16820   0.829   4.267   8.216  0.1214  0.3883  0.0503
  151SAPE  H18Z16821   0.785   4.437   8.276 -2.7619 -0.1279 -1.6101
  152SAPE     N16822   0.871   5.322  10.517  0.1334  0.2598  0.3846
  152SAPE   HN116823   0.811   5.302  10.434  0.5829  1.0274 -0.1457
  152SAPE   HN216824   0.934   5.402  10.495  0.5752 -0.1024  0.3201
  152SAPE   HN316825   0.920   5.233  10.537  0.5692  0.5093  0.4360
  152SAPE   C1216826   0.780   5.353  10.630 -0.3480  0.6552  0.2522
  152SAPE  H12A16827   0.844   5.400  10.706  1.3429  0.6609 -1.1132
  152SAPE  H12B16828   0.747   5.259  10.680  1.5731 -0.1632  0.0741
  152SAPE   C1116829   0.659   5.435  10.581 -0.1832 -0.4863  0.0281
  152SAPE  H11A16830   0.619   5.464  10.680 -0.4900 -0.1274 -0.1993
  152SAPE  H11B16831   0.574   5.383  10.531 -2.5995  0.9276  2.4097
  152SAPE     P16832   0.609   5.677  10.475 -0.0238 -0.5381 -0.0113
  152SAPE   O1316833   0.504   5.698  10.577 -0.3786 -0.4639 -0.3068
  152SAPE   O1416834   0.697   5.793  10.455  0.1170 -0.3344 -0.7184
  152SAPE   O1216835   0.703   5.557  10.515 -0.0562  0.5509 -0.1446
  152SAPE   O1116836   0.538   5.620  10.347  0.4226  0.2455 -0.3087
  152SAPE    C116837   0.618   5.532  10.258 -0.0489  0.5344 -0.0924
  152SAPE    HA16838   0.623   5.430  10.302 -0.3977  0.5146 -0.0965
  152SAPE    HB16839   0.566   5.527  10.160  1.6863 -0.6868 -0.9951
  152SAPE    C216840   0.760   5.573  10.226  0.0279 -0.2018  0.0610
  152SAPE    HS16841   0.824   5.572  10.317 -0.9598 -0.4674  0.7662
  152SAPE   O2116842   0.745   5.700  10.164 -0.3009  0.3017 -0.5252
  152SAPE   C2116843   0.849   5.780  10.170 -0.8756  0.5253  0.2245
  152SAPE   O2216844   0.959   5.750  10.217  0.0560  0.8244 -0.8052
  152SAPE   C2216845   0.825   5.913  10.106  0.2604  0.2900  0.1802
  152SAPE   H2R16846   0.730   5.955  10.145  1.3103  0.0565  3.3084
  152SAPE   H2S16847   0.900   5.988  10.140  0.8385  0.7400 -1.9208
  152SAPE    C316848   0.837   5.478  10.131 -0.0341  0.2605 -0.4110
  152SAPE    HX16849   0.948   5.487  10.143 -0.1922  0.8404  0.8313
  152SAPE    HY16850   0.802   5.497  10.028 -1.4771 -0.2314 -0.0252
  152SAPE   O3116851   0.813   5.343  10.172 -0.0971  0.3520  0.1564
  152SAPE   C3116852   0.815   5.249  10.079 -0.0730  0.3924 -0.0061
  152SAPE   O3216853   0.835   5.274   9.961  0.3566 -0.0681 -0.0057
  152SAPE   C3216854   0.816   5.106  10.137  0.3054 -0.3698  0.4876
  152SAPE   H2X16855   0.749   5.085  10.223 -1.7351  0.0926 -0.9321
  152SAPE   H2Y16856   0.912   5.089  10.192  0.7258 -0.6076 -0.3005
  152SAPE   C2316857   0.824   5.915   9.954  0.1965  0.0640  0.4108
  152SAPE   H3R16858   0.750   5.839   9.921  1.2087 -0.3839 -0.9538
  152SAPE   H3S16859   0.925   5.886   9.918 -0.8993 -1.8668 -1.3238
  152SAPE   C2416860   0.778   6.047   9.887  0.2620  0.5907 -0.1658
  152SAPE   H4R16861   0.681   6.080   9.930 -0.2901  0.5682 -1.3556
  152SAPE   H4S16862   0.745   6.015   9.786  2.2460 -3.7399  0.3256
  152SAPE   C2516863   0.876   6.159   9.863 -0.5322  0.1873  0.1314
  152SAPE   H5R16864   0.901   6.220   9.951 -2.6747  2.4215 -0.7262
  152SAPE   C2616865   0.919   6.199   9.741 -0.1854 -1.0938  0.3371
  152SAPE   H6R16866   0.989   6.284   9.745 -0.8914 -0.4753 -0.1996
  152SAPE   C2716867   0.882   6.149   9.607  0.2537 -0.0526  0.9118
  152SAPE   H7R16868   0.797   6.213   9.574 -0.4068  0.4014  3.3412
  152SAPE   H7S16869   0.847   6.044   9.605 -0.7843  0.2555 -1.3796
  152SAPE   C2816870   0.995   6.137   9.503  0.2344 -0.2132 -0.0209
  152SAPE   H8R16871   1.041   6.038   9.499  0.4933 -0.0467 -1.6526
  152SAPE   C2916872   1.033   6.229   9.416  0.4288 -0.2792 -0.3794
  152SAPE   H9R16873   1.130   6.220   9.366  2.4390  2.6753  2.6004
  152SAPE  C21016874   0.963   6.362   9.389 -0.5974  0.6178 -1.3891
  152SAPE  H10R16875   0.902   6.391   9.477 -0.5470 -1.7741 -0.5033
  152SAPE  H10S16876   0.891   6.338   9.308 -2.0995 -0.9962  0.3546
  152SAPE  C21116877   1.068   6.465   9.352 -0.1843 -0.0300 -0.0929
  152SAPE  H11R16878   1.134   6.512   9.426  1.2501  0.0387 -1.3619
  152SAPE  C21216879   1.095   6.513   9.225  0.2485 -0.1467 -0.4314
  152SAPE  H12R16880   1.186   6.574   9.217 -0.9988  2.5453  3.1911
  152SAPE  C21316881   1.036   6.461   9.096  0.1549  0.3422  1.1404
  152SAPE  H13R16882   1.078   6.516   9.010  1.2279 -0.7152  0.9586
  152SAPE  H13S16883   0.929   6.490   9.099 -1.2392 -3.7830 -0.8594
  152SAPE  C21416884   1.041   6.316   9.060 -0.3595 -0.0246  0.2738
  152SAPE  H14R16885   1.032   6.254   9.151  1.0041 -0.7769 -0.0753
  152SAPE  C21516886   1.071   6.257   8.946  0.3205 -0.0147 -0.2418
  152SAPE  H15R16887   1.075   6.147   8.940  0.6550  0.0394 -1.1676
  152SAPE  C21616888   1.111   6.333   8.819  0.3864 -0.7500 -0.2780
  152SAPE  H16R16889   1.222   6.336   8.816  0.5968 -2.6453  2.4137
  152SAPE  H16S16890   1.068   6.435   8.805  0.6256 -0.7927 -1.4249
  152SAPE  C21716891   1.066   6.259   8.686  0.1550 -0.5444 -0.1869
  152SAPE  H17R16892   0.958   6.240   8.698  0.2815 -1.5690 -0.5302
  152SAPE  H17S16893   1.107   6.158   8.664  0.7810 -0.4400  0.4671
  152SAPE  C21816894   1.069   6.356   8.573  0.0381  1.2427  0.4739
  152SAPE  H18R16895   1.131   6.442   8.605  1.8546  0.2567 -0.2568
  152SAPE  H18S16896   0.964   6.381   8.547 -0.7767 -1.2116  1.1247
  152SAPE  C21916897   1.127   6.296   8.442 -0.4494 -0.2386 -0.3131
  152SAPE  H19R16898   1.114   6.369   8.360  0.0409  0.8051  0.5215
  152SAPE  H19S16899   1.083   6.196   8.422  0.6484 -0.7841 -0.1172
  152SAPE  C22016900   1.285   6.280   8.451  0.5266 -0.3218  0.0598
  152SAPE  H20R16901   1.342   6.253   8.360  0.2943  1.1669 -0.5665
  152SAPE  H20S16902   1.294   6.191   8.516  1.5366 -1.2255 -1.2809
  152SAPE  H20T16903   1.337   6.369   8.493 -1.5191  1.4032 -0.8593
  152SAPE   C3316904   0.785   4.995  10.038  0.2237  0.2462 -0.2027
  152SAPE   H3X16905   0.843   5.004   9.943  0.0627 -0.0545 -0.3300
  152SAPE   H3Y16906   0.676   5.001  10.019  0.1149 -0.7556  0.0845
  152SAPE   C3416907   0.825   4.854  10.085 -0.3616 -0.1311  0.7218
  152SAPE   H4X16908   0.785   4.827  10.185 -0.0857 -1.0589  0.5887
  152SAPE   H4Y16909   0.934   4.852  10.107 -0.5549  1.9293  2.1492
  152SAPE   C3516910   0.784   4.735   9.989 -0.2598 -1.1877  0.0952
  152SAPE   H5X16911   0.673   4.732   9.991 -0.3826  0.5601 -1.4516
  152SAPE   H5Y16912   0.815   4.640  10.037 -1.4647 -1.5845  0.1210
  152SAPE   C3616913   0.844   4.746   9.849  0.4348 -0.8715  0.0382
  152SAPE   H6X16914   0.847   4.643   9.808 -0.0135 -0.5355 -0.8573
  152SAPE   H6Y16915   0.949   4.781   9.866  0.1590 -1.4574  3.8867
  152SAPE   C3716916   0.771   4.823   9.737  0.0354  0.4053 -0.1132
  152SAPE   H7X16917   0.678   4.869   9.779 -0.4153 -0.8412  0.3004
  152SAPE   H7Y16918   0.750   4.750   9.656 -0.2158  0.2623  0.0783
  152SAPE   C3816919   0.859   4.922   9.661 -0.6105 -0.2391  0.1620
  152SAPE   H8X16920   0.946   4.859   9.633 -0.9991 -0.9377  0.4895
  152SAPE   H8Y16921   0.894   4.996   9.736  0.6591 -0.5927 -0.0571
  152SAPE   C3916922   0.799   4.991   9.536 -0.2049  0.9095 -0.4744
  152SAPE   H9X16923   0.861   5.066   9.483  0.2408  2.0465  1.5498
  152SAPE   H9Y16924   0.701   5.041   9.551 -1.7483 -1.2808 -2.5090
  152SAPE  C31016925   0.774   4.880   9.435 -0.3029  0.3177  0.4843
  152SAPE  H10X16926   0.691   4.813   9.466  0.2672 -0.3375  0.6350
  152SAPE  H10Y16927   0.870   4.824   9.427  0.2936  1.3015  0.6248
  152SAPE  C31116928   0.753   4.938   9.297 -0.0070  0.4658  0.9389
  152SAPE  H11X16929   0.833   5.006   9.262 -0.5180  1.8792  2.3759
  152SAPE  H11Y16930   0.656   4.993   9.291 -0.1871  0.1600  1.0207
  152SAPE  C31216931   0.748   4.825   9.185  0.1527 -0.4096 -0.2484
  152SAPE  H12X16932   0.767   4.866   9.083  1.6592  1.9663  0.8874
  152SAPE  H12Y16933   0.648   4.779   9.191  1.0305 -2.2615  1.2470
  152SAPE  C31316934   0.855   4.709   9.201 -0.3953  0.6741  0.8281
  152SAPE  H13X16935   0.833   4.657   9.298  2.3928  0.6557  1.5312
  152SAPE  H13Y16936   0.959   4.746   9.214 -1.1102  2.0972  3.1719
  152SAPE  C31416937   0.826   4.611   9.089  0.0738 -0.6473  0.4275
  152SAPE  H14X16938   0.849   4.660   8.991  1.8789  1.1547  1.6582
  152SAPE  H14Y16939   0.718   4.589   9.086 -0.1237  0.2606 -2.4420
  152SAPE  C31516940   0.913   4.485   9.100 -0.1210 -0.0231 -0.4341
  152SAPE  H15X16941   0.861   4.418   9.028 -3.3049  1.3889  0.3881
  152SAPE  H15Y16942   0.901   4.442   9.202 -1.8980 -0.6488 -0.8778
  152SAPE  C31616943   1.064   4.506   9.067  0.0422 -0.1009  0.2927
  152SAPE  H16X16944   1.109   4.575   9.143  1.3249  1.3355 -1.6761
  152SAPE  H16Y16945   1.081   4.558   8.970 -0.4785 -1.2987 -0.4600
  152SAPE  C31716946   1.154   4.375   9.066  1.1314 -0.3922  0.1378
  152SAPE  H17X16947   1.086   4.309   9.006 -2.2897  0.2630  2.9441
  152SAPE  H17Y16948   1.150   4.330   9.167  1.7287 -2.4182 -0.6769
  152SAPE  C31816949   1.290   4.392   9.013  0.6099  0.1986  0.7076
  152SAPE  H18X16950   1.342   4.466   9.077 -0.0948  0.5328  0.9017
  152SAPE  H18Y16951   1.291   4.434   8.910 -1.6932 -0.4472  0.3690
  152SAPE  H18Z16952   1.342   4.295   9.006 -1.0050 -0.5776 -3.3045
  153SAPE     N16953   0.753   0.082  10.912 -0.0277 -0.4747  0.3003
  153SAPE   HN116954   0.682   0.078  10.835  2.0335 -0.4568 -1.7190
  153SAPE   HN216955   0.723   0.148  10.986 -0.3064  1.7838 -1.7145
  153SAPE   HN316956   0.842   0.123  10.878 -0.1817  0.6000  1.1787
  153SAPE   C1216957   0.766  -0.052  10.979 -0.5094  0.1509  0.2720
  153SAPE  H12A16958   0.663  -0.091  10.994 -0.3159 -0.2655  0.5476
  153SAPE  H12B16959   0.824  -0.035  11.072  1.3687 -1.2013 -0.5693
  153SAPE   C1116960   0.855  -0.149  10.897 -0.2660  0.3832  0.3462
  153SAPE  H11A16961   0.788  -0.194  10.821 -0.9531  1.0595  0.5409
  153SAPE  H11B16962   0.876  -0.225  10.975 -0.8963  0.9096  1.0406
  153SAPE     P16963   1.037  -0.108  10.713 -0.1659  0.1585 -0.2906
  153SAPE   O1316964   1.119   0.007  10.666 -0.0878  0.1565  0.0754
  153SAPE   O1416965   1.110  -0.239  10.727  0.2107  0.5419  0.3573
  153SAPE   O1216966   0.971  -0.079  10.855 -0.5414  0.2871  0.2637
  153SAPE   O1116967   0.912  -0.131  10.615 -0.4772  0.1877 -0.3514
  153SAPE    C116968   0.824  -0.023  10.576 -0.7313 -0.5572 -0.2320
  153SAPE    HA16969   0.733  -0.046  10.636 -0.9174 -3.2040 -1.3871
  153SAPE    HB16970   0.857   0.080  10.600 -3.7626  0.7445 -1.1708
  153SAPE    C216971   0.774  -0.026  10.429 -0.2098  0.0780  0.3538
  153SAPE    HS16972   0.742  -0.127  10.394  1.6290 -0.2298 -0.5734
  153SAPE   O2116973   0.879   0.023  10.340 -0.2088 -0.3133 -0.2307
  153SAPE   C2116974   0.937  -0.060  10.261 -0.3459 -0.4026  0.0509
  153SAPE   O2216975   0.907  -0.176  10.244  0.2228 -0.2039  0.3031
  153SAPE   C2216976   1.053   0.005  10.192 -0.0713  0.3203 -0.4373
  153SAPE   H2R16977   1.050   0.116  10.186 -1.3765  0.3246 -0.0480
  153SAPE   H2S16978   1.141  -0.035  10.246 -0.5892 -0.4611 -0.1489
  153SAPE    C316979   0.644   0.058  10.409 -0.0777  0.4688 -0.2049
  153SAPE    HX16980   0.674   0.162  10.437  1.7825 -0.4409  1.3692
  153SAPE    HY16981   0.575   0.009  10.481  3.2725 -0.0295  2.9530
  153SAPE   O3116982   0.600   0.050  10.273  0.6212  0.3731 -0.1730
  153SAPE   C3116983   0.491   0.115  10.238 -0.4209 -0.1956 -0.3528
  153SAPE   O3216984   0.421   0.177  10.319  0.3272 -0.0599  0.2778
  153SAPE   C3216985   0.478   0.107  10.085  0.4502 -0.0622  0.2725
  153SAPE   H2X16986   0.513   0.006  10.053 -0.8562 -1.0088  1.6929
  153SAPE   H2Y16987   0.546   0.184  10.042  0.3149 -0.0908  0.0059
  153SAPE   C2316988   1.057  -0.036  10.046 -0.0438  0.2067  0.3506
  153SAPE   H3R16989   1.086  -0.143  10.037 -0.8699 -0.1199  1.3358
  153SAPE   H3S16990   1.136   0.026   9.999 -0.8834 -0.0918 -1.5161
  153SAPE   C2416991   0.930  -0.025   9.965 -0.2542 -0.0526  0.0525
  153SAPE   H4R16992   0.851  -0.095   9.997 -0.3271  0.9116  2.1340
  153SAPE   H4S16993   0.966  -0.064   9.867 -1.0302  2.0645 -1.1492
  153SAPE   C2516994   0.872   0.120   9.965  0.1933 -0.0402  0.0189
  153SAPE   H5R16995   0.810   0.139  10.053  0.9240  0.2868  0.4782
  153SAPE   C2616996   0.866   0.213   9.870  0.0162  0.1615 -0.3705
  153SAPE   H6R16997   0.812   0.304   9.900  1.4100 -0.1310  3.7273
  153SAPE   C2716998   0.916   0.214   9.727 -0.0193  0.5635 -0.0698
  153SAPE   H7R16999   0.963   0.116   9.705 -1.3734 -0.5104  1.5323
  153SAPE   H7S17000   0.990   0.297   9.719  0.8289 -0.2233 -0.5614
  153SAPE   C2817001   0.806   0.240   9.625 -0.6135  0.5175  0.2936
  153SAPE   H8R17002   0.705   0.220   9.663 -1.1157  1.1668 -0.6623
  153SAPE   C2917003   0.836   0.264   9.497 -0.1955  0.0200 -0.0448
  153SAPE   H9R17004   0.753   0.288   9.429 -0.7421  1.0284  0.9580
  153SAPE  C21017005   0.971   0.288   9.440 -0.2867  0.4090  0.5340
  153SAPE  H10R17006   1.031   0.196   9.456  0.9804  1.1620  0.2014
  153SAPE  H10S17007   1.020   0.370   9.495 -0.0244 -0.2004  1.2191
  153SAPE  C21117008   0.969   0.329   9.288 -0.5530  0.7037  0.1313
  153SAPE  H11R17009   0.981   0.436   9.268  0.9570  1.0241  2.3778
  153SAPE  C21217010   0.958   0.234   9.193  0.6838  0.4625  0.3061
  153SAPE  H12R17011   0.964   0.284   9.095  1.2357 -0.7688 -0.3171
  153SAPE  C21317012   0.948   0.087   9.203 -0.5900 -0.4855 -0.0435
  153SAPE  H13R17013   0.926   0.048   9.305 -1.1671 -1.7084 -0.6135
  153SAPE  H13S17014   1.047   0.049   9.173  0.4880 -1.1785  3.8494
  153SAPE  C21417015   0.842   0.032   9.116 -0.3701  0.3105 -0.3745
  153SAPE  H14R17016   0.753   0.000   9.172  0.4845 -1.1798  0.1805
  153SAPE  C21517017   0.847   0.017   8.984 -0.3959 -0.5252 -0.5696
  153SAPE  H15R17018   0.760  -0.024   8.931 -0.1853  0.7164 -1.9488
  153SAPE  C21617019   0.964   0.050   8.894 -0.4151  0.1916  0.0391
  153SAPE  H16R17020   1.055   0.027   8.953 -0.3593  0.4491  0.0562
  153SAPE  H16S17021   0.980   0.158   8.873  0.4952  0.9205  3.8019
  153SAPE  C21717022   0.959  -0.034   8.765  0.4930 -0.4053 -0.1187
  153SAPE  H17R17023   0.934  -0.137   8.797 -1.3819  0.7930  2.7329
  153SAPE  H17S17024   1.058  -0.026   8.715  0.3399  1.1872 -0.2179
  153SAPE  C21817025   0.859   0.014   8.660  0.1834  0.9472  0.9203
  153SAPE  H18R17026   0.906   0.105   8.617  0.0089  0.6600  0.1044
  153SAPE  H18S17027   0.762   0.048   8.701 -2.2973 -2.0024 -1.9171
  153SAPE  C21917028   0.826  -0.083   8.539  1.0011  0.0539 -0.2677
  153SAPE  H19R17029   0.798  -0.179   8.589 -1.9170  0.5067 -0.8323
  153SAPE  H19S17030   0.905  -0.094   8.462 -0.4406 -1.5503 -1.5926
  153SAPE  C22017031   0.708  -0.029   8.457  0.4288 -0.1378 -0.9874
  153SAPE  H20R17032   0.735  -0.011   8.351  1.4842  1.4816 -0.4946
  153SAPE  H20S17033   0.669   0.069   8.494 -2.7498 -0.9366 -1.9171
  153SAPE  H20T17034   0.625  -0.101   8.474 -0.4173  1.3560  1.8564
  153SAPE   C3317035   0.339   0.131  10.036  0.5480 -0.6017  0.1912
  153SAPE   H3X17036   0.308   0.237  10.051 -0.3026 -0.4461 -2.2299
  153SAPE   H3Y17037   0.267   0.070  10.094  0.7565 -0.4693  0.5913
  153SAPE   C3417038   0.315   0.107   9.878 -0.8439 -0.0740 -0.1262
  153SAPE   H4X17039   0.215   0.151   9.856 -0.5253  0.6841 -0.0956
  153SAPE   H4Y17040   0.319   0.000   9.848 -3.2641 -0.8801  2.0206
  153SAPE   C3517041   0.409   0.193   9.792 -1.0560 -0.1030 -0.0163
  153SAPE   H5X17042   0.510   0.148   9.790 -0.6364  0.8676 -1.5479
  153SAPE   H5Y17043   0.406   0.290   9.847 -2.2925 -0.6308  0.9123
  153SAPE   C3617044   0.370   0.213   9.645 -0.1417 -0.0439 -0.0281
  153SAPE   H6X17045   0.446   0.271   9.588 -1.4188  0.5054 -1.2115
  153SAPE   H6Y17046   0.276   0.271   9.636  1.7311  3.2876  0.3838
  153SAPE   C3717047   0.363   0.078   9.564  0.1013 -0.1229 -0.0570
  153SAPE   H7X17048   0.283   0.017   9.611 -1.2319  1.8690  0.3923
  153SAPE   H7Y17049   0.458   0.026   9.587  0.9417  1.6487  0.6628
  153SAPE   C3817050   0.336   0.094   9.410 -0.8270 -0.0066 -0.1612
  153SAPE   H8X17051   0.234   0.134   9.395 -0.6555  0.1284 -1.0174
  153SAPE   H8Y17052   0.327  -0.014   9.382  0.4398 -0.7207  1.9491
  153SAPE   C3917053   0.440   0.175   9.332  0.1819  0.6134 -0.3519
  153SAPE   H9X17054   0.537   0.132   9.364 -0.0675  0.6767  0.5028
  153SAPE   H9Y17055   0.443   0.282   9.362 -0.9258  1.0697 -1.7659
  153SAPE  C31017056   0.430   0.164   9.182  0.0474 -0.3751 -0.3178
  153SAPE  H10X17057   0.334   0.211   9.149  1.1462  0.4546 -2.5718
  153SAPE  H10Y17058   0.429   0.056   9.156  1.7235 -0.7285  0.9441
  153SAPE  C31117059   0.544   0.241   9.113  0.3089  0.0712  1.0506
  153SAPE  H11X17060   0.548   0.205   9.008  0.7918 -1.3954  1.5406
  153SAPE  H11Y17061   0.632   0.201   9.168  1.3795 -1.1217 -1.3768
  153SAPE  C31217062   0.534   0.396   9.113 -0.5401 -0.0572 -1.0470
  153SAPE  H12X17063   0.547   0.435   9.216 -1.3749 -1.6160 -0.3133
  153SAPE  H12Y17064   0.427   0.417   9.095 -1.1056 -0.5012  1.4542
  153SAPE  C31317065   0.630   0.463   9.017 -0.4786  0.5624  0.5300
  153SAPE  H13X17066   0.616   0.430   8.912 -1.9618 -0.3157  0.9840
  153SAPE  H13Y17067   0.733   0.436   9.050 -0.7928 -1.4216  0.0271
  153SAPE  C31417068   0.618   0.615   9.020  0.2683 -0.0015 -0.3252
  153SAPE  H14X17069   0.653   0.641   9.123 -2.0237 -2.8052  1.3449
  153SAPE  H14Y17070   0.513   0.650   9.009  0.5051  0.7486 -0.2417
  153SAPE  C31517071   0.714   0.680   8.924  0.3394  0.0712  0.3990
  153SAPE  H15X17072   0.689   0.654   8.819  2.3387 -0.0988 -0.0805
  153SAPE  H15Y17073   0.819   0.650   8.946 -0.3820 -1.4940  1.9627
  153SAPE  C31617074   0.696   0.831   8.925  0.4063 -1.0038 -0.5841
  153SAPE  H16X17075   0.725   0.857   9.029 -0.4696 -1.2323 -0.2726
  153SAPE  H16Y17076   0.588   0.854   8.911 -0.0297 -2.4480  0.2433
  153SAPE  C31717077   0.775   0.921   8.829  0.0875 -0.2540 -0.4010
  153SAPE  H17X17078   0.743   0.883   8.729  1.8447  0.2265 -1.1941
  153SAPE  H17Y17079   0.886   0.920   8.830  0.1425 -1.6388 -1.8449
  153SAPE  C31817080   0.725   1.071   8.830  0.5295 -0.1532  0.9135
  153SAPE  H18X17081   0.746   1.110   8.931 -0.4421  1.5092  0.5098
  153SAPE  H18Y17082   0.616   1.068   8.807  0.4914 -1.6208  1.2287
  153SAPE  H18Z17083   0.777   1.136   8.756  0.0655  0.3357  1.0125
  154SAPE     N17084   2.270   0.906  10.865 -0.4418  0.3921 -0.4586
  154SAPE   HN117085   2.236   0.987  10.920 -0.9987  0.0549 -0.2958
  154SAPE   HN217086   2.338   0.936  10.793  0.5524  0.8149  0.6160
  154SAPE   HN317087   2.186   0.860  10.825 -2.3688  3.0088  0.3279
  154SAPE   C1217088   2.328   0.808  10.962 -0.9857 -0.9318 -0.0061
  154SAPE  H12A17089   2.262   0.798  11.050 -0.6834 -0.0005  0.3393
  154SAPE  H12B17090   2.426   0.850  10.994 -0.9495  0.5108 -1.8139
  154SAPE   C1117091   2.347   0.681  10.880  0.2848 -0.1205 -0.4984
  154SAPE  H11A17092   2.397   0.619  10.957  1.6285  1.2210 -0.2271
  154SAPE  H11B17093   2.417   0.692  10.794  0.7582  0.8050 -0.0097
  154SAPE     P17094   2.146   0.511  10.888 -0.3669  0.4320  0.1574
  154SAPE   O1317095   2.162   0.504  11.038 -0.4630  0.5561 -0.2956
  154SAPE   O1417096   2.006   0.529  10.838 -0.7410  0.9391  0.1958
  154SAPE   O1217097   2.226   0.632  10.831 -0.0945  0.2965  0.0477
  154SAPE   O1117098   2.216   0.385  10.821 -0.1227 -0.7580  0.1612
  154SAPE    C117099   2.299   0.395  10.702 -0.0164  0.1422  0.1216
  154SAPE    HA17100   2.365   0.484  10.695  0.9418 -0.1722  3.3790
  154SAPE    HB17101   2.384   0.323  10.705  0.9421  1.2763  0.6719
  154SAPE    C217102   2.226   0.347  10.577 -0.2214 -0.2951  0.6579
  154SAPE    HS17103   2.291   0.337  10.488  2.1285  1.9007  1.9932
  154SAPE   O2117104   2.119   0.439  10.542  0.4897 -0.2304 -0.9803
  154SAPE   C2117105   2.169   0.554  10.508 -0.7248  0.0620  0.5115
  154SAPE   O2217106   2.286   0.570  10.481  0.2064  0.3081  0.3663
  154SAPE   C2217107   2.062   0.653  10.501 -0.6406 -0.0289  0.6184
  154SAPE   H2R17108   2.003   0.637  10.408 -0.2876 -0.9892  0.5487
  154SAPE   H2S17109   1.986   0.635  10.580 -0.9023 -1.6645  0.0425
  154SAPE    C317110   2.164   0.202  10.595  0.0195 -0.5604 -1.0115
  154SAPE    HX17111   2.082   0.200  10.670 -0.0203  0.0530 -1.0325
  154SAPE    HY17112   2.248   0.146  10.643  0.5385  0.4568 -0.6993
  154SAPE   O3117113   2.109   0.154  10.466 -0.2832 -0.4713  0.1630
  154SAPE   C3117114   2.198   0.114  10.379 -0.1691 -0.8264 -0.0408
  154SAPE   O3217115   2.322   0.124  10.390  0.2075 -0.3386  0.2480
  154SAPE   C3217116   2.114   0.090  10.249 -0.0717 -0.7735  0.1625
  154SAPE   H2X17117   2.062   0.187  10.236  0.3253 -0.4745  0.7848
  154SAPE   H2Y17118   2.044   0.013  10.288 -0.4191  0.0668  1.2448
  154SAPE   C2317119   2.114   0.795  10.504 -0.1103  0.0692 -0.0968
  154SAPE   H3R17120   2.223   0.813  10.519  0.2693 -2.7373  1.0222
  154SAPE   H3S17121   2.064   0.838  10.593 -0.0501 -0.3501  0.1423
  154SAPE   C2417122   2.073   0.879  10.382  0.3589 -0.2769 -0.2195
  154SAPE   H4R17123   2.093   0.987  10.396 -2.7482  0.2363  1.0884
  154SAPE   H4S17124   1.962   0.887  10.377  0.2867 -1.1827 -0.3025
  154SAPE   C2517125   2.134   0.805  10.261  0.4871  0.0126 -0.0468
  154SAPE   H5R17126   2.243   0.789  10.264  0.8445  2.2373  2.2436
  154SAPE   C2617127   2.058   0.765  10.153  0.1288 -0.8983  0.1946
  154SAPE   H6R17128   2.110   0.710  10.074 -0.0148 -3.1522  1.5826
  154SAPE   C2717129   1.907   0.785  10.132  0.0638  0.3789 -0.2180
  154SAPE   H7R17130   1.895   0.823  10.029  0.0514  0.5470 -0.1544
  154SAPE   H7S17131   1.864   0.868  10.194 -1.3634  0.6648 -1.5348
  154SAPE   C2817132   1.813   0.664  10.148  0.1563 -1.2407 -0.2128
  154SAPE   H8R17133   1.786   0.638  10.251 -0.3956 -2.0591 -0.5538
  154SAPE   C2917134   1.743   0.598  10.049 -0.2483 -0.5485 -0.3221
  154SAPE   H9R17135   1.675   0.517  10.079 -0.4171  0.6528  2.9399
  154SAPE  C21017136   1.755   0.624   9.898  0.6517  0.3018 -0.0201
  154SAPE  H10R17137   1.792   0.532   9.846  0.4553 -0.7120  1.5778
  154SAPE  H10S17138   1.829   0.701   9.869 -1.4929  2.4646 -0.0361
  154SAPE  C21117139   1.616   0.665   9.845  0.1281  0.5022  0.0655
  154SAPE  H11R17140   1.533   0.652   9.916 -1.4458  2.3929 -1.2906
  154SAPE  C21217141   1.584   0.722   9.724  0.4779 -0.3575  0.1093
  154SAPE  H12R17142   1.478   0.750   9.716  0.0999 -1.4519  1.0125
  154SAPE  C21317143   1.678   0.756   9.608 -0.5161  0.8593 -0.3349
  154SAPE  H13R17144   1.776   0.783   9.653 -0.6503 -0.8951  1.1403
  154SAPE  H13S17145   1.653   0.848   9.550 -2.0135  1.0720  0.5796
  154SAPE  C21417146   1.687   0.635   9.524 -0.1152  0.0426 -0.9110
  154SAPE  H14R17147   1.671   0.536   9.568  1.5135  0.1578  0.0027
  154SAPE  C21517148   1.701   0.629   9.394  0.1831 -0.0263  0.4531
  154SAPE  H15R17149   1.689   0.534   9.341  0.1135 -0.1753  0.7382
  154SAPE  C21617150   1.717   0.752   9.306 -0.6875  0.1764  0.2369
  154SAPE  H16R17151   1.814   0.726   9.258 -1.6531 -2.1162 -0.6524
  154SAPE  H16S17152   1.726   0.850   9.357 -0.7463  0.5072 -0.3837
  154SAPE  C21717153   1.609   0.750   9.196 -0.1812 -0.5469  0.5444
  154SAPE  H17R17154   1.518   0.777   9.253 -1.2549  1.8702 -2.0647
  154SAPE  H17S17155   1.593   0.653   9.145  1.6092 -1.7020  2.0385
  154SAPE  C21817156   1.635   0.873   9.097  0.2417 -0.1692 -0.6581
  154SAPE  H18R17157   1.731   0.862   9.042 -0.7305  0.7239 -2.6414
  154SAPE  H18S17158   1.645   0.963   9.161  1.0922 -0.3387 -0.5418
  154SAPE  C21917159   1.530   0.893   8.985  0.1163  0.3071  0.9082
  154SAPE  H19R17160   1.429   0.923   9.022 -0.3498 -0.2949  0.1381
  154SAPE  H19S17161   1.506   0.798   8.933  1.0509  0.3689  0.3469
  154SAPE  C22017162   1.564   0.995   8.872  0.2872 -0.4439 -0.0015
  154SAPE  H20R17163   1.552   1.097   8.914  2.2092 -0.5249  0.8712
  154SAPE  H20S17164   1.503   0.981   8.780 -1.5751  0.9628  0.9590
  154SAPE  H20T17165   1.672   0.987   8.845  0.1637 -1.8540 -0.1654
  154SAPE   C3317166   2.190   0.034  10.122 -0.0693 -0.4587  0.5589
  154SAPE   H3X17167   2.280   0.096  10.103  1.0339 -2.3010 -0.4442
  154SAPE   H3Y17168   2.125   0.034  10.032 -1.7442 -1.3166  1.6957
  154SAPE   C3417169   2.233  -0.108  10.150 -0.1955  0.3062  0.3162
  154SAPE   H4X17170   2.152  -0.184  10.147  1.2661 -1.2556 -1.2634
  154SAPE   H4Y17171   2.298  -0.121  10.239  1.0694  1.1023 -0.4747
  154SAPE   C3517172   2.328  -0.165  10.037 -0.2928  0.1988 -0.2865
  154SAPE   H5X17173   2.360  -0.267  10.066  0.1345  0.5637  0.5842
  154SAPE   H5Y17174   2.411  -0.091  10.049 -1.6849  2.0139 -1.3537
  154SAPE   C3617175   2.270  -0.168   9.892  0.4561  0.3606 -0.3352
  154SAPE   H6X17176   2.252  -0.061   9.870 -1.9910 -0.4035 -2.5716
  154SAPE   H6Y17177   2.174  -0.223   9.893  1.1248 -0.8710 -0.7298
  154SAPE   C3717178   2.363  -0.222   9.789  0.0785 -1.1816 -0.8453
  154SAPE   H7X17179   2.356  -0.332   9.773  0.7839 -1.0224 -2.4568
  154SAPE   H7Y17180   2.467  -0.195   9.818 -0.7809  3.4425 -1.4157
  154SAPE   C3817181   2.346  -0.143   9.653 -0.2808 -0.6986  0.2868
  154SAPE   H8X17182   2.324  -0.039   9.685 -1.0190 -0.7459 -0.0520
  154SAPE   H8Y17183   2.266  -0.183   9.587 -0.2292  0.7832 -0.7260
  154SAPE   C3917184   2.471  -0.148   9.574 -0.4505 -0.0726 -0.1282
  154SAPE   H9X17185   2.513  -0.251   9.576 -1.5843 -0.5472 -0.0021
  154SAPE   H9Y17186   2.551  -0.083   9.616  1.2706 -1.8581 -0.4536
  154SAPE  C31017187   2.454  -0.094   9.432  0.5100  0.0741 -0.8187
  154SAPE  H10X17188   2.554  -0.085   9.385  1.1922  0.5751  0.6599
  154SAPE  H10Y17189   2.424   0.013   9.430  2.2860  0.6587  0.9551
  154SAPE  C31117190   2.374  -0.191   9.345  0.2121 -0.1201  0.0807
  154SAPE  H11X17191   2.268  -0.196   9.378 -0.2344 -0.2154 -1.3010
  154SAPE  H11Y17192   2.416  -0.293   9.356 -0.1012 -0.6973 -3.1173
  154SAPE  C31217193   2.386  -0.150   9.190 -0.2587  0.3841 -0.0618
  154SAPE  H12X17194   2.494  -0.134   9.170  0.0426 -0.9099  0.4307
  154SAPE  H12Y17195   2.339  -0.050   9.180  0.4491  0.7670  0.3552
  154SAPE  C31317196   2.339  -0.247   9.087  0.1850 -0.0830  0.3209
  154SAPE  H13X17197   2.234  -0.276   9.110 -0.2848  0.1126 -1.4083
  154SAPE  H13Y17198   2.395  -0.343   9.089 -0.5181 -0.5186  3.6962
  154SAPE  C31417199   2.341  -0.186   8.946 -0.1487  0.0948  0.0130
  154SAPE  H14X17200   2.440  -0.172   8.898 -1.0059 -1.5101 -2.3670
  154SAPE  H14Y17201   2.276  -0.096   8.958 -0.9907 -0.7542  2.6348
  154SAPE  C31517202   2.270  -0.288   8.844  0.2785  0.3831  0.8049
  154SAPE  H15X17203   2.164  -0.291   8.879  0.6899 -1.1006  2.0456
  154SAPE  H15Y17204   2.314  -0.389   8.863 -0.2977 -0.1976 -0.7585
  154SAPE  C31617205   2.281  -0.257   8.693  0.5420  0.1340  0.2428
  154SAPE  H16X17206   2.386  -0.228   8.673  0.4900 -0.3604 -0.8238
  154SAPE  H16Y17207   2.222  -0.166   8.667 -0.6164 -0.7914 -0.4677
  154SAPE  C31717208   2.238  -0.370   8.599  0.5122  0.2700  0.0780
  154SAPE  H17X17209   2.297  -0.459   8.631  0.6550  0.2831 -0.1490
  154SAPE  H17Y17210   2.262  -0.347   8.493  0.4421 -3.3799 -0.8620
  154SAPE  C31817211   2.093  -0.406   8.606  0.0789 -0.1158  0.2773
  154SAPE  H18X17212   2.066  -0.403   8.714 -1.0459  2.2120 -0.0041
  154SAPE  H18Y17213   2.090  -0.513   8.578  2.5294 -0.5731  1.5547
  154SAPE  H18Z17214   2.019  -0.349   8.546 -0.6111  0.6073  1.7421
  155SAPE     N17215   2.577   3.585  10.737 -0.3559 -0.3122  0.4279
  155SAPE   HN117216   2.635   3.579  10.823 -0.2473 -0.0845  0.3702
  155SAPE   HN217217   2.639   3.643  10.677 -0.4732  2.1024  2.4963
  155SAPE   HN317218   2.488   3.635  10.756 -1.4455 -1.2782 -1.6851
  155SAPE   C1217219   2.532   3.449  10.685  0.1361  0.0082  0.2127
  155SAPE  H12A17220   2.474   3.465  10.592  0.1098 -0.5271  0.1303
  155SAPE  H12B17221   2.475   3.396  10.765  0.4685  0.3833  0.7025
  155SAPE   C1117222   2.647   3.356  10.637 -0.7450  0.4360 -0.5164
  155SAPE  H11A17223   2.710   3.325  10.724 -1.2373  1.4919  0.2445
  155SAPE  H11B17224   2.707   3.416  10.566 -0.1187 -0.3954 -0.7042
  155SAPE     P17225   2.560   3.106  10.641  0.0273 -0.2165 -0.4490
  155SAPE   O1317226   2.654   3.008  10.584 -0.5433 -0.1694 -0.3982
  155SAPE   O1417227   2.564   3.125  10.784  0.2940  0.0963 -0.4415
  155SAPE   O1217228   2.586   3.244  10.567  0.3133 -0.6510 -0.1151
  155SAPE   O1117229   2.410   3.068  10.600  0.5555  0.1620 -0.4326
  155SAPE    C117230   2.326   3.161  10.538  0.0448 -0.3097 -0.0047
  155SAPE    HA17231   2.231   3.151  10.594 -1.2227 -1.2188 -2.1928
  155SAPE    HB17232   2.359   3.265  10.562  1.2509 -0.6681 -0.0601
  155SAPE    C217233   2.301   3.145  10.383  0.1338  0.3023 -0.0274
  155SAPE    HS17234   2.236   3.057  10.367 -0.3396 -0.1694  3.5859
  155SAPE   O2117235   2.434   3.132  10.314  0.6756 -0.2889  0.1461
  155SAPE   C2117236   2.483   3.014  10.299  0.2436  0.1713  0.0297
  155SAPE   O2217237   2.431   2.914  10.339  0.1537 -0.5019  0.0372
  155SAPE   C2217238   2.613   3.025  10.218 -0.8376 -0.4429 -0.1346
  155SAPE   H2R17239   2.631   3.130  10.184  1.1004 -0.1995  1.5233
  155SAPE   H2S17240   2.692   3.026  10.296  1.3625  0.5024 -2.2308
  155SAPE    C317241   2.222   3.273  10.326  0.4292 -0.8576  0.6893
  155SAPE    HX17242   2.289   3.361  10.320  1.0591 -1.4214 -1.2350
  155SAPE    HY17243   2.138   3.302  10.393  0.2143 -0.2110  0.1493
  155SAPE   O3117244   2.176   3.253  10.186 -0.2978 -0.3457 -0.1841
  155SAPE   C3117245   2.048   3.215  10.181  0.2380 -0.1953 -0.0769
  155SAPE   O3217246   1.987   3.182  10.280  0.0838  0.0759  0.4930
  155SAPE   C3217247   1.998   3.204  10.031 -0.5310  0.2623 -0.4580
  155SAPE   H2X17248   1.919   3.281  10.017  0.0227  1.3722  1.8567
  155SAPE   H2Y17249   1.959   3.102  10.013  0.9309  0.2078 -4.2310
  155SAPE   C2317250   2.632   2.917  10.102  0.5432 -0.1663  0.0284
  155SAPE   H3R17251   2.653   2.825  10.160  2.7737  0.9427  1.1124
  155SAPE   H3S17252   2.723   2.950  10.048 -0.7452 -1.4769 -3.1777
  155SAPE   C2417253   2.529   2.912   9.991  0.5930  0.2857  0.6652
  155SAPE   H4R17254   2.424   2.909  10.027  0.3624 -3.7356  0.1207
  155SAPE   H4S17255   2.546   2.819   9.932 -1.7109  0.8668 -1.0655
  155SAPE   C2517256   2.536   3.042   9.915 -0.0518  1.0505 -0.1119
  155SAPE   H5R17257   2.518   3.132   9.976  0.7655  1.2826 -0.2020
  155SAPE   C2617258   2.570   3.057   9.787  0.9057  0.1444  0.4512
  155SAPE   H6R17259   2.572   3.162   9.754 -0.7562  0.0738  0.0607
  155SAPE   C2717260   2.606   2.951   9.692 -0.4700  0.7613  0.4243
  155SAPE   H7R17261   2.630   2.996   9.594  1.7829  2.1961  1.5607
  155SAPE   H7S17262   2.521   2.879   9.686 -0.2606  0.4670  0.8851
  155SAPE   C2817263   2.726   2.866   9.719  0.2949 -0.0261 -0.6066
  155SAPE   H8R17264   2.785   2.890   9.808  0.4619 -0.4863 -0.5860
  155SAPE   C2917265   2.780   2.767   9.642  0.5327 -0.3973  0.5592
  155SAPE   H9R17266   2.861   2.703   9.681 -1.1231 -1.6460  2.1441
  155SAPE  C21017267   2.718   2.719   9.516  0.4875 -0.5442  0.1144
  155SAPE  H10R17268   2.701   2.813   9.458  0.8030 -0.6226 -0.1119
  155SAPE  H10S17269   2.622   2.672   9.545  0.5484  0.1708  1.5592
  155SAPE  C21117270   2.794   2.618   9.437 -0.2469 -0.0851 -0.1925
  155SAPE  H11R17271   2.886   2.575   9.479 -0.0094 -0.1163 -0.7423
  155SAPE  C21217272   2.739   2.563   9.328  0.1110 -0.6124  0.1332
  155SAPE  H12R17273   2.786   2.473   9.286  0.9713 -0.2677  0.3320
  155SAPE  C21317274   2.601   2.599   9.264 -0.6227 -0.0230  0.5744
  155SAPE  H13R17275   2.636   2.650   9.172  0.5356 -1.5491  0.1394
  155SAPE  H13S17276   2.550   2.676   9.326  2.7601  2.9661 -0.0234
  155SAPE  C21417277   2.510   2.488   9.215  0.2759  0.1057  0.7092
  155SAPE  H14R17278   2.517   2.485   9.105  3.1600 -2.1236  0.8599
  155SAPE  C21517279   2.422   2.411   9.282 -0.8082 -0.2401 -0.2924
  155SAPE  H15R17280   2.374   2.332   9.223  0.3770 -1.2894  0.0955
  155SAPE  C21617281   2.397   2.415   9.431  0.4099 -0.2569 -0.2854
  155SAPE  H16R17282   2.294   2.385   9.456 -0.7237  2.0168 -1.8569
  155SAPE  H16S17283   2.408   2.520   9.465 -1.0696  0.1292 -0.9133
  155SAPE  C21717284   2.504   2.325   9.497  0.4172  0.2409  0.4222
  155SAPE  H17R17285   2.603   2.356   9.457 -0.4623  0.8480 -1.3881
  155SAPE  H17S17286   2.489   2.223   9.457 -1.1634  1.3120 -1.9318
  155SAPE  C21817287   2.510   2.321   9.648 -0.6740 -0.6088  0.0659
  155SAPE  H18R17288   2.608   2.274   9.670  0.1008  1.3332  1.0678
  155SAPE  H18S17289   2.443   2.245   9.694  1.8154 -2.2544  1.1829
  155SAPE  C21917290   2.511   2.453   9.721 -0.2934 -0.5625 -0.3287
  155SAPE  H19R17291   2.415   2.507   9.701  1.0126  1.9913 -0.1916
  155SAPE  H19S17292   2.578   2.508   9.650 -1.2521 -0.0211 -0.8469
  155SAPE  C22017293   2.560   2.452   9.870  0.3498 -0.3723  0.4075
  155SAPE  H20R17294   2.548   2.556   9.907  1.8097  0.1791 -0.5878
  155SAPE  H20S17295   2.670   2.436   9.867  0.2028 -1.5098 -2.4276
  155SAPE  H20T17296   2.503   2.372   9.921 -1.2246  0.2341 -0.3372
  155SAPE   C3317297   2.121   3.223   9.938  0.9508  0.8962 -0.1083
  155SAPE   H3X17298   2.208   3.162   9.968  1.2433  0.8796 -0.9582
  155SAPE   H3Y17299   2.154   3.329   9.929  1.2179  0.7739 -0.6240
  155SAPE   C3417300   2.075   3.172   9.800 -1.1259 -0.1787  0.1235
  155SAPE   H4X17301   1.997   3.245   9.769 -0.2226  0.5570 -0.4874
  155SAPE   H4Y17302   2.039   3.067   9.794  1.3810 -1.0231 -1.6708
  155SAPE   C3517303   2.198   3.208   9.706 -0.0877  0.3306  0.0560
  155SAPE   H5X17304   2.285   3.147   9.740 -1.1825 -2.0168 -1.1172
  155SAPE   H5Y17305   2.219   3.317   9.711 -1.6353  0.5984  2.5754
  155SAPE   C3617306   2.171   3.173   9.558 -0.7895 -0.2433 -0.7888
  155SAPE   H6X17307   2.097   3.241   9.510 -1.0442  0.0171 -0.0347
  155SAPE   H6Y17308   2.143   3.066   9.567  3.4667 -1.4937 -0.2878
  155SAPE   C3717309   2.297   3.178   9.469  0.0905 -0.2104  0.0583
  155SAPE   H7X17310   2.258   3.157   9.367 -0.1499 -2.6338  0.5931
  155SAPE   H7Y17311   2.365   3.097   9.504 -0.6817 -1.9057 -2.1242
  155SAPE   C3817312   2.364   3.320   9.473 -0.2350 -0.1843  0.4877
  155SAPE   H8X17313   2.383   3.358   9.576  0.1251  1.2233 -0.0695
  155SAPE   H8Y17314   2.289   3.393   9.435  0.2880 -0.3832 -0.9849
  155SAPE   C3917315   2.505   3.322   9.389  0.2964 -0.1129 -0.1862
  155SAPE   H9X17316   2.538   3.427   9.374  0.3058  0.0245  0.7481
  155SAPE   H9Y17317   2.488   3.292   9.283 -1.7804  0.2032  0.0054
  155SAPE  C31017318   2.609   3.228   9.445 -0.5755 -0.4620 -0.0628
  155SAPE  H10X17319   2.571   3.124   9.442  1.9959 -1.4717 -0.4718
  155SAPE  H10Y17320   2.627   3.255   9.551  0.9357 -1.9985  0.1217
  155SAPE  C31117321   2.747   3.226   9.370 -0.4138 -0.4633  0.3218
  155SAPE  H11X17322   2.800   3.323   9.375 -0.1506 -0.6144  0.4979
  155SAPE  H11Y17323   2.732   3.217   9.260  0.9746 -1.2830  0.1770
  155SAPE  C31217324   2.838   3.115   9.424  0.1750 -0.3936 -0.0649
  155SAPE  H12X17325   2.777   3.022   9.424 -0.4549 -0.0390  2.3879
  155SAPE  H12Y17326   2.869   3.138   9.528 -2.5052  2.3680  0.3016
  155SAPE  C31317327   2.956   3.078   9.334  0.5068 -0.0261 -0.1158
  155SAPE  H13X17328   3.010   3.169   9.300 -2.4585  1.0239 -2.4986
  155SAPE  H13Y17329   2.924   3.024   9.242  2.0472 -1.6442  0.2277
  155SAPE  C31417330   3.051   2.977   9.389 -0.2795  0.6906  0.4512
  155SAPE  H14X17331   3.004   2.894   9.447  0.3198 -0.3196 -0.4814
  155SAPE  H14Y17332   3.101   3.030   9.473  0.4467 -2.7053  2.3650
  155SAPE  C31517333   3.157   2.925   9.288 -0.4648  0.0348  0.4619
  155SAPE  H15X17334   3.233   2.869   9.346 -1.6014 -3.6120 -1.2491
  155SAPE  H15Y17335   3.200   3.005   9.224  0.1921 -0.0523  0.7858
  155SAPE  C31617336   3.092   2.826   9.186 -0.3364 -0.1705  0.6388
  155SAPE  H16X17337   3.036   2.893   9.117  2.7766  0.7952 -1.1274
  155SAPE  H16Y17338   3.016   2.761   9.236 -1.6165  0.9712  0.2531
  155SAPE  C31717339   3.205   2.747   9.109  0.0660 -0.5165 -0.6679
  155SAPE  H17X17340   3.258   2.693   9.190  1.0576  0.9751 -0.2926
  155SAPE  H17Y17341   3.274   2.822   9.066 -3.8390  2.7351 -1.8950
  155SAPE  C31817342   3.158   2.641   9.011  0.4289 -0.3184  0.0162
  155SAPE  H18X17343   3.096   2.561   9.057 -3.5074  2.2361 -0.3868
  155SAPE  H18Y17344   3.249   2.613   8.954  1.9561  4.0141 -0.0416
  155SAPE  H18Z17345   3.101   2.703   8.938  1.1110 -0.0211 -0.2653
  156SAPE     N17346   1.122   2.772  10.674 -0.3944 -0.4040 -0.3888
  156SAPE   HN117347   1.124   2.685  10.731 -1.1083 -1.7123 -2.2602
  156SAPE   HN217348   1.219   2.810  10.677 -0.7276  0.4060  1.2886
  156SAPE   HN317349   1.067   2.846  10.723  0.1758 -0.1351 -0.1444
  156SAPE   C1217350   1.061   2.763  10.535  0.2282 -0.1437  0.1941
  156SAPE  H12A17351   1.129   2.688  10.489  0.6396 -0.2161  0.9035
  156SAPE  H12B17352   1.065   2.858  10.478 -2.0975 -1.1771 -1.8815
  156SAPE   C1117353   0.920   2.702  10.548 -0.0356  0.1508  0.6823
  156SAPE  H11A17354   0.906   2.617  10.618  2.5643 -0.2356  0.8407
  156SAPE  H11B17355   0.884   2.665  10.449  0.3839  1.8631 -0.1484
  156SAPE     P17356   0.784   2.881  10.701  0.2296 -0.3008  0.3857
  156SAPE   O1317357   0.668   2.828  10.773  0.3086 -0.2938 -0.0343
  156SAPE   O1417358   0.898   2.908  10.786  0.0339  0.3758 -0.4507
  156SAPE   O1217359   0.822   2.800  10.575  0.2558 -0.3816  0.0730
  156SAPE   O1117360   0.739   3.013  10.636 -0.2863 -0.3095  0.2190
  156SAPE    C117361   0.766   3.052  10.502 -0.1473  0.0731  0.2880
  156SAPE    HA17362   0.752   3.162  10.490  2.1052  0.2776 -0.9484
  156SAPE    HB17363   0.871   3.036  10.470  0.0485  3.2866 -1.0317
  156SAPE    C217364   0.661   2.986  10.400 -0.6056  0.2314  0.0427
  156SAPE    HS17365   0.707   2.892  10.365 -0.2194  0.3002  0.3521
  156SAPE   O2117366   0.634   3.072  10.290 -0.5670 -0.0493 -0.6390
  156SAPE   C2117367   0.740   3.095  10.209  0.4461 -0.3517 -0.2683
  156SAPE   O2217368   0.853   3.055  10.218  0.4654  0.0044  0.1034
  156SAPE   C2217369   0.692   3.176  10.088 -0.0045 -0.9743  0.3600
  156SAPE   H2R17370   0.737   3.278  10.089  0.0621 -0.9261 -2.1022
  156SAPE   H2S17371   0.748   3.130  10.004  0.5048 -1.5924  1.0291
  156SAPE    C317372   0.525   2.964  10.479  0.2571  0.6795 -0.6029
  156SAPE    HX17373   0.496   3.050  10.543  1.9634  1.5196 -0.8844
  156SAPE    HY17374   0.542   2.882  10.552 -0.2221  0.3802 -0.8197
  156SAPE   O3117375   0.425   2.912  10.385 -0.6888 -0.7467  0.2566
  156SAPE   C3117376   0.348   3.001  10.340  0.0729 -0.0473  0.2399
  156SAPE   O3217377   0.353   3.117  10.368  0.5610  0.0611 -0.4112
  156SAPE   C3217378   0.240   2.930  10.249  0.0334 -0.0823 -0.0473
  156SAPE   H2X17379   0.173   2.889  10.329 -0.3006  1.6688  0.6092
  156SAPE   H2Y17380   0.302   2.854  10.196  0.3981 -1.3778  2.0845
  156SAPE   C2317381   0.543   3.175  10.062 -0.0530  0.0713  0.6169
  156SAPE   H3R17382   0.496   3.242  10.136 -1.9879 -1.8624  1.2229
  156SAPE   H3S17383   0.507   3.074  10.091 -0.4442 -0.2018 -0.7378
  156SAPE   C2417384   0.483   3.210   9.924 -0.3465  0.6412  0.0269
  156SAPE   H4R17385   0.531   3.307   9.899 -0.4387  0.8212  0.5322
  156SAPE   H4S17386   0.374   3.224   9.940 -0.5910 -0.5612 -0.5236
  156SAPE   C2517387   0.514   3.103   9.822 -0.4464 -0.0195 -0.3045
  156SAPE   H5R17388   0.577   3.019   9.855 -0.3613  0.1174 -0.1176
  156SAPE   C2617389   0.459   3.101   9.695  0.2348 -0.1642 -0.3772
  156SAPE   H6R17390   0.469   3.011   9.633  1.3819  0.6489 -1.4327
  156SAPE   C2717391   0.356   3.195   9.635 -0.4484  0.6620 -1.0103
  156SAPE   H7R17392   0.401   3.295   9.614  1.3855 -0.1641 -1.1450
  156SAPE   H7S17393   0.279   3.218   9.713  1.6417  1.6320  0.8850
  156SAPE   C2817394   0.281   3.128   9.520  0.4645 -0.5435  0.1689
  156SAPE   H8R17395   0.182   3.091   9.549  0.5341 -0.8221  0.0513
  156SAPE   C2917396   0.320   3.115   9.391 -0.5920  0.3028  0.1820
  156SAPE   H9R17397   0.253   3.068   9.317 -1.0692  1.6378 -0.2588
  156SAPE  C21017398   0.443   3.173   9.329  0.3919  0.3660 -0.4529
  156SAPE  H10R17399   0.505   3.218   9.409  0.5947 -2.1101  0.9086
  156SAPE  H10S17400   0.414   3.256   9.262  1.1540  0.2618 -0.9172
  156SAPE  C21117401   0.521   3.089   9.237  0.6457 -0.6541 -0.5147
  156SAPE  H11R17402   0.625   3.067   9.264  0.8464 -0.3980 -1.0489
  156SAPE  C21217403   0.488   3.033   9.118  0.5513  0.0815 -0.1097
  156SAPE  H12R17404   0.559   2.968   9.065  0.5488  0.3905 -0.4958
  156SAPE  C21317405   0.352   3.050   9.056  0.6527 -0.2455  0.2125
  156SAPE  H13R17406   0.276   3.027   9.134  0.9187  0.1268  0.5810
  156SAPE  H13S17407   0.338   2.970   8.980 -1.2533  0.2377 -0.0187
  156SAPE  C21417408   0.332   3.185   8.987  0.1103  0.3576 -0.0374
  156SAPE  H14R17409   0.359   3.262   9.061 -1.1415 -0.7120  1.6062
  156SAPE  C21517410   0.319   3.209   8.858 -0.0650  0.8312  0.5984
  156SAPE  H15R17411   0.285   3.310   8.831  0.7237  0.7021 -1.0281
  156SAPE  C21617412   0.311   3.096   8.750 -0.1709 -0.3930 -0.2764
  156SAPE  H16R17413   0.267   3.149   8.662 -1.5242 -0.0832  0.5468
  156SAPE  H16S17414   0.239   3.022   8.792 -0.5195  1.1311  2.0372
  156SAPE  C21717415   0.446   3.040   8.714  0.3552  0.3904 -0.0509
  156SAPE  H17R17416   0.499   2.993   8.799  2.8301  1.6305 -0.8102
  156SAPE  H17S17417   0.513   3.118   8.672  1.3379 -0.7272 -0.6038
  156SAPE  C21817418   0.437   2.931   8.614  0.2456  0.1792  0.1706
  156SAPE  H18R17419   0.542   2.907   8.586  0.2926  0.8717 -0.2999
  156SAPE  H18S17420   0.390   2.978   8.525 -2.0943 -3.2895 -0.6273
  156SAPE  C21917421   0.360   2.805   8.651 -0.1445  0.5320 -0.6467
  156SAPE  H19R17422   0.252   2.817   8.674  0.0679  2.6200 -0.5454
  156SAPE  H19S17423   0.396   2.764   8.747  0.0202  1.9110 -0.1019
  156SAPE  C22017424   0.363   2.707   8.532 -0.2749  0.0189  0.6598
  156SAPE  H20R17425   0.321   2.763   8.446 -1.1450  0.6842  1.4994
  156SAPE  H20S17426   0.292   2.623   8.545  0.1669 -0.5945 -0.6979
  156SAPE  H20T17427   0.467   2.676   8.507 -0.6482 -3.5478  2.8636
  156SAPE   C3317428   0.161   3.023  10.161  0.4290 -0.6344 -0.5554
  156SAPE   H3X17429   0.228   3.096  10.111  1.4541 -0.6139  0.7881
  156SAPE   H3Y17430   0.088   3.070  10.230 -0.4594 -1.8721 -0.6237
  156SAPE   C3417431   0.082   2.950  10.055 -0.3295  0.5281  0.6419
  156SAPE   H4X17432   0.003   3.012  10.008 -0.9532 -2.0972 -2.0533
  156SAPE   H4Y17433   0.025   2.862  10.093 -1.1152  0.5949 -0.3400
  156SAPE   C3517434   0.160   2.913   9.930 -0.1944 -0.2748  1.1961
  156SAPE   H5X17435   0.227   2.825   9.944 -0.8131 -0.7563  1.2143
  156SAPE   H5Y17436   0.220   3.004   9.910 -0.8738  0.4682  2.4079
  156SAPE   C3617437   0.072   2.885   9.809 -0.4545 -0.3175 -0.0108
  156SAPE   H6X17438   0.005   2.965   9.772 -0.2096  0.3328  0.9139
  156SAPE   H6Y17439   0.004   2.805   9.847  1.4127 -0.7275  2.8045
  156SAPE   C3717440   0.156   2.819   9.686  0.0197 -0.4540  0.2569
  156SAPE   H7X17441   0.182   2.717   9.723  1.6461 -1.0331 -2.1982
  156SAPE   H7Y17442   0.246   2.874   9.651  0.0147  0.6678  1.9191
  156SAPE   C3817443   0.062   2.809   9.569 -0.3230  0.0780  0.1829
  156SAPE   H8X17444   0.019   2.909   9.548  0.6668  0.3552 -0.6105
  156SAPE   H8Y17445  -0.026   2.754   9.609  0.6905 -1.3433  0.5550
  156SAPE   C3917446   0.130   2.751   9.447 -0.1162  0.9311 -0.3011
  156SAPE   H9X17447   0.155   2.644   9.462 -0.2215  0.4541 -3.0149
  156SAPE   H9Y17448   0.226   2.803   9.424  2.0351 -2.6671 -0.1659
  156SAPE  C31017449   0.043   2.773   9.317 -0.7187  0.0078 -0.1897
  156SAPE  H10X17450   0.038   2.883   9.301 -0.7364  0.3738  2.0198
  156SAPE  H10Y17451  -0.064   2.745   9.327 -0.5648 -1.2211 -1.6253
  156SAPE  C31117452   0.108   2.713   9.188  0.6208  0.0916 -0.0238
  156SAPE  H11X17453   0.119   2.604   9.207 -0.5214  0.1049  0.8712
  156SAPE  H11Y17454   0.206   2.759   9.165  0.7790 -0.4445 -0.4290
  156SAPE  C31217455   0.014   2.719   9.064 -0.1114  0.1434 -0.9101
  156SAPE  H12X17456  -0.023   2.823   9.051 -1.9726 -0.0859  1.6927
  156SAPE  H12Y17457  -0.072   2.650   9.084  1.0315 -1.2275 -0.5721
  156SAPE  C31317458   0.091   2.681   8.939 -0.3584 -0.8271 -0.6626
  156SAPE  H13X17459   0.126   2.576   8.946 -2.1831 -1.6042 -2.4350
  156SAPE  H13Y17460   0.179   2.748   8.927 -0.8090 -0.2271 -0.6540
  156SAPE  C31417461   0.009   2.685   8.815  0.4242 -0.6302  0.7664
  156SAPE  H14X17462   0.077   2.701   8.728 -2.6039  0.9365 -1.4855
  156SAPE  H14Y17463  -0.060   2.772   8.803  0.6796 -0.7125 -1.7233
  156SAPE  C31517464  -0.063   2.548   8.788  0.4032  0.4931 -0.5195
  156SAPE  H15X17465  -0.122   2.537   8.882  0.6154  0.3588 -0.4043
  156SAPE  H15Y17466   0.022   2.478   8.778 -0.2405 -0.2818 -0.7154
  156SAPE  C31617467  -0.152   2.538   8.659  1.0018 -0.2879 -0.1834
  156SAPE  H16X17468  -0.187   2.434   8.639 -1.8673  0.5229  0.1050
  156SAPE  H16Y17469  -0.080   2.562   8.578  0.3994 -1.1528 -0.9994
  156SAPE  C31717470  -0.277   2.628   8.662 -0.6602 -0.0268 -0.0394
  156SAPE  H17X17471  -0.246   2.732   8.687  0.6379 -0.7492  1.5958
  156SAPE  H17Y17472  -0.343   2.591   8.743  0.8060 -0.0158  1.2179
  156SAPE  C31817473  -0.343   2.633   8.521  0.3919 -0.3836 -0.4731
  156SAPE  H18X17474  -0.343   2.533   8.472  1.3626 -1.0069  0.7395
  156SAPE  H18Y17475  -0.283   2.700   8.456  3.1639 -1.2796  1.0107
  156SAPE  H18Z17476  -0.447   2.670   8.525  0.8706  1.0194 -0.6079
  157SAPE     N17477   1.939   4.543  10.757 -0.0607  0.1912 -0.2932
  157SAPE   HN117478   1.853   4.503  10.714  0.9730 -3.6987  0.8722
  157SAPE   HN217479   1.994   4.460  10.788 -0.3397 -0.5997 -1.8596
  157SAPE   HN317480   1.915   4.617  10.827  1.3951 -1.1091  1.7180
  157SAPE   C1217481   1.997   4.591  10.633  0.8886  0.1601  0.4133
  157SAPE  H12A17482   1.984   4.509  10.560  1.4877 -1.0086  1.5849
  157SAPE  H12B17483   2.107   4.601  10.643  1.0703  0.3665 -1.4285
  157SAPE   C1117484   1.928   4.732  10.595  0.4134  0.3596 -0.3321
  157SAPE  H11A17485   1.940   4.776  10.493  1.2289 -0.0961 -0.4361
  157SAPE  H11B17486   1.976   4.802  10.666  0.7792 -0.3783  0.1471
  157SAPE     P17487   1.694   4.852  10.592 -0.0149 -0.0520  0.1255
  157SAPE   O1317488   1.597   4.868  10.698 -0.5915 -0.1186  0.3313
  157SAPE   O1417489   1.767   4.975  10.553  0.6475 -0.3449 -0.1099
  157SAPE   O1217490   1.793   4.732  10.631 -0.2550 -0.9596 -0.0954
  157SAPE   O1117491   1.611   4.801  10.469  0.9406 -0.6989  0.6106
  157SAPE    C117492   1.667   4.702  10.383 -0.2280 -0.7196  0.2159
  157SAPE    HA17493   1.734   4.625  10.427  0.6104 -0.4124 -0.4924
  157SAPE    HB17494   1.574   4.654  10.344 -1.2720  0.7773  0.7621
  157SAPE    C217495   1.731   4.750  10.251 -0.2355 -0.5896 -0.2186
  157SAPE    HS17496   1.822   4.811  10.270  0.6869 -1.2674 -2.2703
  157SAPE   O2117497   1.632   4.822  10.175 -0.7852  0.5070 -0.1821
  157SAPE   C2117498   1.662   4.939  10.142 -0.2720 -1.0661  0.2345
  157SAPE   O2217499   1.772   4.997  10.153 -0.1853  0.2798  0.4361
  157SAPE   C2217500   1.545   4.992  10.072 -0.0343  0.3573 -0.6462
  157SAPE   H2R17501   1.572   5.093  10.034 -2.1390  0.9075 -0.8328
  157SAPE   H2S17502   1.526   4.931   9.981  0.2762  0.2449 -0.6340
  157SAPE    C317503   1.796   4.643  10.154  0.1786  0.2298  0.5270
  157SAPE    HX17504   1.708   4.585  10.118  0.3756  1.6305 -2.5551
  157SAPE    HY17505   1.877   4.602  10.217 -0.1955  2.9574  3.0509
  157SAPE   O3117506   1.844   4.717  10.037  0.6640  0.3998 -0.0232
  157SAPE   C3117507   1.971   4.762  10.030  0.3512  0.3112 -0.1161
  157SAPE   O3217508   2.055   4.760  10.118  0.5206 -0.1931 -0.0941
  157SAPE   C3217509   1.995   4.825   9.889  0.6554 -0.2583 -0.3032
  157SAPE   H2X17510   2.057   4.754   9.830 -0.7906 -2.2571  0.4784
  157SAPE   H2Y17511   2.052   4.920   9.897 -0.1453  0.1036  1.7536
  157SAPE   C2317512   1.408   4.988  10.157 -1.1665 -0.3044  0.4649
  157SAPE   H3R17513   1.398   5.087  10.207 -0.9351  0.0052 -0.0982
  157SAPE   H3S17514   1.408   4.914  10.241  2.2800 -0.3846  0.5398
  157SAPE   C2417515   1.272   4.957  10.085  0.0452 -0.1061 -0.3775
  157SAPE   H4R17516   1.200   4.918  10.160  1.0238 -0.4896  0.3748
  157SAPE   H4S17517   1.284   4.879  10.007 -1.0403 -0.8299  0.1464
  157SAPE   C2517518   1.217   5.083  10.018  0.7614 -0.0596 -0.1545
  157SAPE   H5R17519   1.146   5.140  10.079  0.6570  2.8502 -2.7414
  157SAPE   C2617520   1.199   5.105   9.884  1.0527  0.5501 -0.3628
  157SAPE   H6R17521   1.149   5.198   9.853 -2.9791 -1.3532 -0.1866
  157SAPE   C2717522   1.245   5.018   9.766  0.6548  0.6295 -0.4919
  157SAPE   H7R17523   1.200   4.918   9.788  1.2944  0.8634  2.1996
  157SAPE   H7S17524   1.349   4.981   9.780 -0.4869 -2.1824  1.5675
  157SAPE   C2817525   1.204   5.070   9.628  0.0861  0.5813  0.4865
  157SAPE   H8R17526   1.193   5.179   9.619  2.3481  0.7775 -0.5350
  157SAPE   C2917527   1.220   4.991   9.517 -0.1363  0.8886  0.1107
  157SAPE   H9R17528   1.196   5.034   9.418  1.3801 -0.6968 -1.0187
  157SAPE  C21017529   1.262   4.849   9.525  0.2722  0.3013  0.0408
  157SAPE  H10R17530   1.183   4.797   9.467  2.0579 -0.8370 -1.4731
  157SAPE  H10S17531   1.251   4.800   9.624 -0.8379  0.2343 -0.0960
  157SAPE  C21117532   1.397   4.837   9.454 -0.3283 -0.2874 -0.1525
  157SAPE  H11R17533   1.484   4.860   9.517  0.7150  1.1310 -1.9996
  157SAPE  C21217534   1.420   4.823   9.319 -0.1427  0.4199 -0.6397
  157SAPE  H12R17535   1.527   4.810   9.300  0.0889  0.8422  0.3084
  157SAPE  C21317536   1.319   4.798   9.208  0.6243 -0.6811  0.3856
  157SAPE  H13R17537   1.249   4.884   9.212  1.5930  0.1573 -0.2177
  157SAPE  H13S17538   1.256   4.714   9.244  0.6671  0.0738  2.3780
  157SAPE  C21417539   1.369   4.778   9.070 -0.2090 -0.4242 -1.2313
  157SAPE  H14R17540   1.473   4.752   9.048 -0.7289 -3.9041 -0.1309
  157SAPE  C21517541   1.298   4.802   8.956 -0.3941  0.7443  0.4414
  157SAPE  H15R17542   1.347   4.787   8.858 -0.0148  0.0847  0.7298
  157SAPE  C21617543   1.157   4.852   8.968 -0.5261  0.2640 -0.1528
  157SAPE  H16R17544   1.152   4.961   8.990  0.5036  0.2198  0.3175
  157SAPE  H16S17545   1.105   4.798   9.050 -2.9719  2.4426 -0.1001
  157SAPE  C21717546   1.077   4.807   8.842  0.2371 -0.4642  0.0114
  157SAPE  H17R17547   0.969   4.815   8.867  0.1620 -0.9256 -0.1473
  157SAPE  H17S17548   1.101   4.703   8.809 -0.3425 -0.2804 -1.0359
  157SAPE  C21817549   1.100   4.905   8.722 -0.1268 -0.2686 -0.2850
  157SAPE  H18R17550   1.193   4.874   8.669 -0.0602 -1.4103  0.4704
  157SAPE  H18S17551   1.122   5.001   8.772  1.7294 -1.5455  1.5095
  157SAPE  C21917552   0.996   4.917   8.615  0.2948 -0.0819 -0.9928
  157SAPE  H19R17553   0.906   4.976   8.643  0.5138  1.1310 -2.7014
  157SAPE  H19S17554   0.962   4.812   8.599  0.7640 -1.0259  3.0719
  157SAPE  C22017555   1.060   4.990   8.498  0.2027 -0.2838 -0.2904
  157SAPE  H20R17556   0.984   4.991   8.417 -0.6693 -1.8202  0.4548
  157SAPE  H20S17557   1.143   4.931   8.454 -0.5605 -0.5710 -1.3994
  157SAPE  H20T17558   1.083   5.093   8.531  0.1102  0.0014 -1.1037
  157SAPE   C3317559   1.870   4.835   9.800  0.9324 -0.4142  0.0654
  157SAPE   H3X17560   1.794   4.889   9.861  1.1014  1.9225 -1.6424
  157SAPE   H3Y17561   1.836   4.733   9.773 -2.4363  0.8452 -1.0250
  157SAPE   C3417562   1.880   4.922   9.674  0.4596  0.1408 -0.0173
  157SAPE   H4X17563   1.969   4.880   9.623  0.6158  0.9318 -0.4162
  157SAPE   H4Y17564   1.906   5.027   9.699 -0.9338  0.9208 -1.6195
  157SAPE   C3517565   1.751   4.916   9.585 -0.0792  0.1200  0.1581
  157SAPE   H5X17566   1.662   4.956   9.637  0.0461  0.6870 -0.0588
  157SAPE   H5Y17567   1.730   4.809   9.564 -0.0569  0.5173 -2.1945
  157SAPE   C3617568   1.771   4.977   9.453 -0.2553  0.3360  0.1851
  157SAPE   H6X17569   1.811   5.080   9.462 -0.0162  0.2993 -0.4071
  157SAPE   H6Y17570   1.671   4.985   9.405 -0.1124 -2.4954 -0.7954
  157SAPE   C3717571   1.856   4.885   9.358  0.0523  0.0007  0.2452
  157SAPE   H7X17572   1.813   4.783   9.354 -3.0672  0.9990  3.0960
  157SAPE   H7Y17573   1.958   4.889   9.402 -0.0581  1.4219  0.4350
  157SAPE   C3817574   1.851   4.948   9.212  0.0886  0.2113  0.3382
  157SAPE   H8X17575   1.886   5.054   9.212  0.5297  0.0683 -0.5992
  157SAPE   H8Y17576   1.743   4.950   9.184  0.5166 -0.5207 -1.4810
  157SAPE   C3917577   1.916   4.862   9.108  0.1902  0.3546 -0.2140
  157SAPE   H9X17578   1.892   4.757   9.135 -0.0093  0.3957 -0.2353
  157SAPE   H9Y17579   2.026   4.876   9.102  0.2216  0.3969  0.4640
  157SAPE  C31017580   1.857   4.910   8.971  0.5320  0.1352  0.2891
  157SAPE  H10X17581   1.869   5.020   8.960  0.0823  0.0663 -1.0967
  157SAPE  H10Y17582   1.746   4.897   8.974  0.3450  1.1904 -1.0066
  157SAPE  C31117583   1.913   4.838   8.849  0.4761  0.3136  0.3743
  157SAPE  H11X17584   1.877   4.733   8.842 -1.5466  0.9451  0.5339
  157SAPE  H11Y17585   2.024   4.834   8.856  0.3582 -0.5909  3.2360
  157SAPE  C31217586   1.871   4.899   8.711 -0.1831  0.6988  0.4986
  157SAPE  H12X17587   1.882   5.009   8.699  0.8185  0.4041 -1.7978
  157SAPE  H12Y17588   1.764   4.871   8.699 -0.6705  2.8063 -0.5662
  157SAPE  C31317589   1.959   4.838   8.603 -0.9788  0.0302 -0.2154
  157SAPE  H13X17590   1.932   4.733   8.579 -2.1553  0.0680  0.8350
  157SAPE  H13Y17591   2.064   4.836   8.640 -1.1704  0.5726  0.3849
  157SAPE  C31417592   1.949   4.917   8.470  0.3686 -0.0309  0.5973
  157SAPE  H14X17593   1.932   5.020   8.506  0.5853 -0.0347  0.7117
  157SAPE  H14Y17594   1.853   4.889   8.422  1.5667 -3.2998 -0.1609
  157SAPE  C31517595   2.068   4.896   8.380 -0.0880 -0.9227 -0.0681
  157SAPE  H15X17596   2.163   4.926   8.430 -0.0557  1.7183 -1.4972
  157SAPE  H15Y17597   2.053   4.967   8.295 -2.4736 -0.1158  0.9325
  157SAPE  C31617598   2.067   4.761   8.312 -0.7566 -0.1875  0.2558
  157SAPE  H16X17599   1.966   4.742   8.270 -0.6640 -2.1031  0.7814
  157SAPE  H16Y17600   2.073   4.682   8.390  1.9737  1.0762  1.4563
  157SAPE  C31717601   2.173   4.742   8.200 -0.8998  0.5213  0.2720
  157SAPE  H17X17602   2.268   4.699   8.238 -1.7727 -1.2408  0.5714
  157SAPE  H17Y17603   2.204   4.839   8.156  1.4969 -0.5596 -0.5930
  157SAPE  C31817604   2.118   4.658   8.077 -0.6880  0.3451 -0.3012
  157SAPE  H18X17605   2.085   4.563   8.124 -0.3306  0.6571  0.5978
  157SAPE  H18Y17606   2.196   4.640   8.000 -0.8967 -1.7903 -0.0724
  157SAPE  H18Z17607   2.027   4.708   8.036 -0.6402 -0.4035 -1.3491
  158SAPE     N17608   3.074   4.954  10.508 -0.3216 -0.5636  0.4773
  158SAPE   HN117609   3.055   4.860  10.549  2.2095 -2.3936 -2.1387
  158SAPE   HN217610   3.001   4.981  10.439  1.0270  1.3205 -0.3075
  158SAPE   HN317611   3.164   4.927  10.464 -1.7522 -2.6981 -1.4251
  158SAPE   C1217612   3.098   5.043  10.624  0.4489  0.0084  0.6222
  158SAPE  H12A17613   3.119   5.142  10.578  1.0079  0.6708  2.2304
  158SAPE  H12B17614   3.195   5.004  10.663  0.6210 -1.2375 -0.9739
  158SAPE   C1117615   2.979   5.045  10.718  0.3701  0.2577 -0.1513
  158SAPE  H11A17616   2.888   5.052  10.654 -0.0255  2.4754  0.5461
  158SAPE  H11B17617   2.977   5.133  10.786 -0.7677 -0.5048  0.8316
  158SAPE     P17618   2.871   4.817  10.797  0.1439 -0.1838  0.2253
  158SAPE   O1317619   2.915   4.703  10.879  0.2251  0.1907  0.7210
  158SAPE   O1417620   2.739   4.883  10.822  0.3798 -0.5105 -0.0842
  158SAPE   O1217621   2.982   4.931  10.797  0.0866  0.0839 -0.1371
  158SAPE   O1117622   2.885   4.787  10.643  0.1280 -0.4028  0.2823
  158SAPE    C117623   2.807   4.687  10.578 -0.5325 -0.7208  0.0398
  158SAPE    HA17624   2.843   4.582  10.581 -1.5603 -1.0750  0.4874
  158SAPE    HB17625   2.702   4.684  10.614 -1.3081 -4.6986 -1.9892
  158SAPE    C217626   2.790   4.716  10.425 -0.0134 -0.2575  0.2410
  158SAPE    HS17627   2.732   4.637  10.372 -1.3293  0.9650 -0.2094
  158SAPE   O2117628   2.925   4.740  10.375 -0.5198 -0.6199 -0.3124
  158SAPE   C2117629   2.983   4.637  10.314 -0.1167  0.1847  0.1648
  158SAPE   O2217630   2.941   4.522  10.306 -0.4781 -0.1881 -0.3531
  158SAPE   C2217631   3.109   4.688  10.248  0.6112 -0.4884 -0.1263
  158SAPE   H2R17632   3.085   4.784  10.198 -0.9849 -0.2760  0.9634
  158SAPE   H2S17633   3.185   4.695  10.328  0.8075 -0.4173 -0.3185
  158SAPE    C317634   2.700   4.840  10.414  0.2708 -1.1646  0.1926
  158SAPE    HX17635   2.720   4.910  10.498  2.4036 -0.2990 -0.9741
  158SAPE    HY17636   2.597   4.804  10.433  0.1751 -0.8257  0.3261
  158SAPE   O3117637   2.703   4.912  10.289 -0.3171 -0.5982 -0.3046
  158SAPE   C3117638   2.799   4.998  10.264 -0.1467  0.6555  0.4594
  158SAPE   O3217639   2.901   5.025  10.323 -0.2832  0.3647 -0.1118
  158SAPE   C3217640   2.781   5.051  10.124 -0.3995 -0.2009 -0.1360
  158SAPE   H2X17641   2.702   5.129  10.117  0.3427  0.5483 -0.3396
  158SAPE   H2Y17642   2.748   4.960  10.070 -0.9725 -1.3930  2.1010
  158SAPE   C2317643   3.157   4.591  10.136  0.5889 -0.2744 -0.0310
  158SAPE   H3R17644   3.169   4.491  10.181 -1.4663 -0.9247 -0.8223
  158SAPE   H3S17645   3.250   4.639  10.098 -0.5407  0.3971 -2.1549
  158SAPE   C2417646   3.073   4.576  10.004  0.2462 -0.8535  0.0898
  158SAPE   H4R17647   3.037   4.672   9.961  0.7837 -1.2432 -1.2796
  158SAPE   H4S17648   2.972   4.534  10.024  0.0262 -1.0971 -1.4482
  158SAPE   C2517649   3.136   4.480   9.912 -0.4745 -0.1629  0.8688
  158SAPE   H5R17650   3.163   4.382   9.954  0.6212 -0.6574 -0.8818
  158SAPE   C2617651   3.158   4.502   9.784  0.8443 -0.2734 -0.2555
  158SAPE   H6R17652   3.193   4.429   9.710  0.5053  2.4097 -3.2793
  158SAPE   C2717653   3.125   4.623   9.707  0.7789  0.0772 -0.9104
  158SAPE   H7R17654   3.043   4.685   9.749  0.2443 -1.1965  0.0259
  158SAPE   H7S17655   3.078   4.590   9.611  0.5486 -0.5585 -0.5894
  158SAPE   C2817656   3.246   4.708   9.698 -0.8286  0.4974 -0.2913
  158SAPE   H8R17657   3.293   4.743   9.791  0.2596 -0.9441 -0.2603
  158SAPE   C2917658   3.295   4.755   9.578 -0.0247 -0.0394 -0.6697
  158SAPE   H9R17659   3.388   4.813   9.578 -1.4337  2.4209  0.8079
  158SAPE  C21017660   3.227   4.734   9.442  0.4224  0.1387 -0.0544
  158SAPE  H10R17661   3.226   4.832   9.389  1.0947 -0.1909 -0.7053
  158SAPE  H10S17662   3.120   4.714   9.463  0.3468  1.1145  0.5638
  158SAPE  C21117663   3.304   4.626   9.359  0.2329  0.0533  0.1941
  158SAPE  H11R17664   3.397   4.584   9.399 -0.1822 -1.2593 -0.1867
  158SAPE  C21217665   3.257   4.591   9.242 -0.9022 -0.1242  0.0063
  158SAPE  H12R17666   3.321   4.512   9.200 -3.0660 -1.4349 -0.9812
  158SAPE  C21317667   3.132   4.633   9.164  0.0348 -0.6446 -0.6048
  158SAPE  H13R17668   3.163   4.716   9.098  0.0255  0.1535  0.3583
  158SAPE  H13S17669   3.056   4.680   9.231 -0.7342 -4.1236  1.2455
  158SAPE  C21417670   3.048   4.527   9.099 -0.0672  0.1905 -0.8065
  158SAPE  H14R17671   3.014   4.459   9.179 -3.6192  0.1491 -2.1732
  158SAPE  C21517672   3.003   4.511   8.973 -0.0011  0.6068  0.8690
  158SAPE  H15R17673   2.941   4.427   8.937 -0.1757  0.4846  1.4531
  158SAPE  C21617674   3.025   4.596   8.849 -0.1266  1.4607 -0.0192
  158SAPE  H16R17675   3.006   4.531   8.761  0.4212  1.7991 -0.3984
  158SAPE  H16S17676   3.136   4.605   8.849 -0.0241  0.4545  1.1639
  158SAPE  C21717677   2.956   4.727   8.840 -0.0427  0.7859  0.3609
  158SAPE  H17R17678   2.999   4.789   8.758 -0.9321 -0.5813 -1.2143
  158SAPE  H17S17679   2.979   4.785   8.932  0.6627 -0.0958  0.7583
  158SAPE  C21817680   2.806   4.722   8.830 -0.7417  0.2691  0.0312
  158SAPE  H18R17681   2.771   4.827   8.834  1.6115  1.1216 -0.3515
  158SAPE  H18S17682   2.762   4.658   8.909  0.0775 -1.7824 -1.0776
  158SAPE  C21917683   2.744   4.670   8.698  0.1087  0.5323 -0.4146
  158SAPE  H19R17684   2.635   4.691   8.699 -0.3063 -1.4619  1.1368
  158SAPE  H19S17685   2.740   4.560   8.686 -2.5796  0.6369 -1.1426
  158SAPE  C22017686   2.811   4.729   8.573  0.0126  0.4209 -0.0937
  158SAPE  H20R17687   2.813   4.840   8.576 -0.4920  0.4691 -1.1191
  158SAPE  H20S17688   2.754   4.703   8.481  1.8443  1.3396 -1.5665
  158SAPE  H20T17689   2.911   4.680   8.566  0.4348  0.9707  1.5614
  158SAPE   C3317690   2.910   5.103  10.055 -0.2066  0.1024  0.7965
  158SAPE   H3X17691   2.992   5.028  10.063 -0.8344 -0.9829 -1.8672
  158SAPE   H3Y17692   2.926   5.201  10.105 -1.3088  0.1802  1.0147
  158SAPE   C3417693   2.891   5.119   9.899  0.0643  0.4636 -0.4261
  158SAPE   H4X17694   2.949   5.206   9.861  2.0081 -1.7505 -3.0422
  158SAPE   H4Y17695   2.784   5.138   9.875  0.0639 -1.3256 -2.2105
  158SAPE   C3517696   2.941   4.993   9.822 -0.1514  0.1436  0.2557
  158SAPE   H5X17697   2.900   4.900   9.867 -0.9635  0.1123 -0.5213
  158SAPE   H5Y17698   3.050   4.986   9.842  0.4055  2.2815 -1.6584
  158SAPE   C3617699   2.920   4.993   9.669 -0.0590  0.3621 -0.1322
  158SAPE   H6X17700   2.813   4.978   9.644  0.3126  1.0225 -2.2617
  158SAPE   H6Y17701   2.982   4.907   9.636  2.2522  1.3943  1.1872
  158SAPE   C3717702   2.972   5.124   9.597  0.0646  0.8013  0.2852
  158SAPE   H7X17703   3.079   5.148   9.614  0.4411  0.3197 -1.2047
  158SAPE   H7Y17704   2.903   5.208   9.621  0.1187  0.4625  1.7094
  158SAPE   C3817705   2.954   5.115   9.444 -0.1202 -0.0125 -0.0949
  158SAPE   H8X17706   2.948   5.216   9.399 -1.6626 -0.0710 -0.0497
  158SAPE   H8Y17707   2.859   5.064   9.418 -0.5633  0.3992  0.7138
  158SAPE   C3917708   3.067   5.038   9.376 -0.5375 -0.2273  0.3638
  158SAPE   H9X17709   3.042   4.931   9.397 -1.2200 -0.0890  0.2799
  158SAPE   H9Y17710   3.163   5.062   9.427 -0.2726  1.0552 -0.7016
  158SAPE  C31017711   3.079   5.074   9.228 -0.0029 -0.9024  1.0272
  158SAPE  H10X17712   3.176   5.033   9.192  0.3191  0.3763  0.3825
  158SAPE  H10Y17713   3.071   5.185   9.221 -1.4018 -1.0389  0.1564
  158SAPE  C31117714   2.975   5.007   9.138  0.2638 -0.2022 -0.2897
  158SAPE  H11X17715   2.872   5.026   9.174  0.3598 -0.0575 -0.0945
  158SAPE  H11Y17716   3.002   4.899   9.129  0.7300 -0.0217 -1.1562
  158SAPE  C31217717   2.956   5.063   8.991 -0.2048  0.2289 -0.0043
  158SAPE  H12X17718   2.926   5.169   9.002  0.9392  0.6738 -0.9904
  158SAPE  H12Y17719   2.871   4.998   8.959  0.3853 -1.0542  0.9325
  158SAPE  C31317720   3.073   5.067   8.896 -0.1738  0.1847 -0.0542
  158SAPE  H13X17721   3.113   4.965   8.877  0.2814 -0.2488  2.7442
  158SAPE  H13Y17722   3.162   5.124   8.932 -0.6500  1.0391 -0.2107
  158SAPE  C31417723   3.047   5.130   8.756  0.4134  0.4693 -0.1776
  158SAPE  H14X17724   2.963   5.075   8.708  0.2972  2.3585 -2.3034
  158SAPE  H14Y17725   3.138   5.123   8.692 -1.2598 -0.4341 -2.6029
  158SAPE  C31517726   2.989   5.272   8.755 -0.6964  0.2328 -0.2187
  158SAPE  H15X17727   3.042   5.336   8.828 -0.9158  1.3568 -1.0167
  158SAPE  H15Y17728   2.886   5.274   8.798 -0.8379 -2.1392 -0.3183
  158SAPE  C31617729   2.980   5.351   8.618  0.5270 -0.8058  0.3510
  158SAPE  H16X17730   2.948   5.456   8.633 -0.4271 -0.7175 -1.9683
  158SAPE  H16Y17731   2.904   5.316   8.546 -0.5145  1.8008  0.0552
  158SAPE  C31717732   3.119   5.366   8.545 -0.3398  0.4268  0.6659
  158SAPE  H17X17733   3.172   5.268   8.545 -2.0627 -0.5592 -0.9581
  158SAPE  H17Y17734   3.173   5.444   8.604  1.0854  0.6416 -0.8455
  158SAPE  C31817735   3.105   5.400   8.399  0.1739  0.0873  0.3675
  158SAPE  H18X17736   3.202   5.397   8.346  0.2840 -1.5205  0.6275
  158SAPE  H18Y17737   3.054   5.497   8.376  0.9265  0.0318 -1.7055
  158SAPE  H18Z17738   3.045   5.326   8.342  1.6004 -2.0679  1.5741
  159SAPE     N17739   2.968   2.814   6.700  0.3873 -0.1631 -0.3440
  159SAPE   HN117740   3.040   2.739   6.703 -0.6465 -1.1690  0.1471
  159SAPE   HN217741   3.003   2.910   6.680 -1.3018  0.2101 -1.7477
  159SAPE   HN317742   2.917   2.798   6.789  0.7116 -2.3565 -0.4800
  159SAPE   C1217743   2.888   2.777   6.575 -0.2019  0.1508  0.0418
  159SAPE  H12A17744   2.925   2.676   6.546 -2.5481 -1.2179  1.5309
  159SAPE  H12B17745   2.913   2.848   6.493  0.2919  0.4027  0.4086
  159SAPE   C1117746   2.738   2.767   6.595 -0.0669 -0.3885  0.0958
  159SAPE  H11A17747   2.696   2.722   6.502 -1.0947  0.3827  0.1673
  159SAPE  H11B17748   2.692   2.868   6.606 -1.0111 -0.9325  1.3484
  159SAPE     P17749   2.622   2.546   6.686 -0.0913 -0.4338 -0.1761
  159SAPE   O1317750   2.479   2.572   6.714 -0.2990  0.2770  0.7172
  159SAPE   O1417751   2.649   2.474   6.559  0.5396 -0.0931  0.2484
  159SAPE   O1217752   2.714   2.680   6.709 -0.1162 -0.1501 -0.0760
  159SAPE   O1117753   2.680   2.442   6.800 -0.3178  0.0329 -0.0409
  159SAPE    C117754   2.621   2.438   6.932 -0.3962 -0.4605  0.3092
  159SAPE    HA17755   2.520   2.482   6.941  0.9090  2.5009  1.9912
  159SAPE    HB17756   2.612   2.334   6.970 -3.7844 -0.1414  0.6344
  159SAPE    C217757   2.709   2.512   7.034  0.2106 -0.2411 -0.3612
  159SAPE    HS17758   2.809   2.536   6.992 -0.8386  3.4902 -1.0672
  159SAPE   O2117759   2.703   2.444   7.165  0.0936  0.1811 -0.1313
  159SAPE   C2117760   2.818   2.441   7.234 -0.0024 -0.4734  0.5531
  159SAPE   O2217761   2.922   2.493   7.198  0.1215  0.3176 -0.1169
  159SAPE   C2217762   2.805   2.371   7.365  0.2480  0.0887  0.5950
  159SAPE   H2R17763   2.699   2.346   7.389  0.7197 -1.5874  1.0924
  159SAPE   H2S17764   2.859   2.274   7.356 -1.4663 -1.2579  3.4179
  159SAPE    C317765   2.673   2.664   7.043 -0.0007 -0.1302  0.0907
  159SAPE    HX17766   2.577   2.663   7.101  0.5544 -2.2977  1.0592
  159SAPE    HY17767   2.668   2.714   6.944  1.1020  0.4274  0.3121
  159SAPE   O3117768   2.776   2.725   7.131  0.2932  0.2096 -0.3401
  159SAPE   C3117769   2.864   2.804   7.073 -0.1148 -0.0321 -0.6014
  159SAPE   O3217770   2.870   2.835   6.956  0.0256 -0.5511  0.2124
  159SAPE   C3217771   2.972   2.851   7.177  0.0923  0.4805  0.2924
  159SAPE   H2X17772   3.005   2.954   7.153  0.6789  1.2230  3.8304
  159SAPE   H2Y17773   3.057   2.782   7.158  0.1538  0.6395 -0.0171
  159SAPE   C2317774   2.853   2.450   7.482 -1.0159  0.4692 -0.3036
  159SAPE   H3R17775   2.934   2.516   7.445  0.5080 -1.2892 -0.2430
  159SAPE   H3S17776   2.904   2.375   7.545 -1.0909 -2.2222 -3.2274
  159SAPE   C2417777   2.745   2.523   7.571  0.1630 -0.2506 -0.4307
  159SAPE   H4R17778   2.788   2.571   7.661  0.9315  2.3574 -2.0724
  159SAPE   H4S17779   2.679   2.440   7.605  0.4594 -0.0586  0.6534
  159SAPE   C2517780   2.669   2.619   7.489  0.1060 -0.0468 -0.4162
  159SAPE   H5R17781   2.705   2.649   7.390  1.4144 -0.1732  0.0125
  159SAPE   C2617782   2.565   2.687   7.539 -0.2236 -0.3262  0.5481
  159SAPE   H6R17783   2.506   2.748   7.470 -0.9039  1.3435  2.4868
  159SAPE   C2717784   2.518   2.684   7.686  0.0141  0.4510 -0.3024
  159SAPE   H7R17785   2.559   2.589   7.729  0.6884 -0.1526 -2.1807
  159SAPE   H7S17786   2.410   2.662   7.692 -0.0045  0.8380  1.2350
  159SAPE   C2817787   2.561   2.810   7.759 -0.6469  0.1081  0.4854
  159SAPE   H8R17788   2.637   2.875   7.712  0.7149 -0.8649  1.2834
  159SAPE   C2917789   2.515   2.847   7.877  0.0505 -0.1981 -0.7371
  159SAPE   H9R17790   2.547   2.940   7.926 -0.7792  0.5970 -1.6598
  159SAPE  C21017791   2.418   2.768   7.958  0.4299 -0.2464  0.4605
  159SAPE  H10R17792   2.479   2.733   8.044  0.3652 -0.3669  0.4581
  159SAPE  H10S17793   2.393   2.675   7.902  0.7415 -0.0328 -0.0409
  159SAPE  C21117794   2.298   2.840   8.007 -0.1677  0.2812 -0.2137
  159SAPE  H11R17795   2.229   2.852   7.921  0.8964  0.1856 -1.1034
  159SAPE  C21217796   2.265   2.885   8.131  0.9019 -0.0617  0.5496
  159SAPE  H12R17797   2.182   2.956   8.138  0.9180 -0.1452  1.8414
  159SAPE  C21317798   2.350   2.863   8.257  0.1986  0.2285 -0.2463
  159SAPE  H13R17799   2.394   2.761   8.247 -0.0457  0.1031 -0.0466
  159SAPE  H13S17800   2.284   2.875   8.345  1.9011 -0.0230  1.1208
  159SAPE  C21417801   2.474   2.959   8.274 -0.0562 -0.4736 -0.3491
  159SAPE  H14R17802   2.496   3.023   8.188  2.4661 -0.4067  0.2832
  159SAPE  C21517803   2.539   2.978   8.389 -0.2819 -0.7512  0.5010
  159SAPE  H15R17804   2.637   3.027   8.387  0.1336 -1.5335  1.1323
  159SAPE  C21617805   2.514   2.914   8.526  0.2684  0.8912  0.6523
  159SAPE  H16R17806   2.518   2.803   8.523 -0.5567  0.8501  0.7085
  159SAPE  H16S17807   2.413   2.937   8.566 -0.4657  2.6657 -2.0138
  159SAPE  C21717808   2.608   2.971   8.631  0.8451  0.2622  0.0663
  159SAPE  H17R17809   2.594   3.081   8.641  0.5328  0.1959  0.3634
  159SAPE  H17S17810   2.715   2.962   8.603  1.9840  2.3797  3.1962
  159SAPE  C21817811   2.591   2.909   8.769  0.5235  0.0142 -0.4822
  159SAPE  H18R17812   2.612   2.802   8.751 -1.2224 -0.3653 -0.4098
  159SAPE  H18S17813   2.484   2.917   8.795  0.1258 -1.3713 -1.5554
  159SAPE  C21917814   2.689   2.973   8.875 -0.0053  0.2714  0.2864
  159SAPE  H19R17815   2.675   3.083   8.864 -0.5937  0.0190 -2.1819
  159SAPE  H19S17816   2.795   2.950   8.847 -0.9478 -0.2253 -3.4223
  159SAPE  C22017817   2.640   2.948   9.011 -0.1059  0.1620 -0.7595
  159SAPE  H20R17818   2.708   2.984   9.091 -0.4708  0.5843 -0.6375
  159SAPE  H20S17819   2.618   2.839   9.020 -1.4562  0.4093 -0.8282
  159SAPE  H20T17820   2.547   3.008   9.025 -0.2883 -0.4039  0.6502
  159SAPE   C3317821   2.928   2.854   7.325 -0.2722  0.0636  0.7324
  159SAPE   H3X17822   2.868   2.764   7.349  0.3518 -0.5053  0.1875
  159SAPE   H3Y17823   2.867   2.947   7.333  1.5198  1.1853  2.0545
  159SAPE   C3417824   3.036   2.862   7.427  0.0290 -0.2613  0.5172
  159SAPE   H4X17825   3.100   2.948   7.398  0.0734 -0.0472  1.2435
  159SAPE   H4Y17826   3.086   2.763   7.435 -3.2913 -1.9568  2.1288
  159SAPE   C3517827   2.981   2.879   7.570  0.7001 -0.1409  0.4664
  159SAPE   H5X17828   2.912   2.792   7.580 -0.5114  0.4252 -2.0771
  159SAPE   H5Y17829   2.928   2.977   7.575 -0.9050 -0.9322 -0.2153
  159SAPE   C3617830   3.080   2.872   7.679 -0.5002 -0.0736  0.1545
  159SAPE   H6X17831   3.153   2.956   7.667  0.4770 -0.6048  1.8825
  159SAPE   H6Y17832   3.140   2.782   7.654 -0.1095 -0.4376  2.2118
  159SAPE   C3717833   3.014   2.866   7.818 -0.5069  0.3014 -0.0363
  159SAPE   H7X17834   2.948   2.955   7.828  0.7632  1.0260  3.4770
  159SAPE   H7Y17835   3.097   2.871   7.892  0.7272  0.2522 -1.3718
  159SAPE   C3817836   2.940   2.732   7.834  0.8625 -0.4893 -0.2469
  159SAPE   H8X17837   2.998   2.639   7.812 -0.1142 -1.2300  0.2467
  159SAPE   H8Y17838   2.851   2.748   7.769  1.2307  1.9317 -0.2448
  159SAPE   C3917839   2.888   2.711   7.970 -0.2100 -0.3533 -0.6829
  159SAPE   H9X17840   2.815   2.628   7.968 -1.2740  0.5529 -0.4391
  159SAPE   H9Y17841   2.840   2.808   7.996  0.6691  0.0294 -0.4305
  159SAPE  C31017842   2.995   2.669   8.073  0.4213 -0.2151 -0.3366
  159SAPE  H10X17843   3.075   2.745   8.062 -0.3978  0.6033 -0.8225
  159SAPE  H10Y17844   3.031   2.568   8.046  3.7337  0.4212  1.2057
  159SAPE  C31117845   2.945   2.682   8.218  0.0283  0.1447 -0.1387
  159SAPE  H11X17846   2.917   2.789   8.222 -0.1665  0.1237 -0.8429
  159SAPE  H11Y17847   3.034   2.660   8.281  1.1256  2.3815 -0.8075
  159SAPE  C31217848   2.817   2.597   8.249 -0.5350  0.3201 -0.5639
  159SAPE  H12X17849   2.837   2.490   8.225  0.5285  0.2176  0.6558
  159SAPE  H12Y17850   2.735   2.634   8.184  0.9116  2.9924 -1.0003
  159SAPE  C31317851   2.758   2.601   8.398  0.8443  0.2247 -0.5120
  159SAPE  H13X17852   2.663   2.545   8.403  0.4546  0.8452 -0.8027
  159SAPE  H13Y17853   2.731   2.706   8.423 -0.2874 -0.2934  0.5370
  159SAPE  C31417854   2.849   2.538   8.499  0.0977 -0.0380  0.8155
  159SAPE  H14X17855   2.939   2.604   8.499  0.2053 -0.1233  3.1397
  159SAPE  H14Y17856   2.883   2.435   8.476 -1.7531 -0.4700 -0.1729
  159SAPE  C31517857   2.791   2.536   8.645  0.1287 -0.3101  0.4171
  159SAPE  H15X17858   2.699   2.474   8.659  0.2743 -0.3456  1.3053
  159SAPE  H15Y17859   2.757   2.640   8.665  0.6173  0.1326 -0.9587
  159SAPE  C31617860   2.888   2.491   8.747  0.1158  0.0735  0.1297
  159SAPE  H16X17861   2.981   2.550   8.733  0.7089 -0.3418  2.0384
  159SAPE  H16Y17862   2.909   2.385   8.724 -2.9424 -0.6452  0.3097
  159SAPE  C31717863   2.835   2.500   8.893 -0.2780  0.6079  0.1354
  159SAPE  H17X17864   2.906   2.450   8.963  1.0652 -0.0777 -1.6435
  159SAPE  H17Y17865   2.733   2.457   8.899 -0.2597  0.3938 -0.9355
  159SAPE  C31817866   2.819   2.644   8.940  0.1650  0.2282  0.1499
  159SAPE  H18X17867   2.725   2.692   8.906  1.4308  2.5354 -0.3617
  159SAPE  H18Y17868   2.898   2.707   8.893  0.7353  0.3994  1.3067
  159SAPE  H18Z17869   2.820   2.659   9.050 -2.4360 -0.2803  0.3116
  160SAPE     N17870   1.126   4.294   6.259 -0.5199  0.6387  0.0326
  160SAPE   HN117871   1.063   4.334   6.186 -0.3079  1.9235  0.5475
  160SAPE   HN217872   1.201   4.365   6.261 -2.0523  2.3203 -0.2210
  160SAPE   HN317873   1.158   4.202   6.220 -1.8215  0.0631  0.2694
  160SAPE   C1217874   1.049   4.287   6.388 -0.6494 -0.0515 -0.2649
  160SAPE  H12A17875   1.122   4.263   6.470 -0.8305 -0.0297 -0.0964
  160SAPE  H12B17876   0.979   4.202   6.374  2.9362 -3.2123 -0.6606
  160SAPE   C1117877   0.975   4.424   6.407 -0.2920  0.5463  0.5733
  160SAPE  H11A17878   1.059   4.494   6.426  1.7210 -1.9151  1.2176
  160SAPE  H11B17879   0.917   4.419   6.501  0.3254 -1.1861  0.8995
  160SAPE     P17880   0.766   4.533   6.287  0.1510 -0.0043  0.0225
  160SAPE   O1317881   0.771   4.645   6.195 -0.7501  0.3755  0.2921
  160SAPE   O1417882   0.653   4.435   6.265 -0.4020 -0.3860  0.1505
  160SAPE   O1217883   0.907   4.462   6.285 -0.2247  0.4166 -0.1424
  160SAPE   O1117884   0.757   4.595   6.431 -0.2913 -0.8415 -0.3420
  160SAPE    C117885   0.650   4.691   6.459 -0.9694  0.2431  0.0253
  160SAPE    HA17886   0.671   4.797   6.436 -0.5892  0.4482  1.2623
  160SAPE    HB17887   0.555   4.659   6.411 -0.8969 -0.3269  0.2523
  160SAPE    C217888   0.609   4.697   6.611 -0.2165  0.0081 -0.3936
  160SAPE    HS17889   0.535   4.779   6.621 -1.1045 -0.8306  0.0640
  160SAPE   O2117890   0.734   4.720   6.678 -0.5035 -0.1062 -0.5837
  160SAPE   C2117891   0.769   4.848   6.694 -0.3391 -0.0945 -0.4958
  160SAPE   O2217892   0.705   4.944   6.653 -0.4069  0.2945 -0.0108
  160SAPE   C2217893   0.888   4.864   6.785 -0.6941  0.1850 -0.3878
  160SAPE   H2R17894   0.948   4.771   6.774 -0.0930  0.5833 -0.5049
  160SAPE   H2S17895   0.959   4.944   6.755 -0.6264  0.5610  0.7299
  160SAPE    C317896   0.540   4.558   6.652  0.0666 -0.2079 -1.0569
  160SAPE    HX17897   0.609   4.471   6.639 -0.5396 -0.8951  0.1055
  160SAPE    HY17898   0.462   4.544   6.574 -1.5110 -2.2085  0.7623
  160SAPE   O3117899   0.500   4.562   6.797  0.5357  0.2437 -0.1400
  160SAPE   C3117900   0.375   4.603   6.812 -0.2573  0.1167 -0.0849
  160SAPE   O3217901   0.300   4.633   6.721 -0.0859  0.6836 -1.1377
  160SAPE   C3217902   0.338   4.597   6.967  0.5288  0.7324 -0.1400
  160SAPE   H2X17903   0.383   4.678   7.028 -1.3451 -1.3998  4.5848
  160SAPE   H2Y17904   0.374   4.496   6.997 -1.5912 -0.2056 -0.4931
  160SAPE   C2317905   0.845   4.878   6.931  0.3684  0.2988  0.0872
  160SAPE   H3R17906   0.809   4.775   6.952  1.1681 -0.2040 -0.9160
  160SAPE   H3S17907   0.759   4.942   6.961 -1.8144 -2.7552  0.8348
  160SAPE   C2417908   0.969   4.896   7.025  0.6398 -0.5213  0.2321
  160SAPE   H4R17909   1.054   4.835   6.989  0.1647  0.2142 -2.2905
  160SAPE   H4S17910   0.939   4.854   7.123 -2.2709 -2.3857 -1.3097
  160SAPE   C2517911   0.998   5.041   7.043 -0.2679  0.0366  0.9526
  160SAPE   H5R17912   1.052   5.091   6.961 -1.4640  1.7866  1.1566
  160SAPE   C2617913   0.953   5.114   7.138 -0.2165 -0.0489 -0.2072
  160SAPE   H6R17914   0.972   5.222   7.143 -3.7000  0.6292  0.9591
  160SAPE   C2717915   0.874   5.073   7.262 -0.0455  0.0526  0.4205
  160SAPE   H7R17916   0.786   5.011   7.232  0.7555 -1.6882  1.4870
  160SAPE   H7S17917   0.834   5.167   7.306 -0.7090 -1.2726  2.8722
  160SAPE   C2817918   0.952   4.988   7.363  0.3443 -0.2837  0.5167
  160SAPE   H8R17919   1.052   4.957   7.330  0.5767 -1.1346  1.9243
  160SAPE   C2917920   0.925   4.961   7.496  0.2971 -0.4435 -0.1314
  160SAPE   H9R17921   1.011   4.920   7.550 -0.8928 -1.7636  0.8241
  160SAPE  C21017922   0.812   5.022   7.573  0.1335 -0.3952 -0.7251
  160SAPE  H10R17923   0.735   4.942   7.572  0.1507 -0.4113 -1.3692
  160SAPE  H10S17924   0.763   5.116   7.539  0.2389 -0.2083 -0.3601
  160SAPE  C21117925   0.853   5.044   7.715  0.6965 -0.0475  0.3261
  160SAPE  H11R17926   0.950   5.093   7.732 -0.3392  1.2376  3.3210
  160SAPE  C21217927   0.790   5.002   7.830 -0.3578 -0.1591  0.0463
  160SAPE  H12R17928   0.833   5.016   7.931  1.2785  2.7838 -0.9426
  160SAPE  C21317929   0.663   4.921   7.827 -0.3485 -0.0454  0.5593
  160SAPE  H13R17930   0.608   4.938   7.732  1.7244  0.2320 -0.6612
  160SAPE  H13S17931   0.586   4.957   7.898 -1.3571 -0.6480 -0.2092
  160SAPE  C21417932   0.686   4.776   7.848 -0.5228 -0.5819 -0.0572
  160SAPE  H14R17933   0.709   4.721   7.756 -2.2627 -1.3211 -0.0883
  160SAPE  C21517934   0.666   4.709   7.963 -0.1343  0.3935  0.6370
  160SAPE  H15R17935   0.703   4.606   7.961  1.9603  1.1131  0.3132
  160SAPE  C21617936   0.627   4.762   8.103 -0.1649 -0.4346  0.1840
  160SAPE  H16R17937   0.533   4.709   8.129 -1.4043  0.6736 -1.8000
  160SAPE  H16S17938   0.599   4.869   8.092  0.6480 -0.1627  0.6642
  160SAPE  C21717939   0.735   4.751   8.204  0.6417  0.0488  0.1001
  160SAPE  H17R17940   0.825   4.801   8.163  1.2508 -1.9655 -1.1834
  160SAPE  H17S17941   0.772   4.647   8.219 -0.2380 -0.4949 -1.3163
  160SAPE  C21817942   0.692   4.827   8.339 -0.4655  0.2581  0.5364
  160SAPE  H18R17943   0.709   4.937   8.335 -0.7060  0.2961  0.5132
  160SAPE  H18S17944   0.754   4.788   8.422  0.7395  1.2357  0.1245
  160SAPE  C21917945   0.550   4.802   8.378  0.2213  0.3501  0.2588
  160SAPE  H19R17946   0.482   4.841   8.298  2.2312  1.4817 -0.9742
  160SAPE  H19S17947   0.535   4.876   8.460 -0.4498  0.8392 -0.2956
  160SAPE  C22017948   0.515   4.662   8.424 -0.5394  0.0418 -0.1727
  160SAPE  H20R17949   0.418   4.664   8.477 -1.0592 -0.1684 -1.0902
  160SAPE  H20S17950   0.597   4.624   8.488 -0.0982  0.7608 -0.2906
  160SAPE  H20T17951   0.525   4.594   8.337 -0.8151 -0.2181  0.0004
  160SAPE   C3317952   0.188   4.593   7.001 -0.4209 -0.2979  0.0375
  160SAPE   H3X17953   0.177   4.581   7.111  1.3696 -2.1693  0.0907
  160SAPE   H3Y17954   0.136   4.510   6.947 -0.0598 -0.8562  0.5311
  160SAPE   C3417955   0.119   4.730   6.963  0.3073 -0.2677 -0.2578
  160SAPE   H4X17956   0.178   4.778   6.882  2.8093 -0.6151  1.2499
  160SAPE   H4Y17957   0.130   4.803   7.046 -0.6016 -0.1482 -0.2354
  160SAPE   C3517958  -0.030   4.718   6.933  0.2586 -0.3347  0.5661
  160SAPE   H5X17959  -0.089   4.685   7.021 -1.9584  0.8806 -0.3883
  160SAPE   H5Y17960  -0.047   4.634   6.863  0.0568 -0.1412  0.3784
  160SAPE   C3617961  -0.094   4.854   6.895 -0.3752 -0.3886 -0.3201
  160SAPE   H6X17962  -0.203   4.832   6.900 -0.3408 -0.3027  1.0385
  160SAPE   H6Y17963  -0.069   4.860   6.787  1.0604  0.8066  0.0418
  160SAPE   C3717964  -0.062   4.967   6.991  0.1451  0.1879 -0.6675
  160SAPE   H7X17965   0.033   5.013   6.956  0.1476  0.7418  0.0419
  160SAPE   H7Y17966  -0.049   4.920   7.090 -0.5229  0.1490 -0.5933
  160SAPE   C3817967  -0.172   5.073   7.004  0.7280  0.2395  0.3020
  160SAPE   H8X17968  -0.260   5.024   7.053 -0.1102  0.9063 -0.4899
  160SAPE   H8Y17969  -0.195   5.099   6.898 -0.8660  4.0604  1.4166
  160SAPE   C3917970  -0.126   5.193   7.083  0.8034 -0.0036  0.5768
  160SAPE   H9X17971  -0.213   5.262   7.087 -1.6048 -2.6904 -1.1963
  160SAPE   H9Y17972  -0.034   5.232   7.035  1.7839 -1.5446  1.1137
  160SAPE  C31017973  -0.102   5.169   7.232  0.2105  0.9395  0.5176
  160SAPE  H10X17974  -0.025   5.090   7.232 -2.8779 -2.3849 -0.9504
  160SAPE  H10Y17975  -0.196   5.131   7.277 -0.5830 -0.5893 -2.1537
  160SAPE  C31117976  -0.056   5.292   7.301  0.3305 -0.1542 -0.9842
  160SAPE  H11X17977  -0.145   5.357   7.317  0.4826  0.1461 -1.3249
  160SAPE  H11Y17978   0.026   5.346   7.249  1.3385 -0.7087 -0.0154
  160SAPE  C31217979  -0.004   5.249   7.441  0.5739 -0.0094 -0.3324
  160SAPE  H12X17980   0.063   5.319   7.495  0.3945  0.1063 -0.2611
  160SAPE  H12Y17981   0.054   5.155   7.429  0.9261  0.0614  0.7232
  160SAPE  C31317982  -0.114   5.218   7.545  0.6356  0.2986  0.2918
  160SAPE  H13X17983  -0.186   5.146   7.499  0.6125 -0.2698  1.1908
  160SAPE  H13Y17984  -0.170   5.310   7.569 -0.7631 -0.8732  1.8131
  160SAPE  C31417985  -0.057   5.166   7.677 -0.3534  0.3653  0.1120
  160SAPE  H14X17986   0.013   5.234   7.730  0.6363  0.8924 -1.7649
  160SAPE  H14Y17987   0.013   5.087   7.640 -1.8761  0.0425 -2.2995
  160SAPE  C31517988  -0.162   5.117   7.782 -0.2550  0.8516  0.7643
  160SAPE  H15X17989  -0.222   5.204   7.816 -0.1121  1.0351  0.5466
  160SAPE  H15Y17990  -0.118   5.085   7.879 -0.6084 -0.4179  0.5157
  160SAPE  C31617991  -0.254   5.002   7.735 -0.1975 -0.5840  0.1819
  160SAPE  H16X17992  -0.203   4.910   7.699  1.4649 -0.4316  1.9858
  160SAPE  H16Y17993  -0.318   5.040   7.653  1.5663  0.0594 -0.9510
  160SAPE  C31717994  -0.354   4.950   7.842 -0.9489 -0.0625  0.0712
  160SAPE  H17X17995  -0.430   4.887   7.791  0.0024 -0.5812 -0.7461
  160SAPE  H17Y17996  -0.415   5.037   7.873  1.1295  1.2452  0.6738
  160SAPE  C31817997  -0.294   4.880   7.963  0.5701 -0.1439 -0.2445
  160SAPE  H18X17998  -0.246   4.958   8.027  1.1186  0.1956 -1.0520
  160SAPE  H18Y17999  -0.223   4.798   7.938  0.4689 -0.4038  0.3036
  160SAPE  H18Z18000  -0.372   4.828   8.023  1.2073 -0.9644 -0.1117
  161SAPE     N18001   4.963   3.886   5.994  0.4471 -0.6409 -0.4759
  161SAPE   HN118002   5.057   3.847   6.011  0.0727 -1.2455  0.2823
  161SAPE   HN218003   4.917   3.831   5.918 -1.0571  0.2558 -0.2729
  161SAPE   HN318004   4.968   3.985   5.962 -0.9598 -0.0009  1.0968
  161SAPE   C1218005   4.891   3.884   6.125 -0.6083 -0.2612 -0.3532
  161SAPE  H12A18006   4.783   3.906   6.114 -0.0173  3.0161 -0.6688
  161SAPE  H12B18007   4.943   3.957   6.191 -1.7426  0.2484 -0.0167
  161SAPE   C1118008   4.912   3.746   6.185  0.5008 -0.5967 -0.6231
  161SAPE  H11A18009   4.834   3.678   6.144  0.4692 -0.7708 -0.2834
  161SAPE  H11B18010   4.879   3.764   6.290  1.7582 -0.1527 -0.2799
  161SAPE     P18011   5.058   3.533   6.134  0.3759  0.3662 -0.2586
  161SAPE   O1318012   5.050   3.524   5.987  0.4212  0.6597  0.5458
  161SAPE   O1418013   5.173   3.480   6.201  0.3535 -0.0786  0.5610
  161SAPE   O1218014   5.049   3.692   6.179  0.5347 -0.2427  0.5619
  161SAPE   O1118015   4.929   3.457   6.201 -0.1056  0.3349 -0.2588
  161SAPE    C118016   4.917   3.462   6.338  0.3001 -0.5311 -0.0181
  161SAPE    HA18017   5.016   3.439   6.383  0.7734  1.2396 -0.1024
  161SAPE    HB18018   4.869   3.555   6.373  1.3422  1.4854 -3.4792
  161SAPE    C218019   4.810   3.353   6.391  0.7772 -0.3762 -0.1317
  161SAPE    HS18020   4.864   3.256   6.387  2.4259  0.4418  1.1700
  161SAPE   O2118021   4.689   3.355   6.315 -0.0678 -0.1133  0.1372
  161SAPE   C2118022   4.615   3.243   6.299  0.4791  0.4033  0.0936
  161SAPE   O2218023   4.636   3.145   6.361 -0.1186  0.0939 -0.7111
  161SAPE   C2218024   4.492   3.271   6.208  0.2740 -0.0219 -0.6005
  161SAPE   H2R18025   4.464   3.376   6.228  0.5251 -0.3374  1.7356
  161SAPE   H2S18026   4.526   3.267   6.103  3.1447  0.4413  0.2216
  161SAPE    C318027   4.769   3.383   6.535 -0.6808 -0.3270 -0.4918
  161SAPE    HX18028   4.695   3.304   6.559 -1.8675  0.9009  0.0240
  161SAPE    HY18029   4.712   3.478   6.543 -1.4807 -0.8992  0.9505
  161SAPE   O3118030   4.880   3.389   6.625 -0.2342 -0.6910 -0.3771
  161SAPE   C3118031   4.934   3.266   6.647  0.2383  0.1159 -0.5483
  161SAPE   O3218032   4.901   3.166   6.589  0.5613  0.0956 -0.1932
  161SAPE   C3218033   5.037   3.271   6.766  0.6806  0.6852  0.2177
  161SAPE   H2X18034   5.120   3.334   6.728  1.1559  0.1517  0.3501
  161SAPE   H2Y18035   5.073   3.166   6.778  1.8999  0.9236 -1.1056
  161SAPE   C2318036   4.382   3.171   6.223  0.2559 -0.8834 -0.8067
  161SAPE   H3R18037   4.407   3.067   6.250 -2.1113 -1.3502 -0.1580
  161SAPE   H3S18038   4.329   3.164   6.125  1.1269 -0.0193 -1.3592
  161SAPE   C2418039   4.276   3.242   6.322 -0.4620 -0.6071  0.5976
  161SAPE   H4R18040   4.238   3.333   6.270  0.4583  0.2204  1.3239
  161SAPE   H4S18041   4.344   3.287   6.398  0.4208  2.4740 -1.8073
  161SAPE   C2518042   4.171   3.148   6.370 -0.1396 -0.0812 -0.7840
  161SAPE   H5R18043   4.083   3.144   6.304 -0.4046 -2.3356 -0.3626
  161SAPE   C2618044   4.179   3.068   6.480 -0.5822  0.2438  0.9370
  161SAPE   H6R18045   4.094   3.009   6.516 -1.5710  1.0058 -0.0665
  161SAPE   C2718046   4.294   3.052   6.577  0.7156 -0.5517  0.2650
  161SAPE   H7R18047   4.378   3.118   6.544 -0.5272 -0.3794 -2.9219
  161SAPE   H7S18048   4.336   2.949   6.569  2.8672  0.2542  0.3944
  161SAPE   C2818049   4.255   3.092   6.720 -0.6760 -0.4136  0.0570
  161SAPE   H8R18050   4.179   3.171   6.728 -1.9132 -1.5858  0.2286
  161SAPE   C2918051   4.307   3.040   6.832 -0.0341  0.1926 -0.0643
  161SAPE   H9R18052   4.254   3.064   6.925 -2.6411 -2.7483 -0.6204
  161SAPE  C21018053   4.413   2.932   6.841 -0.2763  0.7962 -0.7214
  161SAPE  H10R18054   4.501   2.977   6.893  0.4408 -0.5023 -0.7773
  161SAPE  H10S18055   4.456   2.911   6.741  2.0198 -0.8025  0.5087
  161SAPE  C21118056   4.379   2.805   6.913 -0.4064 -0.1512  0.6698
  161SAPE  H11R18057   4.335   2.723   6.854 -2.1293  0.4740  1.0367
  161SAPE  C21218058   4.379   2.788   7.046 -0.5925  0.7109  0.6988
  161SAPE  H12R18059   4.360   2.688   7.087  1.6846 -0.4252 -0.8498
  161SAPE  C21318060   4.413   2.893   7.147  0.6667  0.2838  0.6402
  161SAPE  H13R18061   4.335   2.872   7.224 -1.8203  0.4631 -1.6749
  161SAPE  H13S18062   4.404   3.001   7.122 -1.1812  0.3086  1.2292
  161SAPE  C21418063   4.550   2.881   7.206  0.5460  0.3782  0.5976
  161SAPE  H14R18064   4.636   2.892   7.137  2.1463  1.7496  2.6837
  161SAPE  C21518065   4.579   2.830   7.325  0.5402 -0.0360 -1.0961
  161SAPE  H15R18066   4.683   2.818   7.359 -0.1597  0.1441  1.3160
  161SAPE  C21618067   4.483   2.785   7.432 -0.2950 -0.0348  0.5425
  161SAPE  H16R18068   4.481   2.674   7.441  1.5545 -0.1354  0.1479
  161SAPE  H16S18069   4.381   2.826   7.422  0.2323  1.5087  1.2469
  161SAPE  C21718070   4.544   2.841   7.561  0.4932 -0.7419 -1.0507
  161SAPE  H17R18071   4.558   2.950   7.543 -1.7484 -0.2286 -0.1025
  161SAPE  H17S18072   4.643   2.800   7.588  0.2606 -1.6679 -1.5675
  161SAPE  C21818073   4.450   2.814   7.675 -0.1034  0.0664 -0.2353
  161SAPE  H18R18074   4.434   2.704   7.683 -1.4036  0.3034  1.0145
  161SAPE  H18S18075   4.356   2.868   7.651  1.0813  1.3888 -2.2119
  161SAPE  C21918076   4.510   2.880   7.802  0.2620  0.4442 -0.0011
  161SAPE  H19R18077   4.618   2.861   7.790  0.3223 -1.1775  2.3613
  161SAPE  H19S18078   4.494   2.815   7.891 -2.2377  0.1098 -0.5942
  161SAPE  C22018079   4.498   3.030   7.842  0.0427  0.2012 -0.3276
  161SAPE  H20R18080   4.391   3.047   7.865  0.1888  0.9436 -0.1989
  161SAPE  H20S18081   4.520   3.093   7.753  0.2153 -0.6799 -0.9326
  161SAPE  H20T18082   4.560   3.053   7.931 -1.4621  0.9023  0.5782
  161SAPE   C3318083   4.972   3.324   6.897 -0.5867 -0.4865  0.2232
  161SAPE   H3X18084   4.889   3.253   6.921  0.8448 -2.3511 -0.1016
  161SAPE   H3Y18085   4.945   3.431   6.887  1.2865  0.0359  0.5146
  161SAPE   C3418086   5.080   3.321   7.011  0.3511  0.8423  0.2045
  161SAPE   H4X18087   5.166   3.378   6.969  2.4291 -0.8657  1.8869
  161SAPE   H4Y18088   5.126   3.220   7.016 -1.4446  0.0319  1.5768
  161SAPE   C3518089   5.019   3.373   7.142  0.7017  0.3209  0.5057
  161SAPE   H5X18090   4.919   3.328   7.158  0.7913 -0.2008 -0.3542
  161SAPE   H5Y18091   4.991   3.479   7.127 -1.7571 -0.5051 -1.3058
  161SAPE   C3618092   5.115   3.352   7.257 -0.5506  0.0700  0.5806
  161SAPE   H6X18093   5.214   3.368   7.208 -0.4605 -2.3869 -0.1739
  161SAPE   H6Y18094   5.105   3.243   7.272 -0.0642 -0.2167 -0.9823
  161SAPE   C3718095   5.084   3.439   7.380  0.1457  0.2333 -0.3250
  161SAPE   H7X18096   4.987   3.418   7.430 -0.5080 -0.0816 -1.6744
  161SAPE   H7Y18097   5.081   3.546   7.351 -0.4760  0.3803  0.2604
  161SAPE   C3818098   5.191   3.430   7.492 -0.2147 -0.4302  0.1246
  161SAPE   H8X18099   5.289   3.466   7.454 -1.0631  1.8841 -0.0589
  161SAPE   H8Y18100   5.186   3.322   7.516 -5.2294 -0.1159  1.5629
  161SAPE   C3918101   5.142   3.506   7.621  0.0827 -0.2264  0.7261
  161SAPE   H9X18102   5.125   3.606   7.577 -0.9218 -0.1128  1.3469
  161SAPE   H9Y18103   5.236   3.509   7.681  0.8435  1.6760 -0.4667
  161SAPE  C31018104   5.032   3.451   7.713  0.3920 -0.3928  0.3566
  161SAPE  H10X18105   5.060   3.347   7.741  2.3479  0.1752  0.6898
  161SAPE  H10Y18106   4.934   3.454   7.660  1.1486 -1.6411 -1.2171
  161SAPE  C31118107   5.040   3.541   7.839  0.1409  0.1592 -0.4210
  161SAPE  H11X18108   5.020   3.650   7.832 -1.3940 -0.1220 -0.8209
  161SAPE  H11Y18109   5.144   3.526   7.875 -0.2102 -1.0611  0.1262
  161SAPE  C31218110   4.942   3.485   7.939 -0.5007 -0.4488  0.0747
  161SAPE  H12X18111   4.966   3.380   7.965  1.5944  0.1227  0.6914
  161SAPE  H12Y18112   4.843   3.482   7.890 -0.9414  1.3914  0.7692
  161SAPE  C31318113   4.938   3.569   8.072 -0.4307 -0.9208  0.1616
  161SAPE  H13X18114   4.962   3.672   8.038  0.3829 -1.4553 -0.9674
  161SAPE  H13Y18115   5.024   3.527   8.129 -1.1933 -0.2275  1.8905
  161SAPE  C31418116   4.807   3.562   8.149  0.0768 -0.0252  0.4299
  161SAPE  H14X18117   4.731   3.601   8.078 -0.5103  1.5618  1.8464
  161SAPE  H14Y18118   4.809   3.635   8.233  0.2895  0.2500  0.1909
  161SAPE  C31518119   4.774   3.431   8.209  0.3032  0.1463  0.0870
  161SAPE  H15X18120   4.843   3.409   8.294 -0.6908 -0.3233  0.7923
  161SAPE  H15Y18121   4.781   3.344   8.141 -0.1336 -3.0666  3.8199
  161SAPE  C31618122   4.634   3.438   8.275  0.8142  0.2508  0.6528
  161SAPE  H16X18123   4.607   3.330   8.283  0.4945  0.1789 -0.9545
  161SAPE  H16Y18124   4.553   3.471   8.207  0.9627 -0.3562  0.1652
  161SAPE  C31718125   4.619   3.507   8.406 -0.5630  0.5115  0.1366
  161SAPE  H17X18126   4.512   3.517   8.435 -0.6910  1.2319 -0.5395
  161SAPE  H17Y18127   4.650   3.613   8.388  1.4811 -0.1621 -0.6145
  161SAPE  C31818128   4.699   3.439   8.519 -0.2837  1.2305  0.3109
  161SAPE  H18X18129   4.686   3.504   8.608 -1.0063 -0.1654  1.2559
  161SAPE  H18Y18130   4.808   3.422   8.503 -0.4294 -0.5501  0.9473
  161SAPE  H18Z18131   4.653   3.340   8.537  1.1695  0.4852  0.0544
  162SAPE     N18132   3.944   4.272   6.182  0.1973  0.4701 -0.1428
  162SAPE   HN118133   3.878   4.223   6.118 -0.1863  2.0337 -1.0037
  162SAPE   HN218134   3.977   4.232   6.272  1.7874 -0.0545 -0.9126
  162SAPE   HN318135   3.901   4.362   6.211 -0.2772 -0.2525  1.4959
  162SAPE   C1218136   4.074   4.279   6.109 -0.9166  0.0075  0.0329
  162SAPE  H12A18137   4.141   4.343   6.170 -0.7313  0.0090 -0.1732
  162SAPE  H12B18138   4.066   4.319   6.006  1.9808  0.0636 -0.2319
  162SAPE   C1118139   4.142   4.147   6.109  0.0031 -0.1079  0.3082
  162SAPE  H11A18140   4.169   4.131   6.215  2.2395 -1.0994 -0.3588
  162SAPE  H11B18141   4.238   4.151   6.054  0.6203 -1.3622  1.2513
  162SAPE     P18142   4.100   3.895   6.102  0.3015  0.5503 -0.4583
  162SAPE   O1318143   3.986   3.804   6.059 -0.3951  0.5427 -0.6311
  162SAPE   O1418144   4.239   3.866   6.063 -0.0556 -0.3113  0.3477
  162SAPE   O1218145   4.067   4.039   6.053  0.2418  0.2668  0.1733
  162SAPE   O1118146   4.103   3.907   6.257  0.6845 -0.2923  0.1306
  162SAPE    C118147   3.995   3.894   6.344  0.0932 -0.1950 -0.2038
  162SAPE    HA18148   3.921   3.975   6.330 -0.3973 -0.5770  0.1218
  162SAPE    HB18149   3.952   3.792   6.348  0.9241 -0.5472  2.6900
  162SAPE    C218150   4.047   3.914   6.493  0.6656  0.1739 -0.1682
  162SAPE    HS18151   4.084   4.019   6.496 -0.7791  0.7232 -0.8588
  162SAPE   O2118152   4.142   3.809   6.518 -0.2424 -0.6528 -0.5342
  162SAPE   C2118153   4.269   3.834   6.504 -0.0626 -0.5129  0.1885
  162SAPE   O2218154   4.318   3.943   6.479 -0.7332 -0.2921 -0.4984
  162SAPE   C2218155   4.344   3.706   6.529  0.6075  0.2353  0.0144
  162SAPE   H2R18156   4.270   3.624   6.532  0.3770  0.4166 -0.6113
  162SAPE   H2S18157   4.408   3.696   6.439 -0.9021 -0.8026 -0.9939
  162SAPE    C318158   3.922   3.910   6.588  0.1453 -0.0754  0.6596
  162SAPE    HX18159   3.883   3.807   6.573 -0.3651 -0.2261  2.6917
  162SAPE    HY18160   3.839   3.966   6.541 -2.4221 -1.7369  2.9306
  162SAPE   O3118161   3.949   3.936   6.725 -0.0037 -0.2920 -0.2372
  162SAPE   C3118162   3.948   4.068   6.760 -0.0432 -0.2367  0.0911
  162SAPE   O3218163   3.942   4.160   6.679 -0.0773 -0.6580 -0.5979
  162SAPE   C3218164   3.950   4.104   6.912 -0.5078  0.8582  0.4588
  162SAPE   H2X18165   3.871   4.180   6.924 -0.0568  1.5502 -0.7404
  162SAPE   H2Y18166   4.043   4.156   6.942  0.4268  0.8234 -2.1302
  162SAPE   C2318167   4.447   3.719   6.645  0.4065 -0.2351 -0.6818
  162SAPE   H3R18168   4.483   3.822   6.661  2.0307 -0.8388 -0.2765
  162SAPE   H3S18169   4.538   3.663   6.614  1.1710  0.2417  0.6429
  162SAPE   C2418170   4.407   3.650   6.787 -0.1291 -0.0193 -0.0848
  162SAPE   H4R18171   4.326   3.712   6.831  0.7627  0.9939  0.1673
  162SAPE   H4S18172   4.488   3.671   6.859  0.3902 -0.8638 -0.4143
  162SAPE   C2518173   4.371   3.504   6.787  0.1176  0.0062 -0.3652
  162SAPE   H5R18174   4.285   3.476   6.723  0.1748 -1.0416 -0.0076
  162SAPE   C2618175   4.424   3.403   6.854 -0.0839  0.2624 -0.1034
  162SAPE   H6R18176   4.397   3.297   6.840 -1.4781 -0.1383  4.1042
  162SAPE   C2718177   4.544   3.407   6.954  0.1376 -0.7007  0.6215
  162SAPE   H7R18178   4.520   3.489   7.024  0.1578 -0.6107  0.5237
  162SAPE   H7S18179   4.637   3.427   6.896 -1.8906 -1.7773 -3.4110
  162SAPE   C2818180   4.563   3.281   7.023  0.1760  0.1569 -0.3703
  162SAPE   H8R18181   4.578   3.196   6.955 -1.0762  1.1691 -2.0015
  162SAPE   C2918182   4.568   3.258   7.158 -0.1527  0.3380  0.5483
  162SAPE   H9R18183   4.581   3.154   7.191 -0.7101 -0.5821 -1.9322
  162SAPE  C21018184   4.551   3.361   7.272  0.2477 -0.0084  0.2728
  162SAPE  H10R18185   4.445   3.394   7.275  0.4792  0.6505  1.6633
  162SAPE  H10S18186   4.592   3.462   7.253 -1.9303  0.8379 -0.3133
  162SAPE  C21118187   4.589   3.322   7.412  0.2006 -0.6440  0.0408
  162SAPE  H11R18188   4.693   3.347   7.436 -0.5357  1.3793  1.4492
  162SAPE  C21218189   4.521   3.246   7.494 -0.6663 -0.0120  0.3152
  162SAPE  H12R18190   4.554   3.240   7.598 -0.3332  1.3793  0.3022
  162SAPE  C21318191   4.387   3.177   7.468 -0.0584 -0.7278  0.5240
  162SAPE  H13R18192   4.369   3.097   7.544  1.9317 -1.5569  0.1747
  162SAPE  H13S18193   4.386   3.123   7.371  0.1900  0.2982 -0.0684
  162SAPE  C21418194   4.271   3.280   7.459 -0.1721  0.2836  0.9700
  162SAPE  H14R18195   4.228   3.291   7.358 -0.8468 -1.0767  1.0857
  162SAPE  C21518196   4.212   3.345   7.562  0.2183  0.1514 -0.5274
  162SAPE  H15R18197   4.145   3.426   7.530  0.6255 -0.6667 -3.8129
  162SAPE  C21618198   4.247   3.327   7.707 -0.3543 -0.1693  0.7432
  162SAPE  H16R18199   4.339   3.380   7.737  0.0031 -0.2682 -0.1316
  162SAPE  H16S18200   4.262   3.217   7.718  4.2257 -0.4900 -4.2189
  162SAPE  C21718201   4.132   3.391   7.786 -0.1466  0.2905  0.4637
  162SAPE  H17R18202   4.035   3.367   7.738 -0.0411  2.3277 -0.8591
  162SAPE  H17S18203   4.151   3.500   7.784 -0.4648  0.3579  1.0220
  162SAPE  C21818204   4.122   3.321   7.928  0.0291 -0.2603  0.3461
  162SAPE  H18R18205   4.102   3.212   7.914  1.6253 -0.5507  0.0549
  162SAPE  H18S18206   4.045   3.375   7.986  0.2905  1.6947 -1.0304
  162SAPE  C21918207   4.255   3.348   7.999 -0.3287  0.5080 -0.8072
  162SAPE  H19R18208   4.276   3.454   8.024  0.2502 -0.0301  1.1774
  162SAPE  H19S18209   4.342   3.322   7.935  2.6692  0.7784  2.8457
  162SAPE  C22018210   4.251   3.252   8.124 -0.4997 -0.0525 -0.2535
  162SAPE  H20R18211   4.168   3.272   8.195 -0.5333  1.1777 -0.6253
  162SAPE  H20S18212   4.341   3.281   8.182 -0.4202  2.0516 -1.3463
  162SAPE  H20T18213   4.262   3.144   8.099  3.0059  0.1479 -0.0002
  162SAPE   C3318214   3.920   3.993   7.016 -0.5162 -0.0342  0.0769
  162SAPE   H3X18215   3.993   3.911   6.999 -0.2019  0.3294 -0.3551
  162SAPE   H3Y18216   3.818   3.951   7.000 -0.7361 -0.2278  1.8038
  162SAPE   C3418217   3.917   4.048   7.155  0.5642  0.1854 -1.1188
  162SAPE   H4X18218   3.828   4.115   7.155 -0.5741 -1.2918 -0.3474
  162SAPE   H4Y18219   4.007   4.110   7.179  0.8323 -0.8116  0.5743
  162SAPE   C3518220   3.914   3.938   7.261 -0.0083  0.5514  0.4220
  162SAPE   H5X18221   4.003   3.874   7.248 -1.1788 -0.6101 -2.7718
  162SAPE   H5Y18222   3.827   3.875   7.231  1.4982 -0.8092 -1.2484
  162SAPE   C3618223   3.896   3.967   7.408 -0.0406  0.0346 -0.4992
  162SAPE   H6X18224   3.790   3.985   7.433 -0.4786 -3.1240  0.4471
  162SAPE   H6Y18225   3.963   4.053   7.432  1.2877 -0.4781 -2.1378
  162SAPE   C3718226   3.928   3.844   7.492 -0.8239 -0.3894 -0.3429
  162SAPE   H7X18227   4.036   3.818   7.484 -1.4175 -3.0320 -0.7263
  162SAPE   H7Y18228   3.859   3.765   7.456 -1.6659  1.0130 -1.9851
  162SAPE   C3818229   3.898   3.868   7.643  0.4435  0.2465  0.3544
  162SAPE   H8X18230   3.789   3.888   7.656  0.3816  0.0989  0.0731
  162SAPE   H8Y18231   3.943   3.958   7.691  0.2870  0.5492 -0.0686
  162SAPE   C3918232   3.932   3.740   7.710 -1.2065  0.6188 -0.3406
  162SAPE   H9X18233   4.040   3.718   7.693 -1.3242 -0.6166  0.4313
  162SAPE   H9Y18234   3.883   3.647   7.673  0.1782 -0.5655  0.6741
  162SAPE  C31018235   3.914   3.736   7.865 -0.3539 -0.1291  0.5292
  162SAPE  H10X18236   3.940   3.640   7.916 -0.8344 -2.4212 -3.2089
  162SAPE  H10Y18237   3.803   3.743   7.877 -0.2120  0.9927  1.3464
  162SAPE  C31118238   3.984   3.858   7.938 -0.1995  1.2372  0.4586
  162SAPE  H11X18239   3.927   3.951   7.921  0.3714  1.2089 -1.9285
  162SAPE  H11Y18240   4.085   3.876   7.895  0.3920 -0.0620  1.2297
  162SAPE  C31218241   4.023   3.817   8.079  0.2517  0.5275 -0.1269
  162SAPE  H12X18242   4.081   3.900   8.124  0.8386  0.6545 -1.0784
  162SAPE  H12Y18243   4.098   3.735   8.073  0.3312  0.7219 -2.4456
  162SAPE  C31318244   3.905   3.779   8.174 -0.0357 -0.1584 -0.3512
  162SAPE  H13X18245   3.892   3.669   8.170 -0.9533 -0.0260 -1.3935
  162SAPE  H13Y18246   3.815   3.830   8.134 -0.6119 -0.4089  0.5859
  162SAPE  C31418247   3.916   3.820   8.323  0.5099  0.4506 -0.3697
  162SAPE  H14X18248   3.832   3.786   8.387  1.0152  0.9811  0.6027
  162SAPE  H14Y18249   3.908   3.931   8.320  2.4465  0.7462  1.9943
  162SAPE  C31518250   4.052   3.793   8.390 -0.1925 -0.2880 -0.1707
  162SAPE  H15X18251   4.034   3.833   8.492 -0.8984 -1.1724  0.0618
  162SAPE  H15Y18252   4.143   3.843   8.349  0.2669 -1.6346 -0.8601
  162SAPE  C31618253   4.078   3.642   8.410 -0.2633  0.1537 -0.5182
  162SAPE  H16X18254   4.125   3.601   8.318 -1.5796 -1.5928 -0.4891
  162SAPE  H16Y18255   3.974   3.605   8.425 -0.5429  1.7303  1.8617
  162SAPE  C31718256   4.161   3.604   8.535 -0.0571 -0.1286  0.6224
  162SAPE  H17X18257   4.176   3.494   8.539  0.6169 -0.0217  1.2541
  162SAPE  H17Y18258   4.101   3.619   8.628  0.2073 -1.2716  0.9938
  162SAPE  C31818259   4.298   3.675   8.548 -1.0975  0.9406 -0.1626
  162SAPE  H18X18260   4.361   3.631   8.629  0.8393  0.7490 -1.6874
  162SAPE  H18Y18261   4.291   3.781   8.579  4.6731  1.5353  0.1801
  162SAPE  H18Z18262   4.354   3.667   8.452 -2.2180 -0.8033 -0.7128
  163SAPE     N18263   4.169   0.980   6.348  0.5012 -0.5852 -0.6914
  163SAPE   HN118264   4.066   0.991   6.358  0.6203  1.3774 -1.3265
  163SAPE   HN218265   4.197   0.890   6.304  1.0858 -2.1032  2.4973
  163SAPE   HN318266   4.223   0.997   6.434 -1.2460  3.1311 -0.1243
  163SAPE   C1218267   4.212   1.079   6.244  0.3539 -0.1786  0.0251
  163SAPE  H12A18268   4.186   1.044   6.142  0.9073 -0.7465  0.0772
  163SAPE  H12B18269   4.323   1.079   6.244  0.4505 -0.5931 -3.1312
  163SAPE   C1118270   4.164   1.221   6.279  0.2215  0.2003 -0.2950
  163SAPE  H11A18271   4.054   1.212   6.291  0.4678 -0.2651  1.9815
  163SAPE  H11B18272   4.189   1.293   6.197 -0.8195  0.2404 -0.5967
  163SAPE     P18273   4.182   1.389   6.480  0.2038  0.1986  0.0345
  163SAPE   O1318274   4.306   1.465   6.503  0.1554 -0.5279  0.4122
  163SAPE   O1418275   4.077   1.463   6.403  0.3255  0.1593  0.2787
  163SAPE   O1218276   4.227   1.259   6.399  1.3546  0.5715  0.1825
  163SAPE   O1118277   4.126   1.330   6.615  0.4121 -0.8101  0.0277
  163SAPE    C118278   4.044   1.214   6.621  0.0562  0.1512  0.3742
  163SAPE    HA18279   3.990   1.195   6.526  1.0614  2.1565 -0.6708
  163SAPE    HB18280   4.101   1.122   6.644 -0.0448 -0.1417 -0.5260
  163SAPE    C218281   3.950   1.202   6.742  0.2068 -0.6153 -0.7015
  163SAPE    HS18282   3.863   1.270   6.726  0.9692  0.1442 -1.7633
  163SAPE   O2118283   4.032   1.239   6.861  0.4428 -0.1503  0.2131
  163SAPE   C2118284   4.049   1.370   6.870 -0.1413  0.2673 -0.5360
  163SAPE   O2218285   3.989   1.458   6.811 -0.0665 -0.4329  0.5982
  163SAPE   C2218286   4.160   1.391   6.977 -0.2260  0.4910  0.5324
  163SAPE   H2R18287   4.171   1.296   7.034 -2.1327 -0.6421 -0.8849
  163SAPE   H2S18288   4.254   1.422   6.927  0.8630  0.2050  2.2828
  163SAPE    C318289   3.889   1.065   6.761  0.4863  0.5188  0.3661
  163SAPE    HX18290   3.961   0.981   6.750 -0.5917 -0.5065  0.8750
  163SAPE    HY18291   3.828   1.039   6.671 -1.2924 -0.6570  1.8444
  163SAPE   O3118292   3.828   1.044   6.891  0.0716 -0.0152 -0.3063
  163SAPE   C3118293   3.696   1.073   6.884  0.4362 -0.2763 -0.6197
  163SAPE   O3218294   3.637   1.119   6.789 -0.3533 -0.2746  0.3163
  163SAPE   C3218295   3.632   1.052   7.022  0.2484  0.6863 -0.5296
  163SAPE   H2X18296   3.702   0.999   7.089 -1.7195  0.7313  1.7061
  163SAPE   H2Y18297   3.547   0.982   7.005 -0.4013  0.7742  1.9096
  163SAPE   C2318298   4.116   1.513   7.057  0.2935  0.0850 -0.2464
  163SAPE   H3R18299   4.108   1.602   6.992  2.0687  1.4370  1.2935
  163SAPE   H3S18300   4.198   1.538   7.127  0.0532 -2.0296  0.8748
  163SAPE   C2418301   3.980   1.491   7.132 -0.0405  0.2216  0.2446
  163SAPE   H4R18302   3.909   1.556   7.076  2.2069  1.2474 -1.5563
  163SAPE   H4S18303   3.991   1.527   7.236 -4.0651  0.9273  0.5800
  163SAPE   C2518304   3.918   1.352   7.131  0.5006 -0.0236 -0.1130
  163SAPE   H5R18305   3.862   1.322   7.041 -1.6784 -0.5836  1.3493
  163SAPE   C2618306   3.922   1.266   7.234 -0.5658 -0.0841 -0.3157
  163SAPE   H6R18307   3.872   1.168   7.226 -1.3867  0.2524  0.5248
  163SAPE   C2718308   3.990   1.299   7.363 -0.3862  0.0650 -0.3979
  163SAPE   H7R18309   3.947   1.238   7.446 -2.2042  1.9648  0.1442
  163SAPE   H7S18310   3.952   1.397   7.399 -0.3912 -0.3642  0.8232
  163SAPE   C2818311   4.147   1.294   7.354  0.0409  0.1609 -0.0256
  163SAPE   H8R18312   4.190   1.350   7.269 -1.3517  1.3412  0.0160
  163SAPE   C2918313   4.228   1.225   7.443 -1.0532 -0.3790 -0.1411
  163SAPE   H9R18314   4.337   1.225   7.426 -0.6704  2.4484  1.6646
  163SAPE  C21018315   4.182   1.137   7.552 -0.2070 -0.0870  0.3148
  163SAPE  H10R18316   4.071   1.125   7.557 -0.1181 -0.7528  4.3637
  163SAPE  H10S18317   4.217   1.181   7.648  0.3943  0.5942 -0.2027
  163SAPE  C21118318   4.250   1.003   7.539  1.0368  0.2756 -0.6917
  163SAPE  H11R18319   4.208   0.935   7.464 -0.2405 -2.7260  2.4411
  163SAPE  C21218320   4.361   0.967   7.603 -1.0825  0.1481 -0.5773
  163SAPE  H12R18321   4.386   0.860   7.594 -0.0787  0.3419 -0.3170
  163SAPE  C21318322   4.445   1.030   7.711 -0.5099 -0.1189  0.2453
  163SAPE  H13R18323   4.483   1.126   7.671 -1.4955  0.2943  0.2850
  163SAPE  H13S18324   4.541   0.974   7.714 -0.6879 -0.4226  0.3752
  163SAPE  C21418325   4.391   1.037   7.848 -0.5566 -0.5243 -0.5228
  163SAPE  H14R18326   4.316   1.117   7.858 -0.9592 -0.9841  0.2880
  163SAPE  C21518327   4.416   0.956   7.954  0.1677  0.1530 -0.6298
  163SAPE  H15R18328   4.363   0.973   8.049 -0.7982 -0.1894 -1.0957
  163SAPE  C21618329   4.511   0.838   7.957 -0.4203  0.2561  0.2802
  163SAPE  H16R18330   4.525   0.815   7.850 -1.0505 -0.0302  0.2564
  163SAPE  H16S18331   4.461   0.752   8.006  1.8505 -0.1504  2.1186
  163SAPE  C21718332   4.637   0.889   8.017  0.4132 -0.1666 -0.3480
  163SAPE  H17R18333   4.612   0.925   8.119 -0.9794 -2.4207  0.1822
  163SAPE  H17S18334   4.676   0.971   7.954  2.3954 -1.1799 -0.5227
  163SAPE  C21818335   4.748   0.784   8.040 -0.7959 -0.1868  0.6241
  163SAPE  H18R18336   4.845   0.829   8.070  0.6787 -2.7684  0.0594
  163SAPE  H18S18337   4.777   0.730   7.947  3.5506  0.7735  1.2056
  163SAPE  C21918338   4.700   0.686   8.147  0.1710 -0.4438 -0.2420
  163SAPE  H19R18339   4.641   0.601   8.107 -1.3256  0.0855  0.7363
  163SAPE  H19S18340   4.628   0.741   8.211 -1.3350 -0.2529 -2.0177
  163SAPE  C22018341   4.800   0.631   8.246 -0.9065 -1.2873 -0.1124
  163SAPE  H20R18342   4.875   0.562   8.203  0.0863 -0.0261 -0.4890
  163SAPE  H20S18343   4.746   0.570   8.322 -1.2165  0.9097  1.5642
  163SAPE  H20T18344   4.862   0.700   8.308 -2.0309 -0.9229  0.6387
  163SAPE   C3318345   3.588   1.189   7.083 -0.4401  0.1033  0.0200
  163SAPE   H3X18346   3.496   1.226   7.034 -0.8973 -1.9879 -0.8118
  163SAPE   H3Y18347   3.667   1.268   7.088  0.7703 -1.1021  4.2207
  163SAPE   C3418348   3.534   1.172   7.225 -0.9694 -0.5685  0.1842
  163SAPE   H4X18349   3.462   1.089   7.204  0.9039 -1.8106 -1.6844
  163SAPE   H4Y18350   3.491   1.268   7.260  1.6233  0.9363 -0.4869
  163SAPE   C3518351   3.631   1.126   7.332  0.0984 -0.0901  0.2810
  163SAPE   H5X18352   3.682   1.211   7.381 -0.7924  0.4916  0.2290
  163SAPE   H5Y18353   3.710   1.075   7.273  0.5094  1.8277 -0.9007
  163SAPE   C3618354   3.575   1.034   7.428 -0.1219 -0.4762 -0.2336
  163SAPE   H6X18355   3.539   0.951   7.364 -0.7322  0.7277 -1.5047
  163SAPE   H6Y18356   3.480   1.071   7.472 -1.3521 -2.2659 -1.2614
  163SAPE   C3718357   3.682   1.004   7.535 -0.6102  0.3903 -0.3481
  163SAPE   H7X18358   3.710   1.099   7.586 -1.4023  0.6945 -0.4539
  163SAPE   H7Y18359   3.769   0.962   7.481 -0.7970  0.1031 -0.4308
  163SAPE   C3818360   3.631   0.894   7.630 -0.0593 -0.0863 -0.2052
  163SAPE   H8X18361   3.608   0.804   7.570 -0.6004 -0.0605 -0.0367
  163SAPE   H8Y18362   3.536   0.921   7.680 -1.1425 -2.4937 -0.8259
  163SAPE   C3918363   3.733   0.843   7.740  0.0742  0.6842  0.1781
  163SAPE   H9X18364   3.767   0.926   7.805 -2.2922 -0.4860  3.1453
  163SAPE   H9Y18365   3.823   0.791   7.700 -0.2465 -1.2631  1.8650
  163SAPE  C31018366   3.659   0.723   7.809 -0.2776 -0.4814  1.2699
  163SAPE  H10X18367   3.616   0.652   7.735  1.1183  1.1129 -1.2118
  163SAPE  H10Y18368   3.570   0.767   7.860 -1.8028 -0.1001 -1.5199
  163SAPE  C31118369   3.744   0.659   7.923 -0.5484 -0.3235  0.4103
  163SAPE  H11X18370   3.794   0.736   7.985 -1.3789  0.2934  0.3268
  163SAPE  H11Y18371   3.812   0.583   7.880  0.8553  0.9262  0.3440
  163SAPE  C31218372   3.662   0.571   8.029 -0.4917  0.1907  0.2568
  163SAPE  H12X18373   3.631   0.476   7.980  0.9013 -0.1621  0.0278
  163SAPE  H12Y18374   3.570   0.625   8.061 -2.1800 -2.3858 -0.0256
  163SAPE  C31318375   3.741   0.552   8.159 -0.0427 -0.4960  0.1378
  163SAPE  H13X18376   3.754   0.650   8.210  2.4609 -0.1629 -0.9613
  163SAPE  H13Y18377   3.841   0.523   8.120  0.5262  0.1345  1.1012
  163SAPE  C31418378   3.687   0.438   8.247 -0.0705  0.5456  0.2496
  163SAPE  H14X18379   3.700   0.335   8.208 -0.5797  0.0038  1.4784
  163SAPE  H14Y18380   3.577   0.455   8.240 -0.2455 -0.0800  1.4178
  163SAPE  C31518381   3.744   0.440   8.387 -0.2893 -0.0352 -1.1100
  163SAPE  H15X18382   3.677   0.376   8.449 -1.3326  0.4077 -1.7580
  163SAPE  H15Y18383   3.721   0.536   8.438  0.3943 -1.4683  2.1649
  163SAPE  C31618384   3.890   0.399   8.375  0.5194  0.4937 -0.0068
  163SAPE  H16X18385   3.938   0.468   8.302  1.9201 -1.4938 -1.0677
  163SAPE  H16Y18386   3.891   0.294   8.337  0.4978  0.5390 -0.1323
  163SAPE  C31718387   3.944   0.400   8.522 -0.1524  0.0349  0.8663
  163SAPE  H17X18388   3.944   0.503   8.563  0.7725  0.6863 -0.6831
  163SAPE  H17Y18389   4.052   0.378   8.507 -0.1332  0.6006  0.0959
  163SAPE  C31818390   3.897   0.294   8.623 -0.3486 -0.1341  0.3411
  163SAPE  H18X18391   3.955   0.313   8.716 -1.4101  1.1351  0.7843
  163SAPE  H18Y18392   3.930   0.196   8.583 -2.7622 -0.4329 -1.1198
  163SAPE  H18Z18393   3.790   0.296   8.654  0.1960  0.2671  2.3169
  164SAPE     N18394   5.329   0.468   5.636  0.7290 -0.8396  0.2227
  164SAPE   HN118395   5.248   0.526   5.609  0.6390 -1.6150 -1.3074
  164SAPE   HN218396   5.358   0.504   5.729 -0.0457 -0.2747  0.2572
  164SAPE   HN318397   5.414   0.481   5.577  1.1759  2.4877  1.4082
  164SAPE   C1218398   5.292   0.326   5.669  0.7472 -0.4800  0.4235
  164SAPE  H12A18399   5.266   0.268   5.578 -0.8263  0.0207  0.5294
  164SAPE  H12B18400   5.211   0.321   5.745 -2.3180 -1.1195 -2.6572
  164SAPE   C1118401   5.412   0.261   5.736  0.4293 -1.3963 -0.0070
  164SAPE  H11A18402   5.505   0.278   5.678 -0.2542 -1.3572 -1.1098
  164SAPE  H11B18403   5.406   0.152   5.756 -0.6246 -1.3439 -0.0014
  164SAPE     P18404   5.383   0.263   6.000  0.2471 -0.1049 -0.2803
  164SAPE   O1318405   5.238   0.234   6.012  0.1284  0.1603  0.1947
  164SAPE   O1418406   5.470   0.151   6.023 -0.0242  0.2395 -0.4749
  164SAPE   O1218407   5.423   0.326   5.865 -0.0890 -0.3893  0.1515
  164SAPE   O1118408   5.419   0.373   6.104  0.7514 -0.0023 -0.4242
  164SAPE    C118409   5.446   0.341   6.244  0.0426  0.2813 -0.5422
  164SAPE    HA18410   5.399   0.417   6.310  1.6894 -0.1606  1.2443
  164SAPE    HB18411   5.400   0.251   6.288  0.7855  0.0208 -0.2772
  164SAPE    C218412   5.601   0.342   6.272 -0.0572  0.0375  0.3621
  164SAPE    HS18413   5.639   0.260   6.207 -1.3803 -0.6854  0.4543
  164SAPE   O2118414   5.601   0.301   6.413 -0.1194  0.2680 -0.7168
  164SAPE   C2118415   5.717   0.264   6.453 -0.2887 -0.4189  0.3516
  164SAPE   O2218416   5.822   0.263   6.389 -0.3439  0.1432 -0.5772
  164SAPE   C2218417   5.706   0.223   6.600  0.6367  0.3357  0.3754
  164SAPE   H2R18418   5.804   0.251   6.643  1.5449 -0.9520 -0.7537
  164SAPE   H2S18419   5.629   0.286   6.649  0.0145 -0.3155  0.2557
  164SAPE    C318420   5.672   0.481   6.234 -0.4676  0.4612  0.3090
  164SAPE    HX18421   5.652   0.484   6.125  1.7742 -3.1959 -0.3949
  164SAPE    HY18422   5.779   0.465   6.257 -0.3521 -2.8597 -1.7139
  164SAPE   O3118423   5.626   0.587   6.308  0.2061  0.6142 -0.5525
  164SAPE   C3118424   5.696   0.646   6.402  0.8445 -0.2896 -0.3529
  164SAPE   O3218425   5.797   0.601   6.454  0.1716 -0.2479 -0.3743
  164SAPE   C3218426   5.615   0.772   6.437  0.5646  0.0835 -0.1152
  164SAPE   H2X18427   5.567   0.818   6.348  1.2579  2.2072  0.5442
  164SAPE   H2Y18428   5.683   0.842   6.489  0.8071 -0.6122  0.5193
  164SAPE   C2318429   5.690   0.071   6.605 -0.1837 -0.1271 -0.7461
  164SAPE   H3R18430   5.784   0.024   6.569 -0.5951 -0.4453 -1.4287
  164SAPE   H3S18431   5.600   0.029   6.555 -0.1626 -0.6585 -0.3511
  164SAPE   C2418432   5.690   0.003   6.749 -0.2632  0.1819  0.6620
  164SAPE   H4R18433   5.785   0.034   6.797  1.0580  0.6009 -2.0539
  164SAPE   H4S18434   5.692  -0.107   6.739 -1.9070  0.2996 -1.9708
  164SAPE   C2518435   5.561   0.043   6.818  0.4688 -0.0436  0.2950
  164SAPE   H5R18436   5.472  -0.006   6.776  1.1096 -0.6468 -0.4125
  164SAPE   C2618437   5.556   0.134   6.913  0.5254  0.2471  1.6801
  164SAPE   H6R18438   5.460   0.155   6.962 -0.7236 -1.8508  0.3019
  164SAPE   C2718439   5.669   0.202   6.976  0.2798 -0.2710  0.3141
  164SAPE   H7R18440   5.739   0.238   6.897 -0.5315  1.5068  0.3363
  164SAPE   H7S18441   5.721   0.135   7.047 -0.6536 -0.3778  0.9203
  164SAPE   C2818442   5.623   0.318   7.059 -0.1220  0.3614 -0.0290
  164SAPE   H8R18443   5.600   0.414   7.009 -1.2457  0.1543  0.0614
  164SAPE   C2918444   5.616   0.335   7.192  0.2405 -0.1220  1.0163
  164SAPE   H9R18445   5.575   0.431   7.228  1.2129  0.1431  1.4473
  164SAPE  C21018446   5.655   0.233   7.301 -0.0673 -0.5776  0.8931
  164SAPE  H10R18447   5.764   0.246   7.318 -0.2077  0.8285  0.8402
  164SAPE  H10S18448   5.644   0.137   7.246  1.0431  1.4680 -3.3498
  164SAPE  C21118449   5.567   0.236   7.425  0.5050 -0.3529 -0.2000
  164SAPE  H11R18450   5.486   0.162   7.431  1.0727 -0.9211  0.6771
  164SAPE  C21218451   5.589   0.317   7.532 -0.4175 -0.0406  0.6749
  164SAPE  H12R18452   5.508   0.328   7.605 -0.5294  0.3991  0.4940
  164SAPE  C21318453   5.694   0.419   7.542 -0.5042 -0.4378 -0.2492
  164SAPE  H13R18454   5.721   0.477   7.451  1.8696  0.7638  1.1141
  164SAPE  H13S18455   5.784   0.359   7.567 -1.0969 -0.7854  1.1419
  164SAPE  C21418456   5.667   0.531   7.641 -0.0370  0.2904  0.3527
  164SAPE  H14R18457   5.612   0.622   7.613 -0.7162 -0.0008  0.7059
  164SAPE  C21518458   5.713   0.531   7.763  0.0911  0.0533 -0.2438
  164SAPE  H15R18459   5.704   0.623   7.822  4.1950  0.1489  0.5013
  164SAPE  C21618460   5.779   0.423   7.835  0.0262  0.6489 -0.5566
  164SAPE  H16R18461   5.879   0.455   7.873  0.3842 -0.9453 -0.0906
  164SAPE  H16S18462   5.792   0.338   7.765 -1.0043  1.1889 -1.4212
  164SAPE  C21718463   5.693   0.368   7.955 -0.1927 -0.3913 -0.0655
  164SAPE  H17R18464   5.743   0.281   8.003 -0.4860 -0.7859 -0.4627
  164SAPE  H17S18465   5.593   0.339   7.917  0.1179 -1.6024 -0.0055
  164SAPE  C21818466   5.674   0.477   8.065  1.3015  0.0856 -0.2998
  164SAPE  H18R18467   5.611   0.559   8.024 -0.4757  0.0839  2.1908
  164SAPE  H18S18468   5.772   0.517   8.098  1.4918 -1.8677  1.7242
  164SAPE  C21918469   5.597   0.410   8.185  0.1224 -0.7307 -0.2734
  164SAPE  H19R18470   5.641   0.314   8.219  0.2782 -0.3314  0.7150
  164SAPE  H19S18471   5.491   0.386   8.160  0.0967 -0.7181 -0.1787
  164SAPE  C22018472   5.610   0.502   8.312 -0.5082  0.0643 -0.1950
  164SAPE  H20R18473   5.714   0.538   8.332 -1.8680  3.3498  1.8051
  164SAPE  H20S18474   5.585   0.444   8.403  0.8376 -4.0157 -2.1656
  164SAPE  H20T18475   5.540   0.588   8.306  0.0512  0.6057  0.8534
  164SAPE   C3318476   5.506   0.733   6.540  0.9522 -0.1991 -0.3567
  164SAPE   H3X18477   5.435   0.655   6.504  1.1655 -0.0473 -1.1362
  164SAPE   H3Y18478   5.456   0.825   6.575 -0.0815 -1.7726  2.5564
  164SAPE   C3418479   5.557   0.670   6.671 -0.3826 -0.1679  0.3708
  164SAPE   H4X18480   5.627   0.736   6.728  1.2990 -1.6422  0.1048
  164SAPE   H4Y18481   5.619   0.581   6.648  0.2286  1.0526 -3.3929
  164SAPE   C3518482   5.445   0.623   6.766  0.1208 -0.1610  0.4845
  164SAPE   H5X18483   5.364   0.698   6.755 -2.4864 -2.8441  0.0089
  164SAPE   H5Y18484   5.467   0.629   6.874  0.1835 -0.3680  0.4836
  164SAPE   C3618485   5.388   0.484   6.723 -0.2873 -0.9158  0.5298
  164SAPE   H6X18486   5.460   0.406   6.756  0.8164 -0.4656 -0.7071
  164SAPE   H6Y18487   5.405   0.470   6.614 -0.4479 -0.7921  0.4879
  164SAPE   C3718488   5.240   0.475   6.752 -0.2477  0.0650 -0.7258
  164SAPE   H7X18489   5.193   0.396   6.690  0.1390  0.5465 -1.6450
  164SAPE   H7Y18490   5.196   0.576   6.733  0.3674 -0.0753 -3.2229
  164SAPE   C3818491   5.239   0.448   6.903  0.3640  0.6160  0.8082
  164SAPE   H8X18492   5.304   0.527   6.947  0.9722  0.9126 -0.5926
  164SAPE   H8Y18493   5.296   0.358   6.933  3.5098  3.0327  2.7443
  164SAPE   C3918494   5.101   0.449   6.954 -0.3116  0.4361  0.2586
  164SAPE   H9X18495   5.042   0.366   6.908 -0.8170  1.4142 -0.9141
  164SAPE   H9Y18496   5.045   0.538   6.920 -3.3732 -1.6572 -0.6682
  164SAPE  C31018497   5.100   0.432   7.107 -0.5084  0.4482 -0.3495
  164SAPE  H10X18498   5.195   0.386   7.141 -1.3200 -0.4659  0.7697
  164SAPE  H10Y18499   5.015   0.367   7.139  1.8795 -2.1277  1.2274
  164SAPE  C31118500   5.094   0.565   7.184 -0.3036 -0.4247 -0.1008
  164SAPE  H11X18501   4.997   0.618   7.170 -0.5866 -0.4604  1.5505
  164SAPE  H11Y18502   5.177   0.629   7.149 -1.4039  2.3659  2.0450
  164SAPE  C31218503   5.128   0.560   7.335  0.2281  0.1228  0.0177
  164SAPE  H12X18504   5.181   0.651   7.371  0.5244 -0.3981  0.9140
  164SAPE  H12Y18505   5.201   0.479   7.353  0.5407 -0.0545 -1.8070
  164SAPE  C31318506   5.000   0.546   7.420 -0.0513 -0.1637 -0.3414
  164SAPE  H13X18507   4.942   0.458   7.386 -1.2715  0.4529  0.0731
  164SAPE  H13Y18508   4.933   0.634   7.407 -0.2317 -0.0646  1.1734
  164SAPE  C31418509   5.015   0.541   7.575  0.1526  0.0716 -0.3643
  164SAPE  H14X18510   5.055   0.639   7.607  1.1378 -0.2295 -0.6396
  164SAPE  H14Y18511   5.087   0.458   7.590 -1.2170 -1.0731  0.1530
  164SAPE  C31518512   4.879   0.510   7.648 -0.1582 -0.6048 -0.0396
  164SAPE  H15X18513   4.900   0.534   7.754 -0.7698 -1.5483  0.3085
  164SAPE  H15Y18514   4.875   0.399   7.639  1.1765 -0.5976 -1.2540
  164SAPE  C31618515   4.753   0.578   7.588  0.1352 -0.1117  0.6367
  164SAPE  H16X18516   4.745   0.555   7.480 -2.8073  1.7420  0.3485
  164SAPE  H16Y18517   4.749   0.687   7.611 -0.0136 -0.2991  1.5625
  164SAPE  C31718518   4.621   0.523   7.640  0.2219  0.5198  0.5440
  164SAPE  H17X18519   4.586   0.425   7.603  1.1102  0.2903  0.2854
  164SAPE  H17Y18520   4.543   0.594   7.605  0.5366 -0.4336 -2.2923
  164SAPE  C31818521   4.617   0.506   7.792 -0.1731  0.3837 -0.6296
  164SAPE  H18X18522   4.684   0.423   7.820 -0.7652  0.0712 -0.1089
  164SAPE  H18Y18523   4.519   0.471   7.830  1.2545 -2.2663  0.8810
  164SAPE  H18Z18524   4.655   0.594   7.849  1.2899 -0.7220  0.1586
  165SAPE     N18525   6.023   3.868   6.419 -0.4420  0.4478 -0.2598
  165SAPE   HN118526   6.098   3.908   6.358  2.3423 -1.0779  1.9429
  165SAPE   HN218527   5.955   3.815   6.360 -0.1360  0.7575 -0.9022
  165SAPE   HN318528   5.975   3.953   6.457 -1.5940  0.9854 -2.6968
  165SAPE   C1218529   6.096   3.776   6.509 -0.5008  0.3653  0.3428
  165SAPE  H12A18530   6.144   3.839   6.586 -0.9540 -0.5343  1.4008
  165SAPE  H12B18531   6.181   3.731   6.453  0.1241 -0.6831  2.0473
  165SAPE   C1118532   6.014   3.657   6.560 -0.1776 -1.0155 -0.4980
  165SAPE  H11A18533   5.957   3.706   6.641  1.9384  0.6862  0.0749
  165SAPE  H11B18534   6.082   3.593   6.620  0.7168  0.9089  0.6546
  165SAPE     P18535   5.962   3.456   6.407 -0.0382  0.2520  0.4662
  165SAPE   O1318536   5.843   3.386   6.368  1.1938  0.1911 -0.1505
  165SAPE   O1418537   6.064   3.477   6.297 -0.4431  0.1416  0.2745
  165SAPE   O1218538   5.932   3.605   6.459  0.0640 -0.0418  0.0487
  165SAPE   O1118539   6.026   3.376   6.529 -1.0637 -0.3055  0.1857
  165SAPE    C118540   6.041   3.235   6.506  0.3627 -0.2602 -0.7149
  165SAPE    HA18541   5.940   3.189   6.490  0.0832  0.5141 -1.2228
  165SAPE    HB18542   6.102   3.207   6.418  1.0838  0.4081 -0.4320
  165SAPE    C218543   6.109   3.162   6.633 -0.2119  0.4637 -0.6945
  165SAPE    HS18544   6.108   3.055   6.604  3.2938  0.8385 -2.8011
  165SAPE   O2118545   6.034   3.197   6.751  0.4858  0.2353  0.2673
  165SAPE   C2118546   6.032   3.107   6.849  0.0899  0.1295  0.2693
  165SAPE   O2218547   6.083   2.997   6.838 -0.5889  0.8296 -0.5976
  165SAPE   C2218548   5.975   3.167   6.973 -0.2439 -0.2330 -0.0603
  165SAPE   H2R18549   6.046   3.245   7.008 -1.0082  0.4746 -0.0614
  165SAPE   H2S18550   5.880   3.216   6.942 -1.2424 -3.2715 -2.3552
  165SAPE    C318551   6.248   3.228   6.646  0.1931 -0.1049  0.1690
  165SAPE    HX18552   6.233   3.338   6.652 -0.5764 -0.2306  0.6458
  165SAPE    HY18553   6.302   3.194   6.555  1.1388 -2.4773  1.5107
  165SAPE   O3118554   6.318   3.181   6.760 -0.0142 -0.0754  0.2878
  165SAPE   C3118555   6.317   3.268   6.870  0.5197  1.2115  0.1392
  165SAPE   O3218556   6.261   3.375   6.872 -0.1445 -1.0366 -0.2831
  165SAPE   C3218557   6.384   3.200   6.992 -0.2141 -0.8208  0.2027
  165SAPE   H2X18558   6.494   3.191   6.984 -0.2340 -0.4939 -0.4998
  165SAPE   H2Y18559   6.363   3.091   6.992 -0.2009 -0.8948 -2.2859
  165SAPE   C2318560   5.959   3.071   7.096 -0.4701 -0.8791  0.8077
  165SAPE   H3R18561   6.055   3.016   7.104 -1.1185 -2.3421 -0.7765
  165SAPE   H3S18562   5.873   3.001   7.086 -3.0593  1.9662  1.5304
  165SAPE   C2418563   5.940   3.157   7.225 -0.1762  0.1404  0.3596
  165SAPE   H4R18564   5.871   3.240   7.198 -0.1734 -0.0702 -0.3070
  165SAPE   H4S18565   6.036   3.206   7.252 -0.3978 -0.2140  1.8866
  165SAPE   C2518566   5.879   3.078   7.336 -0.1210  0.2862  0.3469
  165SAPE   H5R18567   5.808   3.005   7.295  0.7251 -0.6152  0.4516
  165SAPE   C2618568   5.903   3.078   7.467  0.0744  0.2425  0.0879
  165SAPE   H6R18569   5.839   3.013   7.529  1.4353 -0.7508  0.4818
  165SAPE   C2718570   6.011   3.170   7.529 -0.5211  0.5176 -0.5902
  165SAPE   H7R18571   5.966   3.268   7.557  0.5963  0.6418  0.8422
  165SAPE   H7S18572   6.088   3.200   7.454  0.1102 -1.8531 -0.9639
  165SAPE   C2818573   6.088   3.108   7.645 -0.1225 -0.1977  0.9899
  165SAPE   H8R18574   6.188   3.069   7.620  0.1262 -1.1535  3.1755
  165SAPE   C2918575   6.047   3.093   7.771 -0.1269  0.1499 -0.5679
  165SAPE   H9R18576   6.112   3.043   7.844  2.9476  3.4188 -0.7746
  165SAPE  C21018577   5.920   3.140   7.831 -0.1486  0.2626 -0.1703
  165SAPE  H10R18578   5.855   3.166   7.745  0.6271  1.1610 -0.5021
  165SAPE  H10S18579   5.947   3.242   7.868 -0.2336  0.3569 -0.3667
  165SAPE  C21118580   5.849   3.049   7.925 -0.2871  0.1267  0.1779
  165SAPE  H11R18581   5.856   2.943   7.899  2.9882  0.0646  0.9466
  165SAPE  C21218582   5.802   3.081   8.041  0.0332 -0.2643 -0.0688
  165SAPE  H12R18583   5.738   3.002   8.082 -0.3446 -1.1841 -2.3140
  165SAPE  C21318584   5.804   3.214   8.119 -0.1728  0.0595 -0.3312
  165SAPE  H13R18585   5.702   3.256   8.133 -0.7010 -1.8806  2.3570
  165SAPE  H13S18586   5.862   3.285   8.056  1.9417 -0.7118  0.6574
  165SAPE  C21418587   5.877   3.194   8.253 -0.1045 -0.1873 -0.7069
  165SAPE  H14R18588   5.971   3.137   8.253  0.5121  0.7673  0.8618
  165SAPE  C21518589   5.831   3.242   8.374  0.6074 -0.2704 -0.0103
  165SAPE  H15R18590   5.887   3.216   8.466  0.2742  1.9933  0.9117
  165SAPE  C21618591   5.704   3.332   8.395  0.6068 -0.2453 -0.6115
  165SAPE  H16R18592   5.627   3.303   8.320 -0.3275  0.1859  0.1633
  165SAPE  H16S18593   5.712   3.443   8.398  0.4511 -0.2320  2.1359
  165SAPE  C21718594   5.642   3.307   8.536 -0.0008  0.3673 -0.3564
  165SAPE  H17R18595   5.715   3.349   8.609 -0.3887 -0.5317  0.5625
  165SAPE  H17S18596   5.622   3.201   8.563 -1.5947  0.5559 -0.7175
  165SAPE  C21818597   5.521   3.392   8.568 -0.4122  0.1117 -0.1976
  165SAPE  H18R18598   5.437   3.342   8.516  2.0926 -3.8569 -0.8184
  165SAPE  H18S18599   5.527   3.496   8.528  1.6349 -0.2405 -0.9384
  165SAPE  C21918600   5.496   3.395   8.717 -0.1173  0.6019 -0.2916
  165SAPE  H19R18601   5.514   3.289   8.743 -0.2664  0.0132 -2.4144
  165SAPE  H19S18602   5.393   3.432   8.737 -0.2322  1.2330 -1.8907
  165SAPE  C22018603   5.598   3.492   8.782 -0.4947 -0.2084 -0.0991
  165SAPE  H20R18604   5.578   3.498   8.891  2.0893 -0.0102  0.4275
  165SAPE  H20S18605   5.594   3.593   8.736 -0.4353 -0.2069 -0.1011
  165SAPE  H20T18606   5.700   3.449   8.772 -0.8017 -0.7654 -0.8866
  165SAPE   C3318607   6.343   3.249   7.136 -0.5933 -0.2260 -0.0792
  165SAPE   H3X18608   6.237   3.228   7.161 -0.6047  0.0296  0.0928
  165SAPE   H3Y18609   6.350   3.360   7.147 -1.5153 -0.2252  0.6273
  165SAPE   C3418610   6.433   3.176   7.228 -0.2074  0.1707  0.0623
  165SAPE   H4X18611   6.534   3.223   7.223 -0.0794 -0.1111  0.0025
  165SAPE   H4Y18612   6.430   3.069   7.200 -0.9506  0.7106 -2.0930
  165SAPE   C3518613   6.393   3.194   7.379 -0.0020 -0.3657  0.5277
  165SAPE   H5X18614   6.468   3.133   7.433 -0.5392 -1.7203 -0.2157
  165SAPE   H5Y18615   6.292   3.153   7.396 -1.0710  0.6715 -2.6082
  165SAPE   C3618616   6.403   3.342   7.429 -0.0576 -0.2315  0.8810
  165SAPE   H6X18617   6.317   3.394   7.383 -1.0998 -1.1585  1.7160
  165SAPE   H6Y18618   6.491   3.392   7.382 -1.0262  1.9060  1.2336
  165SAPE   C3718619   6.406   3.344   7.585  0.0357 -0.0498  0.3882
  165SAPE   H7X18620   6.500   3.308   7.632  0.5851  0.0008 -0.6492
  165SAPE   H7Y18621   6.327   3.277   7.624 -0.1845 -0.4187 -0.6522
  165SAPE   C3818622   6.364   3.485   7.637 -0.0453 -0.5643  0.3685
  165SAPE   H8X18623   6.265   3.502   7.590  0.4772 -1.0097 -0.9403
  165SAPE   H8Y18624   6.433   3.563   7.596 -0.6993 -0.4378 -0.5100
  165SAPE   C3918625   6.372   3.504   7.787  0.0046 -0.1538 -0.5233
  165SAPE   H9X18626   6.315   3.596   7.814  0.6919  0.9691 -2.6116
  165SAPE   H9Y18627   6.481   3.508   7.810  0.1046 -1.7020 -0.6628
  165SAPE  C31018628   6.306   3.393   7.873 -0.1431 -0.1804  0.1394
  165SAPE  H10X18629   6.349   3.291   7.864  1.1636  0.4256 -0.7565
  165SAPE  H10Y18630   6.202   3.373   7.838  0.3261 -1.2627 -0.7110
  165SAPE  C31118631   6.319   3.441   8.018 -0.0408 -0.3194  0.1099
  165SAPE  H11X18632   6.312   3.552   8.022 -0.3623 -0.3685  1.4661
  165SAPE  H11Y18633   6.425   3.425   8.045  0.5034  0.5989 -1.3773
  165SAPE  C31218634   6.219   3.374   8.110  0.2332  0.1521 -0.5401
  165SAPE  H12X18635   6.232   3.269   8.074  5.1952  0.9832 -1.9706
  165SAPE  H12Y18636   6.116   3.396   8.077  0.2080 -1.2424 -1.4906
  165SAPE  C31318637   6.263   3.372   8.257 -0.2574 -0.4923  0.5158
  165SAPE  H13X18638   6.369   3.340   8.270 -0.3466 -1.0715 -0.1099
  165SAPE  H13Y18639   6.192   3.306   8.311  0.8153  0.5185  3.3120
  165SAPE  C31418640   6.244   3.518   8.314  0.0226 -0.3131  0.4842
  165SAPE  H14X18641   6.140   3.547   8.286  0.1047 -1.5989 -1.3444
  165SAPE  H14Y18642   6.316   3.585   8.264  0.4786  0.2070  1.8004
  165SAPE  C31518643   6.251   3.510   8.465  0.1335  0.1852 -0.5954
  165SAPE  H15X18644   6.357   3.489   8.491 -0.0947 -0.3234 -0.0670
  165SAPE  H15Y18645   6.192   3.421   8.497 -0.3712 -0.2272 -2.5154
  165SAPE  C31618646   6.199   3.647   8.530 -0.0645 -0.1096  0.1908
  165SAPE  H16X18647   6.090   3.668   8.528 -0.4292 -1.8895 -0.3487
  165SAPE  H16Y18648   6.252   3.736   8.490  0.2895 -0.0719  0.7382
  165SAPE  C31718649   6.243   3.654   8.671  0.0249  0.1625  0.4822
  165SAPE  H17X18650   6.349   3.626   8.692 -0.0151  0.4680  1.1126
  165SAPE  H17Y18651   6.187   3.583   8.735 -0.0792  0.0068  0.2177
  165SAPE  C31818652   6.218   3.790   8.739  0.6188 -0.2607 -0.7228
  165SAPE  H18X18653   6.248   3.880   8.682 -1.0842  1.4123  0.8831
  165SAPE  H18Y18654   6.258   3.798   8.842  1.4656 -0.2063 -1.0503
  165SAPE  H18Z18655   6.109   3.811   8.738  0.2555 -1.9853 -0.2487
  166SAPE     N18656   3.737   5.917   6.269  0.3512  0.2700  0.2091
  166SAPE   HN118657   3.730   5.821   6.306 -1.3787  1.1839  2.4656
  166SAPE   HN218658   3.657   5.975   6.301 -0.2650  0.7538 -1.9897
  166SAPE   HN318659   3.719   5.913   6.166 -2.0071 -0.8975  0.6098
  166SAPE   C1218660   3.869   5.976   6.301  0.5930 -0.2068 -0.4421
  166SAPE  H12A18661   3.897   5.945   6.404  0.2151 -2.0660 -0.8599
  166SAPE  H12B18662   3.859   6.086   6.313  0.5883 -0.0997 -1.3888
  166SAPE   C1118663   3.977   5.957   6.201  0.3586  0.5275  0.7311
  166SAPE  H11A18664   3.996   5.848   6.206  0.4324  0.5330  4.9632
  166SAPE  H11B18665   4.074   6.006   6.227  0.7133  1.3821 -1.8873
  166SAPE     P18666   4.027   5.988   5.949 -0.1281 -0.0825 -0.3786
  166SAPE   O1318667   4.026   5.850   5.898  0.1634  0.0831 -0.0673
  166SAPE   O1418668   3.995   6.084   5.847  0.1991 -0.2618 -0.1236
  166SAPE   O1218669   3.941   6.002   6.071 -0.2474 -0.4188  0.5181
  166SAPE   O1118670   4.165   6.017   6.012 -0.3328 -0.1095 -0.1203
  166SAPE    C118671   4.289   5.951   5.974 -0.1487 -0.4008 -0.2810
  166SAPE    HA18672   4.295   5.924   5.866 -0.7427 -2.1711  0.0948
  166SAPE    HB18673   4.380   6.013   5.990 -0.7733  0.3276  0.5607
  166SAPE    C218674   4.309   5.830   6.065 -0.2407 -0.3636 -1.2144
  166SAPE    HS18675   4.217   5.769   6.061 -1.2726  1.1467 -1.4741
  166SAPE   O2118676   4.335   5.871   6.207 -0.4729 -0.1870 -0.5581
  166SAPE   C2118677   4.300   5.777   6.301 -0.9738 -0.7533 -0.3388
  166SAPE   O2218678   4.215   5.691   6.291 -0.0438 -0.1979 -0.2504
  166SAPE   C2218679   4.392   5.798   6.421 -0.3827 -0.5800  0.7946
  166SAPE   H2R18680   4.498   5.800   6.386 -0.5667  1.9804  0.1891
  166SAPE   H2S18681   4.380   5.901   6.459  0.3122 -0.3215  0.3404
  166SAPE    C318682   4.413   5.725   6.010 -0.2678 -0.7545 -0.3678
  166SAPE    HX18683   4.509   5.780   5.998 -0.0135 -1.2403 -0.6190
  166SAPE    HY18684   4.388   5.696   5.906  0.5029 -1.4150 -0.3778
  166SAPE   O3118685   4.430   5.599   6.082 -0.2033  0.3667 -0.1495
  166SAPE   C3118686   4.344   5.504   6.044  0.2409 -0.4429 -0.8559
  166SAPE   O3218687   4.241   5.523   5.981 -0.7208 -0.0584  0.3654
  166SAPE   C3218688   4.385   5.369   6.109  0.1718  0.3789  0.7238
  166SAPE   H2X18689   4.448   5.308   6.041 -0.4457  0.0266  0.4608
  166SAPE   H2Y18690   4.287   5.322   6.128  0.3449 -1.1716 -1.8511
  166SAPE   C2318691   4.392   5.684   6.530 -0.4948 -0.1246  0.9033
  166SAPE   H3R18692   4.465   5.614   6.484  0.3145  1.9011 -1.1327
  166SAPE   H3S18693   4.291   5.638   6.541  0.7614 -4.2978 -2.4486
  166SAPE   C2418694   4.449   5.733   6.666  0.2908  0.2847 -0.0147
  166SAPE   H4R18695   4.557   5.759   6.672  0.0557  1.2997  0.0774
  166SAPE   H4S18696   4.426   5.656   6.743  1.8386 -0.8312 -0.6340
  166SAPE   C2518697   4.383   5.861   6.717  0.3634  0.5154  1.1918
  166SAPE   H5R18698   4.445   5.949   6.695 -1.1925  0.8226 -2.8236
  166SAPE   C2618699   4.268   5.875   6.786  0.1050  0.4011  0.0080
  166SAPE   H6R18700   4.233   5.977   6.810 -0.4013 -0.1558  1.8056
  166SAPE   C2718701   4.173   5.768   6.831  0.8604 -0.1626 -0.0694
  166SAPE   H7R18702   4.238   5.693   6.881 -1.9478 -2.2894  0.6050
  166SAPE   H7S18703   4.126   5.723   6.741 -1.8517 -0.5400  1.4463
  166SAPE   C2818704   4.062   5.830   6.918 -0.7230  0.2489  0.1899
  166SAPE   H8R18705   4.003   5.911   6.872  4.0353  3.8709 -0.2944
  166SAPE   C2918706   4.044   5.795   7.047 -0.7646 -0.5407 -0.3547
  166SAPE   H9R18707   3.970   5.841   7.115 -2.0912 -1.3317 -1.2311
  166SAPE  C21018708   4.125   5.697   7.128 -0.6945  0.1882 -0.1888
  166SAPE  H10R18709   4.133   5.729   7.234  0.0313 -2.0342  0.4613
  166SAPE  H10S18710   4.230   5.698   7.091 -0.2114 -1.0148  1.0868
  166SAPE  C21118711   4.072   5.555   7.112  0.5620  0.0270  0.6476
  166SAPE  H11R18712   4.013   5.534   7.022 -1.4471  0.5263  1.7690
  166SAPE  C21218713   4.079   5.460   7.201  0.2638 -0.4278 -0.3694
  166SAPE  H12R18714   4.043   5.359   7.174  1.8712 -0.4655 -2.6699
  166SAPE  C21318715   4.175   5.467   7.325  0.4590 -0.6440  0.1113
  166SAPE  H13R18716   4.267   5.522   7.296 -0.1394  0.1441 -0.3289
  166SAPE  H13S18717   4.211   5.365   7.353 -2.9277 -1.9338  0.2091
  166SAPE  C21418718   4.109   5.534   7.446 -0.1663  0.2821  0.4780
  166SAPE  H14R18719   4.007   5.574   7.431  0.1648  2.2942  2.9809
  166SAPE  C21518720   4.164   5.545   7.571  0.6609 -0.1465 -0.3050
  166SAPE  H15R18721   4.105   5.599   7.646  1.5771  2.0977 -1.1193
  166SAPE  C21618722   4.299   5.510   7.619 -0.0070  0.1879 -1.0944
  166SAPE  H16R18723   4.354   5.604   7.643  0.0596  0.1112 -0.9467
  166SAPE  H16S18724   4.353   5.480   7.526  0.0851 -1.0387 -0.6579
  166SAPE  C21718725   4.317   5.396   7.722  0.2114  0.1720  0.1146
  166SAPE  H17R18726   4.280   5.304   7.673 -0.3336 -0.2339  1.2392
  166SAPE  H17S18727   4.256   5.415   7.813  0.7417  1.1584  0.2720
  166SAPE  C21818728   4.461   5.374   7.759  0.5463  0.9650 -0.5049
  166SAPE  H18R18729   4.510   5.472   7.780  1.4065  0.4683 -0.1813
  166SAPE  H18S18730   4.516   5.331   7.673 -1.7174  1.5359 -2.3519
  166SAPE  C21918731   4.463   5.282   7.890  0.8785  0.2906  0.0637
  166SAPE  H19R18732   4.423   5.186   7.852  3.5301 -1.0798  0.4439
  166SAPE  H19S18733   4.393   5.326   7.963  1.0913  0.0205  0.4363
  166SAPE  C22018734   4.588   5.260   7.958  0.0988 -0.0867  0.1727
  166SAPE  H20R18735   4.614   5.343   8.027  0.2355  0.4871 -0.5601
  166SAPE  H20S18736   4.663   5.235   7.880  0.3420 -2.4453  1.0764
  166SAPE  H20T18737   4.589   5.171   8.024  3.8276  1.0210  1.8691
  166SAPE   C3318738   4.449   5.382   6.243 -0.5803 -0.3728 -0.1978
  166SAPE   H3X18739   4.395   5.462   6.298  1.1996  0.7704 -0.0490
  166SAPE   H3Y18740   4.557   5.406   6.234 -0.2344 -2.2457 -1.6846
  166SAPE   C3418741   4.459   5.257   6.341  0.1583 -0.1469 -0.5284
  166SAPE   H4X18742   4.530   5.181   6.303 -0.3089 -1.2123  0.6817
  166SAPE   H4Y18743   4.360   5.207   6.341  0.3590 -0.5466 -0.2954
  166SAPE   C3518744   4.500   5.295   6.484  0.5230  0.1707 -0.2837
  166SAPE   H5X18745   4.484   5.199   6.536  1.7457 -1.9158 -3.4886
  166SAPE   H5Y18746   4.429   5.368   6.530 -1.0508  0.3864 -2.8459
  166SAPE   C3618747   4.636   5.340   6.498  0.2829 -0.2657  0.1504
  166SAPE   H6X18748   4.647   5.433   6.438 -1.7385 -1.0703 -1.5897
  166SAPE   H6Y18749   4.714   5.267   6.469 -1.7726 -3.1982  1.4851
  166SAPE   C3718750   4.666   5.391   6.643 -0.1177 -0.3738  0.7722
  166SAPE   H7X18751   4.694   5.295   6.691  0.3832  0.6870  2.7041
  166SAPE   H7Y18752   4.577   5.442   6.685  1.0388  4.4810 -1.8959
  166SAPE   C3818753   4.784   5.481   6.658 -0.7466  0.0203  0.3317
  166SAPE   H8X18754   4.753   5.582   6.624 -0.5965 -0.2218 -0.5472
  166SAPE   H8Y18755   4.865   5.443   6.592 -3.1680 -3.3259 -1.0148
  166SAPE   C3918756   4.837   5.472   6.806 -0.3428  0.2729 -0.1108
  166SAPE   H9X18757   4.917   5.545   6.828  0.0095 -1.0311  3.6943
  166SAPE   H9Y18758   4.884   5.372   6.819  0.9651  1.0428  1.4337
  166SAPE  C31018759   4.726   5.496   6.908  0.0091  0.7299 -0.1398
  166SAPE  H10X18760   4.654   5.412   6.895  0.7372 -0.0082  0.4286
  166SAPE  H10Y18761   4.667   5.582   6.871  0.2960  1.2559  0.6150
  166SAPE  C31118762   4.760   5.506   7.061 -0.0869 -0.0810  0.0982
  166SAPE  H11X18763   4.808   5.605   7.076 -1.7372  1.2710 -2.6405
  166SAPE  H11Y18764   4.822   5.419   7.091 -0.1949  0.1396  1.0015
  166SAPE  C31218765   4.632   5.488   7.136 -0.2044 -0.4087  0.5456
  166SAPE  H12X18766   4.581   5.393   7.110 -3.0750  1.2793 -0.4228
  166SAPE  H12Y18767   4.556   5.565   7.112 -1.2403 -0.4812  3.1785
  166SAPE  C31318768   4.642   5.515   7.285  0.3284  0.0635  0.1563
  166SAPE  H13X18769   4.542   5.502   7.332 -0.2255  1.3304 -0.6146
  166SAPE  H13Y18770   4.664   5.624   7.273 -0.3942  0.5678  2.7859
  166SAPE  C31418771   4.742   5.443   7.376  0.6453 -0.5594 -0.7752
  166SAPE  H14X18772   4.848   5.463   7.352  0.5504 -1.2028 -1.7580
  166SAPE  H14Y18773   4.721   5.334   7.370 -0.4573 -0.4211  0.1861
  166SAPE  C31518774   4.724   5.492   7.519  0.1916 -0.9707  0.6063
  166SAPE  H15X18775   4.616   5.476   7.538 -0.1574  0.2034 -0.2771
  166SAPE  H15Y18776   4.740   5.602   7.520 -1.5311 -0.6512 -1.5946
  166SAPE  C31618777   4.816   5.427   7.619  0.0070 -0.1139 -0.2407
  166SAPE  H16X18778   4.916   5.399   7.580 -0.1118 -0.7966 -0.0705
  166SAPE  H16Y18779   4.757   5.335   7.640  0.0037  0.2161  1.3831
  166SAPE  C31718780   4.827   5.497   7.753 -0.4046  0.0015  0.1643
  166SAPE  H17X18781   4.728   5.486   7.803  0.1537 -0.5065  1.1721
  166SAPE  H17Y18782   4.850   5.602   7.725  1.8686 -0.2297  1.0113
  166SAPE  C31818783   4.937   5.455   7.846  0.1968  0.7178  0.4555
  166SAPE  H18X18784   5.030   5.498   7.801 -0.3839  0.2546 -1.2339
  166SAPE  H18Y18785   4.936   5.345   7.857  0.6977  0.9203  3.0852
  166SAPE  H18Z18786   4.923   5.498   7.948 -2.6038 -4.6119  2.7020
  167SAPE     N18787   3.635   4.814   5.956  0.5179 -0.2516 -0.7452
  167SAPE   HN118788   3.601   4.912   5.955  1.5654  0.1150 -0.8840
  167SAPE   HN218789   3.711   4.802   6.026  1.0838  3.5278 -0.5387
  167SAPE   HN318790   3.681   4.793   5.865 -0.7810 -1.0134 -1.2555
  167SAPE   C1218791   3.533   4.700   5.984  0.5366 -0.6028  0.2730
  167SAPE  H12A18792   3.500   4.672   5.881 -0.5572  0.4048  0.3179
  167SAPE  H12B18793   3.459   4.736   6.058  0.5448 -1.7562  0.8590
  167SAPE   C1118794   3.601   4.578   6.039  0.1948 -0.2710  0.2336
  167SAPE  H11A18795   3.688   4.543   5.980  0.7750 -1.1494  1.5611
  167SAPE  H11B18796   3.537   4.488   6.035  2.2134 -1.9838  2.6872
  167SAPE     P18797   3.770   4.637   6.231  0.4086 -0.3019  0.2481
  167SAPE   O1318798   3.858   4.516   6.255  0.1262  0.2474  0.0693
  167SAPE   O1418799   3.824   4.726   6.124  0.1047  0.5692  0.1761
  167SAPE   O1218800   3.631   4.597   6.180  0.4718 -0.1302 -0.1646
  167SAPE   O1118801   3.741   4.711   6.368 -0.0004  0.4341 -0.3960
  167SAPE    C118802   3.669   4.840   6.369 -0.3376  0.1426  0.2810
  167SAPE    HA18803   3.619   4.869   6.274  1.2067 -0.2054 -0.6682
  167SAPE    HB18804   3.602   4.839   6.457 -1.3338  0.6878 -0.4507
  167SAPE    C218805   3.769   4.958   6.387 -0.0397 -0.1234 -0.3899
  167SAPE    HS18806   3.839   4.947   6.301 -1.8977  2.0144 -2.3001
  167SAPE   O2118807   3.824   4.946   6.519  0.5340 -0.1601  0.1987
  167SAPE   C2118808   3.942   5.002   6.521 -0.6945 -0.4114 -0.2506
  167SAPE   O2218809   4.007   5.039   6.427 -0.2304 -0.1761  0.1691
  167SAPE   C2218810   3.985   5.015   6.667  0.1958  0.8179  0.6176
  167SAPE   H2R18811   3.899   5.051   6.729 -0.1714  1.0632 -0.0300
  167SAPE   H2S18812   3.994   4.908   6.696 -4.7901 -0.8554 -2.5479
  167SAPE    C318813   3.699   5.095   6.367  0.6987  0.2860  0.1268
  167SAPE    HX18814   3.653   5.086   6.266  1.7006  0.0489 -0.3148
  167SAPE    HY18815   3.767   5.183   6.367  0.9517  0.0934 -0.6640
  167SAPE   O3118816   3.591   5.095   6.464  0.5443 -0.1715 -0.4250
  167SAPE   C3118817   3.622   5.142   6.584  0.2707  0.0251  0.9204
  167SAPE   O3218818   3.726   5.197   6.607  0.4721  0.4565  0.1558
  167SAPE   C3218819   3.504   5.111   6.680 -0.1849 -1.0667 -0.0614
  167SAPE   H2X18820   3.409   5.134   6.627  0.5371  1.8541 -0.2799
  167SAPE   H2Y18821   3.520   5.188   6.759 -0.3995 -0.3969 -0.6630
  167SAPE   C2318822   4.108   5.108   6.685  0.8447  0.5411  0.4136
  167SAPE   H3R18823   4.088   5.204   6.633 -1.2115 -0.8356 -1.5204
  167SAPE   H3S18824   4.190   5.068   6.622 -1.1198  1.7840 -3.1858
  167SAPE   C2418825   4.140   5.129   6.832  0.4793  0.4383  0.1691
  167SAPE   H4R18826   4.157   5.028   6.875 -0.1952  0.4384  0.4567
  167SAPE   H4S18827   4.051   5.171   6.884  0.0848  1.4844 -1.2930
  167SAPE   C2518828   4.259   5.215   6.838 -0.1021 -0.6093 -0.8913
  167SAPE   H5R18829   4.269   5.302   6.772  2.1241 -0.0868  0.0200
  167SAPE   C2618830   4.340   5.208   6.945  0.4149  0.2306  0.7261
  167SAPE   H6R18831   4.427   5.275   6.938  0.1376  1.0452  3.7843
  167SAPE   C2718832   4.341   5.105   7.054  0.0618 -0.1883  0.7397
  167SAPE   H7R18833   4.448   5.076   7.064  1.0713  3.4014  1.5808
  167SAPE   H7S18834   4.281   5.014   7.031 -1.0614  0.4342  1.1338
  167SAPE   C2818835   4.280   5.158   7.182 -0.2257  0.2771  0.1243
  167SAPE   H8R18836   4.201   5.234   7.175  0.3892  0.7540 -3.0061
  167SAPE   C2918837   4.324   5.119   7.302 -0.3790 -0.3595  0.5018
  167SAPE   H9R18838   4.272   5.170   7.385  0.4209  2.9187 -0.8452
  167SAPE  C21018839   4.423   5.010   7.338  0.5434  0.1266 -0.1780
  167SAPE  H10R18840   4.480   4.987   7.245 -0.9138 -0.6861 -0.9152
  167SAPE  H10S18841   4.369   4.915   7.360 -0.4969  0.2374 -2.0105
  167SAPE  C21118842   4.519   5.063   7.441  0.1064 -0.3874 -0.3343
  167SAPE  H11R18843   4.602   5.109   7.385 -0.3460 -0.2231 -0.8715
  167SAPE  C21218844   4.523   5.038   7.575  0.1089 -0.2108  0.2553
  167SAPE  H12R18845   4.588   5.090   7.646  0.2635 -1.0919  0.7758
  167SAPE  C21318846   4.417   4.956   7.637 -0.1945 -0.5357  0.5443
  167SAPE  H13R18847   4.363   4.896   7.560 -0.9200  1.6811 -0.7814
  167SAPE  H13S18848   4.348   5.030   7.684 -0.6302 -0.7072  0.1812
  167SAPE  C21418849   4.471   4.847   7.725 -0.7416  0.0291 -0.7408
  167SAPE  H14R18850   4.534   4.774   7.672  0.1009 -0.5203  0.9262
  167SAPE  C21518851   4.457   4.832   7.865  0.7279 -0.4712  1.6318
  167SAPE  H15R18852   4.512   4.753   7.916  1.9319 -0.8620 -0.1789
  167SAPE  C21618853   4.373   4.914   7.958  0.1853 -0.8857 -0.0311
  167SAPE  H16R18854   4.322   5.001   7.912  1.4843 -0.9461 -1.6545
  167SAPE  H16S18855   4.441   4.964   8.030  0.4772  0.1014 -0.9567
  167SAPE  C21718856   4.265   4.833   8.032  0.2411  1.1269 -0.2264
  167SAPE  H17R18857   4.294   4.726   8.044  5.3212  1.9758 -2.1319
  167SAPE  H17S18858   4.172   4.842   7.972  0.7326  1.6970 -0.9252
  167SAPE  C21818859   4.228   4.884   8.171  0.1475 -0.0174 -0.1679
  167SAPE  H18R18860   4.215   4.995   8.170 -0.0149 -0.0343  0.0297
  167SAPE  H18S18861   4.310   4.871   8.245 -0.1263 -0.5035  0.0515
  167SAPE  C21918862   4.104   4.822   8.232  0.2620  0.4336 -0.1379
  167SAPE  H19R18863   4.109   4.844   8.341 -2.8752  3.2439 -0.3936
  167SAPE  H19S18864   4.096   4.712   8.217 -3.1574  0.1182  2.6537
  167SAPE  C22018865   3.976   4.889   8.177  0.4484 -0.4477  0.0535
  167SAPE  H20R18866   3.980   5.000   8.182 -2.9234 -0.1606 -1.0290
  167SAPE  H20S18867   3.893   4.863   8.246 -1.0679  0.8766 -1.1990
  167SAPE  H20T18868   3.955   4.861   8.071  2.0452  1.4869 -0.8436
  167SAPE   C3318869   3.511   4.973   6.740 -0.2170 -0.4688  0.2410
  167SAPE   H3X18870   3.519   4.893   6.663 -2.3717 -0.3494 -0.1745
  167SAPE   H3Y18871   3.417   4.943   6.790 -0.1403 -0.3871  0.4345
  167SAPE   C3418872   3.627   4.935   6.834  0.2012 -0.1664  1.0048
  167SAPE   H4X18873   3.725   4.926   6.783  0.3212  0.7327  1.0672
  167SAPE   H4Y18874   3.613   4.831   6.870 -0.5882 -0.1890  0.6523
  167SAPE   C3518875   3.631   5.023   6.957 -0.3379 -0.5073  0.2833
  167SAPE   H5X18876   3.526   5.014   6.991 -0.7189 -1.4182 -1.0563
  167SAPE   H5Y18877   3.638   5.131   6.933 -2.4644 -0.5515 -0.7998
  167SAPE   C3618878   3.734   4.971   7.056 -0.6987  0.0686  0.8003
  167SAPE   H6X18879   3.832   4.977   7.005 -0.3846  2.1741  1.5670
  167SAPE   H6Y18880   3.709   4.864   7.074 -0.9902 -0.1700 -0.9014
  167SAPE   C3718881   3.726   5.049   7.186 -0.2989 -0.1187  0.2215
  167SAPE   H7X18882   3.625   5.053   7.232  0.4457  0.5190  1.8798
  167SAPE   H7Y18883   3.741   5.156   7.161 -3.0879  0.1227 -0.7575
  167SAPE   C3818884   3.827   5.016   7.295 -0.8182 -0.5047 -0.7261
  167SAPE   H8X18885   3.926   5.010   7.245  0.8278  1.1434  2.0898
  167SAPE   H8Y18886   3.811   4.917   7.343 -1.4308 -0.9840 -1.8890
  167SAPE   C3918887   3.834   5.120   7.410  0.1223 -0.1380 -0.4787
  167SAPE   H9X18888   3.741   5.126   7.471 -0.3730  0.3583 -1.2743
  167SAPE   H9Y18889   3.853   5.223   7.373 -2.4986  0.8127  0.5482
  167SAPE  C31018890   3.939   5.073   7.514 -0.1277  0.0434  0.2357
  167SAPE  H10X18891   4.034   5.044   7.464  0.3361  0.5757  0.7944
  167SAPE  H10Y18892   3.904   4.981   7.567  0.6041 -2.6307 -3.5219
  167SAPE  C31118893   3.981   5.184   7.615 -0.1979 -0.1234  0.6752
  167SAPE  H11X18894   3.999   5.280   7.563 -2.9735 -0.3949 -0.9698
  167SAPE  H11Y18895   4.079   5.157   7.661 -0.2698 -1.1223  0.2618
  167SAPE  C31218896   3.869   5.205   7.715  0.5212 -0.2524  0.2723
  167SAPE  H12X18897   3.835   5.108   7.758  1.0566 -0.1721  0.9035
  167SAPE  H12Y18898   3.769   5.243   7.686 -0.2558 -2.8093 -0.7046
  167SAPE  C31318899   3.921   5.285   7.836 -0.8248 -0.0988 -0.0395
  167SAPE  H13X18900   3.944   5.390   7.806  1.0887 -0.0099  1.5420
  167SAPE  H13Y18901   4.016   5.243   7.875 -0.3259  0.6011 -0.4697
  167SAPE  C31418902   3.819   5.296   7.947 -0.0618 -0.1153 -0.7870
  167SAPE  H14X18903   3.779   5.199   7.983  0.8105  0.2340  1.2717
  167SAPE  H14Y18904   3.726   5.346   7.913  0.1755  0.9988  0.1449
  167SAPE  C31518905   3.869   5.365   8.076 -0.3665 -0.4201 -0.3115
  167SAPE  H15X18906   3.790   5.340   8.151  0.1143 -3.5798 -0.7051
  167SAPE  H15Y18907   3.884   5.474   8.066  2.4890 -0.7365 -0.2839
  167SAPE  C31618908   3.994   5.308   8.149 -0.0099 -0.2744  0.3320
  167SAPE  H16X18909   4.079   5.347   8.088  0.0310  1.7547  1.5656
  167SAPE  H16Y18910   3.987   5.198   8.140 -1.7270 -0.1190 -0.6493
  167SAPE  C31718911   4.023   5.345   8.292 -0.3711  0.1453  0.0930
  167SAPE  H17X18912   4.024   5.456   8.296  0.7765  0.1597 -0.3603
  167SAPE  H17Y18913   4.117   5.293   8.318  1.2205  2.4702 -0.7046
  167SAPE  C31818914   3.918   5.288   8.388 -0.0650  0.3648  0.4013
  167SAPE  H18X18915   3.895   5.360   8.469 -0.3795 -0.6687  1.2491
  167SAPE  H18Y18916   3.947   5.184   8.414  1.3953  0.1387 -1.8447
  167SAPE  H18Z18917   3.823   5.278   8.332 -0.1246  1.2170  0.3407
  168SAPE     N18918   3.813   0.028   6.413 -0.2595  0.2695 -0.5409
  168SAPE   HN118919   3.833  -0.070   6.441  1.5762  0.4706 -1.0362
  168SAPE   HN218920   3.826   0.090   6.496  3.0412  0.4315 -1.0858
  168SAPE   HN318921   3.717   0.040   6.375  0.2247  1.6024 -1.4136
  168SAPE   C1218922   3.912   0.065   6.308  0.1024  0.4728 -0.7491
  168SAPE  H12A18923   4.005   0.106   6.352  0.1166  0.8597 -1.1371
  168SAPE  H12B18924   3.872   0.154   6.256  1.6279  2.2297  0.9490
  168SAPE   C1118925   3.957  -0.066   6.232 -0.2910 -0.1816  0.6616
  168SAPE  H11A18926   4.011  -0.036   6.140  0.2067  0.2211  1.0763
  168SAPE  H11B18927   3.863  -0.113   6.196  0.3249  0.2039 -1.6404
  168SAPE     P18928   3.995  -0.279   6.383 -0.2146  0.0505 -0.1356
  168SAPE   O1318929   4.002  -0.396   6.295 -0.3360 -0.2402  0.5113
  168SAPE   O1418930   4.079  -0.272   6.506  0.1623  0.5383 -0.4106
  168SAPE   O1218931   4.037  -0.149   6.310  0.0601 -0.0590 -0.2295
  168SAPE   O1118932   3.846  -0.242   6.420  0.1983  0.9540 -0.2167
  168SAPE    C118933   3.731  -0.319   6.419 -0.5570 -0.2999  0.2531
  168SAPE    HA18934   3.665  -0.290   6.335 -0.0547  0.0677 -0.0182
  168SAPE    HB18935   3.755  -0.427   6.405 -0.0485 -0.2831  0.9455
  168SAPE    C218936   3.660  -0.305   6.555  1.5503  0.2463  0.5544
  168SAPE    HS18937   3.614  -0.204   6.558 -1.3102 -0.8151 -2.2463
  168SAPE   O2118938   3.755  -0.333   6.660 -0.0479  0.2322 -0.3562
  168SAPE   C2118939   3.805  -0.225   6.718 -0.2854 -0.4266  0.9226
  168SAPE   O2218940   3.789  -0.112   6.677  0.2840 -0.1284  0.2320
  168SAPE   C2218941   3.882  -0.263   6.845 -0.1834 -0.2591  0.0424
  168SAPE   H2R18942   3.808  -0.296   6.921  0.3236 -1.7372 -0.0785
  168SAPE   H2S18943   3.922  -0.363   6.818 -1.1143 -0.9967  1.3038
  168SAPE    C318944   3.539  -0.399   6.565 -0.0029  0.3740  0.9176
  168SAPE    HX18945   3.579  -0.502   6.553  2.3975  1.1494  1.7957
  168SAPE    HY18946   3.468  -0.391   6.480 -0.3218 -0.3609  1.1096
  168SAPE   O3118947   3.455  -0.382   6.681 -0.5860 -0.0109 -0.2071
  168SAPE   C3118948   3.445  -0.491   6.759 -0.0912  0.2461  0.0516
  168SAPE   O3218949   3.505  -0.596   6.740  0.2440  0.1754  0.4502
  168SAPE   C3218950   3.336  -0.466   6.873 -0.9048 -0.5832 -0.1622
  168SAPE   H2X18951   3.263  -0.549   6.867 -2.1540  0.5732 -2.7044
  168SAPE   H2Y18952   3.280  -0.372   6.850  1.3983  1.0117  0.3567
  168SAPE   C2318953   3.989  -0.159   6.887 -0.9775 -0.5823 -0.5431
  168SAPE   H3R18954   3.933  -0.095   6.959 -0.9342  0.3296 -1.3016
  168SAPE   H3S18955   4.030  -0.105   6.799  0.6671  0.3138  0.7337
  168SAPE   C2418956   4.110  -0.241   6.951 -0.2223 -0.2602 -0.0187
  168SAPE   H4R18957   4.081  -0.304   7.037 -3.3386  0.0547 -0.7118
  168SAPE   H4S18958   4.176  -0.162   6.990  1.0874 -0.4529 -1.7049
  168SAPE   C2518959   4.183  -0.318   6.843 -0.3800 -0.1486  0.0061
  168SAPE   H5R18960   4.225  -0.264   6.756  0.7466 -0.8244  0.1030
  168SAPE   C2618961   4.195  -0.453   6.843 -0.5455  0.9704 -0.5878
  168SAPE   H6R18962   4.238  -0.512   6.760 -0.4274 -0.4742  0.4542
  168SAPE   C2718963   4.148  -0.548   6.951 -0.4215  0.8556 -0.1151
  168SAPE   H7R18964   4.152  -0.506   7.053 -0.1882 -1.1087  0.7226
  168SAPE   H7S18965   4.214  -0.637   6.961 -0.0608  1.3612  2.7124
  168SAPE   C2818966   4.007  -0.594   6.909 -0.0671 -0.1912  0.0701
  168SAPE   H8R18967   3.997  -0.615   6.801  2.0279  0.6437 -0.3399
  168SAPE   C2918968   3.904  -0.600   6.990  0.8876  0.3114 -0.2244
  168SAPE   H9R18969   3.805  -0.637   6.959  1.5784 -1.8617 -0.0325
  168SAPE  C21018970   3.923  -0.566   7.137  0.1423  0.4582 -0.0630
  168SAPE  H10R18971   3.973  -0.467   7.144  2.3521 -0.6686  1.7264
  168SAPE  H10S18972   3.996  -0.641   7.175 -0.4764  0.7673  1.8751
  168SAPE  C21118973   3.798  -0.560   7.217 -0.2678 -0.7874 -0.3448
  168SAPE  H11R18974   3.705  -0.521   7.172 -0.0715 -0.7559 -0.7199
  168SAPE  C21218975   3.783  -0.609   7.341 -0.8685  0.2618 -0.1963
  168SAPE  H12R18976   3.688  -0.579   7.387  0.0923 -1.0802  2.9316
  168SAPE  C21318977   3.884  -0.678   7.433 -0.2365 -0.1623 -0.0245
  168SAPE  H13R18978   3.897  -0.628   7.531  0.7080 -0.4077 -0.0208
  168SAPE  H13S18979   3.984  -0.668   7.386 -1.0070 -2.3629 -2.3849
  168SAPE  C21418980   3.852  -0.823   7.450  0.4179 -0.4769 -0.0953
  168SAPE  H14R18981   3.833  -0.873   7.354  0.3966 -1.5661  0.4571
  168SAPE  C21518982   3.862  -0.903   7.560 -0.3172 -0.2009  0.0810
  168SAPE  H15R18983   3.848  -1.011   7.542  1.8770 -0.9866  2.4169
  168SAPE  C21618984   3.903  -0.856   7.702  0.1415  0.6412  0.2667
  168SAPE  H16R18985   3.815  -0.841   7.767 -1.1476 -0.2220 -1.2233
  168SAPE  H16S18986   3.972  -0.769   7.693  1.7171 -0.6508 -0.6210
  168SAPE  C21718987   3.971  -0.975   7.772  0.2822  0.2829  0.0831
  168SAPE  H17R18988   4.057  -1.003   7.708 -1.1793 -3.0797 -0.6367
  168SAPE  H17S18989   3.906  -1.065   7.764 -1.4124  1.6085 -2.4710
  168SAPE  C21818990   4.033  -0.953   7.911 -0.1293  0.3294  0.0826
  168SAPE  H18R18991   3.963  -0.895   7.975 -2.1932 -0.6600 -1.1603
  168SAPE  H18S18992   4.119  -0.885   7.896 -0.8678  1.8918  2.4593
  168SAPE  C21918993   4.070  -1.081   7.972 -0.4422  0.6987 -0.6628
  168SAPE  H19R18994   4.146  -1.137   7.913  0.1493 -0.5489  1.2000
  168SAPE  H19S18995   3.982  -1.148   7.961  0.0800  0.0326 -0.7814
  168SAPE  C22018996   4.122  -1.067   8.111  0.1734  0.3784  0.0169
  168SAPE  H20R18997   4.212  -1.004   8.123 -0.7897  1.6079  1.0671
  168SAPE  H20S18998   4.143  -1.172   8.143  0.3799  0.0201 -1.2384
  168SAPE  H20T18999   4.045  -1.026   8.179 -0.4926 -0.8433  0.0343
  168SAPE   C3319000   3.392  -0.447   7.012  0.4536 -0.7265 -0.6093
  168SAPE   H3X19001   3.461  -0.361   7.021 -1.3104  0.6391  0.6397
  168SAPE   H3Y19002   3.436  -0.543   7.046 -2.2370 -1.1010  2.2771
  168SAPE   C3419003   3.271  -0.437   7.108  0.4835  0.7348 -0.5960
  168SAPE   H4X19004   3.209  -0.527   7.088  1.4915 -0.2749  0.7130
  168SAPE   H4Y19005   3.197  -0.362   7.072 -0.8095 -0.3416 -0.2580
  168SAPE   C3519006   3.312  -0.411   7.248 -0.1038 -0.0190  0.5655
  168SAPE   H5X19007   3.354  -0.308   7.250 -1.1888  0.4758 -0.7099
  168SAPE   H5Y19008   3.384  -0.485   7.288 -2.4896 -0.9439  3.5543
  168SAPE   C3619009   3.188  -0.424   7.342 -0.3416  0.1811 -0.3241
  168SAPE   H6X19010   3.150  -0.527   7.354  2.6437 -0.7380  2.5874
  168SAPE   H6Y19011   3.105  -0.365   7.295 -1.3092 -1.3479 -0.5949
  168SAPE   C3719012   3.213  -0.372   7.481  0.3569 -0.2716  0.3138
  168SAPE   H7X19013   3.272  -0.278   7.471  0.4158 -0.0032  2.6673
  168SAPE   H7Y19014   3.289  -0.437   7.529 -0.5579 -1.4497  0.2288
  168SAPE   C3819015   3.090  -0.359   7.576 -0.4509 -0.4718  0.1052
  168SAPE   H8X19016   3.027  -0.446   7.605 -1.3494  0.4542  1.0360
  168SAPE   H8Y19017   3.024  -0.287   7.523 -0.6282  1.2698  2.5196
  168SAPE   C3919018   3.112  -0.291   7.713  0.2679 -0.8700 -0.3940
  168SAPE   H9X19019   3.142  -0.188   7.684 -0.2844 -0.5645  0.0945
  168SAPE   H9Y19020   3.200  -0.340   7.758 -0.0153 -0.2930  0.8317
  168SAPE  C31019021   2.993  -0.283   7.806 -0.1712 -0.4114 -0.5919
  168SAPE  H10X19022   2.973  -0.386   7.843  0.4208  0.0099  0.9842
  168SAPE  H10Y19023   2.904  -0.246   7.751 -0.1537  2.6189  1.2276
  168SAPE  C31119024   3.030  -0.202   7.926  0.3131  1.0441 -0.0068
  168SAPE  H11X19025   3.033  -0.092   7.908  1.2749  1.3369  1.7360
  168SAPE  H11Y19026   3.124  -0.241   7.969 -0.3070 -0.0089  0.4491
  168SAPE  C31219027   2.922  -0.222   8.041  0.3415 -0.2634 -0.0517
  168SAPE  H12X19028   2.909  -0.333   8.037 -0.3055 -0.1595 -1.7922
  168SAPE  H12Y19029   2.830  -0.178   7.997  0.2835 -0.3728 -0.0408
  168SAPE  C31319030   2.939  -0.167   8.180  0.4450 -0.0783 -0.0930
  168SAPE  H13X19031   2.913  -0.059   8.186 -0.2948 -0.3359  2.5579
  168SAPE  H13Y19032   3.036  -0.178   8.233  0.8184  0.4436 -0.6360
  168SAPE  C31419033   2.836  -0.252   8.271 -0.2678 -0.1022  0.2376
  168SAPE  H14X19034   2.879  -0.354   8.269 -1.3807 -0.5717  0.0131
  168SAPE  H14Y19035   2.743  -0.249   8.210  0.1189  1.1050 -0.3285
  168SAPE  C31519036   2.828  -0.206   8.413  0.1037 -0.0502 -0.1675
  168SAPE  H15X19037   2.763  -0.116   8.414  0.4260  0.2159  1.8776
  168SAPE  H15Y19038   2.928  -0.175   8.452  0.8245 -2.1156 -0.2772
  168SAPE  C31619039   2.787  -0.319   8.514 -0.3083  0.2597 -0.0578
  168SAPE  H16X19040   2.862  -0.401   8.517 -2.1643 -1.5085  2.4771
  168SAPE  H16Y19041   2.689  -0.364   8.486  0.8026 -2.9196  0.7849
  168SAPE  C31719042   2.785  -0.269   8.661 -0.0311  0.4824  0.6769
  168SAPE  H17X19043   2.884  -0.225   8.687  0.9044 -0.5044 -1.0641
  168SAPE  H17Y19044   2.769  -0.356   8.729 -1.8405  0.9553  0.9078
  168SAPE  C31819045   2.665  -0.176   8.693 -0.2603  0.0023  0.2075
  168SAPE  H18X19046   2.576  -0.240   8.707 -0.7606  0.7500  0.5236
  168SAPE  H18Y19047   2.641  -0.095   8.620  0.1449  0.5300  0.6483
  168SAPE  H18Z19048   2.693  -0.137   8.793  0.1637 -0.9401  0.4609
  169SAPE     N19049   1.035   2.557   6.246 -0.0960  0.3384 -0.4092
  169SAPE   HN119050   1.132   2.594   6.240  0.1682 -0.4683 -1.5771
  169SAPE   HN219051   0.975   2.623   6.298 -2.4732 -1.1808 -1.0629
  169SAPE   HN319052   1.056   2.468   6.297 -0.5189 -0.0188 -0.8476
  169SAPE   C1219053   0.982   2.523   6.114  0.0799 -0.2812  0.4128
  169SAPE  H12A19054   0.880   2.564   6.099 -0.2117 -1.7948 -2.4318
  169SAPE  H12B19055   0.984   2.413   6.097  0.1284 -0.3792  1.0246
  169SAPE   C1119056   1.083   2.581   6.012 -0.7890 -0.5272 -0.2473
  169SAPE  H11A19057   1.086   2.692   6.002  0.4290 -0.3389  1.6887
  169SAPE  H11B19058   1.034   2.552   5.916 -1.6093 -0.5331  0.1666
  169SAPE     P19059   1.351   2.599   6.067  0.3481 -0.1949  0.1141
  169SAPE   O1319060   1.463   2.506   6.079 -0.4481  0.5241 -0.0318
  169SAPE   O1419061   1.363   2.714   5.977  0.0805 -0.3650  0.2549
  169SAPE   O1219062   1.216   2.522   6.024 -0.4908 -0.0097  0.0769
  169SAPE   O1119063   1.300   2.649   6.211 -0.4420 -0.0320 -0.5711
  169SAPE    C119064   1.373   2.712   6.309  0.2687 -0.4493  0.0770
  169SAPE    HA19065   1.465   2.758   6.266 -0.5566  0.6828 -0.5539
  169SAPE    HB19066   1.313   2.793   6.357  1.6873  1.3166 -0.9859
  169SAPE    C219067   1.410   2.615   6.425 -0.5294  0.2846  0.6559
  169SAPE    HS19068   1.434   2.525   6.365 -0.7858  0.8125 -0.2632
  169SAPE   O2119069   1.292   2.588   6.502  0.2191 -0.1794  0.2170
  169SAPE   C2119070   1.306   2.480   6.579 -0.0218 -0.2307 -0.8346
  169SAPE   O2219071   1.398   2.405   6.596  0.2855 -0.1583  0.3992
  169SAPE   C2219072   1.156   2.453   6.617  0.2049  0.3533 -0.3989
  169SAPE   H2R19073   1.090   2.542   6.603 -0.0732  0.2382  0.1379
  169SAPE   H2S19074   1.139   2.364   6.553  1.7796  0.0304 -0.4120
  169SAPE    C319075   1.532   2.668   6.511 -0.0708 -0.2495 -0.9588
  169SAPE    HX19076   1.624   2.664   6.449  0.1642  0.5815 -0.6715
  169SAPE    HY19077   1.552   2.594   6.592 -0.1069  1.3946  0.6133
  169SAPE   O3119078   1.505   2.799   6.573 -0.3658  0.2481 -0.5740
  169SAPE   C3119079   1.462   2.806   6.696 -0.2685  0.5720 -0.8231
  169SAPE   O3219080   1.447   2.712   6.777 -0.0925 -0.3572  0.0648
  169SAPE   C3219081   1.444   2.951   6.733  0.6647 -0.4773  0.0357
  169SAPE   H2X19082   1.335   2.974   6.723  0.3743 -1.2510  1.2109
  169SAPE   H2Y19083   1.508   3.019   6.674  1.0539 -1.0502 -0.2065
  169SAPE   C2319084   1.137   2.395   6.759  0.3000 -0.6403 -0.3464
  169SAPE   H3R19085   1.189   2.298   6.769  1.3432 -0.3812 -2.7875
  169SAPE   H3S19086   1.030   2.369   6.774  1.1041 -3.6062  1.0950
  169SAPE   C2419087   1.180   2.495   6.864  0.3467 -0.7980  1.0527
  169SAPE   H4R19088   1.140   2.597   6.843  0.6930 -0.5021  1.8089
  169SAPE   H4S19089   1.290   2.506   6.860  0.2310  0.1401 -1.6509
  169SAPE   C2519090   1.139   2.462   7.001 -0.1443 -0.5022 -0.2597
  169SAPE   H5R19091   1.136   2.357   7.034  1.0941 -0.6638 -0.5969
  169SAPE   C2619092   1.115   2.551   7.102  0.4402  0.0625 -0.1786
  169SAPE   H6R19093   1.096   2.510   7.203 -2.1310 -2.5922 -1.5806
  169SAPE   C2719094   1.113   2.703   7.088  0.3764  0.6534 -0.7693
  169SAPE   H7R19095   1.202   2.736   7.032  1.9669 -0.3309  1.0671
  169SAPE   H7S19096   1.130   2.750   7.187 -2.2767 -1.9141  1.0997
  169SAPE   C2819097   0.986   2.768   7.033  0.1906  0.7812 -0.1783
  169SAPE   H8R19098   0.992   2.786   6.925 -0.4913 -3.6572 -1.1280
  169SAPE   C2919099   0.872   2.799   7.098 -0.3831  0.1516  0.4156
  169SAPE   H9R19100   0.792   2.843   7.037 -0.6968  1.1415  1.4977
  169SAPE  C21019101   0.841   2.760   7.236  0.0707  0.1190  0.1133
  169SAPE  H10R19102   0.920   2.691   7.273  0.3588  0.1144 -0.4878
  169SAPE  H10S19103   0.745   2.706   7.230 -0.1362  0.3947  0.8294
  169SAPE  C21119104   0.832   2.879   7.331 -0.0216  0.1842 -0.1054
  169SAPE  H11R19105   0.883   2.969   7.295  0.1692  0.7709  1.5502
  169SAPE  C21219106   0.759   2.880   7.444  0.7678  0.2223  0.3125
  169SAPE  H12R19107   0.749   2.970   7.507 -1.8976 -0.7164  1.3875
  169SAPE  C21319108   0.681   2.771   7.518 -0.0906 -0.3201  0.6863
  169SAPE  H13R19109   0.666   2.685   7.449  4.5130  0.2406 -1.4160
  169SAPE  H13S19110   0.578   2.807   7.536 -0.5002 -0.9216 -0.3565
  169SAPE  C21419111   0.733   2.721   7.647 -0.3385  0.1766 -0.6662
  169SAPE  H14R19112   0.684   2.773   7.730 -3.2591 -2.6460 -0.4233
  169SAPE  C21519113   0.808   2.613   7.668  0.6955  0.1659  0.0004
  169SAPE  H15R19114   0.851   2.613   7.770 -0.3437  2.8014  0.5328
  169SAPE  C21619115   0.846   2.523   7.559  0.0622  0.1117  0.1608
  169SAPE  H16R19116   0.954   2.500   7.568  0.3201  1.5373  1.2182
  169SAPE  H16S19117   0.846   2.585   7.467  0.9463  0.7474  0.5718
  169SAPE  C21719118   0.756   2.395   7.539 -1.0133 -0.1164 -0.3808
  169SAPE  H17R19119   0.649   2.425   7.530 -0.8364  0.6442  0.0068
  169SAPE  H17S19120   0.766   2.319   7.619 -0.2242  0.6974  0.3204
  169SAPE  C21819121   0.806   2.319   7.411  0.3117 -0.5664  0.6652
  169SAPE  H18R19122   0.750   2.223   7.415  0.5579 -0.7589 -0.2862
  169SAPE  H18S19123   0.915   2.295   7.405  0.1366 -1.0004 -2.0079
  169SAPE  C21919124   0.758   2.398   7.283 -0.2621 -0.0241 -0.3215
  169SAPE  H19R19125   0.827   2.484   7.272 -0.7461  0.5019  0.5606
  169SAPE  H19S19126   0.659   2.444   7.308  0.2595  0.7964  0.2885
  169SAPE  C22019127   0.749   2.318   7.155  0.3210  0.3742  0.1063
  169SAPE  H20R19128   0.667   2.243   7.159  0.6337  0.0737  2.7805
  169SAPE  H20S19129   0.842   2.264   7.128  0.0888 -0.0291  0.1031
  169SAPE  H20T19130   0.731   2.382   7.066  0.0354 -0.2839 -0.3099
  169SAPE   C3319131   1.460   2.974   6.886  0.5030 -0.2502 -0.2976
  169SAPE   H3X19132   1.562   2.943   6.916 -0.0356 -0.7198  1.1298
  169SAPE   H3Y19133   1.392   2.904   6.940 -1.3450  1.8934  0.3255
  169SAPE   C3419134   1.419   3.118   6.927 -0.1279 -0.1670  0.1492
  169SAPE   H4X19135   1.320   3.135   6.879  0.5050  0.7683 -0.8525
  169SAPE   H4Y19136   1.486   3.190   6.876 -0.4658  0.4350  0.5458
  169SAPE   C3519137   1.425   3.144   7.073 -0.4291  0.2228 -0.1381
  169SAPE   H5X19138   1.413   3.252   7.095 -0.3044  0.5686 -1.6787
  169SAPE   H5Y19139   1.527   3.112   7.101 -0.9428 -0.8389  0.6238
  169SAPE   C3619140   1.324   3.071   7.162  0.0731 -0.1319 -0.0441
  169SAPE   H6X19141   1.344   2.962   7.157  0.6425  0.0162 -1.5240
  169SAPE   H6Y19142   1.218   3.077   7.128  0.4037 -1.3287 -1.3399
  169SAPE   C3719143   1.332   3.122   7.312 -0.0552 -0.0404 -0.2769
  169SAPE   H7X19144   1.278   3.218   7.331  0.8437  0.8186 -1.8869
  169SAPE   H7Y19145   1.436   3.133   7.349 -0.2710  0.0538  0.3067
  169SAPE   C3819146   1.245   3.023   7.399 -0.2740 -0.6981  0.4237
  169SAPE   H8X19147   1.305   2.930   7.392  0.0083 -0.3699 -3.9125
  169SAPE   H8Y19148   1.147   3.015   7.347 -0.3498  0.3176  0.3880
  169SAPE   C3919149   1.227   3.078   7.542  0.0960 -0.0449  0.6866
  169SAPE   H9X19150   1.188   3.181   7.530  1.5500  0.5469  0.8040
  169SAPE   H9Y19151   1.328   3.078   7.589  0.7363 -0.2795 -0.6364
  169SAPE  C31019152   1.137   2.981   7.609  0.6867  0.0852  0.1243
  169SAPE  H10X19153   1.171   2.876   7.596 -0.3856 -0.2601  0.0121
  169SAPE  H10Y19154   1.039   2.986   7.557 -0.5288 -1.1505  2.1518
  169SAPE  C31119155   1.125   3.012   7.762  0.4969  0.0442 -0.0469
  169SAPE  H11X19156   1.083   3.113   7.779  1.7205  0.4285  0.8321
  169SAPE  H11Y19157   1.223   3.003   7.815 -1.1859 -2.2267  3.0270
  169SAPE  C31219158   1.026   2.912   7.830 -0.4747 -0.8341  0.1257
  169SAPE  H12X19159   1.058   2.807   7.814  0.3953 -0.5123 -0.2890
  169SAPE  H12Y19160   0.928   2.922   7.779 -1.3951  2.5010  2.2258
  169SAPE  C31319161   1.012   2.947   7.978 -0.3770 -0.5509 -0.7598
  169SAPE  H13X19162   0.999   3.054   8.004 -1.0833 -0.4996 -1.3078
  169SAPE  H13Y19163   1.108   2.921   8.028  0.3533  1.9190 -0.7409
  169SAPE  C31419164   0.910   2.861   8.060 -0.3222 -0.2739 -0.5548
  169SAPE  H14X19165   0.910   2.885   8.168 -1.8512 -0.3482 -0.5102
  169SAPE  H14Y19166   0.946   2.756   8.046 -0.4345 -0.4378  0.3137
  169SAPE  C31519167   0.762   2.875   8.021  0.1922 -0.5614  0.2395
  169SAPE  H15X19168   0.757   2.832   7.918  1.9244  2.1496 -1.1102
  169SAPE  H15Y19169   0.748   2.986   8.019  0.2575 -0.5557 -0.7619
  169SAPE  C31619170   0.665   2.813   8.122  0.3336  0.0535 -0.3782
  169SAPE  H16X19171   0.682   2.837   8.229  1.0210  1.6779 -0.8217
  169SAPE  H16Y19172   0.692   2.706   8.112  1.4723  0.3039 -0.1449
  169SAPE  C31719173   0.527   2.835   8.076  0.1338  0.2286  0.0409
  169SAPE  H17X19174   0.501   2.942   8.058 -1.3213 -0.0430  0.3745
  169SAPE  H17Y19175   0.451   2.791   8.144  1.4663 -1.8888  0.2502
  169SAPE  C31819176   0.493   2.783   7.932  0.4033  1.1404 -0.3055
  169SAPE  H18X19177   0.549   2.691   7.906 -2.7730 -1.0682  0.1107
  169SAPE  H18Y19178   0.527   2.864   7.864  1.0207  4.4160  3.5135
  169SAPE  H18Z19179   0.385   2.765   7.912  0.6813 -0.6647 -0.3795
  170SAPE     N19180   1.151   1.100   6.229 -0.3436 -0.4182  0.0105
  170SAPE   HN119181   1.213   1.020   6.252  0.0070 -0.3741 -0.7490
  170SAPE   HN219182   1.105   1.072   6.139  1.6527 -1.2164 -0.8137
  170SAPE   HN319183   1.210   1.181   6.201  0.5348 -0.8075  0.6958
  170SAPE   C1219184   1.052   1.141   6.336 -0.2869 -0.2845  0.2635
  170SAPE  H12A19185   1.111   1.216   6.392  0.2640  0.6363 -1.4850
  170SAPE  H12B19186   1.024   1.050   6.394 -0.9852 -0.2783 -0.0583
  170SAPE   C1119187   0.931   1.211   6.276  0.5952 -0.3505  0.8104
  170SAPE  H11A19188   0.969   1.296   6.215 -0.7217 -0.8166 -0.7458
  170SAPE  H11B19189   0.880   1.257   6.363  3.3304  3.2900  0.7395
  170SAPE     P19190   0.702   1.167   6.168  0.1929 -0.3166 -0.0279
  170SAPE   O1319191   0.704   1.302   6.106  0.2055 -0.4661 -0.1242
  170SAPE   O1419192   0.641   1.067   6.081  0.4702  0.0087 -0.0175
  170SAPE   O1219193   0.850   1.120   6.192 -0.0863  0.0040  0.0265
  170SAPE   O1119194   0.641   1.174   6.316 -0.2901  0.2241  0.5764
  170SAPE    C119195   0.525   1.238   6.348  0.2714 -0.2881 -0.5368
  170SAPE    HA19196   0.467   1.261   6.256 -3.7476 -0.6321  1.6778
  170SAPE    HB19197   0.458   1.163   6.394 -1.2335 -0.1673 -2.3805
  170SAPE    C219198   0.539   1.357   6.444 -0.6486 -0.2724 -0.0681
  170SAPE    HS19199   0.627   1.413   6.404 -1.4365 -0.4156 -2.1675
  170SAPE   O2119200   0.577   1.297   6.569  0.2721  0.5945  0.7826
  170SAPE   C2119201   0.631   1.386   6.653  0.6892  0.1035  0.0668
  170SAPE   O2219202   0.667   1.500   6.627 -0.1587 -0.5452 -0.0992
  170SAPE   C2219203   0.646   1.318   6.782 -0.1761 -0.1934  0.0655
  170SAPE   H2R19204   0.551   1.306   6.839 -0.2464 -1.9859 -0.3711
  170SAPE   H2S19205   0.686   1.216   6.762  1.7883  0.3343  1.0451
  170SAPE    C319206   0.424   1.462   6.444 -0.3369 -0.0106  0.1584
  170SAPE    HX19207   0.432   1.503   6.341  2.5850 -0.1659  0.2443
  170SAPE    HY19208   0.439   1.540   6.521 -1.5494 -2.5360  3.1684
  170SAPE   O3119209   0.296   1.406   6.455 -0.3816 -0.4334  0.3175
  170SAPE   C3119210   0.258   1.400   6.581 -0.5038  0.0645  0.0330
  170SAPE   O3219211   0.332   1.423   6.678 -0.2815  0.2905 -0.1432
  170SAPE   C3219212   0.120   1.346   6.591 -0.1405  0.0936 -0.6831
  170SAPE   H2X19213   0.133   1.236   6.584 -1.6130 -0.1921  0.4456
  170SAPE   H2Y19214   0.063   1.392   6.508  0.0699  1.6386 -0.0118
  170SAPE   C2319215   0.746   1.396   6.868 -0.0723 -0.2932 -0.6392
  170SAPE   H3R19216   0.714   1.503   6.870  0.0600 -0.2535 -0.5543
  170SAPE   H3S19217   0.846   1.391   6.820  0.4616  0.4424  0.3381
  170SAPE   C2419218   0.739   1.332   7.009 -0.0736  0.4710  0.2301
  170SAPE   H4R19219   0.745   1.222   7.001  1.9139  0.6784 -3.2496
  170SAPE   H4S19220   0.640   1.346   7.056  0.6110 -1.5174  2.4343
  170SAPE   C2519221   0.843   1.395   7.103  0.1551  0.5600 -0.0203
  170SAPE   H5R19222   0.941   1.422   7.062  0.0405 -1.1273 -1.5308
  170SAPE   C2619223   0.828   1.407   7.236 -0.1025 -0.0433  0.6466
  170SAPE   H6R19224   0.915   1.439   7.295  0.1527  1.2609 -0.3985
  170SAPE   C2719225   0.699   1.364   7.312 -0.0458  0.2955 -0.1230
  170SAPE   H7R19226   0.617   1.329   7.246  0.4306  0.1392 -0.6486
  170SAPE   H7S19227   0.661   1.455   7.364 -0.8283  0.3749 -0.8115
  170SAPE   C2819228   0.709   1.262   7.419 -0.2254  0.3745 -0.8555
  170SAPE   H8R19229   0.673   1.160   7.396  0.4086 -0.4858  1.5875
  170SAPE   C2919230   0.755   1.286   7.543  0.3906  0.2483 -0.7667
  170SAPE   H9R19231   0.760   1.212   7.624  0.7809 -0.5864 -1.5295
  170SAPE  C21019232   0.788   1.427   7.591  0.1467 -0.3065  0.0585
  170SAPE  H10R19233   0.703   1.454   7.658 -0.7089 -1.3229 -0.5861
  170SAPE  H10S19234   0.804   1.498   7.507  1.8960 -0.6046  0.1197
  170SAPE  C21119235   0.921   1.413   7.652 -0.3280  0.5458 -0.1914
  170SAPE  H11R19236   0.996   1.370   7.585 -0.3045  0.2044  0.0517
  170SAPE  C21219237   0.957   1.460   7.775 -0.0121  1.2101 -0.4957
  170SAPE  H12R19238   1.060   1.429   7.800  0.6176  0.9098 -3.1357
  170SAPE  C21319239   0.875   1.534   7.877 -0.6379  0.3621 -0.8024
  170SAPE  H13R19240   0.856   1.459   7.956  0.8471  0.5531 -0.2389
  170SAPE  H13S19241   0.777   1.567   7.834 -1.0007 -0.4660 -0.6179
  170SAPE  C21419242   0.952   1.653   7.921  0.9440 -0.0136  0.0108
  170SAPE  H14R19243   0.916   1.744   7.870  2.4203  0.0703 -0.9100
  170SAPE  C21519244   1.033   1.675   8.024 -0.2448  0.1496 -0.2749
  170SAPE  H15R19245   1.075   1.776   8.036 -2.2280  0.9351  0.3194
  170SAPE  C21619246   1.081   1.564   8.115 -0.3864  0.3817 -0.3353
  170SAPE  H16R19247   1.187   1.532   8.102  0.0994 -0.1143  3.5742
  170SAPE  H16S19248   1.019   1.473   8.097  1.1833 -0.3662 -2.5108
  170SAPE  C21719249   1.064   1.619   8.256  0.8006 -0.2770 -0.2242
  170SAPE  H17R19250   1.089   1.530   8.317  3.0582  0.3740 -0.0972
  170SAPE  H17S19251   0.967   1.657   8.296  1.0575 -1.4819  1.7099
  170SAPE  C21819252   1.171   1.721   8.298 -0.3931  0.1836 -0.5076
  170SAPE  H18R19253   1.164   1.822   8.252  1.3137  0.7073  0.2972
  170SAPE  H18S19254   1.273   1.692   8.264 -0.8017 -0.8413 -0.8969
  170SAPE  C21919255   1.169   1.745   8.450  0.2114  0.9237 -0.7128
  170SAPE  H19R19256   1.179   1.642   8.490 -1.7807  0.2167 -1.8976
  170SAPE  H19S19257   1.075   1.789   8.491  0.2327  1.3085 -1.0737
  170SAPE  C22019258   1.283   1.826   8.511  0.3613  0.2040 -0.2313
  170SAPE  H20R19259   1.283   1.843   8.621 -0.4491 -0.2217 -0.1564
  170SAPE  H20S19260   1.290   1.925   8.462  3.8081 -0.8311 -2.1491
  170SAPE  H20T19261   1.379   1.775   8.490  0.8885  1.3929 -0.8004
  170SAPE   C3319262   0.051   1.380   6.719  0.4720 -0.1297  0.9135
  170SAPE   H3X19263  -0.058   1.361   6.711 -0.1632  3.2017  0.3237
  170SAPE   H3Y19264   0.062   1.490   6.731 -1.2145  0.1734 -0.0538
  170SAPE   C3419265   0.107   1.315   6.849  0.4962 -0.1857 -0.2801
  170SAPE   H4X19266   0.214   1.345   6.843  1.1787 -2.3908  0.0664
  170SAPE   H4Y19267   0.092   1.205   6.843 -0.4367 -0.2155  1.8086
  170SAPE   C3519268   0.029   1.356   6.970 -0.3619  0.0076  0.6305
  170SAPE   H5X19269  -0.073   1.312   6.977  0.0636 -1.0794  0.2464
  170SAPE   H5Y19270   0.040   1.466   6.978  1.9326 -0.0511 -0.7971
  170SAPE   C3619271   0.094   1.284   7.092  0.3648 -0.5316  0.2039
  170SAPE   H6X19272   0.205   1.292   7.094  0.2361  2.9027  0.4436
  170SAPE   H6Y19273   0.088   1.175   7.074 -1.2467 -0.3648 -0.5129
  170SAPE   C3719274   0.037   1.331   7.226 -0.3404 -1.2007 -0.4294
  170SAPE   H7X19275  -0.056   1.273   7.247 -1.0659  0.0510 -0.0571
  170SAPE   H7Y19276   0.002   1.437   7.226 -1.2144 -1.4518  0.8350
  170SAPE   C3819277   0.121   1.300   7.345  0.2842 -0.1438  0.1250
  170SAPE   H8X19278   0.214   1.361   7.334 -1.2113  2.1545 -0.3960
  170SAPE   H8Y19279   0.141   1.191   7.352  1.1535 -0.1999 -2.3262
  170SAPE   C3919280   0.058   1.346   7.473  0.5355 -0.7813 -0.2483
  170SAPE   H9X19281  -0.036   1.289   7.492  0.5817 -0.4916  0.9204
  170SAPE   H9Y19282   0.036   1.454   7.462  2.1702 -0.4536 -0.6104
  170SAPE  C31019283   0.153   1.335   7.594 -0.5467  0.2957  0.1561
  170SAPE  H10X19284   0.253   1.376   7.568 -0.5558  0.3050  0.1359
  170SAPE  H10Y19285   0.170   1.227   7.614 -0.7964  0.1237 -0.5179
  170SAPE  C31119286   0.101   1.404   7.719 -0.2838  0.0974 -0.6411
  170SAPE  H11X19287   0.032   1.331   7.766  1.2556 -0.5353  0.7359
  170SAPE  H11Y19288   0.035   1.488   7.691  0.5293  0.8354 -0.3709
  170SAPE  C31219289   0.219   1.438   7.814 -0.4539  0.2141  0.0150
  170SAPE  H12X19290   0.273   1.523   7.767 -1.4341  0.1582 -1.2763
  170SAPE  H12Y19291   0.286   1.349   7.816 -1.1986 -0.3846 -0.8267
  170SAPE  C31319292   0.172   1.482   7.958 -0.7229 -0.0597  0.1721
  170SAPE  H13X19293   0.100   1.566   7.950 -0.7904 -0.1509 -0.1814
  170SAPE  H13Y19294   0.272   1.510   7.998 -1.4425 -1.3488  3.1826
  170SAPE  C31419295   0.117   1.372   8.056 -0.1139  0.9044  0.2562
  170SAPE  H14X19296   0.186   1.287   8.039 -0.3883  0.7314 -0.0031
  170SAPE  H14Y19297   0.017   1.342   8.019  1.1316 -1.1008 -1.7488
  170SAPE  C31519298   0.133   1.399   8.209  0.0865 -0.4619  0.3481
  170SAPE  H15X19299   0.238   1.422   8.234 -0.3633  0.5165  1.4095
  170SAPE  H15Y19300   0.095   1.314   8.270 -1.5514  0.6007  0.8825
  170SAPE  C31619301   0.033   1.513   8.251  0.1193  0.5752  0.0607
  170SAPE  H16X19302  -0.069   1.492   8.212 -0.5136 -0.3413  2.0517
  170SAPE  H16Y19303   0.065   1.610   8.208 -0.5694  0.4586 -0.7394
  170SAPE  C31719304   0.038   1.525   8.403 -0.3076  0.0488  0.0840
  170SAPE  H17X19305   0.147   1.523   8.423  0.2176 -0.5924 -2.4740
  170SAPE  H17Y19306  -0.015   1.441   8.453 -0.7479 -0.2164 -0.7987
  170SAPE  C31819307  -0.026   1.650   8.463  0.3086  0.0595  0.1580
  170SAPE  H18X19308  -0.135   1.631   8.477 -0.0408  0.9310 -1.1599
  170SAPE  H18Y19309  -0.013   1.731   8.387  2.1919 -0.2307  0.1281
  170SAPE  H18Z19310   0.016   1.675   8.563  1.1769 -0.3939 -0.0889
  171SAPE     N19311   2.124   5.324   6.107 -0.1978  0.4569 -0.2442
  171SAPE   HN119312   2.209   5.374   6.074  0.7028 -0.4571  0.6141
  171SAPE   HN219313   2.037   5.347   6.056  0.4780 -0.5027 -1.9179
  171SAPE   HN319314   2.108   5.336   6.209 -0.0598 -0.8647 -0.0502
  171SAPE   C1219315   2.138   5.186   6.076 -1.2810  0.7345  0.7434
  171SAPE  H12A19316   2.156   5.168   5.967  0.1257  3.6418  0.3995
  171SAPE  H12B19317   2.050   5.124   6.101 -1.6244  1.0986  0.4514
  171SAPE   C1119318   2.272   5.142   6.137 -0.3739  0.2617  0.2664
  171SAPE  H11A19319   2.275   5.034   6.113  0.1705  0.0149  1.3800
  171SAPE  H11B19320   2.258   5.156   6.246 -0.0191  0.3153  0.3044
  171SAPE     P19321   2.461   5.321   6.178  0.5611  0.0553  0.2771
  171SAPE   O1319322   2.589   5.357   6.110  0.3668  0.3425  0.5327
  171SAPE   O1419323   2.374   5.436   6.217  0.7018 -0.4481  0.4577
  171SAPE   O1219324   2.380   5.216   6.084 -0.2911  0.2498  0.1257
  171SAPE   O1119325   2.492   5.234   6.302 -0.3483  0.1269 -0.5260
  171SAPE    C119326   2.584   5.122   6.283 -0.4550 -0.5360 -0.5433
  171SAPE    HA19327   2.531   5.046   6.222 -0.3071 -0.8382 -0.2980
  171SAPE    HB19328   2.679   5.146   6.231  0.8657  1.4606  2.5133
  171SAPE    C219329   2.648   5.070   6.415 -0.3620  0.2205 -0.3324
  171SAPE    HS19330   2.702   4.975   6.398 -0.9895 -0.1592 -0.2510
  171SAPE   O2119331   2.552   5.062   6.518 -0.5653  0.2390  0.3104
  171SAPE   C2119332   2.464   4.965   6.491  0.2974  0.0471 -0.5721
  171SAPE   O2219333   2.492   4.862   6.430 -0.0470 -0.7461 -0.0070
  171SAPE   C2219334   2.329   5.012   6.552 -0.0962  0.3054  0.0182
  171SAPE   H2R19335   2.317   5.118   6.521  0.3989  0.2152 -0.4877
  171SAPE   H2S19336   2.251   4.942   6.515  0.1579 -0.9552  1.7244
  171SAPE    C319337   2.759   5.170   6.456  0.1525 -0.5222 -0.4995
  171SAPE    HX19338   2.717   5.266   6.492  0.4951  0.2014 -1.9516
  171SAPE    HY19339   2.821   5.194   6.367  1.0805  2.9121  0.9161
  171SAPE   O3119340   2.847   5.114   6.559 -0.3445 -0.1878 -0.0404
  171SAPE   C3119341   2.965   5.170   6.567 -0.9568  0.1912 -0.4562
  171SAPE   O3219342   3.011   5.269   6.513  0.0277 -0.4818  0.6342
  171SAPE   C3219343   3.059   5.092   6.665  0.3535 -0.7853  0.2639
  171SAPE   H2X19344   3.163   5.124   6.642 -0.8190  3.2599 -0.0787
  171SAPE   H2Y19345   3.043   4.983   6.647  1.4467 -1.3578  2.2738
  171SAPE   C2319346   2.324   5.016   6.706 -0.1240 -0.2567 -0.6795
  171SAPE   H3R19347   2.239   5.086   6.723 -1.2226 -1.7939  0.4037
  171SAPE   H3S19348   2.424   5.055   6.733  1.4613 -4.2741 -0.0220
  171SAPE   C2419349   2.311   4.883   6.775 -1.3471  0.3204 -0.5829
  171SAPE   H4R19350   2.384   4.812   6.731 -1.7850 -0.9776  0.7438
  171SAPE   H4S19351   2.210   4.845   6.748 -0.6268 -0.8527 -1.7550
  171SAPE   C2519352   2.337   4.892   6.926  0.6972  0.0285 -0.1483
  171SAPE   H5R19353   2.420   4.955   6.960 -0.7413  1.3540  1.0523
  171SAPE   C2619354   2.263   4.840   7.028  0.4546 -0.6056 -0.3395
  171SAPE   H6R19355   2.307   4.852   7.128 -0.9948  0.0715  0.2426
  171SAPE   C2719356   2.144   4.753   7.036  0.2456 -0.0623  0.2761
  171SAPE   H7R19357   2.168   4.645   7.044 -3.0781 -1.1777 -2.2851
  171SAPE   H7S19358   2.089   4.744   6.940  1.1797 -0.9179 -0.1977
  171SAPE   C2819359   2.053   4.785   7.148 -0.3053  0.3098  0.6872
  171SAPE   H8R19360   1.956   4.822   7.113  0.4103  1.6022 -0.0010
  171SAPE   C2919361   2.068   4.762   7.279  0.1115 -0.5425  0.3879
  171SAPE   H9R19362   1.980   4.790   7.338 -0.9380 -0.1659 -1.2819
  171SAPE  C21019363   2.187   4.695   7.347 -0.1809 -0.9375  0.8935
  171SAPE  H10R19364   2.278   4.743   7.304 -1.4318 -0.4348 -1.2952
  171SAPE  H10S19365   2.189   4.591   7.309  0.0295 -0.7643  0.4248
  171SAPE  C21119366   2.195   4.698   7.496 -0.3687 -0.0245 -0.0871
  171SAPE  H11R19367   2.202   4.799   7.539  1.8026 -0.0068 -0.3934
  171SAPE  C21219368   2.164   4.588   7.569 -0.8195  0.1722 -0.0986
  171SAPE  H12R19369   2.179   4.598   7.678  1.6917  0.8329 -0.4486
  171SAPE  C21319370   2.126   4.450   7.535  0.6133 -0.5918 -0.1834
  171SAPE  H13R19371   2.095   4.446   7.428 -1.6752 -1.0215  0.4397
  171SAPE  H13S19372   2.032   4.421   7.586  0.1165 -0.3406 -0.9455
  171SAPE  C21419373   2.239   4.355   7.564  0.1360 -0.0260 -0.2478
  171SAPE  H14R19374   2.318   4.343   7.489 -0.7730  0.1831 -1.2676
  171SAPE  C21519375   2.237   4.266   7.668 -0.0207 -0.3020 -0.1785
  171SAPE  H15R19376   2.320   4.194   7.671 -0.2009 -0.5978 -1.6166
  171SAPE  C21619377   2.141   4.256   7.784  0.2547 -0.1001  0.0213
  171SAPE  H16R19378   2.099   4.155   7.763  2.3664 -1.2674  1.0721
  171SAPE  H16S19379   2.070   4.342   7.790 -0.8393 -0.6731 -2.7817
  171SAPE  C21719380   2.190   4.244   7.931  0.3614 -0.4205  0.3454
  171SAPE  H17R19381   2.237   4.340   7.963  1.5983 -0.9241  0.1099
  171SAPE  H17S19382   2.279   4.177   7.928  0.9108  0.2752  0.5724
  171SAPE  C21819383   2.082   4.195   8.035  0.0641  0.3309  0.0829
  171SAPE  H18R19384   2.040   4.096   8.008  1.1385 -1.2872  3.6998
  171SAPE  H18S19385   1.996   4.265   8.022  2.2163  2.8038 -2.0823
  171SAPE  C21919386   2.126   4.185   8.181 -0.1497  0.1452  1.1773
  171SAPE  H19R19387   2.030   4.169   8.234 -1.9900  0.3937 -1.8133
  171SAPE  H19S19388   2.174   4.278   8.218  2.5141 -0.1098 -1.3059
  171SAPE  C22019389   2.226   4.076   8.215  0.0438 -0.3023 -0.0903
  171SAPE  H20R19390   2.187   3.980   8.175 -0.8339 -0.3257  0.7845
  171SAPE  H20S19391   2.252   4.059   8.322 -0.9560  0.9082  0.3806
  171SAPE  H20T19392   2.319   4.103   8.160 -0.8004 -0.5491 -1.6802
  171SAPE   C3319393   3.022   5.114   6.813 -0.2079 -0.4856 -0.6288
  171SAPE   H3X19394   2.912   5.105   6.827 -0.3127  0.2438 -0.9317
  171SAPE   H3Y19395   3.049   5.213   6.856  2.3898 -1.0133 -0.8800
  171SAPE   C3419396   3.083   5.006   6.909 -0.0136 -0.3482 -0.4046
  171SAPE   H4X19397   3.193   5.007   6.898  0.0043 -0.8684 -0.3018
  171SAPE   H4Y19398   3.038   4.906   6.893 -1.0538 -0.0757  0.6537
  171SAPE   C3519399   3.055   5.047   7.056  0.8486  0.4878 -0.3301
  171SAPE   H5X19400   2.946   5.061   7.074  0.6482 -0.8358 -0.3988
  171SAPE   H5Y19401   3.107   5.144   7.072  2.0576 -0.4788  2.1068
  171SAPE   C3619402   3.103   4.950   7.159 -0.0181  0.2722  0.4559
  171SAPE   H6X19403   3.210   4.929   7.136 -0.0342  0.0271  0.6051
  171SAPE   H6Y19404   3.050   4.854   7.140 -2.9641  2.1526 -1.9000
  171SAPE   C3719405   3.082   4.999   7.300  0.3241  0.4934 -0.1503
  171SAPE   H7X19406   3.115   4.918   7.369  0.5936 -0.7319 -1.6718
  171SAPE   H7Y19407   2.973   5.004   7.317  0.1128 -1.5605 -0.6627
  171SAPE   C3819408   3.156   5.132   7.332  0.2537 -0.3593  0.3405
  171SAPE   H8X19409   3.136   5.214   7.260  2.0536 -1.0510 -1.0034
  171SAPE   H8Y19410   3.263   5.104   7.326  0.1462 -0.6251 -0.3784
  171SAPE   C3919411   3.126   5.180   7.475  0.3032 -0.6083  0.5788
  171SAPE   H9X19412   3.111   5.090   7.539 -2.3967 -0.4441  0.2751
  171SAPE   H9Y19413   3.026   5.225   7.492 -1.2658 -3.1042 -1.3917
  171SAPE  C31019414   3.240   5.263   7.536 -0.6675 -0.3146  0.1535
  171SAPE  H10X19415   3.235   5.364   7.490 -0.5186  0.4537  1.7639
  171SAPE  H10Y19416   3.333   5.208   7.509 -1.1021 -0.9802 -0.0270
  171SAPE  C31119417   3.232   5.272   7.690 -0.1184 -0.3520  0.0854
  171SAPE  H11X19418   3.182   5.177   7.716  3.8038 -2.9024 -0.8964
  171SAPE  H11Y19419   3.161   5.350   7.724 -1.0388 -0.5622 -1.2976
  171SAPE  C31219420   3.360   5.279   7.756 -0.1839  0.5455 -0.3830
  171SAPE  H12X19421   3.414   5.373   7.731  3.0106 -1.3352 -1.1755
  171SAPE  H12Y19422   3.417   5.191   7.718 -1.5668 -1.3168  1.6300
  171SAPE  C31319423   3.344   5.269   7.904 -0.0786 -0.0436  0.3381
  171SAPE  H13X19424   3.304   5.167   7.924 -0.0908 -0.2261 -0.5554
  171SAPE  H13Y19425   3.272   5.353   7.913 -2.3332 -1.7748 -0.6130
  171SAPE  C31419426   3.465   5.275   7.997  0.2115 -0.9922  0.0833
  171SAPE  H14X19427   3.511   5.377   7.994 -0.4257 -0.7103 -2.0400
  171SAPE  H14Y19428   3.549   5.213   7.958  0.6508 -0.5607  0.3331
  171SAPE  C31519429   3.426   5.234   8.136  0.6607 -0.1391 -0.2815
  171SAPE  H15X19430   3.379   5.134   8.134  1.9656 -0.8434  1.3949
  171SAPE  H15Y19431   3.356   5.310   8.177  0.9087 -0.6109  1.0489
  171SAPE  C31619432   3.540   5.226   8.232 -0.6583 -0.2048 -0.0340
  171SAPE  H16X19433   3.595   5.319   8.256  2.1352 -2.2446  2.2194
  171SAPE  H16Y19434   3.609   5.144   8.202 -1.1156 -0.6152  0.0054
  171SAPE  C31719435   3.480   5.190   8.380 -0.7060  0.6816 -0.2115
  171SAPE  H17X19436   3.423   5.098   8.357  1.7954 -0.6634 -1.4491
  171SAPE  H17Y19437   3.410   5.270   8.414 -1.7143 -0.3456  0.1624
  171SAPE  C31819438   3.587   5.156   8.489 -0.4337 -0.5354  0.0983
  171SAPE  H18X19439   3.549   5.117   8.586  1.0668 -0.7694  0.6158
  171SAPE  H18Y19440   3.641   5.252   8.504  0.4972 -0.7251 -1.7647
  171SAPE  H18Z19441   3.654   5.084   8.439 -2.7066 -2.5386 -0.2527
  172SAPE     N19442   5.959   6.606   6.123 -0.1788  0.5863  0.4214
  172SAPE   HN119443   5.961   6.527   6.056  0.4522  0.5295  0.5045
  172SAPE   HN219444   5.865   6.607   6.168 -0.8504  0.4386 -0.9232
  172SAPE   HN319445   5.964   6.691   6.063  2.6768  1.3513  1.6000
  172SAPE   C1219446   6.065   6.631   6.230 -0.1667 -0.3939  0.2530
  172SAPE  H12A19447   6.012   6.696   6.302  0.5399 -1.2457  1.5819
  172SAPE  H12B19448   6.139   6.699   6.182 -1.1902  1.0099  0.5915
  172SAPE   C1119449   6.135   6.514   6.293  0.0279  0.1986  0.2370
  172SAPE  H11A19450   6.074   6.470   6.374 -1.7009 -0.8457 -1.5210
  172SAPE  H11B19451   6.229   6.546   6.342  2.3271 -2.0666 -2.3705
  172SAPE     P19452   6.293   6.346   6.172 -0.1746 -0.3411  0.8245
  172SAPE   O1319453   6.273   6.249   6.062 -0.1901 -0.5135 -0.6564
  172SAPE   O1419454   6.393   6.453   6.145 -0.2830  0.2683 -0.0362
  172SAPE   O1219455   6.151   6.407   6.201  0.0335 -0.2103 -0.1810
  172SAPE   O1119456   6.331   6.277   6.313  0.7717 -0.3576 -0.3258
  172SAPE    C119457   6.241   6.161   6.354 -0.6843 -0.8095 -0.1473
  172SAPE    HA19458   6.141   6.196   6.388 -0.1648 -2.7606  4.0228
  172SAPE    HB19459   6.207   6.102   6.266  0.9501 -0.4104 -1.0960
  172SAPE    C219460   6.299   6.070   6.466  1.2249  0.3435  0.2135
  172SAPE    HS19461   6.212   6.021   6.514 -0.7714  2.6332 -0.8774
  172SAPE   O2119462   6.362   6.153   6.566  0.3300  0.6004  0.3181
  172SAPE   C2119463   6.284   6.222   6.644 -0.6903 -0.1293 -0.4178
  172SAPE   O2219464   6.161   6.236   6.636 -0.0199  0.0701  0.2546
  172SAPE   C2219465   6.375   6.297   6.742  0.5899  0.2014 -0.0773
  172SAPE   H2R19466   6.470   6.241   6.752  0.8697  0.3447 -1.6613
  172SAPE   H2S19467   6.400   6.392   6.689 -1.6536  0.5756 -0.5918
  172SAPE    C319468   6.406   5.972   6.408 -0.4601  0.5358  0.4348
  172SAPE    HX19469   6.493   6.037   6.385 -0.5754  0.8331  0.8351
  172SAPE    HY19470   6.366   5.916   6.321 -0.1126 -1.1605  1.3235
  172SAPE   O3119471   6.440   5.880   6.517 -0.0322 -0.4916  0.0223
  172SAPE   C3119472   6.565   5.851   6.528 -0.0332  0.1618  0.2184
  172SAPE   O3219473   6.652   5.891   6.452  0.2430 -0.4667 -0.2636
  172SAPE   C3219474   6.586   5.747   6.633  0.4318  0.1686 -0.2459
  172SAPE   H2X19475   6.692   5.717   6.623  0.4603  0.1030  0.2087
  172SAPE   H2Y19476   6.534   5.650   6.616  1.0642 -0.7327  2.4033
  172SAPE   C2319477   6.309   6.327   6.881  0.7615 -0.5346  0.0407
  172SAPE   H3R19478   6.239   6.411   6.860  1.2144 -0.0969  0.2585
  172SAPE   H3S19479   6.388   6.374   6.944 -1.5340  0.5001  2.3135
  172SAPE   C2419480   6.231   6.224   6.959  0.5212 -0.4067 -0.6672
  172SAPE   H4R19481   6.152   6.182   6.894 -2.0309 -0.1739  2.0996
  172SAPE   H4S19482   6.193   6.282   7.045  2.9715 -0.6641  0.6984
  172SAPE   C2519483   6.326   6.110   6.993  0.1802 -0.0330 -0.5872
  172SAPE   H5R19484   6.353   6.054   6.902  1.5282 -1.5770  0.7083
  172SAPE   C2619485   6.367   6.061   7.109  0.4109  0.2153  0.0051
  172SAPE   H6R19486   6.444   5.982   7.107  0.0078 -0.2562 -3.1184
  172SAPE   C2719487   6.330   6.106   7.246  0.6664 -0.4482 -0.1890
  172SAPE   H7R19488   6.241   6.171   7.263  0.3909 -1.4898  2.8969
  172SAPE   H7S19489   6.407   6.178   7.280 -0.0741 -0.0810  0.7524
  172SAPE   C2819490   6.304   5.990   7.336  0.9938 -0.3377 -0.4458
  172SAPE   H8R19491   6.269   5.899   7.284 -1.5921  0.6398 -0.5589
  172SAPE   C2919492   6.326   5.982   7.465 -0.0453 -0.4450  0.3233
  172SAPE   H9R19493   6.308   5.883   7.510 -0.3930 -0.9810 -0.9190
  172SAPE  C21019494   6.382   6.091   7.556 -0.2218  0.2807  0.7710
  172SAPE  H10R19495   6.378   6.188   7.502 -1.9965 -1.3261 -2.2324
  172SAPE  H10S19496   6.491   6.080   7.574 -0.2411  1.9012  2.1128
  172SAPE  C21119497   6.302   6.086   7.685 -0.4245 -0.4743  0.3408
  172SAPE  H11R19498   6.213   6.150   7.692 -0.4688 -0.6634  2.0768
  172SAPE  C21219499   6.346   6.024   7.792 -0.1408 -0.0817  0.8160
  172SAPE  H12R19500   6.276   6.033   7.876 -1.9670 -0.8133 -0.5669
  172SAPE  C21319501   6.471   5.941   7.805 -0.3484  0.5299 -0.2099
  172SAPE  H13R19502   6.499   5.888   7.711  2.5090 -1.6734  1.6877
  172SAPE  H13S19503   6.459   5.855   7.874 -0.0224  1.4127  0.9798
  172SAPE  C21419504   6.585   6.032   7.846 -0.3998  0.0633 -0.5411
  172SAPE  H14R19505   6.596   6.120   7.780  1.6910 -1.0705 -1.8046
  172SAPE  C21519506   6.693   6.005   7.922  1.1421 -0.5678  0.0825
  172SAPE  H15R19507   6.759   6.092   7.924 -1.2605  1.3865 -0.3881
  172SAPE  C21619508   6.714   5.876   8.000  0.1870  0.6694  0.3966
  172SAPE  H16R19509   6.804   5.829   7.953 -0.1723 -1.0945  1.3921
  172SAPE  H16S19510   6.631   5.802   8.004  1.0863 -0.3648  0.4106
  172SAPE  C21719511   6.738   5.881   8.158  0.6236 -0.5207 -0.4579
  172SAPE  H17R19512   6.815   5.954   8.191  1.3977 -0.5123 -2.1771
  172SAPE  H17S19513   6.769   5.776   8.180 -0.2258 -0.4135  1.4256
  172SAPE  C21819514   6.608   5.907   8.237  0.2659 -0.3763 -0.3721
  172SAPE  H18R19515   6.538   5.824   8.215  0.4885 -0.4971 -0.6286
  172SAPE  H18S19516   6.571   6.009   8.215 -1.3301 -1.0721 -1.0585
  172SAPE  C21919517   6.645   5.898   8.389 -0.1754 -0.4696  0.1150
  172SAPE  H19R19518   6.750   5.932   8.400 -1.1194  3.1012 -0.6488
  172SAPE  H19S19519   6.633   5.793   8.423  0.1480 -0.7628 -0.6469
  172SAPE  C22019520   6.547   5.985   8.476 -0.1550 -0.0186 -0.3444
  172SAPE  H20R19521   6.567   6.094   8.471  0.0924  0.0178  1.0485
  172SAPE  H20S19522   6.560   5.954   8.582 -1.3035  0.3781 -0.0747
  172SAPE  H20T19523   6.446   5.962   8.435 -0.9094 -1.4392  2.0834
  172SAPE   C3319524   6.592   5.819   6.776 -0.6311 -0.7085  0.0620
  172SAPE   H3X19525   6.486   5.834   6.806  0.1563  3.1381  1.4807
  172SAPE   H3Y19526   6.634   5.922   6.772  1.8505 -1.5770  1.4688
  172SAPE   C3419527   6.671   5.730   6.881  0.5907  0.3359 -0.1572
  172SAPE   H4X19528   6.780   5.737   6.860  1.3156  1.2223  3.2627
  172SAPE   H4Y19529   6.642   5.628   6.849 -0.1435  0.1715  0.9721
  172SAPE   C3519530   6.653   5.752   7.033 -0.6295 -0.1299 -0.5708
  172SAPE   H5X19531   6.550   5.749   7.075 -0.6079  1.3383 -0.3647
  172SAPE   H5Y19532   6.676   5.858   7.058  1.5254 -0.0991 -2.3765
  172SAPE   C3619533   6.737   5.661   7.123 -0.2551 -0.3464 -1.0789
  172SAPE   H6X19534   6.829   5.622   7.074 -0.1273 -0.4833 -0.7341
  172SAPE   H6Y19535   6.689   5.563   7.142  2.6224 -1.3377  2.1777
  172SAPE   C3719536   6.787   5.723   7.259 -0.1030  0.3664  0.1153
  172SAPE   H7X19537   6.868   5.796   7.241  0.7937 -0.3871  0.9841
  172SAPE   H7Y19538   6.845   5.650   7.319 -1.6904  0.4237  1.8007
  172SAPE   C3819539   6.690   5.798   7.341  0.2939  0.2513 -0.9426
  172SAPE   H8X19540   6.604   5.846   7.288 -1.2089  0.2689  1.3394
  172SAPE   H8Y19541   6.740   5.884   7.390 -2.4243  1.2754  0.2554
  172SAPE   C3919542   6.618   5.705   7.447  0.2470  0.1316  0.0539
  172SAPE   H9X19543   6.577   5.609   7.408  0.0001  0.4858 -0.5545
  172SAPE   H9Y19544   6.540   5.760   7.504  1.0175 -0.6325  1.9365
  172SAPE  C31019545   6.720   5.656   7.553 -0.7228  0.1562 -0.2645
  172SAPE  H10X19546   6.794   5.734   7.577 -0.8078  0.0895  0.2258
  172SAPE  H10Y19547   6.778   5.568   7.517  1.0530  0.4434  1.6704
  172SAPE  C31119548   6.647   5.615   7.680 -1.3476 -0.3047  0.0745
  172SAPE  H11X19549   6.584   5.524   7.672 -1.4362 -0.1727 -0.7630
  172SAPE  H11Y19550   6.587   5.699   7.722  0.0941  1.4527 -1.2095
  172SAPE  C31219551   6.741   5.570   7.783  0.0834  0.2451  0.2341
  172SAPE  H12X19552   6.812   5.650   7.813  0.1554  0.1721  0.2619
  172SAPE  H12Y19553   6.812   5.501   7.732  0.8169  1.9845 -1.1876
  172SAPE  C31319554   6.669   5.507   7.902  0.3549  0.3883 -0.1799
  172SAPE  H13X19555   6.607   5.429   7.852 -1.4223  1.0486  0.9028
  172SAPE  H13Y19556   6.598   5.584   7.940 -1.6981 -1.1166 -0.7725
  172SAPE  C31419557   6.760   5.441   8.003  0.5329  0.2669 -0.3168
  172SAPE  H14X19558   6.820   5.523   8.047 -0.4081  0.5438  0.5066
  172SAPE  H14Y19559   6.829   5.366   7.959  0.9322 -0.6469  1.7133
  172SAPE  C31519560   6.686   5.367   8.115  0.5695 -0.5206  0.0673
  172SAPE  H15X19561   6.641   5.276   8.070  0.3614 -1.4692  2.0851
  172SAPE  H15Y19562   6.602   5.424   8.159  0.1528 -1.3490  0.3528
  172SAPE  C31619563   6.772   5.343   8.248 -0.0927  0.3138  0.1970
  172SAPE  H16X19564   6.867   5.302   8.208  0.1631  0.0829  1.0201
  172SAPE  H16Y19565   6.728   5.267   8.316  0.4184 -0.1975 -0.0383
  172SAPE  C31719566   6.805   5.474   8.327 -0.3450  0.6548 -0.2019
  172SAPE  H17X19567   6.717   5.536   8.354 -0.5892 -0.9465  3.2466
  172SAPE  H17Y19568   6.851   5.548   8.258 -3.7233  3.4469  0.2680
  172SAPE  C31819569   6.899   5.443   8.442 -0.1026 -0.5013  0.1911
  172SAPE  H18X19570   6.989   5.394   8.398  0.9851  0.9702  0.7066
  172SAPE  H18Y19571   6.859   5.380   8.524 -0.3152 -0.6189 -0.0028
  172SAPE  H18Z19572   6.923   5.538   8.494 -0.2241 -1.2199  1.5845
  173SOPE     N19573   6.272   3.598  10.676  0.4853 -0.1230  0.2345
  173SOPE   HN119574   6.183   3.646  10.651  0.0956 -1.0207 -0.1339
  173SOPE   HN219575   6.360   3.651  10.661 -0.1559  0.6427 -1.0108
  173SOPE   HN319576   6.267   3.510  10.621 -3.2338 -0.0075  0.1158
  173SOPE   C1219577   6.261   3.571  10.824  0.2501  0.5150  0.7008
  173SOPE  H12A19578   6.237   3.665  10.878  2.6677  1.0380  0.9934
  173SOPE  H12B19579   6.359   3.547  10.871 -0.4129 -1.6023  1.0762
  173SOPE   C1119580   6.155   3.465  10.849  0.3836 -0.8147  0.2432
  173SOPE  H11A19581   6.130   3.457  10.957 -0.3160 -2.8843 -0.0266
  173SOPE  H11B19582   6.193   3.364  10.822  0.2870 -1.3851  2.1186
  173SOPE     P19583   5.888   3.464  10.823  0.1201  0.7051 -0.3198
  173SOPE   O1319584   5.811   3.590  10.817 -0.2970  0.0765 -0.0364
  173SOPE   O1419585   5.896   3.404  10.964 -0.6733  0.1565  0.1363
  173SOPE   O1219586   6.033   3.494  10.768 -0.0086  0.3898 -0.5491
  173SOPE   O1119587   5.821   3.357  10.730 -0.1699  0.0101 -0.9489
  173SOPE    C119588   5.890   3.298  10.614  0.2828 -0.5139  0.1185
  173SOPE    HA19589   5.844   3.198  10.596  1.1483 -1.5839  3.1605
  173SOPE    HB19590   5.994   3.273  10.644 -0.3893 -2.9477  0.6260
  173SOPE    C219591   5.877   3.391  10.485 -0.2378 -0.8731  0.2991
  173SOPE    HS19592   5.928   3.487  10.510 -1.0048 -0.1346 -0.8518
  173SOPE   O2119593   5.741   3.419  10.452 -0.3044  0.8216  0.5589
  173SOPE   C2119594   5.708   3.528  10.383  0.9465 -0.1420  0.1322
  173SOPE   O2219595   5.788   3.608  10.343 -0.0543 -0.8362  0.0606
  173SOPE   C2219596   5.552   3.528  10.358  0.3223 -0.0256 -0.0369
  173SOPE   H2R19597   5.503   3.592  10.435  0.0404 -0.8310  0.4590
  173SOPE   H2S19598   5.511   3.430  10.388  0.7172 -0.2436 -0.2053
  173SOPE    C319599   5.953   3.342  10.357 -0.4945  0.3169  0.3629
  173SOPE    HX19600   6.059   3.325  10.386 -1.0957  0.3354  2.7935
  173SOPE    HY19601   5.945   3.423  10.282 -1.2041  0.8465  0.9977
  173SOPE   O3119602   5.900   3.224  10.291  0.9758  0.6077  0.3103
  173SOPE   C3119603   5.983   3.115  10.289 -0.4543 -0.6348 -1.1610
  173SOPE   O3219604   6.092   3.110  10.345  0.5725 -0.3849  0.1378
  173SOPE   C3219605   5.921   3.002  10.207  0.2658  0.0635 -0.3134
  173SOPE   H2X19606   5.877   3.056  10.120 -1.6066 -2.7929 -1.2723
  173SOPE   H2Y19607   5.847   2.940  10.262 -0.6141  1.0367 -0.3691
  173SOPE   C2319608   5.517   3.560  10.207 -0.2848 -0.0192  0.2549
  173SOPE   H3R19609   5.418   3.520  10.176 -0.4932  2.0461 -2.1425
  173SOPE   H3S19610   5.583   3.500  10.142 -0.8658 -1.7131  1.1790
  173SOPE   C2419611   5.537   3.709  10.178  0.2477 -1.3255  0.6674
  173SOPE   H4R19612   5.497   3.778  10.256  1.6933  0.9656 -0.4958
  173SOPE   H4S19613   5.643   3.741  10.172 -0.6196  1.5692 -1.3225
  173SOPE   C2519614   5.462   3.743  10.048  0.4875  0.4716  0.0705
  173SOPE   H5R19615   5.355   3.755  10.076  0.9411  1.1915  1.6349
  173SOPE   H5S19616   5.489   3.847  10.020 -2.2647  0.7063 -2.1889
  173SOPE   C2619617   5.489   3.648   9.932  0.1069 -0.3774 -0.5187
  173SOPE   H6R19618   5.598   3.625   9.940  0.2988  0.7618  0.4583
  173SOPE   H6S19619   5.427   3.557   9.949 -2.4172  1.3838  0.3263
  173SOPE   C2719620   5.441   3.720   9.810  0.0022 -0.4644 -0.4311
  173SOPE   H7R19621   5.336   3.752   9.827  0.4916  1.5553 -0.9614
  173SOPE   H7S19622   5.502   3.812   9.794 -2.5391  1.0659 -2.0116
  173SOPE   C2819623   5.445   3.641   9.688  0.4790 -0.0990  0.7039
  173SOPE   H8R19624   5.408   3.536   9.694  0.0591  0.0263  0.3038
  173SOPE   H8S19625   5.383   3.688   9.610  2.0399 -0.4501 -0.8062
  173SOPE   C2919626   5.580   3.633   9.632 -0.0074 -0.0777 -0.0597
  173SOPE   H9119627   5.664   3.604   9.697  3.5807  1.8489 -3.3942
  173SOPE  C21019628   5.621   3.662   9.501 -0.2216  0.4209  0.2041
  173SOPE  H10119629   5.725   3.636   9.475 -0.3632 -2.3490  1.9744
  173SOPE  C21119630   5.530   3.713   9.397 -0.2692  0.1148  0.1323
  173SOPE  H11R19631   5.528   3.824   9.400  0.1836  0.1444 -0.3451
  173SOPE  H11S19632   5.422   3.695   9.417 -0.4318  0.1526 -0.6484
  173SOPE  C21219633   5.552   3.658   9.252  0.4639 -0.7992  0.9424
  173SOPE  H12R19634   5.547   3.547   9.251  0.6769 -0.9023 -2.9199
  173SOPE  H12S19635   5.655   3.682   9.216  0.6024 -3.2749 -0.5545
  173SOPE  C21319636   5.444   3.700   9.152 -0.2724 -0.3671  0.1450
  173SOPE  H13R19637   5.355   3.647   9.191 -0.3681 -0.2321  0.1096
  173SOPE  H13S19638   5.466   3.651   9.055 -0.0164 -0.3967  0.2179
  173SOPE  C21419639   5.448   3.847   9.125  0.5203 -0.2154 -1.0293
  173SOPE  H14R19640   5.540   3.867   9.066  0.9491  3.0965  0.5665
  173SOPE  H14S19641   5.456   3.912   9.214 -0.5657 -0.2689 -0.8727
  173SOPE  C21519642   5.322   3.906   9.041 -0.7437 -0.1241 -0.3872
  173SOPE  H15R19643   5.234   3.925   9.106 -1.5584 -3.2358 -0.4013
  173SOPE  H15S19644   5.292   3.819   8.978 -1.2342  0.3262 -0.7795
  173SOPE  C21619645   5.363   4.023   8.953  0.0532  0.6983 -0.4694
  173SOPE  H16R19646   5.450   3.982   8.896 -1.1382 -0.3143 -1.6070
  173SOPE  H16S19647   5.392   4.113   9.010  3.2111 -0.3268 -0.2481
  173SOPE  C21719648   5.266   4.054   8.835 -0.3478 -0.4725 -0.3407
  173SOPE  H17R19649   5.165   4.081   8.871  0.3791  1.6950  0.2230
  173SOPE  H17S19650   5.265   3.950   8.794 -1.4870 -0.8875  0.6792
  173SOPE  C21819651   5.332   4.174   8.766 -0.0189  0.4007  0.0272
  173SOPE  H18R19652   5.428   4.144   8.718  0.5728  0.4168  1.1787
  173SOPE  H18S19653   5.348   4.255   8.839  0.4332  0.4691 -0.1449
  173SOPE  H18T19654   5.265   4.211   8.685  0.7128 -0.7568 -1.1608
  173SOPE   C3319655   6.026   2.906  10.161 -0.1829  0.5775  0.3719
  173SOPE   H3X19656   6.056   2.845  10.249  6.3292 -1.1879 -2.4671
  173SOPE   H3Y19657   6.125   2.956  10.147  0.7530 -0.3343  3.0764
  173SOPE   C3419658   5.966   2.808  10.058 -0.4932  0.1945  0.5331
  173SOPE   H4X19659   5.870   2.767  10.096 -1.5936  2.1187 -0.0301
  173SOPE   H4Y19660   6.038   2.724  10.053 -1.2740 -0.5132  1.0655
  173SOPE   C3519661   5.930   2.863   9.919 -0.2767  0.3913 -0.2915
  173SOPE   H5X19662   6.016   2.912   9.869 -2.0564  3.5344 -0.5664
  173SOPE   H5Y19663   5.854   2.944   9.927 -1.4880 -0.6012 -1.4340
  173SOPE   C3619664   5.864   2.757   9.834  0.4435 -0.0812  0.1473
  173SOPE   H6X19665   5.794   2.705   9.903 -2.9733  1.3249 -1.9682
  173SOPE   H6Y19666   5.947   2.691   9.803  1.4373  1.1755  0.0576
  173SOPE   C3719667   5.782   2.802   9.713  0.2009 -0.8452 -0.2925
  173SOPE   H7X19668   5.714   2.889   9.731  1.7124  0.4512 -0.6058
  173SOPE   H7Y19669   5.719   2.732   9.654 -0.2988 -0.0586 -0.7193
  173SOPE   C3819670   5.887   2.849   9.606 -0.0315 -0.2763  0.1551
  173SOPE   H8X19671   5.967   2.773   9.607  0.3064  0.0725 -0.1239
  173SOPE   H8Y19672   5.933   2.948   9.625  3.0763 -0.9251 -2.9883
  173SOPE   C3919673   5.819   2.862   9.472  0.0786  0.5850 -0.4173
  173SOPE   H9X19674   5.737   2.937   9.482 -1.2092 -0.0972 -4.2882
  173SOPE   H9Y19675   5.769   2.766   9.448  2.4685 -0.5051 -1.3163
  173SOPE  C31019676   5.916   2.899   9.363 -0.1128  0.3317  0.1048
  173SOPE  H10X19677   5.998   2.824   9.360  0.3534  0.8656 -0.5230
  173SOPE  H10Y19678   5.969   2.994   9.381  0.3724  0.7716 -2.9971
  173SOPE  C31119679   5.852   2.916   9.225  0.0556 -0.6931  0.5011
  173SOPE  H11X19680   5.760   2.977   9.233  0.7203  0.4328 -0.1602
  173SOPE  H11Y19681   5.810   2.823   9.179  1.1376 -1.7483  1.5628
  173SOPE  C31219682   5.955   2.949   9.126 -0.0819 -0.2597 -0.2057
  173SOPE  H12X19683   6.030   2.868   9.110  1.1837  0.5374  1.4179
  173SOPE  H12Y19684   6.011   3.040   9.155  0.3094  0.6768 -3.5006
  173SOPE  C31319685   5.906   2.995   8.989  0.0733  0.2335  0.4038
  173SOPE  H13X19686   5.982   3.056   8.936 -0.9007  1.6054  0.5384
  173SOPE  H13Y19687   5.826   3.063   9.025  0.0686  0.5074 -0.1174
  173SOPE  C31419688   5.841   2.882   8.905 -0.0737 -0.5444 -0.8754
  173SOPE  H14X19689   5.762   2.832   8.965 -1.7691  1.9269 -0.8800
  173SOPE  H14Y19690   5.918   2.807   8.880  1.5816  0.7177  0.2423
  173SOPE  C31519691   5.782   2.929   8.774  0.4304 -0.4655 -0.5324
  173SOPE  H15X19692   5.849   3.012   8.742 -0.5848  1.1720  1.3575
  173SOPE  H15Y19693   5.684   2.981   8.782  0.4228 -0.2028 -1.9972
  173SOPE  C31619694   5.772   2.822   8.658 -0.1074  0.7083  0.5827
  173SOPE  H16X19695   5.704   2.737   8.678  0.4752  0.0411 -0.2300
  173SOPE  H16Y19696   5.871   2.774   8.652 -1.4030 -1.9731 -1.0025
  173SOPE  C31719697   5.735   2.877   8.520 -0.1672  0.3399 -0.3798
  173SOPE  H17X19698   5.804   2.963   8.501  0.7206 -0.4064 -0.6034
  173SOPE  H17Y19699   5.637   2.929   8.527  0.7771  2.1623 -0.0422
  173SOPE  C31819700   5.742   2.779   8.395  0.3120 -0.7049  0.6482
  173SOPE  H18X19701   5.706   2.833   8.305 -1.2437 -2.3059  0.2714
  173SOPE  H18Y19702   5.684   2.686   8.407 -1.4379  0.1706 -0.6136
  173SOPE  H18Z19703   5.849   2.762   8.369  0.4410  1.7201 -0.7172
  174SOPE     N19704   4.050   0.536  11.110  0.0161  0.6577 -0.8898
  174SOPE   HN119705   4.129   0.577  11.163  0.1581 -1.5201  0.7253
  174SOPE   HN219706   3.977   0.514  11.180 -0.4793 -0.7636 -1.8177
  174SOPE   HN319707   4.079   0.449  11.061 -3.1908 -2.8392  2.6023
  174SOPE   C1219708   3.990   0.639  11.021 -0.1956 -0.0531  0.0753
  174SOPE  H12A19709   3.951   0.729  11.072 -1.0469  0.3047 -1.1480
  174SOPE  H12B19710   3.907   0.583  10.973 -0.0776 -1.1938  1.1558
  174SOPE   C1119711   4.100   0.677  10.907  0.2098  0.0987  0.0738
  174SOPE  H11A19712   4.053   0.750  10.837  0.4157  2.1782  2.0106
  174SOPE  H11B19713   4.132   0.589  10.846  0.0396 -1.4757  2.1594
  174SOPE     P19714   4.361   0.705  10.970 -0.0033  0.3697  0.0444
  174SOPE   O1319715   4.366   0.581  11.050 -0.1214  1.1362  0.2833
  174SOPE   O1419716   4.445   0.817  11.019 -0.0447  0.1651  0.2072
  174SOPE   O1219717   4.212   0.749  10.966 -0.3118  0.2460 -0.6776
  174SOPE   O1119718   4.401   0.674  10.818 -0.3204  0.6084 -0.3649
  174SOPE    C119719   4.379   0.750  10.702 -0.0493 -0.2603  0.0200
  174SOPE    HA19720   4.421   0.852  10.713  0.1497  0.0257 -2.5925
  174SOPE    HB19721   4.269   0.759  10.697 -0.0160  1.1100  1.1645
  174SOPE    C219722   4.432   0.685  10.577 -0.7272 -0.1949  0.1373
  174SOPE    HS19723   4.392   0.581  10.581  0.6237 -0.7399  0.4075
  174SOPE   O2119724   4.582   0.679  10.585 -0.2334 -0.2778  0.2620
  174SOPE   C2119725   4.633   0.567  10.631 -0.1433 -0.1848  0.4223
  174SOPE   O2219726   4.567   0.472  10.672 -0.0017  0.1270  0.4447
  174SOPE   C2219727   4.787   0.577  10.648  0.1167  0.4807 -0.1461
  174SOPE   H2R19728   4.807   0.565  10.756  0.2036 -0.4037 -0.2498
  174SOPE   H2S19729   4.819   0.678  10.614  0.3163  0.4541 -0.0393
  174SOPE    C319730   4.380   0.760  10.445 -0.4631  0.8188 -0.4520
  174SOPE    HX19731   4.438   0.854  10.450  0.8551 -0.0216  2.1926
  174SOPE    HY19732   4.273   0.788  10.443 -1.1838 -0.8901  3.5763
  174SOPE   O3119733   4.430   0.692  10.330 -0.2048  0.1522 -0.6385
  174SOPE   C3119734   4.351   0.589  10.284  0.1415 -0.6134  0.6380
  174SOPE   O3219735   4.257   0.546  10.341  0.1432  0.2390 -0.4195
  174SOPE   C3219736   4.403   0.533  10.155 -0.4191  0.2910 -0.4554
  174SOPE   H2X19737   4.383   0.424  10.146  2.9076 -0.6543  1.8523
  174SOPE   H2Y19738   4.514   0.539  10.156 -0.1485 -2.6805 -1.9386
  174SOPE   C2319739   4.838   0.457  10.571 -0.1607  0.7332 -0.0089
  174SOPE   H3R19740   4.802   0.361  10.614 -1.8736  1.0523 -0.6711
  174SOPE   H3S19741   4.948   0.460  10.586 -0.1819  0.4632  0.2009
  174SOPE   C2419742   4.813   0.459  10.418  0.5703 -0.9174 -0.8287
  174SOPE   H4R19743   4.704   0.441  10.406  0.3579 -0.6049  0.4758
  174SOPE   H4S19744   4.835   0.556  10.368 -0.9691 -0.1337 -0.0760
  174SOPE   C2519745   4.886   0.346  10.348  0.1178 -0.4415 -0.2680
  174SOPE   H5R19746   4.986   0.345  10.397  0.9076  0.9216 -1.7342
  174SOPE   H5S19747   4.832   0.258  10.387 -0.6329  0.0438 -0.2093
  174SOPE   C2619748   4.879   0.367  10.195 -0.6145 -0.1774 -0.1996
  174SOPE   H6R19749   4.961   0.435  10.162 -0.7290 -0.3412 -0.8394
  174SOPE   H6S19750   4.929   0.276  10.156  3.5203  0.2399  3.4569
  174SOPE   C2719751   4.744   0.373  10.125 -0.1204 -0.5159  0.1280
  174SOPE   H7R19752   4.676   0.291  10.157 -2.0934  0.8923 -0.2828
  174SOPE   H7S19753   4.697   0.471  10.145  0.1783 -0.0990 -1.0967
  174SOPE   C2819754   4.759   0.361   9.970 -0.0005  0.0756  0.0018
  174SOPE   H8R19755   4.864   0.392   9.951  0.4376 -0.6332  1.1348
  174SOPE   H8S19756   4.753   0.251   9.955  1.4117  0.0761 -0.7431
  174SOPE   C2919757   4.668   0.442   9.891 -0.4038 -0.0550 -0.3175
  174SOPE   H9119758   4.673   0.549   9.916 -0.3680  0.0623 -0.8111
  174SOPE  C21019759   4.575   0.407   9.804  0.3665 -0.0785  0.3960
  174SOPE  H10119760   4.516   0.483   9.751  1.0901  0.0250 -0.2862
  174SOPE  C21119761   4.541   0.257   9.761 -0.0226  0.4496  0.7152
  174SOPE  H11R19762   4.439   0.223   9.788  0.5161 -3.3841 -1.3924
  174SOPE  H11S19763   4.611   0.185   9.808 -0.3865 -0.2249  0.2452
  174SOPE  C21219764   4.563   0.211   9.616  0.3693 -0.5112 -0.8111
  174SOPE  H12R19765   4.539   0.103   9.604  0.6195 -0.5095 -1.4090
  174SOPE  H12S19766   4.667   0.218   9.576  1.0284 -3.4401  0.1374
  174SOPE  C21319767   4.485   0.291   9.507 -0.4264 -0.2136 -0.4459
  174SOPE  H13R19768   4.489   0.397   9.540  0.4826 -0.4391  0.2036
  174SOPE  H13S19769   4.383   0.248   9.516 -1.3027  2.0736  2.6387
  174SOPE  C21419770   4.522   0.280   9.362 -0.4199  0.2839 -0.1923
  174SOPE  H14R19771   4.631   0.300   9.356 -0.1326 -1.1122  0.1660
  174SOPE  H14S19772   4.470   0.355   9.298  0.8928  0.4638 -1.0898
  174SOPE  C21519773   4.497   0.136   9.305 -0.5411  0.1033 -0.0047
  174SOPE  H15R19774   4.397   0.105   9.341 -0.7682  1.5111  0.6152
  174SOPE  H15S19775   4.575   0.070   9.349  1.9455  1.8467 -1.5292
  174SOPE  C21619776   4.510   0.153   9.156 -0.3055  0.1763  0.2555
  174SOPE  H16R19777   4.446   0.237   9.123  0.0155  0.1639 -0.4109
  174SOPE  H16S19778   4.469   0.064   9.103 -1.3951  1.3188 -0.9195
  174SOPE  C21719779   4.647   0.184   9.101 -0.7047  0.5946 -0.3472
  174SOPE  H17R19780   4.724   0.145   9.171 -0.3931 -2.5379 -2.2372
  174SOPE  H17S19781   4.647   0.295   9.100 -1.3932  0.6252  1.2238
  174SOPE  C21819782   4.678   0.125   8.961 -0.0819 -0.3245  0.4080
  174SOPE  H18R19783   4.665   0.016   8.944 -1.5575 -0.2340  0.8116
  174SOPE  H18S19784   4.782   0.160   8.946  0.4871 -1.6005  1.1690
  174SOPE  H18T19785   4.617   0.183   8.889 -0.0658 -0.9969 -0.1635
  174SOPE   C3319786   4.336   0.605  10.037 -0.0574  0.5763  0.0692
  174SOPE   H3X19787   4.373   0.563   9.940 -0.7250 -0.7122  0.3464
  174SOPE   H3Y19788   4.350   0.715  10.037  0.7215  0.5434 -2.4517
  174SOPE   C3419789   4.184   0.577  10.017  0.1163  0.1287  0.4545
  174SOPE   H4X19790   4.136   0.618  10.109 -3.5475  2.3509 -2.1733
  174SOPE   H4Y19791   4.170   0.467  10.008  2.3473 -0.2016  0.3621
  174SOPE   C3519792   4.127   0.645   9.886  0.1792  0.2584  0.1739
  174SOPE   H5X19793   4.159   0.751   9.878  0.4505  0.2187  0.7379
  174SOPE   H5Y19794   4.016   0.638   9.888 -0.0177  2.7081  1.5969
  174SOPE   C3619795   4.174   0.580   9.751  0.4652  0.3844  0.2345
  174SOPE   H6X19796   4.161   0.470   9.760 -1.3203  0.7010  2.2499
  174SOPE   H6Y19797   4.283   0.600   9.750  0.6949 -0.7004  1.1258
  174SOPE   C3719798   4.112   0.647   9.626 -0.3039  1.1323 -0.0702
  174SOPE   H7X19799   4.107   0.756   9.643 -0.0667  1.1783 -0.2841
  174SOPE   H7Y19800   4.009   0.607   9.619 -0.1523  0.1914  2.2675
  174SOPE   C3819801   4.183   0.621   9.487 -0.6410 -0.9377 -0.1635
  174SOPE   H8X19802   4.189   0.510   9.486 -2.8291 -1.1022 -0.7049
  174SOPE   H8Y19803   4.283   0.667   9.496 -1.2990  0.8712 -1.4494
  174SOPE   C3919804   4.103   0.671   9.370 -0.2761 -0.1930 -0.3696
  174SOPE   H9X19805   4.160   0.728   9.294 -0.9312  1.0747  0.0588
  174SOPE   H9Y19806   4.035   0.746   9.416  0.3821 -0.2179  0.6799
  174SOPE  C31019807   4.017   0.565   9.291 -0.0123  0.7683 -0.9292
  174SOPE  H10X19808   3.937   0.547   9.366 -0.4900  1.4824 -1.2542
  174SOPE  H10Y19809   4.077   0.472   9.281 -0.4559  0.1853  1.3303
  174SOPE  C31119810   3.968   0.623   9.158  0.2716  0.3449  0.2072
  174SOPE  H11X19811   4.062   0.639   9.100 -0.2355  0.2352 -0.6649
  174SOPE  H11Y19812   3.924   0.723   9.179  0.4412  0.3829  0.3809
  174SOPE  C31219813   3.870   0.542   9.075  0.1121  0.1743  0.2385
  174SOPE  H12X19814   3.787   0.505   9.139 -0.2116 -0.3458 -0.4634
  174SOPE  H12Y19815   3.914   0.455   9.023 -0.2849 -0.1523  0.4484
  174SOPE  C31319816   3.794   0.628   8.971 -0.2656  0.6382 -0.0262
  174SOPE  H13X19817   3.726   0.705   9.014 -1.0498  0.6873 -1.3005
  174SOPE  H13Y19818   3.737   0.555   8.910 -1.5110  0.0030  1.7944
  174SOPE  C31419819   3.882   0.699   8.872  0.4622 -0.4120 -0.2667
  174SOPE  H14X19820   3.976   0.648   8.843  1.8821  2.5675 -1.2501
  174SOPE  H14Y19821   3.908   0.800   8.910  0.0559 -0.8412  1.2170
  174SOPE  C31519822   3.809   0.726   8.736  0.1049  0.1109 -0.0819
  174SOPE  H15X19823   3.720   0.788   8.761 -0.9876 -1.3311 -0.2808
  174SOPE  H15Y19824   3.790   0.634   8.677 -0.0198  0.1951 -0.1753
  174SOPE  C31619825   3.899   0.819   8.655 -0.2552  0.1323  0.2165
  174SOPE  H16X19826   3.999   0.772   8.650 -0.4737 -0.4401  0.9659
  174SOPE  H16Y19827   3.906   0.913   8.713  1.2939  0.4523 -0.4445
  174SOPE  C31719828   3.838   0.835   8.521  0.3655 -0.4070  0.1565
  174SOPE  H17X19829   3.727   0.842   8.531  0.3100 -1.7861  0.7812
  174SOPE  H17Y19830   3.850   0.746   8.456 -1.5539 -0.8395  0.3232
  174SOPE  C31819831   3.894   0.958   8.450 -0.2168  0.6655  0.0925
  174SOPE  H18X19832   3.867   1.049   8.508 -1.0220  0.6580 -0.2617
  174SOPE  H18Y19833   3.847   0.976   8.351 -1.1231 -1.8088  0.0185
  174SOPE  H18Z19834   4.005   0.957   8.439 -0.1723  0.9694  0.4867
  175SOPE     N19835   0.892   6.410  10.590  0.1359 -0.0484  0.1842
  175SOPE   HN119836   0.855   6.378  10.682 -0.0460  1.3552  0.6230
  175SOPE   HN219837   0.988   6.370  10.589  1.2225  2.2101  2.4683
  175SOPE   HN319838   0.892   6.514  10.590 -2.0155  0.0039 -0.4868
  175SOPE   C1219839   0.806   6.379  10.468  0.5042 -0.3965  0.4967
  175SOPE  H12A19840   0.848   6.290  10.418  0.7158 -0.2382  0.3918
  175SOPE  H12B19841   0.815   6.464  10.398  0.1576 -2.6996 -2.5415
  175SOPE   C1119842   0.662   6.358  10.510 -0.2057  0.0773 -0.1419
  175SOPE  H11A19843   0.662   6.280  10.588  1.6306 -0.2473 -0.4071
  175SOPE  H11B19844   0.616   6.319  10.417  0.0166  1.3716 -0.8328
  175SOPE     P19845   0.464   6.496  10.612 -0.5393  0.4194 -0.1071
  175SOPE   O1319846   0.460   6.609  10.706 -0.1633 -0.4676  0.0891
  175SOPE   O1419847   0.421   6.370  10.673 -0.4651  0.0993 -0.1045
  175SOPE   O1219848   0.600   6.484  10.550 -0.1918  0.1752  0.1747
  175SOPE   O1119849   0.366   6.522  10.498 -0.0048 -0.3564 -0.1639
  175SOPE    C119850   0.408   6.567  10.369 -0.1899 -0.2759 -0.0536
  175SOPE    HA19851   0.497   6.507  10.338  1.3658  0.6295  2.3547
  175SOPE    HB19852   0.437   6.674  10.365 -0.2738 -0.2456  0.1352
  175SOPE    C219853   0.295   6.555  10.263 -0.0539 -1.0422  0.0468
  175SOPE    HS19854   0.251   6.453  10.262  0.4969 -1.2840 -0.5950
  175SOPE   O2119855   0.341   6.590  10.137 -0.1822 -0.3115  0.5043
  175SOPE   C2119856   0.417   6.496  10.079  0.9585 -0.1414  0.2381
  175SOPE   O2219857   0.456   6.392  10.131  0.7062  0.1240 -0.4937
  175SOPE   C2219858   0.437   6.524   9.930  0.4056 -0.3080  0.2537
  175SOPE   H2R19859   0.469   6.630   9.927 -0.1498 -0.1513 -0.7661
  175SOPE   H2S19860   0.338   6.515   9.880  1.7500 -1.2645 -2.4629
  175SOPE    C319861   0.177   6.649  10.295 -0.1864  0.1701 -0.3369
  175SOPE    HX19862   0.225   6.749  10.298 -0.2246  0.1728  2.5524
  175SOPE    HY19863   0.141   6.622  10.396  0.3565  0.8787  0.0520
  175SOPE   O3119864   0.068   6.648  10.197  0.2562 -0.0179 -0.3747
  175SOPE   C3119865   0.004   6.755  10.174  0.1605  0.5011 -0.3379
  175SOPE   O3219866   0.006   6.855  10.244 -0.3133 -0.0199  1.0164
  175SOPE   C3219867  -0.092   6.736  10.056  0.0844 -0.1929  0.2288
  175SOPE   H2X19868  -0.187   6.708  10.107 -0.5007  0.0423 -0.7224
  175SOPE   H2Y19869  -0.061   6.647   9.997 -1.9793 -0.2962 -0.7842
  175SOPE   C2319870   0.541   6.422   9.877 -0.2393  0.2734  0.4991
  175SOPE   H3R19871   0.502   6.320   9.897 -1.0915  0.7135  1.1760
  175SOPE   H3S19872   0.628   6.435   9.946  1.1155 -2.1535 -0.6255
  175SOPE   C2419873   0.567   6.441   9.727 -0.6590 -0.2559 -0.5458
  175SOPE   H4R19874   0.644   6.366   9.699 -0.2932  0.4924 -1.6267
  175SOPE   H4S19875   0.472   6.431   9.670 -1.6923  0.9771  0.8902
  175SOPE   C2519876   0.628   6.578   9.695  0.8948  0.4182 -0.1078
  175SOPE   H5R19877   0.546   6.652   9.709  0.1077 -0.8494  2.6876
  175SOPE   H5S19878   0.709   6.602   9.767  0.0663  3.1261  0.0587
  175SOPE   C2619879   0.684   6.578   9.550 -0.4503  0.4840  0.3756
  175SOPE   H6R19880   0.725   6.680   9.534 -0.4277  0.7253  1.8599
  175SOPE   H6S19881   0.772   6.510   9.546 -0.7667  0.0443  0.8404
  175SOPE   C2719882   0.588   6.540   9.436 -0.0468 -0.1568 -0.5593
  175SOPE   H7R19883   0.538   6.443   9.453 -1.2753  0.7330  1.1388
  175SOPE   H7S19884   0.510   6.619   9.440  0.1422  0.0276 -0.5263
  175SOPE   C2819885   0.659   6.546   9.305  1.1930 -0.0957  0.5039
  175SOPE   H8R19886   0.742   6.620   9.303  0.1914  1.0811  1.0441
  175SOPE   H8S19887   0.704   6.446   9.288 -0.4489 -0.9377  0.8779
  175SOPE   C2919888   0.563   6.590   9.195 -0.9069  0.6072  0.2686
  175SOPE   H9119889   0.510   6.686   9.211 -0.9802  0.4337  1.1060
  175SOPE  C21019890   0.545   6.523   9.079 -0.0964 -0.1371 -0.5695
  175SOPE  H10119891   0.463   6.560   9.015 -0.3259 -1.6812 -1.2335
  175SOPE  C21119892   0.609   6.394   9.034  0.5162  0.0102 -0.5855
  175SOPE  H11R19893   0.541   6.309   9.013 -0.6167  1.0996 -1.4725
  175SOPE  H11S19894   0.661   6.357   9.126 -0.6521 -2.0119 -0.6827
  175SOPE  C21219895   0.702   6.414   8.914 -0.2904 -0.3730 -0.2948
  175SOPE  H12R19896   0.772   6.328   8.910  2.8657  1.9997 -0.3395
  175SOPE  H12S19897   0.770   6.501   8.930 -0.9589  0.4684 -1.8899
  175SOPE  C21319898   0.633   6.445   8.784  0.2445  0.2207  0.3440
  175SOPE  H13R19899   0.708   6.425   8.704 -0.0495 -0.0364  0.1257
  175SOPE  H13S19900   0.608   6.553   8.783  2.4474  0.8083  1.7447
  175SOPE  C21419901   0.510   6.354   8.747  0.0169 -0.6787 -0.1708
  175SOPE  H14R19902   0.420   6.398   8.793 -1.5077 -3.1156 -0.6307
  175SOPE  H14S19903   0.536   6.256   8.793  0.0586 -1.4451 -1.7432
  175SOPE  C21519904   0.497   6.338   8.599 -0.1011 -0.2272 -0.4524
  175SOPE  H15R19905   0.575   6.268   8.563  1.0387  0.0160  1.3883
  175SOPE  H15S19906   0.516   6.440   8.558 -0.8190  0.0279 -0.1571
  175SOPE  C21619907   0.352   6.292   8.558 -1.1432 -0.5245  0.3398
  175SOPE  H16R19908   0.278   6.361   8.604 -1.5063 -0.5993 -0.1280
  175SOPE  H16S19909   0.331   6.188   8.588 -3.0652 -0.0645  0.7273
  175SOPE  C21719910   0.325   6.302   8.404 -0.2825 -0.1914  0.6643
  175SOPE  H17R19911   0.342   6.406   8.370 -0.9970 -1.1569 -3.0041
  175SOPE  H17S19912   0.217   6.289   8.380 -0.4173 -0.8958  1.6004
  175SOPE  C21819913   0.411   6.192   8.323  0.2371 -0.1773 -0.5288
  175SOPE  H18R19914   0.399   6.094   8.374  1.3546 -0.7582 -1.3247
  175SOPE  H18S19915   0.517   6.224   8.312 -0.1914  0.8760 -1.8356
  175SOPE  H18T19916   0.356   6.183   8.226 -3.2314 -1.1539  1.3782
  175SOPE   C3319917  -0.113   6.870   9.982 -0.5926  0.2508 -0.5628
  175SOPE   H3X19918  -0.021   6.905   9.930 -1.4897  3.0527 -0.4177
  175SOPE   H3Y19919  -0.134   6.937  10.068 -1.3032 -1.3069  0.5280
  175SOPE   C3419920  -0.223   6.872   9.873  0.3742 -0.6779 -0.3608
  175SOPE   H4X19921  -0.230   6.980   9.846  1.9128  0.0641  1.8952
  175SOPE   H4Y19922  -0.316   6.822   9.909  0.2961  0.6162  1.3925
  175SOPE   C3519923  -0.173   6.792   9.749 -0.1891  0.3071  0.2195
  175SOPE   H5X19924  -0.174   6.682   9.767 -0.6609  0.1662 -0.6307
  175SOPE   H5Y19925  -0.071   6.835   9.741 -0.5834  1.3450  0.5759
  175SOPE   C3619926  -0.249   6.835   9.627  0.5302  0.2111  0.0713
  175SOPE   H6X19927  -0.238   6.943   9.604  1.7064 -0.1668 -1.2768
  175SOPE   H6Y19928  -0.358   6.829   9.649  0.8555 -3.9036  1.3147
  175SOPE   C3719929  -0.200   6.761   9.505 -0.2959  0.4218  0.3424
  175SOPE   H7X19930  -0.201   6.651   9.522 -0.1077  0.3867  0.1264
  175SOPE   H7Y19931  -0.092   6.784   9.494  0.6208 -2.5658  1.8329
  175SOPE   C3819932  -0.268   6.799   9.375 -0.3562  0.1622 -0.0445
  175SOPE   H8X19933  -0.274   6.910   9.367  1.9896  0.3605  0.1597
  175SOPE   H8Y19934  -0.372   6.767   9.398 -0.3731 -0.1533 -0.5498
  175SOPE   C3919935  -0.213   6.736   9.248 -0.1680  0.1131 -0.5759
  175SOPE   H9X19936  -0.229   6.626   9.252 -0.4055  0.1849  1.9766
  175SOPE   H9Y19937  -0.103   6.750   9.237  0.3499 -2.2953  0.7672
  175SOPE  C31019938  -0.272   6.788   9.114 -0.1951  0.7094 -0.1862
  175SOPE  H10X19939  -0.270   6.899   9.121  2.3159  0.7824 -1.1761
  175SOPE  H10Y19940  -0.376   6.757   9.089 -0.6924  1.8484  0.4053
  175SOPE  C31119941  -0.184   6.727   9.001  0.1296 -0.5449 -0.2812
  175SOPE  H11X19942  -0.190   6.616   8.998  1.6419 -0.7205  1.4735
  175SOPE  H11Y19943  -0.086   6.776   9.017  0.0665 -0.2259 -0.8425
  175SOPE  C31219944  -0.235   6.775   8.867  0.0733  0.3138 -0.1936
  175SOPE  H12X19945  -0.249   6.885   8.877  1.3679  0.4676  0.0539
  175SOPE  H12Y19946  -0.326   6.714   8.849 -0.1572  0.2628  1.0608
  175SOPE  C31319947  -0.140   6.741   8.749 -0.4945 -0.5403  0.5606
  175SOPE  H13X19948  -0.167   6.637   8.722 -1.5994 -0.1797  0.2416
  175SOPE  H13Y19949  -0.039   6.757   8.795 -1.0835  0.1094  1.6888
  175SOPE  C31419950  -0.142   6.832   8.627 -0.3903  0.0462 -0.0653
  175SOPE  H14X19951  -0.063   6.804   8.554  2.0533 -0.5698  2.6241
  175SOPE  H14Y19952  -0.119   6.936   8.657  0.6646 -0.1741 -0.0698
  175SOPE  C31519953  -0.274   6.843   8.562 -0.0605  0.3812  0.5995
  175SOPE  H15X19954  -0.271   6.923   8.485 -3.0070  1.0598  1.0866
  175SOPE  H15Y19955  -0.357   6.873   8.629 -0.8082 -0.5895  0.1301
  175SOPE  C31619956  -0.322   6.717   8.485  0.1112  0.8627 -0.0178
  175SOPE  H16X19957  -0.346   6.644   8.565  2.0149  1.1060  0.8367
  175SOPE  H16Y19958  -0.240   6.679   8.421 -0.4269 -1.4905  0.6093
  175SOPE  C31719959  -0.436   6.728   8.386  0.0941  0.4083 -0.4850
  175SOPE  H17X19960  -0.434   6.830   8.341  0.3472  0.9030  0.6232
  175SOPE  H17Y19961  -0.537   6.733   8.433 -0.1522 -0.1570 -0.9447
  175SOPE  C31819962  -0.436   6.614   8.286  0.1599 -0.0410  0.4205
  175SOPE  H18X19963  -0.539   6.600   8.247 -0.2044 -0.8457  1.5979
  175SOPE  H18Y19964  -0.407   6.527   8.349 -1.7876 -1.1961 -0.1645
  175SOPE  H18Z19965  -0.360   6.619   8.205  2.2197 -2.0184  2.0921
  176SOPE     N19966   0.857   4.337  10.993  0.3123 -0.2565 -0.0443
  176SOPE   HN119967   0.899   4.429  10.968 -1.1648  0.6355  0.5899
  176SOPE   HN219968   0.788   4.359  11.069 -0.9656 -1.1502 -0.9055
  176SOPE   HN319969   0.940   4.295  11.039  0.4873 -0.8182 -0.8536
  176SOPE   C1219970   0.818   4.251  10.882 -0.3771 -0.4199 -0.1629
  176SOPE  H12A19971   0.744   4.301  10.815 -0.4379 -1.0437 -0.5722
  176SOPE  H12B19972   0.776   4.160  10.930  1.4934 -0.0164  2.4128
  176SOPE   C1119973   0.942   4.221  10.799  0.5878 -0.5206 -0.3366
  176SOPE  H11A19974   0.912   4.168  10.706  1.9056 -1.9033 -0.0083
  176SOPE  H11B19975   1.006   4.148  10.853 -0.9589 -0.9625  0.9536
  176SOPE     P19976   0.970   4.439  10.649 -0.2155  0.1020  0.1162
  176SOPE   O1319977   0.964   4.572  10.715 -0.0179 -0.7129 -0.2015
  176SOPE   O1419978   0.845   4.383  10.589  0.0232  0.4315  0.1519
  176SOPE   O1219979   1.015   4.346  10.767 -0.0937  0.0883  0.5453
  176SOPE   O1119980   1.097   4.429  10.550  0.1508 -0.8265 -0.0398
  176SOPE    C119981   1.199   4.527  10.559  0.0456  0.2038  0.5035
  176SOPE    HA19982   1.221   4.550  10.665  1.4757 -0.2427  0.3276
  176SOPE    HB19983   1.161   4.623  10.518 -1.9634 -0.3112  1.0885
  176SOPE    C219984   1.331   4.477  10.482 -0.0253  0.2119 -0.0025
  176SOPE    HS19985   1.406   4.557  10.497  0.0668  0.2288 -0.5577
  176SOPE   O2119986   1.308   4.445  10.346  0.8942 -0.4503  0.2662
  176SOPE   C2119987   1.271   4.547  10.270  0.2156 -0.5299 -0.2772
  176SOPE   O2219988   1.253   4.660  10.309 -0.0139 -0.0101 -0.2025
  176SOPE   C2219989   1.246   4.499  10.123 -0.1965 -0.7918  0.4159
  176SOPE   H2R19990   1.137   4.505  10.102 -0.7146  0.7578  3.0844
  176SOPE   H2S19991   1.268   4.390  10.121  1.0845 -0.5675 -2.2158
  176SOPE    C319992   1.389   4.358  10.566  0.2163 -0.1566 -0.3244
  176SOPE    HX19993   1.312   4.282  10.588 -0.7135  1.0986  0.9985
  176SOPE    HY19994   1.408   4.410  10.663  1.8615 -1.6205  0.1844
  176SOPE   O3119995   1.518   4.306  10.514  1.1362 -0.2033  0.0176
  176SOPE   C3119996   1.489   4.212  10.417  0.0584  0.0687  0.1535
  176SOPE   O3219997   1.384   4.153  10.402 -0.2072 -0.0787 -0.1603
  176SOPE   C3219998   1.623   4.170  10.349  0.6008 -0.6404  1.2962
  176SOPE   H2X19999   1.690   4.114  10.417 -1.1427 -2.0363  1.9582
  176SOPE   H2Y20000   1.677   4.259  10.311  0.2423 -1.6203 -1.8854
  176SOPE   C2320001   1.319   4.581  10.017  0.3281  0.6204 -0.0327
  176SOPE   H3R20002   1.417   4.540   9.984 -0.4953  1.1503 -3.4732
  176SOPE   H3S20003   1.338   4.674  10.073  1.5929 -0.0081  0.6297
  176SOPE   C2420004   1.236   4.605   9.894  0.0167 -0.0497  0.4428
  176SOPE   H4R20005   1.148   4.669   9.915  0.3178  1.4339 -2.3538
  176SOPE   H4S20006   1.292   4.660   9.817 -0.4963 -0.4380 -0.2204
  176SOPE   C2520007   1.198   4.479   9.817 -0.3390  0.0805 -0.1653
  176SOPE   H5R20008   1.283   4.417   9.783 -0.8092 -1.8124  1.8372
  176SOPE   H5S20009   1.134   4.411   9.878 -1.4480  0.0558 -1.3214
  176SOPE   C2620010   1.112   4.507   9.699  0.5013  0.5146  0.2656
  176SOPE   H6R20011   1.025   4.568   9.733 -0.3048 -0.6230  0.3140
  176SOPE   H6S20012   1.160   4.556   9.611 -1.7363 -0.3354 -1.5543
  176SOPE   C2720013   1.050   4.377   9.635 -0.7494 -0.2930 -0.2631
  176SOPE   H7R20014   1.140   4.314   9.616 -1.4097 -1.4849  0.4441
  176SOPE   H7S20015   0.985   4.316   9.702 -0.7929 -0.5209 -0.5111
  176SOPE   C2820016   0.982   4.395   9.502 -0.0364  0.2534 -0.6816
  176SOPE   H8R20017   1.058   4.435   9.431 -1.8950  0.4730 -2.6260
  176SOPE   H8S20018   0.954   4.297   9.458 -2.0316  0.1225  0.7552
  176SOPE   C2920019   0.868   4.496   9.503 -0.0448  0.4280 -0.2160
  176SOPE   H9120020   0.901   4.597   9.476  3.4815 -0.6738 -0.5093
  176SOPE  C21020021   0.738   4.470   9.536  0.3250  0.2980 -0.7988
  176SOPE  H10120022   0.660   4.547   9.526 -0.8794 -0.8668 -0.7574
  176SOPE  C21120023   0.678   4.344   9.574  0.0951  0.7991 -0.2485
  176SOPE  H11R20024   0.636   4.332   9.676  1.2749 -1.7326  0.0098
  176SOPE  H11S20025   0.749   4.261   9.557  1.3185  1.7328  0.2143
  176SOPE  C21220026   0.566   4.302   9.466 -0.9960 -0.8181 -0.0627
  176SOPE  H12R20027   0.474   4.362   9.488  0.9363  1.7011  1.7770
  176SOPE  H12S20028   0.539   4.199   9.498 -0.9905 -0.0527  2.6610
  176SOPE  C21320029   0.613   4.292   9.318 -0.2175  0.5954  0.3186
  176SOPE  H13R20030   0.713   4.244   9.307 -0.4940  0.1282 -0.1862
  176SOPE  H13S20031   0.629   4.397   9.284  1.2759 -0.1067 -1.2902
  176SOPE  C21420032   0.518   4.224   9.220  0.0099  0.0745  0.8696
  176SOPE  H14R20033   0.413   4.255   9.239 -0.7664 -1.4515 -0.6104
  176SOPE  H14S20034   0.530   4.114   9.226  1.0340 -0.0278 -1.7838
  176SOPE  C21520035   0.550   4.278   9.075 -0.3018 -0.4581 -0.2763
  176SOPE  H15R20036   0.659   4.277   9.055 -0.0405  0.9850  0.9173
  176SOPE  H15S20037   0.524   4.386   9.070  2.7862  0.3241 -1.9684
  176SOPE  C21620038   0.471   4.203   8.962  0.5416  0.5745  0.6219
  176SOPE  H16R20039   0.368   4.223   8.998  0.3770  1.3200 -0.2403
  176SOPE  H16S20040   0.505   4.097   8.964 -1.4100 -0.1374  3.7641
  176SOPE  C21720041   0.492   4.262   8.817 -0.8188 -0.3016 -0.5482
  176SOPE  H17R20042   0.602   4.262   8.801 -0.8158 -1.6189 -0.6013
  176SOPE  H17S20043   0.456   4.366   8.801 -2.0835 -0.9793 -2.3643
  176SOPE  C21820044   0.426   4.177   8.714  0.4170  0.5770 -0.5269
  176SOPE  H18R20045   0.442   4.069   8.736  2.2267  0.6768 -1.1874
  176SOPE  H18S20046   0.448   4.197   8.607 -0.9144 -0.1749 -0.9746
  176SOPE  H18T20047   0.317   4.194   8.722  0.6056  1.2194  1.0482
  176SOPE   C3320048   1.613   4.096  10.212  0.2693 -0.0491  0.0554
  176SOPE   H3X20049   1.544   4.011  10.233  2.0850 -1.3135  1.2244
  176SOPE   H3Y20050   1.709   4.048  10.185 -0.5340 -2.3012  0.9027
  176SOPE   C3420051   1.548   4.181  10.099  0.2338  0.1482 -0.2652
  176SOPE   H4X20052   1.531   4.285  10.132 -0.3173  0.7205 -2.2198
  176SOPE   H4Y20053   1.445   4.140  10.093  1.5660 -3.8044  0.6877
  176SOPE   C3520054   1.623   4.187   9.967  0.1965 -0.2630 -0.0229
  176SOPE   H5X20055   1.653   4.084   9.939  0.6897 -0.0139 -0.4335
  176SOPE   H5Y20056   1.722   4.236   9.978  0.5279 -0.5035 -1.6627
  176SOPE   C3620057   1.541   4.246   9.860  0.8686  0.5433 -0.4150
  176SOPE   H6X20058   1.527   4.355   9.881  1.6269  0.4500  0.6886
  176SOPE   H6Y20059   1.446   4.189   9.859  1.0041  0.3096 -1.4578
  176SOPE   C3720060   1.603   4.229   9.722  0.1250 -0.2059 -0.0439
  176SOPE   H7X20061   1.634   4.123   9.707  2.9207  0.5529 -0.0606
  176SOPE   H7Y20062   1.693   4.292   9.708 -0.0276 -0.0582 -0.3912
  176SOPE   C3820063   1.502   4.262   9.610  0.3196  0.0403  0.4305
  176SOPE   H8X20064   1.475   4.368   9.632 -0.0406 -0.0185  0.2800
  176SOPE   H8Y20065   1.408   4.203   9.621  1.7527 -2.3041  0.6783
  176SOPE   C3920066   1.564   4.257   9.475 -0.4550 -0.4823 -0.2735
  176SOPE   H9X20067   1.495   4.240   9.389  1.1467 -0.2923 -1.6429
  176SOPE   H9Y20068   1.644   4.182   9.456  1.2255  1.2153 -0.1656
  176SOPE  C31020069   1.625   4.394   9.440 -0.1075 -0.5967  0.0912
  176SOPE  H10X20070   1.685   4.426   9.528  1.0371  1.5894 -1.3988
  176SOPE  H10Y20071   1.551   4.476   9.428 -1.7472 -2.2620 -2.1355
  176SOPE  C31120072   1.698   4.393   9.298  0.4557 -0.4217  0.1786
  176SOPE  H11X20073   1.726   4.288   9.273  1.0759  0.3372 -2.6543
  176SOPE  H11Y20074   1.796   4.442   9.318  0.0264  0.5633 -0.0847
  176SOPE  C31220075   1.622   4.463   9.184 -0.4138  0.4153  0.6566
  176SOPE  H12X20076   1.608   4.572   9.201  0.2648  0.6764 -0.2894
  176SOPE  H12Y20077   1.527   4.409   9.168  1.0628 -1.8685 -1.0493
  176SOPE  C31320078   1.706   4.461   9.057  0.3891 -0.0518 -0.1232
  176SOPE  H13X20079   1.718   4.356   9.022 -0.4627  0.7575 -3.0321
  176SOPE  H13Y20080   1.807   4.505   9.074 -0.3366  0.8600  2.2378
  176SOPE  C31420081   1.626   4.538   8.948  0.3158  0.7856  0.1722
  176SOPE  H14X20082   1.634   4.649   8.954 -0.9138  0.8798  0.4054
  176SOPE  H14Y20083   1.516   4.522   8.955  0.7069 -1.7819  5.4656
  176SOPE  C31520084   1.659   4.503   8.802 -0.0504 -0.2830 -0.1138
  176SOPE  H15X20085   1.610   4.406   8.776  0.1034 -0.4579  0.2540
  176SOPE  H15Y20086   1.768   4.481   8.799  0.0503  0.2646 -0.7749
  176SOPE  C31620087   1.631   4.602   8.695  0.6387  0.2534  0.3582
  176SOPE  H16X20088   1.684   4.700   8.697 -1.4347  1.4232  1.0150
  176SOPE  H16Y20089   1.525   4.633   8.707  1.2857  2.5414  0.6427
  176SOPE  C31720090   1.650   4.545   8.559  0.9638 -0.0322  0.1156
  176SOPE  H17X20091   1.595   4.449   8.554  1.1971 -0.2866  1.8892
  176SOPE  H17Y20092   1.754   4.513   8.536  1.6996  2.0815  0.2729
  176SOPE  C31820093   1.594   4.621   8.435  0.4484  0.6720  0.0851
  176SOPE  H18X20094   1.484   4.635   8.437  0.3035 -0.4153  0.8184
  176SOPE  H18Y20095   1.620   4.551   8.353  2.0917  0.0266  1.0960
  176SOPE  H18Z20096   1.646   4.719   8.427  0.5309  0.5229 -1.3959
  177SOPE     N20097   3.651   1.743  10.958 -0.3740 -0.0572  0.3686
  177SOPE   HN120098   3.559   1.777  10.993  0.4064  2.4392  0.1877
  177SOPE   HN220099   3.612   1.674  10.891 -1.3675  0.4519  0.3845
  177SOPE   HN320100   3.698   1.699  11.039  0.0281  1.1122  0.7970
  177SOPE   C1220101   3.718   1.850  10.884 -0.0909 -0.6260  0.7010
  177SOPE  H12A20102   3.763   1.917  10.960  0.0366 -0.3033  0.3431
  177SOPE  H12B20103   3.649   1.902  10.814  2.5628  0.5020 -1.2719
  177SOPE   C1120104   3.812   1.785  10.777 -0.3414  0.1216 -0.1234
  177SOPE  H11A20105   3.850   1.858  10.702  0.7203 -1.0718 -0.7858
  177SOPE  H11B20106   3.749   1.711  10.722  0.3625 -1.6184  1.3066
  177SOPE     P20107   3.939   1.569  10.875 -0.4131  0.1292 -0.5764
  177SOPE   O1320108   3.828   1.519  10.956 -0.0762  0.0240  0.6472
  177SOPE   O1420109   4.074   1.527  10.914 -0.1802  0.0886 -0.1835
  177SOPE   O1220110   3.920   1.721  10.838 -0.0593 -0.0019  0.7119
  177SOPE   O1120111   3.919   1.496  10.729  0.7368 -0.0764 -0.1952
  177SOPE    C120112   4.026   1.505  10.631  1.0400  0.3906  0.0180
  177SOPE    HA20113   4.020   1.419  10.561  0.3216 -0.8014  1.4852
  177SOPE    HB20114   4.126   1.505  10.680  1.1044 -1.9370 -0.0186
  177SOPE    C220115   4.009   1.626  10.538 -0.7340  0.1467 -0.2422
  177SOPE    HS20116   4.000   1.713  10.607  0.8049  0.8001 -0.8277
  177SOPE   O2120117   3.883   1.607  10.463  0.3184 -0.0013 -0.8841
  177SOPE   C2120118   3.831   1.719  10.415  0.2912  0.5206  0.1459
  177SOPE   O2220119   3.861   1.832  10.447 -0.0207  0.1827 -0.5365
  177SOPE   C2220120   3.704   1.668  10.337  0.3210 -0.7350 -0.1190
  177SOPE   H2R20121   3.636   1.613  10.406 -1.3260  2.1520  0.7171
  177SOPE   H2S20122   3.736   1.601  10.254 -0.6208 -0.2922 -0.8663
  177SOPE    C320123   4.145   1.638  10.463  1.0488  0.7933  0.7199
  177SOPE    HX20124   4.238   1.635  10.525  1.1617 -2.6016  0.6003
  177SOPE    HY20125   4.135   1.743  10.430  1.7159  0.3256 -1.0856
  177SOPE   O3120126   4.163   1.536  10.364 -0.0799 -0.2606  0.1176
  177SOPE   C3120127   4.124   1.571  10.241 -0.0434 -0.6347 -0.3454
  177SOPE   O3220128   4.059   1.671  10.217 -0.4852 -0.2816  0.4162
  177SOPE   C3220129   4.173   1.474  10.136 -0.3346 -0.1360  0.2922
  177SOPE   H2X20130   4.134   1.373  10.158  0.3126 -0.8122 -1.4648
  177SOPE   H2Y20131   4.283   1.456  10.136 -0.1824 -0.9772 -5.2114
  177SOPE   C2320132   3.620   1.779  10.273  0.5218  0.6852 -0.1212
  177SOPE   H3R20133   3.579   1.840  10.356 -3.6584  0.4605 -1.8077
  177SOPE   H3S20134   3.530   1.729  10.232  1.5450  0.2512 -1.9706
  177SOPE   C2420135   3.678   1.867  10.160 -0.1187 -0.3069  0.8381
  177SOPE   H4R20136   3.601   1.938  10.124  0.4340 -0.0334  0.1639
  177SOPE   H4S20137   3.759   1.935  10.195 -0.1334 -0.3729  1.0023
  177SOPE   C2520138   3.738   1.778  10.053 -0.5749 -0.1491 -0.6600
  177SOPE   H5R20139   3.821   1.718  10.096  0.3548  2.4651  1.5142
  177SOPE   H5S20140   3.655   1.710  10.024 -1.0729  0.6663 -1.2027
  177SOPE   C2620141   3.813   1.849   9.937  0.0919 -0.2579 -0.4031
  177SOPE   H6R20142   3.869   1.931   9.988  0.0257  1.7305 -3.2303
  177SOPE   H6S20143   3.882   1.770   9.899 -1.1617 -3.0295  2.6787
  177SOPE   C2720144   3.719   1.898   9.822 -0.0877  1.2025  0.2173
  177SOPE   H7R20145   3.669   1.818   9.763  0.1830  0.0073  1.5355
  177SOPE   H7S20146   3.647   1.968   9.870  1.4711  1.5686  2.1163
  177SOPE   C2820147   3.799   1.990   9.724 -0.1659  0.3574  0.1427
  177SOPE   H8R20148   3.735   2.052   9.658 -0.4748  0.0375  0.1362
  177SOPE   H8S20149   3.853   2.049   9.800 -0.3504  0.4468  0.2060
  177SOPE   C2920150   3.896   1.924   9.639  0.3359  0.9072  0.2710
  177SOPE   H9120151   3.959   1.853   9.695  0.3688  0.7612  0.0483
  177SOPE  C21020152   3.917   1.933   9.506  0.5215 -0.6795  0.0878
  177SOPE  H10120153   3.991   1.862   9.468 -1.9204 -2.9110 -0.7726
  177SOPE  C21120154   3.844   2.022   9.405  0.2470  0.5008 -0.3065
  177SOPE  H11R20155   3.880   2.127   9.412 -1.7291  1.2505 -0.6978
  177SOPE  H11S20156   3.734   2.024   9.423  0.2842 -3.6864  1.5818
  177SOPE  C21220157   3.861   1.985   9.258 -0.1516  0.4647  0.0177
  177SOPE  H12R20158   3.822   1.882   9.241  0.7651  0.3090 -1.3348
  177SOPE  H12S20159   3.972   1.978   9.262 -0.1665  0.4391  0.4612
  177SOPE  C21320160   3.805   2.078   9.153 -0.4914 -0.1995  0.8256
  177SOPE  H13R20161   3.850   2.177   9.175 -1.0016 -0.4085  3.0051
  177SOPE  H13S20162   3.694   2.087   9.157 -0.4806  0.9962 -0.6414
  177SOPE  C21420163   3.841   2.031   9.015 -0.0566  0.6148  0.0599
  177SOPE  H14R20164   3.824   2.116   8.946  0.6045  0.1559 -0.6768
  177SOPE  H14S20165   3.764   1.953   8.993  1.5746 -1.1186  0.2038
  177SOPE  C21520166   3.984   1.971   8.997 -0.1335 -0.9177 -0.3568
  177SOPE  H15R20167   3.995   1.875   9.050 -1.1091  0.6205  2.8433
  177SOPE  H15S20168   4.061   2.037   9.043 -2.2013  0.4056  1.3471
  177SOPE  C21620169   4.010   1.953   8.842 -0.3021  0.3434 -0.4065
  177SOPE  H16R20170   3.917   1.925   8.787  0.2601  1.2315 -1.8377
  177SOPE  H16S20171   4.094   1.886   8.815  1.2439  2.3974 -0.9399
  177SOPE  C21720172   4.070   2.072   8.767 -0.1376  0.2265  0.2854
  177SOPE  H17R20173   4.163   2.120   8.806 -0.5157  1.7241 -0.5702
  177SOPE  H17S20174   3.997   2.155   8.769 -0.4524 -0.0577  0.8184
  177SOPE  C21820175   4.084   2.021   8.618 -0.8204 -0.8256 -0.0736
  177SOPE  H18R20176   3.987   1.998   8.569 -0.1679 -1.1032 -1.2969
  177SOPE  H18S20177   4.145   1.929   8.613 -0.2340 -0.4187 -0.5984
  177SOPE  H18T20178   4.137   2.106   8.569 -1.3459  0.7269  1.9316
  177SOPE   C3320179   4.143   1.510   9.993  0.4279 -0.8219  0.3697
  177SOPE   H3X20180   4.169   1.615   9.970 -1.0654 -0.7571 -1.1982
  177SOPE   H3Y20181   4.034   1.502   9.971  0.5585 -0.3067 -0.5117
  177SOPE   C3420182   4.218   1.425   9.893  0.1360 -0.3137 -0.4614
  177SOPE   H4X20183   4.228   1.322   9.933  0.9884  0.6467  1.9763
  177SOPE   H4Y20184   4.323   1.455   9.913 -0.2515  0.1105  1.1049
  177SOPE   C3520185   4.153   1.424   9.753 -0.7251  0.4416  0.5771
  177SOPE   H5X20186   4.132   1.529   9.724 -1.0043  1.2374  3.3531
  177SOPE   H5Y20187   4.064   1.357   9.755  0.7688 -1.6632  0.4631
  177SOPE   C3620188   4.253   1.368   9.650 -0.1455  0.0450 -0.2104
  177SOPE   H6X20189   4.300   1.278   9.693 -2.3278 -0.5673  1.0678
  177SOPE   H6Y20190   4.327   1.450   9.636  0.6110 -0.7573 -1.0038
  177SOPE   C3720191   4.175   1.326   9.523 -0.5690 -0.3259 -0.0911
  177SOPE   H7X20192   4.078   1.381   9.522  0.9049  2.5337  1.4567
  177SOPE   H7Y20193   4.159   1.216   9.521  0.4214 -0.4842 -1.6130
  177SOPE   C3820194   4.252   1.362   9.394  0.1131  0.3818  0.0442
  177SOPE   H8X20195   4.351   1.312   9.398  0.1559  0.3326 -1.3118
  177SOPE   H8Y20196   4.266   1.472   9.390  0.6935  0.3281  0.4730
  177SOPE   C3920197   4.178   1.323   9.263  0.0658  0.4952 -0.2479
  177SOPE   H9X20198   4.082   1.379   9.270  0.4364  0.9964  1.3480
  177SOPE   H9Y20199   4.158   1.214   9.268 -0.2350  0.6109  2.7594
  177SOPE  C31020200   4.243   1.367   9.128 -1.1327 -0.4303  0.7028
  177SOPE  H10X20201   4.344   1.320   9.125 -0.2495  1.2496  2.1634
  177SOPE  H10Y20202   4.262   1.476   9.136 -0.5623 -0.5221  0.7082
  177SOPE  C31120203   4.169   1.336   8.997 -0.5316  0.1899 -0.3216
  177SOPE  H11X20204   4.073   1.391   8.990  0.9298  2.6942 -2.3237
  177SOPE  H11Y20205   4.144   1.228   8.987 -1.2326  0.3620 -0.4459
  177SOPE  C31220206   4.255   1.365   8.878 -0.2735  0.6969  0.2800
  177SOPE  H12X20207   4.333   1.286   8.874 -1.0518 -0.1328  1.1373
  177SOPE  H12Y20208   4.305   1.465   8.877 -0.0812  0.6926 -3.1032
  177SOPE  C31320209   4.172   1.352   8.742  0.4408  0.0015 -0.5098
  177SOPE  H13X20210   4.117   1.446   8.719  1.6931  0.1403 -3.2495
  177SOPE  H13Y20211   4.099   1.269   8.736  0.8867 -0.3995 -0.4912
  177SOPE  C31420212   4.264   1.334   8.620 -0.1701 -0.5327 -0.4405
  177SOPE  H14X20213   4.287   1.225   8.622 -3.2441 -1.2737 -0.2911
  177SOPE  H14Y20214   4.347   1.406   8.635 -0.9904  0.5057 -0.8271
  177SOPE  C31520215   4.198   1.364   8.486 -0.2524  0.6556  0.0807
  177SOPE  H15X20216   4.152   1.464   8.493  1.5021  1.5692 -0.5939
  177SOPE  H15Y20217   4.111   1.295   8.474 -0.0241  0.5921 -1.3927
  177SOPE  C31620218   4.297   1.355   8.376 -0.7468 -0.0342  0.0681
  177SOPE  H16X20219   4.395   1.375   8.425 -1.3068 -0.8061  1.5815
  177SOPE  H16Y20220   4.272   1.422   8.292  1.7898  1.3160  0.2733
  177SOPE  C31720221   4.301   1.209   8.329  0.0301 -0.6241  0.0523
  177SOPE  H17X20222   4.294   1.142   8.417  1.6675  0.0738  0.7388
  177SOPE  H17Y20223   4.393   1.184   8.272 -1.2995 -0.6804 -2.1920
  177SOPE  C31820224   4.197   1.189   8.223  0.1056  0.1551 -0.1550
  177SOPE  H18X20225   4.217   1.089   8.180 -0.1914 -0.6056  1.4020
  177SOPE  H18Y20226   4.193   1.263   8.140  0.0640 -0.7540 -0.9791
  177SOPE  H18Z20227   4.097   1.187   8.273 -0.2815  0.3355 -0.9086
  178SOPE     N20228   4.175   5.638  10.818  0.1025  0.3385 -0.3220
  178SOPE   HN120229   4.130   5.710  10.878 -0.9934  0.3090 -1.0787
  178SOPE   HN220230   4.124   5.550  10.839 -1.2708  1.7395  2.8539
  178SOPE   HN320231   4.273   5.616  10.843  0.1481  0.7963 -0.0824
  178SOPE   C1220232   4.165   5.680  10.680 -0.3465  0.0719  0.1641
  178SOPE  H12A20233   4.177   5.590  10.615 -3.6045  0.0693 -0.6296
  178SOPE  H12B20234   4.238   5.759  10.652 -0.5037  0.2011  0.1181
  178SOPE   C1120235   4.023   5.731  10.648 -0.2107  0.0614  0.3844
  178SOPE  H11A20236   4.024   5.770  10.544 -1.4863  0.7357  0.6049
  178SOPE  H11B20237   3.992   5.819  10.709 -1.0709  0.1511 -0.1729
  178SOPE     P20238   3.885   5.530  10.549 -0.3195  0.2690 -0.2348
  178SOPE   O1320239   3.806   5.409  10.602  0.6969 -0.5564 -0.1404
  178SOPE   O1420240   4.002   5.499  10.466 -0.2727  1.0578  0.1546
  178SOPE   O1220241   3.917   5.631  10.664 -1.3162 -0.1944  0.0595
  178SOPE   O1120242   3.789   5.619  10.464 -0.2523  0.3800 -0.2359
  178SOPE    C120243   3.646   5.637  10.491 -0.1950 -0.0390  0.3834
  178SOPE    HA20244   3.620   5.738  10.454 -2.1378 -0.1057  1.4552
  178SOPE    HB20245   3.614   5.630  10.597  1.2085  2.2199  1.0359
  178SOPE    C220246   3.567   5.539  10.414  0.1773  0.7422 -0.3324
  178SOPE    HS20247   3.608   5.437  10.428 -0.3017  0.4737 -0.8344
  178SOPE   O2120248   3.572   5.576  10.276  0.2732 -0.9257 -0.0067
  178SOPE   C2120249   3.592   5.476  10.191  0.0107  0.4605  0.6866
  178SOPE   O2220250   3.592   5.360  10.212  0.8975  0.2186 -0.3192
  178SOPE   C2220251   3.633   5.536  10.052  1.4578  0.4887 -0.3043
  178SOPE   H2R20252   3.645   5.645  10.070  2.5951  0.5455 -1.2834
  178SOPE   H2S20253   3.547   5.517   9.985  1.2948  3.3816 -1.0089
  178SOPE    C320254   3.414   5.538  10.453  0.1397 -0.5260  0.4628
  178SOPE    HX20255   3.382   5.639  10.421 -2.5198 -1.8703 -1.5010
  178SOPE    HY20256   3.407   5.539  10.564 -1.0597 -1.5075  0.4247
  178SOPE   O3120257   3.347   5.427  10.386 -0.2477 -0.3870 -0.3129
  178SOPE   C3120258   3.215   5.438  10.372 -0.3798  0.2743 -0.1814
  178SOPE   O3220259   3.148   5.530  10.411  0.6438 -0.6793  0.1034
  178SOPE   C3220260   3.160   5.322  10.292  0.3057 -0.0458 -0.0002
  178SOPE   H2X20261   3.049   5.335  10.291  0.5274  2.4810  0.6730
  178SOPE   H2Y20262   3.191   5.240  10.360  1.0774  0.0630 -0.2077
  178SOPE   C2320263   3.763   5.483   9.994  0.3975 -0.1151 -0.3638
  178SOPE   H3R20264   3.767   5.373   9.979 -0.0519  0.1524 -2.7610
  178SOPE   H3S20265   3.840   5.507  10.071 -0.6045 -0.8622  0.9212
  178SOPE   C2420266   3.807   5.559   9.871 -0.8749 -0.0900  0.1925
  178SOPE   H4R20267   3.821   5.668   9.887 -1.3671  0.0836 -0.5410
  178SOPE   H4S20268   3.902   5.516   9.833  0.0453  0.7694  1.4175
  178SOPE   C2520269   3.713   5.537   9.752 -0.2360  0.1362  0.8333
  178SOPE   H5R20270   3.676   5.432   9.759 -1.4851  0.2705 -2.0075
  178SOPE   H5S20271   3.614   5.585   9.768 -1.7863 -3.1078  1.6974
  178SOPE   C2620272   3.780   5.557   9.610  0.3047 -0.0144  0.2714
  178SOPE   H6R20273   3.779   5.666   9.593  1.0660 -0.0939 -0.3357
  178SOPE   H6S20274   3.877   5.504   9.592  0.8868  1.1629 -0.1487
  178SOPE   C2720275   3.677   5.508   9.513  0.1695  0.4666  0.0557
  178SOPE   H7R20276   3.659   5.402   9.542  0.8168  0.2803 -0.2077
  178SOPE   H7S20277   3.588   5.572   9.532 -0.4946 -0.1007 -1.0905
  178SOPE   C2820278   3.709   5.500   9.364 -0.4945  0.4603 -0.5219
  178SOPE   H8R20279   3.616   5.480   9.308  0.4382  0.2534 -2.0298
  178SOPE   H8S20280   3.745   5.600   9.331  2.9098 -1.1813 -2.2014
  178SOPE   C2920281   3.824   5.407   9.332  0.0874  0.2013 -0.7124
  178SOPE   H9120282   3.849   5.360   9.428  1.5410  1.2263 -0.5640
  178SOPE  C21020283   3.855   5.335   9.220  0.4456 -0.4082 -0.0577
  178SOPE  H10120284   3.940   5.265   9.223  2.1419  1.5324 -0.1195
  178SOPE  C21120285   3.776   5.348   9.093 -0.7028  0.2644 -0.5473
  178SOPE  H11R20286   3.685   5.411   9.098  0.4763  1.9408  0.3943
  178SOPE  H11S20287   3.762   5.240   9.067 -0.0091  0.4697 -1.8433
  178SOPE  C21220288   3.864   5.401   8.983 -0.1158  0.0604  0.0651
  178SOPE  H12R20289   3.822   5.374   8.884  1.5848  1.1591 -1.0307
  178SOPE  H12S20290   3.964   5.351   8.978  1.2236  2.6184 -0.7091
  178SOPE  C21320291   3.875   5.550   8.987  0.0271 -0.1553 -0.4281
  178SOPE  H13R20292   3.950   5.572   9.066  0.2927 -0.1280 -0.6881
  178SOPE  H13S20293   3.784   5.591   9.035  0.7998  2.1795 -0.8397
  178SOPE  C21420294   3.905   5.610   8.853 -0.2120 -0.1846  0.3120
  178SOPE  H14R20295   3.904   5.721   8.866 -0.5854 -0.1756  0.2043
  178SOPE  H14S20296   3.825   5.590   8.779  0.6856  2.0765 -1.4128
  178SOPE  C21520297   4.041   5.556   8.794  0.2160  0.0807  0.2137
  178SOPE  H15R20298   4.026   5.448   8.771  1.0361  0.0045 -0.0040
  178SOPE  H15S20299   4.110   5.578   8.878 -0.3494 -0.5678  0.8711
  178SOPE  C21620300   4.096   5.628   8.663 -0.3152  0.1154  0.5143
  178SOPE  H16R20301   4.148   5.717   8.703  1.0092  0.0700 -1.0194
  178SOPE  H16S20302   4.005   5.650   8.603 -0.6364 -1.6998  0.2821
  178SOPE  C21720303   4.204   5.551   8.581 -0.1502  0.2176  0.0285
  178SOPE  H17R20304   4.224   5.606   8.486 -0.3754  0.6243  0.2107
  178SOPE  H17S20305   4.155   5.455   8.556 -3.1923  2.1817 -2.3122
  178SOPE  C21820306   4.335   5.525   8.662  0.4833  0.6405 -0.3647
  178SOPE  H18R20307   4.315   5.464   8.753 -2.3910 -2.2189 -2.6238
  178SOPE  H18S20308   4.382   5.622   8.685  0.1057  0.7442 -0.0112
  178SOPE  H18T20309   4.413   5.463   8.613 -0.2404 -0.6977  0.1109
  178SOPE   C3320310   3.217   5.314  10.147  0.1515  0.3633  0.3278
  178SOPE   H3X20311   3.177   5.218  10.108  2.1012 -0.3323 -0.0797
  178SOPE   H3Y20312   3.328   5.308  10.140  0.0451 -0.6508 -0.8876
  178SOPE   C3420313   3.166   5.417  10.049  0.1429  0.3722  0.1426
  178SOPE   H4X20314   3.201   5.517  10.083  0.9983  0.2395 -0.3418
  178SOPE   H4Y20315   3.055   5.424  10.050  0.0661  0.3270 -2.5212
  178SOPE   C3520316   3.201   5.394   9.899  0.2929  0.1239 -0.0129
  178SOPE   H5X20317   3.150   5.313   9.843  1.9685 -0.4761 -0.7233
  178SOPE   H5Y20318   3.311   5.383   9.891  0.1404 -1.8970 -0.0220
  178SOPE   C3620319   3.174   5.524   9.824  0.2395 -0.6645 -0.6915
  178SOPE   H6X20320   3.192   5.606   9.897  0.2900 -0.2095 -1.2028
  178SOPE   H6Y20321   3.068   5.535   9.795 -0.1688 -0.5187  0.7766
  178SOPE   C3720322   3.269   5.538   9.702  0.0133  0.0301  0.1208
  178SOPE   H7X20323   3.375   5.508   9.716  0.1096  0.0620 -0.5097
  178SOPE   H7Y20324   3.272   5.635   9.649 -1.6198 -1.6210 -3.3700
  178SOPE   C3820325   3.212   5.471   9.580  0.1554 -0.0535  0.0306
  178SOPE   H8X20326   3.107   5.498   9.555  0.2378 -1.2136 -1.7054
  178SOPE   H8Y20327   3.211   5.361   9.600  1.3956  0.0399  0.6941
  178SOPE   C3920328   3.274   5.512   9.449 -0.4889 -0.4800 -0.0716
  178SOPE   H9X20329   3.383   5.529   9.459  0.1503 -2.2694 -2.6780
  178SOPE   H9Y20330   3.233   5.613   9.426 -1.6275 -0.1895  2.8488
  178SOPE  C31020331   3.248   5.402   9.340  0.5699  0.6993  0.5743
  178SOPE  H10X20332   3.139   5.407   9.321  0.6465  0.5349  0.0557
  178SOPE  H10Y20333   3.262   5.300   9.382 -0.7606  1.0909  2.0397
  178SOPE  C31120334   3.329   5.409   9.210 -0.2980  0.0634 -0.5072
  178SOPE  H11X20335   3.290   5.334   9.137  1.1104 -0.2571 -0.9536
  178SOPE  H11Y20336   3.436   5.394   9.234 -0.6944 -0.0651  1.3345
  178SOPE  C31220337   3.317   5.547   9.142  0.0573 -0.2217 -0.3299
  178SOPE  H12X20338   3.341   5.629   9.214 -1.4784  0.7542 -0.8812
  178SOPE  H12Y20339   3.213   5.561   9.106 -0.0094  0.4849  0.1103
  178SOPE  C31320340   3.418   5.575   9.019  0.4719  0.6939  0.6633
  178SOPE  H13X20341   3.521   5.550   9.051  0.8205  0.2434 -0.7490
  178SOPE  H13Y20342   3.410   5.685   9.007  0.1168  0.4236 -2.4268
  178SOPE  C31420343   3.397   5.510   8.884  0.1132  0.8764  0.0259
  178SOPE  H14X20344   3.303   5.540   8.832  0.3128  0.1372 -0.7852
  178SOPE  H14Y20345   3.393   5.400   8.898  1.6922  0.8902  0.7238
  178SOPE  C31520346   3.510   5.539   8.787 -0.5241 -0.2667 -0.4308
  178SOPE  H15X20347   3.606   5.505   8.833 -1.0195  1.6240  2.2563
  178SOPE  H15Y20348   3.521   5.649   8.790 -1.3442 -0.1922  1.9835
  178SOPE  C31620349   3.490   5.484   8.649 -0.0541  0.2686  0.1370
  178SOPE  H16X20350   3.380   5.487   8.634 -0.0258  0.0707 -0.1160
  178SOPE  H16Y20351   3.514   5.376   8.650 -1.5264 -0.0831  1.2150
  178SOPE  C31720352   3.551   5.559   8.537  1.0489  0.0671  0.1216
  178SOPE  H17X20353   3.520   5.665   8.547 -0.3007 -0.4374  1.8485
  178SOPE  H17Y20354   3.506   5.515   8.445  1.1467  0.3482 -0.0641
  178SOPE  C31820355   3.704   5.565   8.543  0.4285 -0.0026 -0.4248
  178SOPE  H18X20356   3.730   5.463   8.579  0.4605  0.5263  1.1212
  178SOPE  H18Y20357   3.747   5.644   8.608  1.5304 -0.2646 -0.8190
  178SOPE  H18Z20358   3.752   5.579   8.444  1.4435 -1.2601 -0.1369
  179SOPE     N20359   5.162   2.047   6.177 -0.3125  0.2018 -0.2218
  179SOPE   HN120360   5.119   2.113   6.109 -5.2490 -2.6951 -0.3819
  179SOPE   HN220361   5.181   1.956   6.129  0.9833  0.3328 -0.0134
  179SOPE   HN320362   5.084   2.033   6.244 -0.4726  0.6568 -0.3145
  179SOPE   C1220363   5.280   2.090   6.257 -0.5849 -0.1050  0.2218
  179SOPE  H12A20364   5.252   2.170   6.329  0.2748  1.7726 -1.4353
  179SOPE  H12B20365   5.354   2.129   6.185  0.3721 -0.4842  0.9792
  179SOPE   C1120366   5.344   1.971   6.330  0.2484  0.9679 -0.5724
  179SOPE  H11A20367   5.274   1.918   6.398  1.1211  0.5907  0.0575
  179SOPE  H11B20368   5.428   2.016   6.387 -0.1978  0.0325  0.9067
  179SOPE     P20369   5.506   1.777   6.285 -0.7057  0.1551  0.1504
  179SOPE   O1320370   5.639   1.845   6.304  0.3328  0.2720 -0.2641
  179SOPE   O1420371   5.513   1.666   6.192  0.0492 -0.2065  0.9121
  179SOPE   O1220372   5.394   1.871   6.238  0.2909  0.1956  0.6492
  179SOPE   O1120373   5.448   1.723   6.415 -0.1405 -0.0397  0.0001
  179SOPE    C120374   5.530   1.646   6.507  0.1020 -0.1893 -0.0122
  179SOPE    HA20375   5.619   1.608   6.454 -0.0223 -0.2282 -0.1908
  179SOPE    HB20376   5.466   1.566   6.550 -4.3178  3.3178  0.7905
  179SOPE    C220377   5.577   1.727   6.629 -0.7871 -1.1896 -0.0703
  179SOPE    HS20378   5.645   1.813   6.610 -1.8639 -0.0912  0.8722
  179SOPE   O2120379   5.649   1.642   6.715  0.0296 -0.2550  0.1620
  179SOPE   C2120380   5.772   1.611   6.696  0.0691 -0.2271  0.8451
  179SOPE   O2220381   5.850   1.656   6.610  0.0962 -0.3725 -0.2422
  179SOPE   C2220382   5.818   1.512   6.802  0.2337 -0.2674  0.0690
  179SOPE   H2R20383   5.923   1.532   6.830  0.1018 -1.5286  1.5943
  179SOPE   H2S20384   5.809   1.410   6.759  1.3506 -0.7288  0.8928
  179SOPE    C320385   5.451   1.787   6.705  0.2447  0.1189 -0.3424
  179SOPE    HX20386   5.390   1.713   6.759  2.9216 -0.9970  1.3742
  179SOPE    HY20387   5.387   1.840   6.631  0.2720  1.4746  0.5790
  179SOPE   O3120388   5.487   1.884   6.808  0.1467  0.4601  0.6151
  179SOPE   C3120389   5.515   2.010   6.775 -0.0758  0.1187  0.1390
  179SOPE   O3220390   5.509   2.056   6.661 -0.3564 -0.5997  0.0640
  179SOPE   C3220391   5.559   2.088   6.900  0.4635  0.1407  0.3011
  179SOPE   H2X20392   5.472   2.113   6.964  0.1171  2.0877 -0.8550
  179SOPE   H2Y20393   5.601   2.184   6.862 -2.4373  0.9342 -1.1495
  179SOPE   C2320394   5.732   1.518   6.930 -0.4217  0.8002  0.6390
  179SOPE   H3R20395   5.626   1.491   6.909 -1.6514  4.2349  1.7765
  179SOPE   H3S20396   5.726   1.623   6.967  0.6521  0.6222  1.3602
  179SOPE   C2420397   5.780   1.429   7.048  0.2544  0.7233 -0.1154
  179SOPE   H4R20398   5.824   1.339   7.000  0.3227  0.0164  1.2264
  179SOPE   H4S20399   5.870   1.474   7.095  0.9371  0.1981 -0.8934
  179SOPE   C2520400   5.665   1.394   7.140 -1.0451 -0.4034  0.0764
  179SOPE   H5R20401   5.634   1.484   7.198  2.1067 -0.0020  1.3267
  179SOPE   H5S20402   5.583   1.368   7.070 -0.3572  1.5207 -1.5728
  179SOPE   C2620403   5.699   1.288   7.239  0.1683  0.2034 -0.1306
  179SOPE   H6R20404   5.619   1.263   7.312  0.0596  1.6939  0.3022
  179SOPE   H6S20405   5.729   1.194   7.189 -1.8897 -0.2106 -0.6597
  179SOPE   C2720406   5.834   1.323   7.305  0.8028 -0.2755  0.6154
  179SOPE   H7R20407   5.913   1.323   7.227  0.5383 -0.6536  0.3402
  179SOPE   H7S20408   5.835   1.429   7.338  1.6409 -0.4042  1.0187
  179SOPE   C2820409   5.873   1.224   7.411  0.5534 -0.0462  0.0123
  179SOPE   H8R20410   5.897   1.130   7.356  0.2739 -0.7005  0.9795
  179SOPE   H8S20411   5.964   1.241   7.472  2.6974 -1.9128 -2.4529
  179SOPE   C2920412   5.761   1.201   7.508  0.6692  0.3682 -0.1072
  179SOPE   H9120413   5.670   1.152   7.471 -0.1302  0.9185  1.0713
  179SOPE  C21020414   5.763   1.220   7.641  0.5559 -0.1158  0.5574
  179SOPE  H10120415   5.671   1.196   7.697  2.2561  1.1755  4.2201
  179SOPE  C21120416   5.875   1.284   7.720  0.4845  0.2911  0.5454
  179SOPE  H11R20417   5.832   1.381   7.753  2.5717  0.4423  3.2011
  179SOPE  H11S20418   5.963   1.310   7.656 -0.7089 -0.3574 -1.4461
  179SOPE  C21220419   5.900   1.196   7.842  0.2493 -0.4704  0.8627
  179SOPE  H12R20420   5.916   1.092   7.806  0.8635  0.7349 -2.7106
  179SOPE  H12S20421   5.819   1.195   7.918  0.5028  1.9460  1.2489
  179SOPE  C21320422   6.029   1.237   7.918 -0.2789 -0.0328  0.3908
  179SOPE  H13R20423   6.021   1.221   8.028  1.7036  0.3249  0.6336
  179SOPE  H13S20424   6.030   1.348   7.920  0.7656  0.1120 -2.8410
  179SOPE  C21420425   6.158   1.170   7.858 -0.1058  0.2205  0.0374
  179SOPE  H14R20426   6.166   1.193   7.750  2.0489  0.0875  0.1226
  179SOPE  H14S20427   6.140   1.060   7.856 -0.3027  0.2452 -2.2354
  179SOPE  C21520428   6.287   1.203   7.936  0.2584 -0.3157  0.2387
  179SOPE  H15R20429   6.307   1.311   7.956 -0.3150  0.1501 -1.5062
  179SOPE  H15S20430   6.374   1.168   7.878  0.4116 -0.8333  0.7751
  179SOPE  C21620431   6.305   1.137   8.068  0.0154  0.2326  0.1130
  179SOPE  H16R20432   6.288   1.028   8.052  2.4092 -0.2746  0.5652
  179SOPE  H16S20433   6.228   1.166   8.142 -0.2445 -1.9391  0.7804
  179SOPE  C21720434   6.448   1.154   8.116  0.2380 -0.6483 -0.3715
  179SOPE  H17R20435   6.456   1.256   8.158 -2.1017  0.6400 -2.7432
  179SOPE  H17S20436   6.521   1.158   8.033  0.0871  1.3387 -0.4526
  179SOPE  C21820437   6.496   1.045   8.210  0.3761  0.3043 -0.3061
  179SOPE  H18R20438   6.520   0.950   8.159 -1.6506 -0.2302 -0.3438
  179SOPE  H18S20439   6.416   1.039   8.286  0.6636 -3.7979 -0.0948
  179SOPE  H18T20440   6.581   1.082   8.271  0.3781  1.4378 -0.9602
  179SOPE   C3320441   5.646   2.009   6.993 -0.2192  0.8763 -0.7532
  179SOPE   H3X20442   5.748   1.993   6.952 -0.3008 -0.5552 -0.4293
  179SOPE   H3Y20443   5.599   1.911   7.017 -2.0459  2.1103  1.0264
  179SOPE   C3420444   5.664   2.063   7.133 -0.2476 -0.5082 -0.3717
  179SOPE   H4X20445   5.676   2.173   7.133 -0.2714 -0.4940  0.7037
  179SOPE   H4Y20446   5.768   2.039   7.166 -0.2083  0.9643  0.6636
  179SOPE   C3520447   5.564   2.012   7.238 -0.0306  0.7217  0.2688
  179SOPE   H5X20448   5.467   1.998   7.185  2.0098 -1.2972 -3.3911
  179SOPE   H5Y20449   5.568   2.081   7.325  1.6691  2.2983 -0.9744
  179SOPE   C3620450   5.613   1.870   7.288  0.1142 -0.2051  0.4091
  179SOPE   H6X20451   5.705   1.885   7.348  1.0864 -2.3161 -0.4148
  179SOPE   H6Y20452   5.641   1.796   7.209 -0.2297  0.8209 -0.6953
  179SOPE   C3720453   5.506   1.812   7.388 -0.0571  0.0923  0.6796
  179SOPE   H7X20454   5.422   1.769   7.329  0.4486 -0.2248  0.1745
  179SOPE   H7Y20455   5.461   1.903   7.432  1.0041 -0.2325  2.5422
  179SOPE   C3820456   5.562   1.722   7.496 -0.0341  0.3735 -1.5294
  179SOPE   H8X20457   5.641   1.780   7.549 -0.1082 -0.6129 -0.2816
  179SOPE   H8Y20458   5.608   1.638   7.440 -1.0049  0.2125 -2.0981
  179SOPE   C3920459   5.468   1.666   7.599  0.8435  0.4697  0.6445
  179SOPE   H9X20460   5.381   1.618   7.549  1.8187  0.2646 -0.9414
  179SOPE   H9Y20461   5.414   1.732   7.670 -1.1767 -2.1781  1.7569
  179SOPE  C31020462   5.540   1.563   7.700  0.0093 -0.3200  0.0290
  179SOPE  H10X20463   5.645   1.559   7.664  1.0121 -0.9552  2.7589
  179SOPE  H10Y20464   5.504   1.461   7.675 -1.6479 -0.0451  1.1417
  179SOPE  C31120465   5.521   1.599   7.851  0.0792 -0.1816 -0.1545
  179SOPE  H11X20466   5.413   1.628   7.856 -0.0653 -0.9003  1.4618
  179SOPE  H11Y20467   5.573   1.690   7.887 -0.8748  0.3556 -0.0942
  179SOPE  C31220468   5.553   1.484   7.950 -0.1956 -0.4421  0.5335
  179SOPE  H12X20469   5.663   1.467   7.944 -0.4212 -1.6538 -0.8714
  179SOPE  H12Y20470   5.501   1.394   7.911 -0.8039  0.9244 -2.0026
  179SOPE  C31320471   5.500   1.511   8.094 -0.2758 -0.2426 -0.2325
  179SOPE  H13X20472   5.538   1.604   8.142  0.0304 -1.3414  1.7180
  179SOPE  H13Y20473   5.549   1.431   8.153  1.4288  1.3105  0.5417
  179SOPE  C31420474   5.351   1.476   8.117 -0.1142 -0.4693  0.2413
  179SOPE  H14X20475   5.312   1.452   8.016 -1.2961  1.5073  0.1823
  179SOPE  H14Y20476   5.298   1.568   8.149 -0.3532 -0.1375 -1.0629
  179SOPE  C31520477   5.316   1.360   8.213  0.3330 -0.0175 -0.1572
  179SOPE  H15X20478   5.352   1.379   8.316  0.5980 -0.3365 -0.1900
  179SOPE  H15Y20479   5.375   1.268   8.194  1.5534  0.2458  2.1147
  179SOPE  C31620480   5.164   1.335   8.210 -0.3200 -0.1423 -0.1787
  179SOPE  H16X20481   5.132   1.279   8.120 -1.6375 -1.9409  1.3051
  179SOPE  H16Y20482   5.111   1.433   8.207 -0.1677  0.0066  1.0856
  179SOPE  C31720483   5.114   1.259   8.337  0.2717 -0.0275  1.2893
  179SOPE  H17X20484   5.141   1.307   8.434  0.7053  1.4391  0.4856
  179SOPE  H17Y20485   5.176   1.168   8.347 -0.5671 -0.7102  0.4451
  179SOPE  C31820486   4.967   1.222   8.335  0.1917 -0.5044  0.1792
  179SOPE  H18X20487   4.942   1.147   8.257 -0.6924 -1.1055  1.0163
  179SOPE  H18Y20488   4.909   1.312   8.307 -0.5745 -1.5099 -1.5835
  179SOPE  H18Z20489   4.928   1.176   8.428  0.5411 -1.6827 -0.2463
  180SOPE     N20490   4.554   1.412   6.593  0.4075  0.0028  0.0029
  180SOPE   HN120491   4.460   1.457   6.598 -0.0212 -0.6917 -1.3817
  180SOPE   HN220492   4.621   1.491   6.577 -1.8352  2.6156  2.2953
  180SOPE   HN320493   4.546   1.341   6.518  1.4247  1.6134 -1.7411
  180SOPE   C1220494   4.591   1.341   6.716  0.2989  0.2524 -0.5658
  180SOPE  H12A20495   4.598   1.413   6.801 -0.2404 -1.2528  0.8006
  180SOPE  H12B20496   4.688   1.289   6.705  1.1328  1.1409  1.9883
  180SOPE   C1120497   4.473   1.254   6.764  1.8011 -0.0936 -0.8791
  180SOPE  H11A20498   4.405   1.322   6.820  0.6996 -1.3239 -0.6704
  180SOPE  H11B20499   4.503   1.201   6.858 -1.0477  1.3575  0.9917
  180SOPE     P20500   4.418   1.024   6.664  0.1054  0.4361 -0.0647
  180SOPE   O1320501   4.556   0.992   6.622  0.2073  0.1923 -0.4209
  180SOPE   O1420502   4.311   0.980   6.575 -0.0304 -0.3250 -0.0293
  180SOPE   O1220503   4.406   1.181   6.670 -0.3300 -0.0078  0.4243
  180SOPE   O1120504   4.401   0.979   6.817  0.2951 -0.4838 -0.5672
  180SOPE    C120505   4.282   0.997   6.882  0.1362 -0.5608  0.6039
  180SOPE    HA20506   4.233   0.898   6.894  0.9860 -1.2688 -1.3854
  180SOPE    HB20507   4.208   1.052   6.819  2.5850  1.0725 -1.0213
  180SOPE    C220508   4.294   1.062   7.021 -0.1650 -0.3155  0.0330
  180SOPE    HS20509   4.314   1.169   7.002 -0.5380 -0.2249  0.1356
  180SOPE   O2120510   4.403   1.001   7.096 -0.0420  0.4557 -0.2333
  180SOPE   C2120511   4.465   1.071   7.185 -0.3523  0.2683  0.4273
  180SOPE   O2220512   4.445   1.189   7.206 -0.4401  0.0507  0.3357
  180SOPE   C2220513   4.566   0.984   7.268  0.4373 -0.5906  0.2883
  180SOPE   H2R20514   4.629   0.919   7.203 -0.0020 -0.1139 -0.6328
  180SOPE   H2S20515   4.504   0.914   7.327 -0.8161  0.0533 -0.2272
  180SOPE    C320516   4.156   1.043   7.099  0.6037 -0.5408 -0.6568
  180SOPE    HX20517   4.078   1.105   7.050 -0.1317 -0.9594 -0.0262
  180SOPE    HY20518   4.172   1.078   7.203  0.3712 -1.3273 -0.3523
  180SOPE   O3120519   4.119   0.909   7.094 -0.0004 -0.0827  0.2669
  180SOPE   C3120520   4.025   0.867   7.185  0.4773 -0.2184  0.8269
  180SOPE   O3220521   3.932   0.940   7.219  0.2910 -0.9015 -0.1966
  180SOPE   C3220522   4.035   0.721   7.224 -0.5051  0.4931 -0.0396
  180SOPE   H2X20523   4.129   0.688   7.176  0.0781 -1.4888  2.2868
  180SOPE   H2Y20524   3.959   0.654   7.178  0.0732  0.1422 -0.5045
  180SOPE   C2320525   4.661   1.076   7.352 -0.2467  0.0522  0.0102
  180SOPE   H3R20526   4.603   1.141   7.421 -2.8512 -1.9815 -0.1237
  180SOPE   H3S20527   4.713   1.152   7.289  1.8374 -1.0242  0.3305
  180SOPE   C2420528   4.746   0.987   7.431  0.3361 -0.4625  0.7371
  180SOPE   H4R20529   4.689   0.915   7.493 -1.4615 -2.4515 -2.9619
  180SOPE   H4S20530   4.811   0.926   7.365  1.5320 -0.0677  1.4993
  180SOPE   C2520531   4.842   1.068   7.522 -0.2733  0.6624  0.5845
  180SOPE   H5R20532   4.909   1.126   7.456 -0.2180  0.3302  0.3418
  180SOPE   H5S20533   4.776   1.129   7.587 -0.7522 -0.3537  1.0755
  180SOPE   C2620534   4.919   0.973   7.611  0.3930  0.7861 -0.3200
  180SOPE   H6R20535   4.855   0.904   7.670  1.2994  1.5098  1.5737
  180SOPE   H6S20536   4.987   0.904   7.555  0.2630 -0.5398  1.0760
  180SOPE   C2720537   5.003   1.059   7.710  0.7617  0.1966 -0.2584
  180SOPE   H7R20538   5.077   1.118   7.652  1.1904  0.2553  0.3403
  180SOPE   H7S20539   4.939   1.139   7.751  0.4398 -0.1765 -0.0223
  180SOPE   C2820540   5.056   0.967   7.829  0.4338 -0.1322  0.3710
  180SOPE   H8R20541   4.962   0.945   7.884 -0.9906 -0.3921 -2.0496
  180SOPE   H8S20542   5.097   0.872   7.789 -0.1391 -0.0533 -0.4129
  180SOPE   C2920543   5.149   1.043   7.921 -0.3971  0.1072 -0.0261
  180SOPE   H9120544   5.178   1.138   7.873 -1.0882  0.4736  0.2685
  180SOPE  C21020545   5.197   1.003   8.035 -0.6030 -0.7731 -0.6864
  180SOPE  H10120546   5.241   1.072   8.109 -2.1904  0.2612 -0.6608
  180SOPE  C21120547   5.166   0.866   8.076  0.3832  0.3221  0.8696
  180SOPE  H11R20548   5.065   0.827   8.051  1.2123 -0.3537 -1.6215
  180SOPE  H11S20549   5.177   0.857   8.187  0.7500  0.4535  0.8443
  180SOPE  C21220550   5.275   0.789   8.016 -0.4880  0.4527 -0.3861
  180SOPE  H12R20551   5.376   0.819   8.052 -1.1644  2.8022 -0.3033
  180SOPE  H12S20552   5.280   0.793   7.905  0.5148  2.7813 -0.3008
  180SOPE  C21320553   5.269   0.643   8.064  0.2079  0.1339  0.3863
  180SOPE  H13R20554   5.299   0.648   8.171  0.5543 -1.1697  0.3610
  180SOPE  H13S20555   5.341   0.573   8.018  0.0221  1.5034 -2.1962
  180SOPE  C21420556   5.130   0.573   8.038 -0.2838 -0.2107 -0.6386
  180SOPE  H14R20557   5.095   0.598   7.936 -2.3024  0.1732  0.1141
  180SOPE  H14S20558   5.060   0.613   8.114  2.1129 -0.3181  1.8299
  180SOPE  C21520559   5.137   0.416   8.047  0.3717 -0.3519  0.5465
  180SOPE  H15R20560   5.193   0.376   8.135  1.1576 -1.8701 -0.5958
  180SOPE  H15S20561   5.209   0.386   7.968 -1.1196  0.4840 -1.1813
  180SOPE  C21620562   5.008   0.341   8.013 -0.3563 -0.3157 -0.3545
  180SOPE  H16R20563   4.949   0.415   7.954  0.7054  0.5982 -0.3051
  180SOPE  H16S20564   4.952   0.343   8.109 -1.4830 -0.9329 -0.9900
  180SOPE  C21720565   5.021   0.210   7.932 -0.1420 -0.0250  0.0991
  180SOPE  H17R20566   5.078   0.142   7.999 -1.8179  2.4250  4.4142
  180SOPE  H17S20567   5.078   0.237   7.841 -0.7274 -0.6709 -0.4769
  180SOPE  C21820568   4.888   0.147   7.897  0.6850 -0.3497  0.6924
  180SOPE  H18R20569   4.836   0.125   7.993  1.8032 -0.6905  1.2405
  180SOPE  H18S20570   4.897   0.054   7.838 -1.0082 -0.1022 -0.0260
  180SOPE  H18T20571   4.824   0.219   7.841  0.3486 -1.5425 -0.5132
  180SOPE   C3320572   4.039   0.689   7.374  0.0252 -0.1156 -0.0778
  180SOPE   H3X20573   3.943   0.715   7.424 -0.1874  2.6930 -1.7410
  180SOPE   H3Y20574   4.126   0.743   7.416  0.0238 -0.2258  0.0718
  180SOPE   C3420575   4.062   0.542   7.407 -0.1430  0.2630  0.5239
  180SOPE   H4X20576   4.161   0.520   7.364  0.3013  1.4778  0.8913
  180SOPE   H4Y20577   3.992   0.478   7.348 -0.6582  0.2431  1.1448
  180SOPE   C3520578   4.051   0.505   7.558 -0.1535  0.3646 -0.2877
  180SOPE   H5X20579   4.074   0.399   7.584  1.4973  0.8458  0.3743
  180SOPE   H5Y20580   3.946   0.525   7.587 -0.2650 -0.5843 -0.0135
  180SOPE   C3620581   4.140   0.585   7.648 -0.4550  0.1346  0.4396
  180SOPE   H6X20582   4.127   0.695   7.642 -0.5480  0.0550 -1.5720
  180SOPE   H6Y20583   4.248   0.581   7.623 -0.0535  0.3023  2.0510
  180SOPE   C3720584   4.128   0.544   7.797  0.9021 -0.2046  0.2041
  180SOPE   H7X20585   4.158   0.437   7.799 -2.6135 -1.3972 -1.5898
  180SOPE   H7Y20586   4.020   0.549   7.826  0.3277  3.2687 -1.9849
  180SOPE   C3820587   4.202   0.637   7.902  0.4802  0.6249  0.7550
  180SOPE   H8X20588   4.201   0.745   7.877 -0.3231  0.4150 -0.1682
  180SOPE   H8Y20589   4.304   0.593   7.894 -0.6748 -2.0122 -0.6023
  180SOPE   C3920590   4.146   0.606   8.042 -0.6151  0.2791  0.7179
  180SOPE   H9X20591   4.156   0.496   8.055 -1.3432  0.1950  0.6016
  180SOPE   H9Y20592   4.039   0.632   8.053 -0.6092  0.7323 -0.2215
  180SOPE  C31020593   4.225   0.677   8.147 -0.5551  0.7699 -0.3872
  180SOPE  H10X20594   4.176   0.777   8.152 -1.5109  0.3273 -0.6263
  180SOPE  H10Y20595   4.335   0.673   8.137 -0.5051 -1.3696  0.4483
  180SOPE  C31120596   4.188   0.633   8.288 -0.4212 -0.0238  0.4173
  180SOPE  H11X20597   4.217   0.528   8.310  2.0141  0.1798 -1.4247
  180SOPE  H11Y20598   4.079   0.656   8.296 -0.5679 -0.7047  0.4305
  180SOPE  C31220599   4.247   0.723   8.393 -0.1471 -0.4298 -0.5731
  180SOPE  H12X20600   4.190   0.715   8.488  2.5393 -0.3849  1.1164
  180SOPE  H12Y20601   4.243   0.831   8.368  1.2043 -0.0146  0.8668
  180SOPE  C31320602   4.395   0.699   8.441 -0.8655 -0.2481  0.3095
  180SOPE  H13X20603   4.461   0.686   8.352 -0.7384 -0.5521  0.4443
  180SOPE  H13Y20604   4.398   0.600   8.492  0.9562 -0.2031  0.3367
  180SOPE  C31420605   4.460   0.805   8.533  0.2760  0.3664 -0.3211
  180SOPE  H14X20606   4.542   0.744   8.575 -0.7578 -1.3102 -0.6271
  180SOPE  H14Y20607   4.396   0.828   8.621 -2.2813 -0.0469 -1.9526
  180SOPE  C31520608   4.518   0.930   8.463  0.2971 -0.2637  0.0809
  180SOPE  H15X20609   4.437   0.960   8.393 -0.4526 -1.9448  0.1916
  180SOPE  H15Y20610   4.607   0.892   8.408  2.3103  1.1246  2.1912
  180SOPE  C31620611   4.563   1.049   8.556  0.6371 -0.2722  0.0046
  180SOPE  H16X20612   4.648   1.014   8.619  1.5465  0.5961 -0.7017
  180SOPE  H16Y20613   4.477   1.081   8.618  0.8707 -0.9508  0.6938
  180SOPE  C31720614   4.618   1.177   8.487 -0.4429 -0.3421 -0.2651
  180SOPE  H17X20615   4.538   1.220   8.424  0.3304 -0.2031 -1.1700
  180SOPE  H17Y20616   4.694   1.143   8.414 -0.4878 -0.7721 -0.1112
  180SOPE  C31820617   4.663   1.291   8.587  0.2912 -0.0752 -0.1327
  180SOPE  H18X20618   4.770   1.316   8.572  0.8954 -1.1322  1.9041
  180SOPE  H18Y20619   4.637   1.250   8.687 -1.2834 -1.6010 -1.1042
  180SOPE  H18Z20620   4.602   1.381   8.566 -0.8272 -0.1290  2.5129
  181SOPE     N20621   3.113   5.335   5.962 -0.2866 -0.1697 -0.5073
  181SOPE   HN120622   3.147   5.431   5.939 -2.7583  1.0141  0.3641
  181SOPE   HN220623   3.009   5.325   5.963 -0.1249 -2.6816  2.1526
  181SOPE   HN320624   3.141   5.310   6.059 -2.3525  0.1617  0.2246
  181SOPE   C1220625   3.166   5.235   5.859 -0.3357  0.4432  0.1663
  181SOPE  H12A20626   3.113   5.244   5.762  0.9438 -0.4755 -0.6475
  181SOPE  H12B20627   3.151   5.135   5.905 -2.1698  1.6999  2.5094
  181SOPE   C1120628   3.314   5.270   5.828  0.7021  0.1918 -0.0988
  181SOPE  H11A20629   3.321   5.372   5.784 -0.8939  0.5677  0.4542
  181SOPE  H11B20630   3.344   5.201   5.747  0.2641 -0.5652  0.3766
  181SOPE     P20631   3.538   5.187   5.930 -0.1569  0.2627  0.0025
  181SOPE   O1320632   3.593   5.212   5.792  0.4823  0.1367 -0.6134
  181SOPE   O1420633   3.533   5.048   5.972  0.3103  0.5233  0.4743
  181SOPE   O1220634   3.395   5.260   5.946  0.4286  0.1403 -0.2712
  181SOPE   O1120635   3.631   5.263   6.028 -0.0236 -0.1220  0.4136
  181SOPE    C120636   3.638   5.409   6.022 -0.1084  0.2548 -0.1206
  181SOPE    HA20637   3.561   5.458   5.958 -0.9041  2.0618  2.1105
  181SOPE    HB20638   3.743   5.428   5.991  0.2949 -3.3249 -1.4535
  181SOPE    C220639   3.611   5.476   6.151 -0.8054  0.2574  0.0432
  181SOPE    HS20640   3.604   5.586   6.138 -1.7967  0.0159 -1.9271
  181SOPE   O2120641   3.721   5.442   6.241 -0.0080 -0.0498  0.0519
  181SOPE   C2120642   3.800   5.531   6.299  0.0354 -0.0345 -0.6317
  181SOPE   O2220643   3.769   5.652   6.298 -0.0701  0.3125  0.0734
  181SOPE   C2220644   3.911   5.465   6.378 -0.3024 -0.3356  0.0193
  181SOPE   H2R20645   3.982   5.410   6.313  2.0254  1.6316  0.7565
  181SOPE   H2S20646   3.857   5.379   6.425 -3.9159  0.1564 -2.7393
  181SOPE    C320647   3.480   5.424   6.215  0.3115 -0.1930  0.4577
  181SOPE    HX20648   3.488   5.313   6.224 -2.0635 -0.3553  1.3505
  181SOPE    HY20649   3.396   5.450   6.148  0.0692 -0.2266  0.7431
  181SOPE   O3120650   3.451   5.484   6.340 -0.0305 -0.2074 -0.1133
  181SOPE   C3120651   3.393   5.410   6.436 -0.2861 -0.0674 -0.2874
  181SOPE   O3220652   3.359   5.293   6.428  0.3099  0.2294 -0.0284
  181SOPE   C3220653   3.369   5.495   6.565  0.0789  0.8037  0.1749
  181SOPE   H2X20654   3.297   5.575   6.539 -1.7578 -0.7180  0.3834
  181SOPE   H2Y20655   3.461   5.546   6.600  0.4544 -0.3522  0.9479
  181SOPE   C2320656   3.982   5.547   6.479 -0.4406  0.3436  0.1020
  181SOPE   H3R20657   4.027   5.630   6.421  0.9737 -1.2323 -1.1444
  181SOPE   H3S20658   4.065   5.493   6.529  0.4133  0.8948 -0.6926
  181SOPE   C2420659   3.897   5.611   6.589  0.0801  1.5787 -0.5186
  181SOPE   H4R20660   3.932   5.711   6.620  3.0385  0.4440  0.1782
  181SOPE   H4S20661   3.795   5.634   6.553 -0.5255  2.1730  1.4991
  181SOPE   C2520662   3.868   5.514   6.702  0.8913 -0.0803 -0.1102
  181SOPE   H5R20663   3.844   5.415   6.659  0.6860  0.5392 -1.5030
  181SOPE   H5S20664   3.962   5.484   6.753  1.4064 -1.0244 -1.5538
  181SOPE   C2620665   3.781   5.566   6.813  0.1840 -0.7671  0.2250
  181SOPE   H6R20666   3.831   5.651   6.865  0.6591  0.2377 -1.7496
  181SOPE   H6S20667   3.697   5.613   6.757 -0.5809  0.2411  2.1203
  181SOPE   C2720668   3.733   5.454   6.905  0.7702 -0.0687  0.0398
  181SOPE   H7R20669   3.669   5.401   6.831  1.8382  0.1295 -1.0381
  181SOPE   H7S20670   3.813   5.387   6.941  1.2788 -2.2723 -4.5430
  181SOPE   C2820671   3.648   5.505   7.025 -0.5368  0.2063  1.3338
  181SOPE   H8R20672   3.716   5.575   7.077  0.2873  0.3322  0.1307
  181SOPE   H8S20673   3.565   5.571   6.994  1.2523  2.2890  0.7894
  181SOPE   C2920674   3.588   5.393   7.100 -0.7687 -0.3109 -0.6399
  181SOPE   H9120675   3.521   5.330   7.041 -0.5260  0.5147 -1.8198
  181SOPE  C21020676   3.588   5.374   7.232 -0.7232 -0.8977 -0.2576
  181SOPE  H10120677   3.543   5.283   7.273 -0.2525 -0.5465  1.1024
  181SOPE  C21120678   3.644   5.477   7.336 -0.1761 -0.0573  0.1357
  181SOPE  H11R20679   3.714   5.553   7.295  2.5521 -2.0889  0.7872
  181SOPE  H11S20680   3.702   5.422   7.413 -0.1047 -0.0274  0.1027
  181SOPE  C21220681   3.530   5.548   7.405 -0.0741  0.0326 -0.3059
  181SOPE  H12R20682   3.445   5.480   7.431  1.4340 -1.1981  1.7566
  181SOPE  H12S20683   3.491   5.621   7.331 -1.3681 -2.9619 -2.7856
  181SOPE  C21320684   3.561   5.616   7.536  0.2569  0.0241 -0.3088
  181SOPE  H13R20685   3.626   5.705   7.525 -0.9252  0.8901 -0.4521
  181SOPE  H13S20686   3.627   5.546   7.593  0.5619 -1.2550 -2.1313
  181SOPE  C21420687   3.436   5.676   7.615 -0.2732  0.5896  0.0936
  181SOPE  H14R20688   3.375   5.596   7.662  1.5666  0.0657  1.7619
  181SOPE  H14S20689   3.382   5.735   7.538 -0.2254  2.3720  1.3659
  181SOPE  C21520690   3.492   5.765   7.722  0.2257  0.2550  1.1138
  181SOPE  H15R20691   3.421   5.845   7.755 -0.0370  0.8533 -0.7833
  181SOPE  H15S20692   3.576   5.819   7.675 -0.5923  0.2697 -0.3895
  181SOPE  C21620693   3.543   5.677   7.840 -0.0219 -0.1788  0.3639
  181SOPE  H16R20694   3.647   5.647   7.814 -0.2414 -0.4713 -0.1848
  181SOPE  H16S20695   3.483   5.584   7.851 -1.3615  0.8280  2.1681
  181SOPE  C21720696   3.550   5.755   7.976 -0.1293 -0.0747  0.2970
  181SOPE  H17R20697   3.579   5.680   8.052 -0.6583 -0.0971  0.4836
  181SOPE  H17S20698   3.445   5.777   8.007 -0.7254 -2.2735 -0.0148
  181SOPE  C21820699   3.638   5.872   7.983 -0.6819 -0.8459  0.6329
  181SOPE  H18R20700   3.608   5.954   7.915  1.7838  0.2502  0.7863
  181SOPE  H18S20701   3.744   5.843   7.967 -1.5693 -3.2498 -1.7164
  181SOPE  H18T20702   3.641   5.906   8.089  1.4162 -0.5187  0.5103
  181SOPE   C3320703   3.309   5.424   6.692  0.0664 -0.1894  0.6705
  181SOPE   H3X20704   3.365   5.332   6.720  0.4478 -0.3174 -0.4491
  181SOPE   H3Y20705   3.211   5.380   6.662 -0.2006  1.6742 -1.4363
  181SOPE   C3420706   3.284   5.523   6.800 -0.6759  0.8897 -0.5234
  181SOPE   H4X20707   3.226   5.612   6.769 -1.5406  1.6868  2.9405
  181SOPE   H4Y20708   3.388   5.550   6.830 -1.0430  0.5997  1.1197
  181SOPE   C3520709   3.205   5.468   6.917 -0.1504 -0.1965  0.3823
  181SOPE   H5X20710   3.261   5.381   6.959 -0.1591 -0.2967  0.1884
  181SOPE   H5Y20711   3.102   5.438   6.888 -0.0911 -0.7810  0.7451
  181SOPE   C3620712   3.199   5.561   7.040  0.2387  0.9505 -0.0780
  181SOPE   H6X20713   3.156   5.652   6.993 -0.1384  1.6531  1.5510
  181SOPE   H6Y20714   3.301   5.581   7.078 -0.6581 -0.0683  3.1926
  181SOPE   C3720715   3.098   5.506   7.144  0.2730 -0.0598  0.3831
  181SOPE   H7X20716   3.132   5.405   7.174  0.5032 -0.1758 -0.2625
  181SOPE   H7Y20717   2.994   5.524   7.111  0.5104  1.8413  0.5115
  181SOPE   C3820718   3.100   5.594   7.271 -0.0778  0.2000 -0.5940
  181SOPE   H8X20719   3.081   5.701   7.247  0.2219  0.2394 -0.6598
  181SOPE   H8Y20720   3.199   5.578   7.318 -0.1473  1.4100 -0.0000
  181SOPE   C3920721   2.981   5.567   7.360 -0.1793  0.9696  0.1912
  181SOPE   H9X20722   2.962   5.458   7.360  1.0689  0.7181 -1.1696
  181SOPE   H9Y20723   2.897   5.608   7.300  0.3287  1.2215 -0.3675
  181SOPE  C31020724   2.973   5.644   7.489 -0.0461 -0.1747 -1.2730
  181SOPE  H10X20725   2.870   5.629   7.530  0.1541  1.3724 -0.1284
  181SOPE  H10Y20726   2.993   5.750   7.462 -1.1552  0.0389 -1.3191
  181SOPE  C31120727   3.065   5.585   7.602  0.2052 -0.1976  0.7133
  181SOPE  H11X20728   3.166   5.554   7.566  0.1183 -1.1933  1.2780
  181SOPE  H11Y20729   3.020   5.489   7.637 -1.4165 -0.6745 -2.3013
  181SOPE  C31220730   3.086   5.682   7.718 -0.0728 -0.5418 -0.2229
  181SOPE  H12X20731   2.995   5.745   7.730 -0.0648 -0.4904 -0.4243
  181SOPE  H12Y20732   3.167   5.750   7.684 -0.4338 -1.0334 -2.1894
  181SOPE  C31320733   3.126   5.611   7.851 -0.8668 -1.0644 -0.2212
  181SOPE  H13X20734   3.230   5.575   7.835 -1.1609 -2.0808  0.0870
  181SOPE  H13Y20735   3.063   5.520   7.866 -1.9837 -0.5417 -1.5083
  181SOPE  C31420736   3.151   5.707   7.973 -0.5060  0.0592 -0.4206
  181SOPE  H14X20737   3.059   5.759   8.006  0.2815  0.4987  1.1673
  181SOPE  H14Y20738   3.237   5.767   7.935 -0.2307  1.3044  1.9863
  181SOPE  C31520739   3.206   5.641   8.098 -0.7717 -0.5318  0.4924
  181SOPE  H15X20740   3.296   5.582   8.072 -0.9720 -0.0855 -1.3177
  181SOPE  H15Y20741   3.126   5.575   8.136 -0.2719 -0.5768  1.4967
  181SOPE  C31620742   3.228   5.751   8.198 -0.3125 -0.4514 -0.5480
  181SOPE  H16X20743   3.131   5.778   8.244 -0.4930  0.1709 -1.2705
  181SOPE  H16Y20744   3.270   5.845   8.156  0.1278  0.4008  1.6678
  181SOPE  C31720745   3.323   5.716   8.318 -0.5794 -0.3220  0.1102
  181SOPE  H17X20746   3.404   5.654   8.274 -2.5757 -1.9086 -1.4882
  181SOPE  H17Y20747   3.264   5.653   8.387  0.5906 -1.1578  0.3693
  181SOPE  C31820748   3.379   5.846   8.379  0.0407 -0.4214 -0.3879
  181SOPE  H18X20749   3.290   5.910   8.393  0.1108  0.3169 -2.7958
  181SOPE  H18Y20750   3.439   5.905   8.307 -0.5011  1.9617  1.0054
  181SOPE  H18Z20751   3.429   5.829   8.477 -2.0792 -2.2712  0.4492
  182SOPE     N20752   3.202   6.495   6.326 -0.9168 -0.2311  0.7352
  182SOPE   HN120753   3.199   6.423   6.401  1.8900 -0.2032  0.9683
  182SOPE   HN220754   3.263   6.572   6.362 -0.7712  1.2906 -2.3834
  182SOPE   HN320755   3.109   6.541   6.320  0.1350  2.0164  0.2968
  182SOPE   C1220756   3.253   6.429   6.203 -0.1546 -0.2646 -0.4148
  182SOPE  H12A20757   3.256   6.508   6.125  0.4614  0.7429  0.5922
  182SOPE  H12B20758   3.188   6.343   6.176  2.5758 -2.7035  0.3429
  182SOPE   C1120759   3.388   6.359   6.225  0.0541  0.0922  0.2878
  182SOPE  H11A20760   3.461   6.432   6.268  0.2036 -0.5633  1.1674
  182SOPE  H11B20761   3.427   6.332   6.124  1.2697  0.2147  0.7101
  182SOPE     P20762   3.372   6.101   6.266 -0.1288 -0.1682 -0.0387
  182SOPE   O1320763   3.506   6.041   6.251  0.2541  0.3292 -0.2227
  182SOPE   O1420764   3.283   6.074   6.154 -0.6755  0.2577  0.3602
  182SOPE   O1220765   3.380   6.250   6.314  0.1517  0.2136  1.0087
  182SOPE   O1120766   3.318   6.040   6.394  0.3244 -0.3406  0.5796
  182SOPE    C120767   3.272   6.108   6.513  0.5692  0.0225 -0.7136
  182SOPE    HA20768   3.188   6.175   6.484  3.6310  3.8893 -1.6148
  182SOPE    HB20769   3.348   6.177   6.556 -0.5580  0.4095  0.7375
  182SOPE    C220770   3.210   6.009   6.618  0.6026 -0.2114  0.5274
  182SOPE    HS20771   3.150   6.075   6.684 -0.0864  2.7336 -2.7399
  182SOPE   O2120772   3.323   5.953   6.695 -0.0758  0.2844  0.0347
  182SOPE   C2120773   3.284   5.909   6.814 -0.1106  0.1572 -0.1950
  182SOPE   O2220774   3.175   5.917   6.865  0.4990  1.0705  0.3356
  182SOPE   C2220775   3.400   5.844   6.876 -0.7146 -0.6155 -0.3798
  182SOPE   H2R20776   3.470   5.797   6.805  1.4458  2.4052 -0.4495
  182SOPE   H2S20777   3.355   5.765   6.940 -0.1521 -0.1503  0.6174
  182SOPE    C320778   3.115   5.912   6.545 -0.3654 -0.5067  0.2618
  182SOPE    HX20779   3.182   5.841   6.491 -2.9364 -2.4307 -0.6215
  182SOPE    HY20780   3.058   5.982   6.480  0.9225  1.2765  0.9954
  182SOPE   O3120781   3.033   5.852   6.643 -0.2384  0.2902 -0.0767
  182SOPE   C3120782   2.973   5.737   6.603  0.4279 -0.1367  0.2092
  182SOPE   O3220783   2.965   5.695   6.490 -0.0524  0.3206  0.6028
  182SOPE   C3220784   2.915   5.684   6.732 -0.2151  0.1180 -0.1429
  182SOPE   H2X20785   2.835   5.756   6.761  2.0995  2.2694  1.3816
  182SOPE   H2Y20786   2.989   5.698   6.814 -0.9958 -1.1358  0.8219
  182SOPE   C2320787   3.469   5.940   6.985  0.4719  0.1765 -0.1450
  182SOPE   H3R20788   3.525   6.026   6.942  2.0682 -0.5854  0.3697
  182SOPE   H3S20789   3.547   5.876   7.031 -0.1474  0.1779  0.9275
  182SOPE   C2420790   3.374   5.975   7.096  0.1192  0.1668  0.5160
  182SOPE   H4R20791   3.304   6.052   7.055  0.3887  1.7013  2.7282
  182SOPE   H4S20792   3.313   5.885   7.116  2.6679 -1.7778  0.0213
  182SOPE   C2520793   3.449   6.018   7.223  0.5930  0.3789 -0.4917
  182SOPE   H5R20794   3.524   5.940   7.249 -0.8042 -1.3524 -1.4732
  182SOPE   H5S20795   3.503   6.108   7.187  2.3457 -0.5464 -0.3169
  182SOPE   C2620796   3.356   6.025   7.351  0.1658 -0.3852 -0.2147
  182SOPE   H6R20797   3.276   6.095   7.320  0.9064 -0.4894 -2.5944
  182SOPE   H6S20798   3.316   5.924   7.371 -0.4661 -0.6113 -2.3340
  182SOPE   C2720799   3.438   6.080   7.471  0.6602 -0.1278  0.2250
  182SOPE   H7R20800   3.520   6.006   7.482 -0.9330 -2.1396 -0.6665
  182SOPE   H7S20801   3.482   6.179   7.446 -0.5608  0.3415 -0.1411
  182SOPE   C2820802   3.350   6.083   7.600 -0.0635 -0.0644 -0.4913
  182SOPE   H8R20803   3.265   6.154   7.585 -2.3589 -2.3405  1.0588
  182SOPE   H8S20804   3.302   5.986   7.623 -1.0541  0.5722  0.2221
  182SOPE   C2920805   3.439   6.115   7.718  0.2302  0.0912  0.0388
  182SOPE   H9120806   3.546   6.106   7.695  0.1027 -2.5502  0.1298
  182SOPE  C21020807   3.401   6.155   7.837 -0.6872  0.0144  0.0785
  182SOPE  H10120808   3.482   6.168   7.909 -0.8460  1.7505  0.0001
  182SOPE  C21120809   3.260   6.166   7.893 -0.3953  0.9303 -0.4160
  182SOPE  H11R20810   3.199   6.086   7.846 -1.9075  1.3823  0.7213
  182SOPE  H11S20811   3.222   6.270   7.892  3.3120  2.5350  2.1846
  182SOPE  C21220812   3.263   6.111   8.039 -0.2959 -0.5064 -0.4965
  182SOPE  H12R20813   3.314   6.013   8.049 -0.8407 -0.6448  1.3151
  182SOPE  H12S20814   3.159   6.086   8.068 -0.4629  3.1035  2.9291
  182SOPE  C21320815   3.320   6.189   8.154  0.2760 -0.0429  0.2600
  182SOPE  H13R20816   3.334   6.294   8.119 -0.7070  0.6439  1.7981
  182SOPE  H13S20817   3.417   6.150   8.190 -0.3234 -1.7927  0.0832
  182SOPE  C21420818   3.228   6.193   8.277 -0.2344 -0.3898 -0.3009
  182SOPE  H14R20819   3.181   6.095   8.298 -0.9808  0.5317  2.7804
  182SOPE  H14S20820   3.154   6.274   8.256 -0.4636 -1.2369 -3.1736
  182SOPE  C21520821   3.314   6.234   8.395  0.4985 -0.0926 -0.0861
  182SOPE  H15R20822   3.377   6.319   8.359  0.4586 -0.6529 -1.5657
  182SOPE  H15S20823   3.379   6.150   8.428 -0.6049 -0.7414  0.4895
  182SOPE  C21620824   3.209   6.265   8.510 -0.4114  0.5122  0.3674
  182SOPE  H16R20825   3.157   6.171   8.537  0.0546  0.2290  0.2946
  182SOPE  H16S20826   3.141   6.345   8.473 -0.5788  0.8117  1.2847
  182SOPE  C21720827   3.283   6.318   8.633  0.2248  0.5426 -0.1625
  182SOPE  H17R20828   3.322   6.419   8.612  1.8831  0.2836  1.4731
  182SOPE  H17S20829   3.369   6.251   8.654  1.2045  1.9158  0.3062
  182SOPE  C21820830   3.189   6.326   8.754  0.0166  0.4435 -0.6318
  182SOPE  H18R20831   3.258   6.357   8.836 -0.2192 -0.5384 -0.0473
  182SOPE  H18S20832   3.143   6.228   8.780  2.3635 -0.6215 -0.2004
  182SOPE  H18T20833   3.120   6.412   8.746 -0.0606  0.9403  3.4164
  182SOPE   C3320834   2.855   5.546   6.714  0.2335  0.5160  0.0490
  182SOPE   H3X20835   2.942   5.479   6.695 -0.1569  0.6944 -2.7221
  182SOPE   H3Y20836   2.795   5.559   6.622 -0.5474  0.9817  0.6105
  182SOPE   C3420837   2.771   5.504   6.837 -0.2158  0.1346  0.4471
  182SOPE   H4X20838   2.683   5.571   6.845  1.3240  2.0368  2.9684
  182SOPE   H4Y20839   2.843   5.525   6.919  1.1884  2.2867 -1.1967
  182SOPE   C3520840   2.724   5.357   6.829  0.1246  0.3425  0.1529
  182SOPE   H5X20841   2.813   5.299   6.796 -0.0604 -0.1489  0.5051
  182SOPE   H5Y20842   2.654   5.334   6.746  0.2891 -2.2222  0.6315
  182SOPE   C3620843   2.651   5.299   6.952 -0.4390  0.4522 -0.4080
  182SOPE   H6X20844   2.632   5.190   6.941 -1.7452  0.3823  1.9395
  182SOPE   H6Y20845   2.552   5.347   6.965 -0.6760 -0.2198  0.3792
  182SOPE   C3720846   2.724   5.319   7.084 -0.8948  0.2886 -0.8291
  182SOPE   H7X20847   2.714   5.425   7.117 -3.3282 -0.4352  1.0374
  182SOPE   H7Y20848   2.834   5.302   7.080 -1.0824 -2.8213  2.6310
  182SOPE   C3820849   2.664   5.223   7.190 -0.5031 -0.3486  0.0831
  182SOPE   H8X20850   2.666   5.118   7.153 -1.0108 -0.1865 -0.4440
  182SOPE   H8Y20851   2.560   5.228   7.231 -0.1310 -2.7690  1.5498
  182SOPE   C3920852   2.749   5.236   7.316  0.0237 -0.6049  0.3531
  182SOPE   H9X20853   2.747   5.339   7.360  1.8437 -0.0243 -0.8127
  182SOPE   H9Y20854   2.852   5.208   7.289 -0.7133 -2.5795 -0.5393
  182SOPE  C31020855   2.714   5.131   7.424  0.3778  0.1094 -0.1057
  182SOPE  H10X20856   2.733   5.025   7.395 -2.7476 -0.5637  0.0221
  182SOPE  H10Y20857   2.606   5.126   7.447  0.6725  0.2883  1.4349
  182SOPE  C31120858   2.763   5.146   7.571 -0.1149  0.7292  0.6402
  182SOPE  H11X20859   2.874   5.148   7.571  0.0704  2.6157 -4.0870
  182SOPE  H11Y20860   2.732   5.052   7.620 -1.8926  0.7327 -0.3784
  182SOPE  C31220861   2.718   5.279   7.644  0.1887  0.0664  0.6529
  182SOPE  H12X20862   2.614   5.295   7.607  0.3536  0.8300  0.4952
  182SOPE  H12Y20863   2.763   5.371   7.601 -2.2738  0.8787 -0.3796
  182SOPE  C31320864   2.734   5.281   7.790 -0.2229 -0.3323 -0.2359
  182SOPE  H13X20865   2.834   5.237   7.808  0.3148  0.6092 -0.8378
  182SOPE  H13Y20866   2.657   5.216   7.837  0.6047 -0.2828  1.2583
  182SOPE  C31420867   2.741   5.421   7.857 -0.2358 -0.2502  0.1049
  182SOPE  H14X20868   2.642   5.471   7.847 -0.5969 -1.0475 -0.4537
  182SOPE  H14Y20869   2.820   5.478   7.805 -0.5764 -0.4776 -0.6811
  182SOPE  C31520870   2.773   5.416   8.004 -0.7498  0.1709  0.2015
  182SOPE  H15X20871   2.873   5.368   8.014  1.2402  3.3415 -2.1765
  182SOPE  H15Y20872   2.685   5.367   8.051 -1.4004 -0.5446 -1.6924
  182SOPE  C31620873   2.804   5.550   8.076  0.4915 -0.2965 -0.0448
  182SOPE  H16X20874   2.731   5.621   8.032 -2.1095 -1.5971  1.9370
  182SOPE  H16Y20875   2.900   5.593   8.041 -1.3458  0.9597 -4.0927
  182SOPE  C31720876   2.783   5.540   8.221  0.1122 -0.3102 -0.0339
  182SOPE  H17X20877   2.845   5.471   8.282 -0.0894  0.6068  1.2340
  182SOPE  H17Y20878   2.676   5.513   8.231 -0.3483  1.8344  1.4703
  182SOPE  C31820879   2.796   5.675   8.298 -0.8248 -0.2882  1.4905
  182SOPE  H18X20880   2.733   5.741   8.235 -0.4668 -2.2864 -1.1772
  182SOPE  H18Y20881   2.902   5.707   8.291 -0.3532 -1.9450  0.2090
  182SOPE  H18Z20882   2.755   5.673   8.401 -0.1928  0.9736  1.7861
  183SOPE     N20883   6.740   1.653   6.202  0.1552 -0.0811  0.0117
  183SOPE   HN120884   6.686   1.614   6.282 -0.3724  1.5214  0.4779
  183SOPE   HN220885   6.713   1.592   6.122 -0.1227 -1.4397  1.1137
  183SOPE   HN320886   6.840   1.636   6.225  0.0147 -2.6863 -0.8996
  183SOPE   C1220887   6.718   1.804   6.181  0.3972 -0.0223 -0.0346
  183SOPE  H12A20888   6.725   1.825   6.072  1.3453  1.8199  0.3428
  183SOPE  H12B20889   6.809   1.847   6.228  1.4364 -1.6576 -0.4731
  183SOPE   C1120890   6.588   1.854   6.246  0.2124  0.3614  0.7326
  183SOPE  H11A20891   6.576   1.963   6.227 -2.4275  0.1182  0.6124
  183SOPE  H11B20892   6.592   1.850   6.357  2.9552 -0.2162  0.6777
  183SOPE     P20893   6.334   1.810   6.227 -0.2909  0.3447 -0.0586
  183SOPE   O1320894   6.247   1.745   6.127 -0.2576  0.4266  0.0228
  183SOPE   O1420895   6.321   1.955   6.241  0.1203  0.0289 -0.4719
  183SOPE   O1220896   6.483   1.777   6.189 -0.2088 -0.1633  0.3115
  183SOPE   O1120897   6.312   1.728   6.363  0.4687 -0.1107  0.5698
  183SOPE    C120898   6.250   1.793   6.476 -0.4126 -0.5898  0.1045
  183SOPE    HA20899   6.192   1.716   6.531 -0.1668 -2.1372 -1.7074
  183SOPE    HB20900   6.166   1.864   6.460 -1.0583 -1.4465 -0.3350
  183SOPE    C220901   6.357   1.867   6.570 -0.7344  0.8734  0.6569
  183SOPE    HS20902   6.417   1.938   6.508 -0.2911  1.9542  2.2701
  183SOPE   O2120903   6.434   1.771   6.631  0.0689 -0.4859 -0.1542
  183SOPE   C2120904   6.559   1.805   6.681 -0.1841 -0.5582  0.5364
  183SOPE   O2220905   6.599   1.922   6.676  0.1371  0.1039  0.6798
  183SOPE   C2220906   6.638   1.689   6.740  0.6394 -0.5809 -0.0771
  183SOPE   H2R20907   6.682   1.629   6.657  0.2998  0.8156 -1.3074
  183SOPE   H2S20908   6.566   1.625   6.796  0.3975 -2.0015 -1.8899
  183SOPE    C320909   6.292   1.958   6.680 -0.3025 -0.6525  0.2080
  183SOPE    HX20910   6.242   2.041   6.625  2.9851  0.0755 -1.9241
  183SOPE    HY20911   6.375   2.000   6.741  0.2227 -1.7984  0.2944
  183SOPE   O3120912   6.193   1.901   6.764  0.2439 -0.1354  0.1479
  183SOPE   C3120913   6.226   1.832   6.874  0.4329  0.2814 -0.3922
  183SOPE   O3220914   6.344   1.809   6.908  0.3762 -0.2505  0.3880
  183SOPE   C3220915   6.099   1.781   6.946  0.2141  0.5836 -1.1939
  183SOPE   H2X20916   6.086   1.681   6.899  0.2577  0.9201 -1.9460
  183SOPE   H2Y20917   6.009   1.840   6.918  0.7155  1.8903 -0.1255
  183SOPE   C2320918   6.738   1.737   6.847 -0.0699 -0.7517  0.2589
  183SOPE   H3R20919   6.802   1.822   6.813  0.8452 -1.6106 -0.2487
  183SOPE   H3S20920   6.816   1.657   6.847  1.0311  0.2636 -0.9900
  183SOPE   C2420921   6.678   1.751   6.990 -0.1242 -0.0131 -0.5168
  183SOPE   H4R20922   6.602   1.833   6.994  0.1168  0.1976 -0.2111
  183SOPE   H4S20923   6.618   1.660   7.012  0.1994 -0.1945 -0.3886
  183SOPE   C2520924   6.776   1.782   7.100 -0.4394 -0.0935  0.3307
  183SOPE   H5R20925   6.865   1.716   7.094  1.7209  2.7714 -2.4199
  183SOPE   H5S20926   6.824   1.881   7.084  1.2639 -0.9619 -0.1629
  183SOPE   C2620927   6.734   1.765   7.251 -0.6747  1.0748 -0.2817
  183SOPE   H6R20928   6.651   1.836   7.272 -0.1202  1.5308  0.4388
  183SOPE   H6S20929   6.703   1.658   7.251  0.8132  0.4795 -3.9887
  183SOPE   C2720930   6.841   1.781   7.356  0.5761 -0.5629  0.6464
  183SOPE   H7R20931   6.917   1.701   7.345 -1.2370 -2.2732 -0.1509
  183SOPE   H7S20932   6.879   1.885   7.345  1.0378 -0.9519 -1.9511
  183SOPE   C2820933   6.786   1.764   7.498 -0.2873 -0.0854  0.8138
  183SOPE   H8R20934   6.700   1.834   7.510 -0.2018  0.1238  0.2453
  183SOPE   H8S20935   6.733   1.668   7.513 -0.3476 -0.6864 -2.4600
  183SOPE   C2920936   6.890   1.784   7.605 -0.5830 -0.2283 -0.5313
  183SOPE   H9120937   6.973   1.713   7.591  0.0432  0.2503  0.6619
  183SOPE  C21020938   6.889   1.857   7.720 -0.3262 -0.3954  0.4164
  183SOPE  H10120939   6.974   1.845   7.788 -0.4390  1.0605  0.8425
  183SOPE  C21120940   6.778   1.943   7.760  0.0394 -0.0903 -0.4154
  183SOPE  H11R20941   6.693   1.880   7.795 -0.4387  0.2967 -0.8660
  183SOPE  H11S20942   6.745   2.000   7.670 -2.1589 -1.2887 -0.4528
  183SOPE  C21220943   6.806   2.039   7.877 -0.2497 -0.3630  0.0658
  183SOPE  H12R20944   6.724   2.111   7.895  1.3829  1.6431 -0.2108
  183SOPE  H12S20945   6.894   2.100   7.849 -1.4285  2.7100  2.3831
  183SOPE  C21320946   6.830   1.964   8.007 -0.6792 -0.1403 -0.4246
  183SOPE  H13R20947   6.912   1.889   7.999 -2.8163 -2.5613 -1.0869
  183SOPE  H13S20948   6.740   1.905   8.035 -0.0009 -1.3339 -0.7200
  183SOPE  C21420949   6.866   2.051   8.130  0.1871  0.1542 -0.5350
  183SOPE  H14R20950   6.811   2.148   8.121 -1.9047 -0.7676  1.3202
  183SOPE  H14S20951   6.976   2.058   8.120  0.2604 -1.5850 -1.1901
  183SOPE  C21520952   6.822   1.993   8.269  0.6251  0.2670 -0.1628
  183SOPE  H15R20953   6.895   1.910   8.282  2.9301  2.0385 -0.9584
  183SOPE  H15S20954   6.722   1.947   8.253 -0.6459  1.6194  2.9661
  183SOPE  C21620955   6.821   2.094   8.384 -0.3022 -0.4144 -0.1248
  183SOPE  H16R20956   6.773   2.185   8.343  0.3934 -0.4184 -0.9685
  183SOPE  H16S20957   6.924   2.125   8.409 -0.6156  1.5900 -1.1203
  183SOPE  C21720958   6.752   2.050   8.511 -0.5871  0.1187 -0.2683
  183SOPE  H17R20959   6.799   1.953   8.540  2.1057  1.7255  1.1416
  183SOPE  H17S20960   6.645   2.028   8.495 -0.4468  0.0331 -1.1332
  183SOPE  C21820961   6.769   2.149   8.622  0.5431 -0.1930  0.1186
  183SOPE  H18R20962   6.714   2.115   8.712 -1.0381  2.2648  0.1860
  183SOPE  H18S20963   6.747   2.254   8.591  2.3587 -0.1129 -1.0668
  183SOPE  H18T20964   6.877   2.161   8.645  0.0881  3.5753  0.9245
  183SOPE   C3320965   6.116   1.759   7.102  0.4089 -0.1329  0.1586
  183SOPE   H3X20966   6.226   1.751   7.116  0.4430 -0.1027 -0.0883
  183SOPE   H3Y20967   6.060   1.667   7.131 -1.5683  0.4160 -1.7057
  183SOPE   C3420968   6.057   1.882   7.177  0.6582 -0.0308 -0.1190
  183SOPE   H4X20969   5.948   1.881   7.154  0.5882  1.1406  0.0857
  183SOPE   H4Y20970   6.107   1.971   7.133  1.2852 -0.8450 -1.0932
  183SOPE   C3520971   6.088   1.876   7.326  0.5370 -0.0789 -0.3971
  183SOPE   H5X20972   6.049   1.967   7.377  1.1954  0.3734 -0.6840
  183SOPE   H5Y20973   6.198   1.884   7.339  0.5868  0.1791 -0.9585
  183SOPE   C3620974   6.031   1.758   7.411  0.3299  0.2370  1.0666
  183SOPE   H6X20975   6.081   1.665   7.377 -0.9973 -0.7773  1.7394
  183SOPE   H6Y20976   5.926   1.751   7.375  1.0239 -0.5582 -0.9487
  183SOPE   C3720977   6.039   1.778   7.559 -0.5826 -0.0210 -0.0260
  183SOPE   H7X20978   5.969   1.861   7.585 -0.8048  0.0650 -0.8799
  183SOPE   H7Y20979   6.142   1.813   7.583  0.0887 -1.4944 -0.6488
  183SOPE   C3820980   5.979   1.655   7.633 -0.2118 -0.2513  0.8444
  183SOPE   H8X20981   6.037   1.563   7.610 -0.0208  0.3700 -1.4060
  183SOPE   H8Y20982   5.881   1.641   7.582  1.5041  0.9848 -3.1794
  183SOPE   C3920983   5.944   1.680   7.779 -0.3553  0.6614  0.0837
  183SOPE   H9X20984   5.904   1.588   7.825  0.8526  1.2897  2.6215
  183SOPE   H9Y20985   5.864   1.753   7.806 -1.9943 -1.2266  0.5397
  183SOPE  C31020986   6.066   1.716   7.867 -0.1263  0.1710  0.2587
  183SOPE  H10X20987   6.099   1.822   7.858  0.5314 -0.1040 -0.7196
  183SOPE  H10Y20988   6.148   1.648   7.834  1.1284  1.4428  0.6408
  183SOPE  C31120989   6.050   1.699   8.017  0.1875  0.0567 -0.5777
  183SOPE  H11X20990   6.147   1.722   8.066 -0.8499  1.3581  0.9735
  183SOPE  H11Y20991   6.032   1.590   8.027 -2.3223  0.3176 -1.6130
  183SOPE  C31220992   5.942   1.786   8.088  0.3274 -0.4371 -0.2110
  183SOPE  H12X20993   5.839   1.751   8.063  0.0290  0.4402 -0.2513
  183SOPE  H12Y20994   5.957   1.888   8.048  1.5459  0.4683  2.3467
  183SOPE  C31320995   5.953   1.791   8.243 -0.0503 -0.5001 -0.0668
  183SOPE  H13X20996   6.047   1.837   8.280 -0.7822  1.2754 -0.2989
  183SOPE  H13Y20997   5.963   1.684   8.270 -0.3492 -1.3234 -2.8843
  183SOPE  C31420998   5.842   1.875   8.311  1.0533 -0.0082  0.4697
  183SOPE  H14X20999   5.844   1.983   8.286  0.0454  0.0307  0.5245
  183SOPE  H14Y21000   5.858   1.867   8.421  0.2000  3.5955  0.9894
  183SOPE  C31521001   5.692   1.843   8.276 -0.4230  0.1713  0.1024
  183SOPE  H15X21002   5.670   1.734   8.276 -0.5552  0.1563  1.9449
  183SOPE  H15Y21003   5.671   1.881   8.174  3.7350 -0.0255 -1.0110
  183SOPE  C31621004   5.595   1.898   8.381  0.1776  0.4377  0.5042
  183SOPE  H16X21005   5.625   1.994   8.427  1.0481 -0.3911  1.7101
  183SOPE  H16Y21006   5.584   1.833   8.470  0.1440  1.3781  1.1994
  183SOPE  C31721007   5.454   1.908   8.336 -0.4097  0.3441  0.5159
  183SOPE  H17X21008   5.432   1.806   8.298  0.7291  0.7611 -1.3981
  183SOPE  H17Y21009   5.447   1.978   8.250  0.1738  0.3897  0.4985
  183SOPE  C31821010   5.355   1.955   8.438 -0.1663 -0.3958 -0.1398
  183SOPE  H18X21011   5.365   1.904   8.536 -1.6897 -3.5482 -1.4889
  183SOPE  H18Y21012   5.251   1.942   8.399 -0.5814 -0.2094  0.8728
  183SOPE  H18Z21013   5.389   2.060   8.454 -0.4664 -0.5334  1.5233
  184SOPE     N21014   4.671   0.822   6.456  0.3271  0.0823  0.0194
  184SOPE   HN121015   4.638   0.873   6.541  0.0233 -0.3794  0.1879
  184SOPE   HN221016   4.749   0.758   6.479 -1.8265 -3.0878 -0.8408
  184SOPE   HN321017   4.700   0.892   6.385 -0.1769 -0.3486 -0.6144
  184SOPE   C1221018   4.555   0.747   6.397  0.2720  0.2048 -0.3943
  184SOPE  H12A21019   4.487   0.710   6.477  1.3359  1.0469  0.9648
  184SOPE  H12B21020   4.588   0.652   6.350 -2.4824 -0.7181 -0.6442
  184SOPE   C1121021   4.487   0.829   6.286  0.0784  0.0853 -0.3732
  184SOPE  H11A21022   4.442   0.919   6.334  0.0763  0.4149 -0.9749
  184SOPE  H11B21023   4.408   0.758   6.252 -1.8859  0.5272  2.8207
  184SOPE     P21024   4.642   1.003   6.166 -0.2903 -0.3914 -0.0900
  184SOPE   O1321025   4.543   1.110   6.170 -0.6032  0.5853  0.3115
  184SOPE   O1421026   4.724   0.992   6.044  0.1238 -0.7856  0.2064
  184SOPE   O1221027   4.575   0.861   6.183 -0.1000  0.4922  0.3718
  184SOPE   O1121028   4.733   1.019   6.302 -0.2079 -0.1260  0.0275
  184SOPE    C121029   4.876   1.030   6.306  0.4655 -0.2189  0.6652
  184SOPE    HA21030   4.914   1.092   6.223 -3.1958  2.2061  0.6068
  184SOPE    HB21031   4.934   0.936   6.291  0.3445 -0.2697  0.5133
  184SOPE    C221032   4.921   1.090   6.442  0.8236 -0.4910  0.4969
  184SOPE    HS21033   5.029   1.117   6.433  0.8696 -0.5212  0.9328
  184SOPE   O2121034   4.900   1.001   6.552 -0.2250 -0.4100  0.2051
  184SOPE   C2121035   5.002   0.918   6.572  0.4407 -0.5724  0.4305
  184SOPE   O2221036   5.110   0.921   6.513 -0.7362  0.0976 -0.0055
  184SOPE   C2221037   4.951   0.819   6.676  0.0714  0.2241  0.6733
  184SOPE   H2R21038   4.949   0.720   6.624  0.0120  1.9556 -2.9547
  184SOPE   H2S21039   4.848   0.846   6.707  1.4221  5.7384  1.3982
  184SOPE    C321040   4.834   1.218   6.477 -0.7448  0.5247  0.2576
  184SOPE    HX21041   4.733   1.187   6.510 -0.0307  1.2440  3.3780
  184SOPE    HY21042   4.823   1.283   6.387 -1.0799 -0.2968 -0.3024
  184SOPE   O3121043   4.893   1.288   6.593  0.6015 -0.5108  0.1946
  184SOPE   C3121044   4.994   1.363   6.569 -0.0214  0.5668  0.6759
  184SOPE   O3221045   5.052   1.371   6.460 -0.0573 -0.2282  0.3907
  184SOPE   C3221046   5.025   1.448   6.694  0.0741 -0.0092  0.7622
  184SOPE   H2X21047   5.001   1.387   6.784 -1.7254 -4.3450 -2.3114
  184SOPE   H2Y21048   4.956   1.536   6.693  1.9866  1.6071  2.3357
  184SOPE   C2321049   5.030   0.806   6.810  0.2441 -0.1193 -0.9971
  184SOPE   H3R21050   5.135   0.796   6.775 -0.4490  1.7154 -3.9964
  184SOPE   H3S21051   4.990   0.724   6.874  1.4970 -0.0513 -0.1004
  184SOPE   C2421052   5.027   0.944   6.879  0.6978 -0.4764  0.7286
  184SOPE   H4R21053   5.073   1.021   6.813 -1.7095 -1.3119 -2.1538
  184SOPE   H4S21054   4.927   0.991   6.888  2.0761  3.8537 -2.9829
  184SOPE   C2521055   5.086   0.946   7.016 -0.4575 -0.3538 -0.3189
  184SOPE   H5R21056   5.029   0.882   7.086  1.2576 -2.0988 -0.4287
  184SOPE   H5S21057   5.190   0.908   7.000 -0.5099  0.2765 -2.5369
  184SOPE   C2621058   5.110   1.086   7.076  0.0420  0.0863 -0.1552
  184SOPE   H6R21059   5.196   1.073   7.146 -0.4694  2.8824  1.1037
  184SOPE   H6S21060   5.134   1.175   7.014  0.8581  0.7248  1.0448
  184SOPE   C2721061   4.979   1.133   7.158 -0.6153  0.1949 -0.5544
  184SOPE   H7R21062   4.881   1.116   7.108 -1.0955  0.8238  0.1648
  184SOPE   H7S21063   4.979   1.066   7.247 -0.9538 -0.2404 -0.8725
  184SOPE   C2821064   4.984   1.281   7.211 -1.3417  0.3623 -0.2812
  184SOPE   H8R21065   4.908   1.288   7.292 -0.0825  0.8007  0.9116
  184SOPE   H8S21066   5.077   1.295   7.271 -2.1365 -1.0915  1.4204
  184SOPE   C2921067   4.968   1.378   7.095  0.0861  0.3945  0.4020
  184SOPE   H9121068   5.049   1.376   7.020 -0.3344  1.3021 -0.0860
  184SOPE  C21021069   4.863   1.459   7.070  0.2454 -0.6227 -0.8944
  184SOPE  H10121070   4.874   1.529   6.985 -0.3504  1.0332  0.3547
  184SOPE  C21121071   4.742   1.460   7.149  0.4715 -0.0020  0.1417
  184SOPE  H11R21072   4.771   1.473   7.256  1.6637  0.3947 -0.2124
  184SOPE  H11S21073   4.696   1.360   7.153 -0.3603  0.3907  2.8144
  184SOPE  C21221074   4.624   1.566   7.122  0.2394  0.1442  0.1251
  184SOPE  H12R21075   4.584   1.544   7.021  0.7130 -3.9236  0.6450
  184SOPE  H12S21076   4.666   1.669   7.131  1.9023 -0.5111  0.3530
  184SOPE  C21321077   4.499   1.563   7.210 -0.4113  0.3566  0.4738
  184SOPE  H13R21078   4.450   1.464   7.202  1.8891 -0.7130 -1.0780
  184SOPE  H13S21079   4.431   1.644   7.175  0.2052  0.0016 -1.6740
  184SOPE  C21421080   4.525   1.586   7.357  0.0680 -0.9447 -0.3104
  184SOPE  H14R21081   4.582   1.680   7.369 -1.1178  0.1281 -2.4709
  184SOPE  H14S21082   4.578   1.494   7.389 -1.3248 -1.0891  1.8563
  184SOPE  C21521083   4.401   1.599   7.442 -0.0763 -0.1265  0.0505
  184SOPE  H15R21084   4.323   1.525   7.412  0.4725 -0.8713  0.4332
  184SOPE  H15S21085   4.369   1.697   7.401 -1.6537  0.1464  1.7822
  184SOPE  C21621086   4.407   1.613   7.593  0.0238 -0.3648 -0.2284
  184SOPE  H16R21087   4.484   1.690   7.615  0.4326 -0.4747 -1.2386
  184SOPE  H16S21088   4.432   1.514   7.637 -2.7864 -0.8479  0.4717
  184SOPE  C21721089   4.269   1.645   7.650 -0.0415  0.2153 -0.6810
  184SOPE  H17R21090   4.189   1.581   7.608 -1.5326  1.4063  0.2717
  184SOPE  H17S21091   4.241   1.748   7.620 -2.6246 -0.0706  0.5075
  184SOPE  C21821092   4.266   1.641   7.803  0.3673  0.1636 -0.0292
  184SOPE  H18R21093   4.240   1.543   7.849 -1.1890 -0.5191 -2.2218
  184SOPE  H18S21094   4.182   1.700   7.848 -1.4452 -3.4114  1.7280
  184SOPE  H18T21095   4.362   1.670   7.851 -0.3653 -0.5033  1.9491
  184SOPE   C3321096   5.171   1.496   6.707 -0.4157  0.7943 -0.2569
  184SOPE   H3X21097   5.190   1.545   6.805 -0.4963  0.3505 -0.0180
  184SOPE   H3Y21098   5.187   1.569   6.624 -0.0524 -0.6213 -1.4810
  184SOPE   C3421099   5.272   1.380   6.692  0.3421  0.3338 -0.3160
  184SOPE   H4X21100   5.371   1.430   6.694  1.1531 -1.2156 -0.4820
  184SOPE   H4Y21101   5.274   1.323   6.596  0.9623 -1.1491  0.5439
  184SOPE   C3521102   5.268   1.279   6.805 -0.6124  0.0821 -0.5170
  184SOPE   H5X21103   5.164   1.240   6.809 -1.0880  1.3938  0.4342
  184SOPE   H5Y21104   5.290   1.328   6.903  1.1279 -2.4771  0.4791
  184SOPE   C3621105   5.358   1.147   6.794 -0.3707  0.3681 -0.3491
  184SOPE   H6X21106   5.343   1.102   6.694  0.1528  2.3855 -1.3894
  184SOPE   H6Y21107   5.333   1.078   6.877 -1.3891 -2.1149 -2.5779
  184SOPE   C3721108   5.510   1.165   6.806  0.4938  0.1269  0.2839
  184SOPE   H7X21109   5.533   1.238   6.887 -0.4138  2.5740 -1.5319
  184SOPE   H7Y21110   5.540   1.207   6.707  0.5429  0.3950  0.4093
  184SOPE   C3821111   5.573   1.030   6.842 -0.0153 -0.4944  0.1181
  184SOPE   H8X21112   5.599   0.995   6.739 -2.2390  3.5794 -2.0873
  184SOPE   H8Y21113   5.506   0.957   6.893  0.4286 -1.3054 -0.4314
  184SOPE   C3921114   5.700   1.048   6.923 -0.7876  0.5332 -0.0347
  184SOPE   H9X21115   5.666   1.108   7.011  0.6510 -0.9739  1.6188
  184SOPE   H9Y21116   5.761   1.116   6.860  0.5791 -1.5548 -1.0514
  184SOPE  C31021117   5.770   0.924   6.966 -0.3052  0.8476 -0.2142
  184SOPE  H10X21118   5.848   0.953   7.040 -2.3897  2.1588  1.6016
  184SOPE  H10Y21119   5.828   0.873   6.886 -0.5761 -0.9186  0.6843
  184SOPE  C31121120   5.691   0.824   7.037 -0.0359 -0.1631  0.8788
  184SOPE  H11X21121   5.756   0.738   7.066  0.8306  0.7868  1.8754
  184SOPE  H11Y21122   5.607   0.793   6.972 -2.2549  2.5705  2.2178
  184SOPE  C31221123   5.606   0.857   7.163 -0.2403 -0.4351  0.1074
  184SOPE  H12X21124   5.540   0.943   7.137 -1.4491 -0.1364  3.6702
  184SOPE  H12Y21125   5.672   0.907   7.236  0.3582 -1.2885  0.1535
  184SOPE  C31321126   5.525   0.742   7.233  0.7638  0.1618  0.1706
  184SOPE  H13X21127   5.605   0.665   7.234  0.6153 -0.0058 -0.3248
  184SOPE  H13Y21128   5.445   0.699   7.168  0.4919 -1.7907  1.7197
  184SOPE  C31421129   5.455   0.771   7.368  0.1232  0.6755 -0.4486
  184SOPE  H14X21130   5.526   0.781   7.453  0.4342 -0.5755 -0.5413
  184SOPE  H14Y21131   5.397   0.683   7.405  1.9079  0.0219  0.9417
  184SOPE  C31521132   5.354   0.888   7.386 -0.4521  0.4760  0.4454
  184SOPE  H15X21133   5.284   0.852   7.464  2.0092  1.3706  3.2723
  184SOPE  H15Y21134   5.296   0.890   7.292 -1.5165  0.5199  1.0911
  184SOPE  C31621135   5.407   1.025   7.424 -0.0777  0.0397  0.0621
  184SOPE  H16X21136   5.442   1.079   7.333 -0.3430 -2.3491 -1.5348
  184SOPE  H16Y21137   5.498   1.016   7.488 -1.8782 -0.1741  2.7534
  184SOPE  C31721138   5.301   1.118   7.494 -0.1614 -0.4032  0.4411
  184SOPE  H17X21139   5.261   1.063   7.581  0.7825  0.5015  1.4850
  184SOPE  H17Y21140   5.219   1.135   7.421  1.9313  1.7070 -1.5905
  184SOPE  C31821141   5.344   1.260   7.534  0.2037  0.2622  0.9702
  184SOPE  H18X21142   5.436   1.243   7.594  0.9971  3.0285  0.6884
  184SOPE  H18Y21143   5.266   1.319   7.587 -1.9773 -1.4324 -0.1999
  184SOPE  H18Z21144   5.369   1.322   7.445  0.3502  0.4608  1.1459
  185SAPI   C1221145   4.476   1.896  10.935  0.1885 -0.3435  0.3564
  185SAPI    H221146   4.552   1.930  11.010  0.9772  0.2548 -0.6966
  185SAPI    O221147   4.500   1.753  10.905 -0.5129 -0.1337  0.7446
  185SAPI   HO221148   4.588   1.744  10.868 -0.7026 -0.9744  0.4743
  185SAPI   C1321149   4.341   1.922  10.981  0.1252 -0.7418 -0.6218
  185SAPI    H321150   4.326   2.028  11.007 -1.1233 -0.6287 -1.6715
  185SAPI    O321151   4.326   1.858  11.110 -0.0297  0.3909 -0.1301
  185SAPI   HO321152   4.373   1.775  11.107  1.3335  1.0576  1.0811
  185SAPI   C1421153   4.239   1.887  10.883 -0.6928 -0.2725  0.6214
  185SAPI    H421154   4.250   1.777  10.873  0.8499 -0.0652 -0.4431
  185SAPI    O421155   4.108   1.911  10.928  0.4177  0.6742 -0.3960
  185SAPI   HO421156   4.042   1.875  10.868 -0.4014 -0.6317  1.1946
  185SAPI   C1521157   4.259   1.949  10.745 -0.0479 -0.2023  0.1737
  185SAPI    H521158   4.252   2.058  10.767  3.3331 -0.2855  2.2052
  185SAPI    O521159   4.157   1.911  10.648 -0.4545  0.9442 -1.0372
  185SAPI   HO521160   4.104   1.985  10.616  0.1543  0.9375 -2.0952
  185SAPI   C1621161   4.400   1.930  10.692 -0.1618 -0.6112  0.0010
  185SAPI    H621162   4.428   1.824  10.674  1.3136  0.0630 -1.9594
  185SAPI    O621163   4.426   2.004  10.574 -0.0677  0.3480 -0.0283
  185SAPI   HO621164   4.507   1.974  10.533  0.6585  1.7237  0.3358
  185SAPI   C1121165   4.498   1.979  10.805  0.3276  0.5755  1.0149
  185SAPI    H121166   4.464   2.082  10.830 -2.4029  0.0821 -0.2715
  185SAPI     P21167   4.715   2.092  10.697  0.3498  0.0268 -0.3098
  185SAPI   O1321168   4.858   2.085  10.738 -0.0007 -0.2452 -0.3795
  185SAPI   O1421169   4.641   2.223  10.715 -0.4930  0.1244 -0.8721
  185SAPI   O1221170   4.634   1.962  10.767  0.6405 -0.1630 -0.0408
  185SAPI   O1121171   4.713   2.052  10.536 -0.4831 -0.3249  0.0340
  185SAPI    C121172   4.818   2.107  10.448 -0.0463  0.1141 -0.4771
  185SAPI    HA21173   4.770   2.132  10.351  0.8047  1.7496 -0.5069
  185SAPI    HB21174   4.867   2.200  10.484 -0.6476 -0.3293  1.6425
  185SAPI    C221175   4.921   1.993  10.401 -0.9031  0.4537 -0.5322
  185SAPI    HS21176   5.005   1.991  10.474  1.3499 -2.8070 -2.9436
  185SAPI   O2121177   4.972   2.024  10.272  1.2551  0.5439  0.0440
  185SAPI   C2121178   5.058   1.937  10.216  0.0651 -0.0819 -0.3577
  185SAPI   O2221179   5.101   1.839  10.274 -0.1824  0.1758  0.4400
  185SAPI   C2221180   5.121   1.989  10.086 -0.1168 -0.0777 -0.4515
  185SAPI   H2R21181   5.084   2.092  10.063  0.8850  0.2903 -0.4494
  185SAPI   H2S21182   5.229   2.002  10.109 -0.0330 -1.0587 -0.2506
  185SAPI    C321183   4.850   1.858  10.404  0.3280 -1.0107  0.2050
  185SAPI    HX21184   4.817   1.849  10.510 -1.8744  1.5171 -0.1598
  185SAPI    HY21185   4.915   1.769  10.387  0.8716 -0.3085 -1.6496
  185SAPI   O3121186   4.740   1.863  10.312 -0.3037 -0.3784  0.1018
  185SAPI   C3121187   4.623   1.803  10.344 -0.0458  0.3123 -0.5817
  185SAPI   O3221188   4.603   1.730  10.440 -0.0230  0.2070  0.1005
  185SAPI   C3221189   4.525   1.840  10.231 -0.1515 -0.2657 -0.2524
  185SAPI   H2X21190   4.496   1.944  10.258 -0.7055 -0.9065  1.7861
  185SAPI   H2Y21191   4.436   1.775  10.245 -0.9846  0.8961  0.0065
  185SAPI   C2321192   5.104   1.905   9.957 -0.5374 -0.1236 -0.6572
  185SAPI   H3R21193   5.156   1.809   9.979  0.1772  0.7713  1.9146
  185SAPI   H3S21194   5.159   1.958   9.877 -0.0067  1.1239  0.5009
  185SAPI   C2421195   4.955   1.881   9.919 -0.2672  0.4712  0.0333
  185SAPI   H4R21196   4.913   1.808   9.992  3.5006  0.4130  2.3942
  185SAPI   H4S21197   4.953   1.821   9.825  1.4032  0.1416  0.1827
  185SAPI   C2521198   4.877   2.009   9.903  0.4190 -0.1776 -0.0503
  185SAPI   H5R21199   4.839   2.055   9.995  0.8597 -2.2519  1.2338
  185SAPI   C2621200   4.839   2.066   9.789  0.0893  0.4012 -0.3072
  185SAPI   H6R21201   4.782   2.160   9.789  2.5554  1.9885 -1.8178
  185SAPI   C2721202   4.849   2.011   9.649 -1.0227 -0.0083 -0.0712
  185SAPI   H7R21203   4.791   2.079   9.583 -0.2226 -2.2217 -3.2630
  185SAPI   H7S21204   4.788   1.918   9.655  2.7361 -2.5654  2.5511
  185SAPI   C2821205   4.983   1.983   9.582 -0.2811 -0.4461 -0.1123
  185SAPI   H8R21206   5.066   2.044   9.623  0.5702 -0.2434 -2.0228
  185SAPI   C2921207   5.010   1.897   9.489 -0.2141 -0.2009  0.4976
  185SAPI   H9R21208   5.112   1.913   9.450 -1.4289  2.4612 -2.0407
  185SAPI  C21021209   4.918   1.810   9.401  0.3088 -0.1696  0.2294
  185SAPI  H10R21210   4.885   1.868   9.311  0.6060  0.7011  0.6670
  185SAPI  H10S21211   4.825   1.782   9.455  1.3620 -1.1399  1.5890
  185SAPI  C21121212   4.996   1.684   9.361 -0.0404  0.8297  0.4276
  185SAPI  H11R21213   5.036   1.634   9.450 -0.8464 -0.2436  0.2184
  185SAPI  C21221214   5.028   1.641   9.234 -0.5493 -0.0497 -0.3448
  185SAPI  H12R21215   5.089   1.550   9.224  0.4623  0.3944  1.3317
  185SAPI  C21321216   4.983   1.712   9.113  0.8814 -0.8581  0.4124
  185SAPI  H13R21217   4.891   1.775   9.121  2.6879  2.3063 -1.5704
  185SAPI  H13S21218   4.953   1.643   9.030 -1.7868 -0.3483  0.8486
  185SAPI  C21421219   5.085   1.809   9.071  0.1089 -0.7160  0.3445
  185SAPI  H14R21220   5.139   1.857   9.154 -0.7160 -2.1235  1.7324
  185SAPI  C21521221   5.122   1.842   8.941 -0.0616 -0.8279 -1.0157
  185SAPI  H15R21222   5.203   1.914   8.922  0.2411 -0.6096  0.8622
  185SAPI  C21621223   5.052   1.779   8.818  0.1512  0.1064 -0.4306
  185SAPI  H16R21224   4.996   1.858   8.764 -0.1511 -1.2214 -2.1564
  185SAPI  H16S21225   4.979   1.700   8.845 -0.0295  0.6539  0.7346
  185SAPI  C21721226   5.146   1.698   8.724 -0.0913  0.5634  0.5743
  185SAPI  H17R21227   5.197   1.628   8.794 -1.4019 -0.5804  0.4058
  185SAPI  H17S21228   5.234   1.752   8.682  0.9086  0.5489  2.5235
  185SAPI  C21821229   5.061   1.627   8.615 -0.0649  0.2046 -0.8836
  185SAPI  H18R21230   4.987   1.563   8.666  0.3417  0.6991  0.3606
  185SAPI  H18S21231   5.118   1.552   8.556 -0.0164 -0.1171 -0.4347
  185SAPI  C21921232   4.986   1.719   8.521 -0.0448 -0.0281  0.2096
  185SAPI  H19R21233   5.048   1.810   8.507  0.7672 -0.2841  1.8983
  185SAPI  H19S21234   4.896   1.762   8.571 -1.0115  0.9513 -2.1744
  185SAPI  C22021235   4.940   1.657   8.388 -0.5568 -0.1887  0.3798
  185SAPI  H20R21236   5.020   1.593   8.346 -1.6976 -1.3584 -0.0973
  185SAPI  H20S21237   4.917   1.736   8.314 -2.8697  0.6023  1.8377
  185SAPI  H20T21238   4.860   1.580   8.397  0.0571 -0.8837  0.0617
  185SAPI   C3321239   4.585   1.821  10.087  0.7828  0.4301  0.2141
  185SAPI   H3X21240   4.652   1.733  10.084  1.5780  1.0450 -1.4631
  185SAPI   H3Y21241   4.646   1.913  10.073  0.7960  0.7976  2.3758
  185SAPI   C3421242   4.488   1.803   9.967  0.4079 -0.1662  0.4920
  185SAPI   H4X21243   4.420   1.889   9.950  1.3919  1.0272  2.3289
  185SAPI   H4Y21244   4.434   1.713  10.006  2.4591  0.2896  4.9221
  185SAPI   C3521245   4.580   1.787   9.837  1.1181  0.2670  0.0250
  185SAPI   H5X21246   4.671   1.728   9.860  1.1195  0.1340 -0.3099
  185SAPI   H5Y21247   4.618   1.889   9.819 -1.3897  1.2376 -0.1931
  185SAPI   C3621248   4.514   1.738   9.703  0.5411  0.3999 -0.7709
  185SAPI   H6X21249   4.446   1.651   9.718 -1.0672  1.7283 -0.0132
  185SAPI   H6Y21250   4.606   1.726   9.643  0.3116 -0.7885 -0.9151
  185SAPI   C3721251   4.419   1.846   9.651 -0.1194  0.3367  0.4541
  185SAPI   H7X21252   4.469   1.946   9.653 -0.2889  0.4151  2.4440
  185SAPI   H7Y21253   4.329   1.863   9.712 -1.0245  0.4680 -0.8675
  185SAPI   C3821254   4.377   1.817   9.507  0.1764 -0.1007 -0.5712
  185SAPI   H8X21255   4.307   1.896   9.472 -0.0142  0.3911  0.8662
  185SAPI   H8Y21256   4.323   1.720   9.509  0.6942 -0.4654 -2.1442
  185SAPI   C3921257   4.496   1.790   9.415 -0.6417 -0.4392  0.0327
  185SAPI   H9X21258   4.545   1.694   9.442  1.5735  0.6308 -0.0152
  185SAPI   H9Y21259   4.569   1.873   9.425  1.1841 -1.8957 -0.5455
  185SAPI  C31021260   4.454   1.772   9.272  0.0448  0.0349  0.4867
  185SAPI  H10X21261   4.398   1.865   9.251 -1.4732 -0.6002  1.5168
  185SAPI  H10Y21262   4.372   1.698   9.262  0.7826 -0.5925 -1.3789
  185SAPI  C31121263   4.570   1.758   9.169  0.0907  0.9366 -1.6268
  185SAPI  H11X21264   4.635   1.674   9.201 -0.6655  0.6491 -0.7824
  185SAPI  H11Y21265   4.635   1.847   9.176  3.1479 -1.3065  2.2631
  185SAPI  C31221266   4.520   1.727   9.033 -0.5445 -0.1468  0.3270
  185SAPI  H12X21267   4.485   1.825   8.994  1.2368  0.7646  0.8717
  185SAPI  H12Y21268   4.442   1.650   9.019 -0.6375  0.4134 -2.8393
  185SAPI  C31321269   4.636   1.701   8.935  0.1743 -0.4150 -0.0480
  185SAPI  H13X21270   4.687   1.609   8.971  1.4705 -0.2316 -1.3175
  185SAPI  H13Y21271   4.710   1.784   8.940  1.3689 -1.4170 -0.4390
  185SAPI  C31421272   4.613   1.669   8.788  0.3998  0.5916  0.5071
  185SAPI  H14X21273   4.525   1.602   8.781 -2.0277  3.4379  1.5291
  185SAPI  H14Y21274   4.699   1.619   8.739 -0.5387 -0.0087 -0.5963
  185SAPI  C31521275   4.570   1.794   8.705  0.0924 -0.1004 -0.0941
  185SAPI  H15X21276   4.641   1.877   8.726  0.2144  0.3583 -2.0966
  185SAPI  H15Y21277   4.465   1.826   8.723 -0.1094 -0.9640  0.3017
  185SAPI  C31621278   4.574   1.778   8.553 -0.9707 -1.0743  0.4522
  185SAPI  H16X21279   4.683   1.764   8.535 -0.2984  2.6102  0.7956
  185SAPI  H16Y21280   4.551   1.878   8.511 -0.8832 -0.4596  1.8466
  185SAPI  C31721281   4.486   1.665   8.502  0.1031  0.3029  0.7171
  185SAPI  H17X21282   4.384   1.677   8.544 -0.0456 -1.1849  0.8153
  185SAPI  H17Y21283   4.546   1.578   8.534 -0.2659  0.0447  0.7186
  185SAPI  C31821284   4.469   1.659   8.348  0.0792  0.5314  0.3776
  185SAPI  H18X21285   4.409   1.743   8.307  0.9528  0.2721 -1.5424
  185SAPI  H18Y21286   4.424   1.566   8.307 -0.0275  0.1074  1.4425
  185SAPI  H18Z21287   4.567   1.657   8.296  0.1529  0.1942  0.5305
  186SAPI   C1221288   0.739   0.525  10.509 -0.9075  0.3000 -0.5409
  186SAPI    H221289   0.701   0.618  10.461  0.8079  1.3775  0.0864
  186SAPI    O221290   0.663   0.424  10.440 -0.4669 -0.8595 -0.5079
  186SAPI   HO221291   0.582   0.413  10.491 -0.0489 -0.6182  0.2213
  186SAPI   C1321292   0.886   0.507  10.488  0.4051  0.3803  0.2964
  186SAPI    H321293   0.925   0.599  10.536 -0.3631  1.1866 -0.5812
  186SAPI    O321294   0.928   0.524  10.346 -0.0120  0.2071 -0.3134
  186SAPI   HO321295   1.024   0.525  10.344  0.0095 -0.8509 -1.9177
  186SAPI   C1421296   0.941   0.377  10.552 -0.0315  0.5111  0.4941
  186SAPI    H421297   0.904   0.295  10.487  0.4351  1.0113 -0.4140
  186SAPI    O421298   1.086   0.376  10.532 -1.0876 -0.3072  0.4608
  186SAPI   HO421299   1.115   0.294  10.492  0.8163  0.1571  0.8030
  186SAPI   C1521300   0.907   0.371  10.696 -0.2416 -0.2924  0.1662
  186SAPI    H521301   0.970   0.450  10.743  0.2183 -0.3395 -0.3597
  186SAPI    O521302   0.954   0.250  10.755 -1.0400  0.6953  0.4605
  186SAPI   HO521303   1.025   0.218  10.698  0.7846  0.3531  2.7832
  186SAPI   C1621304   0.757   0.401  10.722 -0.2799  0.1248 -0.5336
  186SAPI    H621305   0.693   0.322  10.677 -2.1182  0.6351  1.0456
  186SAPI    O621306   0.728   0.403  10.865 -0.5210  0.6184 -0.1989
  186SAPI   HO621307   0.636   0.428  10.865 -0.4676  0.8196  0.0312
  186SAPI   C1121308   0.714   0.534  10.657  0.2414  0.5044  0.0791
  186SAPI    H121309   0.785   0.603  10.706  0.6508 -1.1031  1.9033
  186SAPI     P21310   0.516   0.713  10.672 -0.0399  0.1615  0.2821
  186SAPI   O1321311   0.593   0.801  10.581 -0.1403 -0.1807  0.5862
  186SAPI   O1421312   0.487   0.758  10.812  0.0199 -0.3920  0.5605
  186SAPI   O1221313   0.575   0.560  10.678 -0.2432 -0.5520 -0.0327
  186SAPI   O1121314   0.389   0.670  10.593 -0.3095  0.0876 -0.4175
  186SAPI    C121315   0.383   0.600  10.469 -1.2390 -0.2244 -0.6446
  186SAPI    HA21316   0.470   0.638  10.411  0.7359  0.5294  2.5608
  186SAPI    HB21317   0.382   0.489  10.477 -2.3450 -0.2144 -0.4628
  186SAPI    C221318   0.257   0.645  10.387  0.4227  0.2334  0.7187
  186SAPI    HS21319   0.170   0.587  10.424  1.3243 -0.0050  2.6330
  186SAPI   O2121320   0.282   0.615  10.249 -0.5287 -0.1051  0.2621
  186SAPI   C2121321   0.224   0.519  10.197 -0.5886  0.4674  0.1178
  186SAPI   O2221322   0.161   0.427  10.254  0.3825 -0.1740 -0.0087
  186SAPI   C2221323   0.237   0.531  10.045 -0.2876 -0.0364 -0.3362
  186SAPI   H2R21324   0.278   0.631  10.021 -2.7773  0.7236 -1.8276
  186SAPI   H2S21325   0.312   0.460  10.005 -0.4944 -0.0771 -0.6546
  186SAPI    C321326   0.212   0.785  10.412 -0.5439  0.1457 -0.1656
  186SAPI    HX21327   0.305   0.846  10.408 -0.0475 -0.3564  2.1465
  186SAPI    HY21328   0.172   0.782  10.515 -1.7388 -0.9156 -0.6296
  186SAPI   O3121329   0.113   0.827  10.312 -0.4451  0.8310  0.1233
  186SAPI   C3121330   0.071   0.949  10.327 -1.2948 -0.5274 -0.5972
  186SAPI   O3221331   0.112   1.031  10.406  0.3754 -0.4311  0.2223
  186SAPI   C3221332  -0.020   0.984  10.213 -0.3912  0.9755  0.2865
  186SAPI   H2X21333  -0.066   1.085  10.222  0.2995  1.1422  2.7996
  186SAPI   H2Y21334  -0.102   0.909  10.209  1.8330 -1.5440 -1.0529
  186SAPI   C2321335   0.103   0.525   9.968  0.4868 -0.4483 -0.1362
  186SAPI   H3R21336   0.024   0.556  10.040  1.8346 -0.2563  1.2919
  186SAPI   H3S21337   0.077   0.419   9.946 -1.1563  0.3108 -2.2720
  186SAPI   C2421338   0.088   0.617   9.847 -0.3237  0.6350 -0.0956
  186SAPI   H4R21339   0.111   0.719   9.885  1.4578  0.3086 -0.1981
  186SAPI   H4S21340  -0.014   0.598   9.807  0.6784 -0.4771 -2.2587
  186SAPI   C2521341   0.187   0.608   9.726 -0.6305 -0.5372 -0.3383
  186SAPI   H5R21342   0.293   0.616   9.751 -0.7394  1.6705 -0.3753
  186SAPI   C2621343   0.164   0.572   9.599 -0.0708  0.4110  0.4439
  186SAPI   H6R21344   0.249   0.570   9.529 -1.3726 -1.3678 -1.1943
  186SAPI   C2721345   0.021   0.544   9.546  0.3227 -0.3364  0.9993
  186SAPI   H7R21346   0.016   0.584   9.443  1.7973  0.0171  1.0514
  186SAPI   H7S21347  -0.050   0.600   9.610  0.9419  0.1817  1.2371
  186SAPI   C2821348  -0.018   0.400   9.551  0.1130  0.9071  1.1520
  186SAPI   H8R21349  -0.053   0.369   9.650  1.5218 -1.2938  1.0329
  186SAPI   C2921350  -0.009   0.319   9.442 -0.7156 -0.6716  0.3075
  186SAPI   H9R21351  -0.029   0.211   9.447  0.0248 -0.8691 -0.6070
  186SAPI  C21021352   0.052   0.369   9.306 -0.2068 -0.1718  0.2657
  186SAPI  H10R21353   0.119   0.292   9.263 -0.7746  0.0580 -1.0948
  186SAPI  H10S21354   0.108   0.463   9.323 -0.1899 -0.4111  1.6224
  186SAPI  C21121355  -0.048   0.400   9.203  0.1567 -0.2015 -0.4305
  186SAPI  H11R21356  -0.144   0.430   9.246  1.2566  3.3677 -0.1656
  186SAPI  C21221357  -0.041   0.377   9.074  0.2341  0.0309  0.5419
  186SAPI  H12R21358  -0.132   0.406   9.020  0.4556  1.6216  0.9557
  186SAPI  C21321359   0.078   0.317   8.999  0.1380 -0.2262 -0.0147
  186SAPI  H13R21360   0.127   0.240   9.062 -0.1992 -1.5704 -1.3377
  186SAPI  H13S21361   0.161   0.389   8.982 -0.1104 -0.2165 -1.3067
  186SAPI  C21421362   0.042   0.257   8.862 -0.5804  0.2700 -0.2107
  186SAPI  H14R21363  -0.052   0.200   8.852 -1.3879  1.4070  0.6934
  186SAPI  C21521364   0.128   0.259   8.760 -0.0851 -0.0249  0.2714
  186SAPI  H15R21365   0.105   0.212   8.663 -1.9872 -0.4945  0.9156
  186SAPI  C21621366   0.260   0.332   8.759  0.4389 -0.1292 -0.0251
  186SAPI  H16R21367   0.329   0.284   8.686  0.1073  1.2122 -1.2970
  186SAPI  H16S21368   0.312   0.328   8.856 -0.5891 -1.5283  0.4950
  186SAPI  C21721369   0.246   0.484   8.725 -0.1895  0.0296  0.3264
  186SAPI  H17R21370   0.160   0.523   8.785 -1.0532  1.1873 -1.5800
  186SAPI  H17S21371   0.214   0.489   8.619 -2.9376 -1.8277  0.9445
  186SAPI  C21821372   0.382   0.556   8.748  0.2899  0.6788 -0.2551
  186SAPI  H18R21373   0.460   0.486   8.710 -1.2102 -1.4700  0.4521
  186SAPI  H18S21374   0.411   0.583   8.851 -0.8063  1.6957 -0.1906
  186SAPI  C21921375   0.393   0.687   8.671 -0.1346  0.0559 -0.4164
  186SAPI  H19R21376   0.417   0.659   8.567  0.8359  1.8525 -0.7190
  186SAPI  H19S21377   0.479   0.746   8.709  0.6824  0.0543 -2.1930
  186SAPI  C22021378   0.269   0.775   8.679 -0.2942 -0.7588 -0.1603
  186SAPI  H20R21379   0.241   0.816   8.778  1.3831 -0.8681  0.3795
  186SAPI  H20S21380   0.183   0.718   8.638  0.6649 -2.0955 -0.3541
  186SAPI  H20T21381   0.285   0.871   8.624  0.2994 -0.6905  0.1280
  186SAPI   C3321382   0.055   0.968  10.076 -0.1942 -0.1110 -0.0559
  186SAPI   H3X21383   0.087   0.864  10.050  1.3915  0.1605  0.6477
  186SAPI   H3Y21384   0.151   1.025  10.075 -1.4860  2.1990  0.7111
  186SAPI   C3421385  -0.034   1.016   9.955 -0.6337  0.2237 -0.6755
  186SAPI   H4X21386  -0.076   1.115   9.983  1.4879  0.7646  0.9136
  186SAPI   H4Y21387  -0.115   0.945   9.927 -0.6026 -0.3507  0.5968
  186SAPI   C3521388   0.044   1.032   9.832  0.0055  0.3067 -0.3334
  186SAPI   H5X21389   0.099   0.937   9.815  0.5990  0.3881  1.0087
  186SAPI   H5Y21390   0.128   1.105   9.841  0.7839 -0.4706 -1.0534
  186SAPI   C3621391  -0.038   1.071   9.711 -0.1641  0.0012 -0.2673
  186SAPI   H6X21392  -0.092   1.166   9.732  0.9756  0.3854  1.0710
  186SAPI   H6Y21393  -0.116   0.994   9.696 -0.7133  0.2968  0.9707
  186SAPI   C3721394   0.036   1.078   9.579 -0.0284 -0.9284  0.2764
  186SAPI   H7X21395   0.041   0.975   9.538 -2.6831 -1.6819  1.6506
  186SAPI   H7Y21396   0.134   1.129   9.582  0.2642 -1.2775 -1.8338
  186SAPI   C3821397  -0.051   1.141   9.472  0.1497  0.3489 -0.2751
  186SAPI   H8X21398  -0.005   1.132   9.372 -1.6709 -1.2480 -1.0415
  186SAPI   H8Y21399  -0.063   1.251   9.483  1.6442  0.3587  1.9879
  186SAPI   C3921400  -0.200   1.090   9.474 -0.2698 -0.7887  0.3403
  186SAPI   H9X21401  -0.230   1.125   9.574  0.2113 -0.4454  0.3704
  186SAPI   H9Y21402  -0.191   0.980   9.465 -2.5293 -1.2685  2.8796
  186SAPI  C31021403  -0.284   1.148   9.358 -0.3631 -0.2056  0.5643
  186SAPI  H10X21404  -0.308   1.254   9.381  1.2215 -0.1658  2.1540
  186SAPI  H10Y21405  -0.383   1.097   9.353  0.3020 -1.4468 -0.9512
  186SAPI  C31121406  -0.223   1.139   9.210  0.1448 -0.0439 -0.3813
  186SAPI  H11X21407  -0.154   1.052   9.210  0.8488  0.4975 -0.3550
  186SAPI  H11Y21408  -0.154   1.226   9.211  0.0585  0.0426 -1.3670
  186SAPI  C31221409  -0.328   1.142   9.104  0.0113 -0.0994  0.5758
  186SAPI  H12X21410  -0.394   1.231   9.101  0.1676  0.0046  0.0315
  186SAPI  H12Y21411  -0.391   1.052   9.120 -0.4178 -0.1288 -1.0908
  186SAPI  C31321412  -0.251   1.121   8.974  0.1874  0.4262  0.6488
  186SAPI  H13X21413  -0.263   1.013   8.955 -3.5179  0.6389  0.9969
  186SAPI  H13Y21414  -0.143   1.146   8.988  0.4395 -0.6649  0.6804
  186SAPI  C31421415  -0.292   1.203   8.856 -0.2239  0.0953 -0.2985
  186SAPI  H14X21416  -0.228   1.292   8.837  0.8823 -0.6706 -0.2290
  186SAPI  H14Y21417  -0.392   1.240   8.889 -0.9293 -2.1200  0.2490
  186SAPI  C31521418  -0.316   1.123   8.728  0.3118 -0.2679 -0.1966
  186SAPI  H15X21419  -0.361   1.024   8.752  2.4363 -0.8451  1.7403
  186SAPI  H15Y21420  -0.215   1.108   8.684  0.7158  0.7783  0.3524
  186SAPI  C31621421  -0.409   1.199   8.633 -0.0913  0.2631 -0.4221
  186SAPI  H16X21422  -0.484   1.258   8.690  1.7806  1.2377  1.1815
  186SAPI  H16Y21423  -0.462   1.116   8.581 -0.6098 -0.3419  1.0099
  186SAPI  C31721424  -0.343   1.307   8.546  0.4505 -0.2823 -0.5075
  186SAPI  H17X21425  -0.268   1.245   8.493 -0.6106 -0.8993 -1.3248
  186SAPI  H17Y21426  -0.297   1.377   8.620 -0.3217 -1.0159  0.7012
  186SAPI  C31821427  -0.438   1.385   8.444  0.0724  0.4138 -0.4347
  186SAPI  H18X21428  -0.524   1.437   8.491 -1.4174  0.0307 -2.5940
  186SAPI  H18Y21429  -0.474   1.308   8.373  3.9699 -0.3194 -1.8733
  186SAPI  H18Z21430  -0.378   1.456   8.382 -0.8601  1.4300 -0.1906
  187SAPI   C1221431   2.434   2.608   6.121 -0.3456  1.0138  0.6189
  187SAPI    H221432   2.455   2.707   6.074  2.3278 -0.2361 -1.1163
  187SAPI    O221433   2.395   2.518   6.017  0.2085 -0.2180  0.3119
  187SAPI   HO221434   2.417   2.551   5.930  2.3898  1.3066  1.3447
  187SAPI   C1321435   2.567   2.555   6.193 -0.3275 -0.2606 -0.1387
  187SAPI    H321436   2.596   2.625   6.274  0.6340 -1.0284  0.1963
  187SAPI    O321437   2.677   2.557   6.102  0.6092  0.0378  0.4089
  187SAPI   HO321438   2.672   2.639   6.052 -0.8846  0.0601  0.5516
  187SAPI   C1421439   2.548   2.416   6.256 -0.1526 -0.3802  0.7335
  187SAPI    H421440   2.537   2.351   6.167  3.1362 -1.7777  1.1833
  187SAPI    O421441   2.670   2.367   6.315 -1.1489 -0.1292  0.1305
  187SAPI   HO421442   2.671   2.389   6.408  0.3349 -0.3426  0.2011
  187SAPI   C1521443   2.423   2.405   6.344 -0.1116  0.6879  0.0423
  187SAPI    H521444   2.451   2.464   6.433  2.1485  1.8254 -1.3188
  187SAPI    O521445   2.399   2.265   6.386 -0.5389 -0.0351  0.5299
  187SAPI   HO521446   2.350   2.274   6.468  1.2478  0.1237  1.6314
  187SAPI   C1621447   2.300   2.467   6.279  0.4882  0.2443  0.8039
  187SAPI    H621448   2.273   2.405   6.191  3.6698  0.1927 -0.2765
  187SAPI    O621449   2.191   2.474   6.369  0.0163  0.2125  0.0647
  187SAPI   HO621450   2.108   2.448   6.327 -0.9757  0.4572  1.7977
  187SAPI   C1121451   2.326   2.615   6.225  0.3059  0.2919 -0.0744
  187SAPI    H121452   2.360   2.680   6.308 -1.7588  0.8474  0.3945
  187SAPI     P21453   2.164   2.826   6.171 -0.0297  0.4570  0.3508
  187SAPI   O1321454   2.083   2.871   6.055 -0.2299  0.8974 -0.4044
  187SAPI   O1421455   2.295   2.886   6.196 -0.5356 -0.0953 -0.6124
  187SAPI   O1221456   2.207   2.669   6.157  0.1408  0.1420  0.3413
  187SAPI   O1121457   2.079   2.835   6.307  0.0238 -0.3440 -0.7329
  187SAPI    C121458   1.947   2.782   6.307 -0.0135  0.3807  1.3255
  187SAPI    HA21459   1.892   2.841   6.231 -0.5115 -0.6088  0.8959
  187SAPI    HB21460   1.943   2.674   6.282 -2.4025  0.2876  1.8728
  187SAPI    C221461   1.885   2.805   6.446 -0.8615 -0.4285  0.2018
  187SAPI    HS21462   1.775   2.789   6.441 -0.7264 -2.3271  1.9966
  187SAPI   O2121463   1.926   2.933   6.495 -0.2439  0.2696  0.5398
  187SAPI   C2121464   1.860   3.028   6.441 -0.2579 -0.3003  0.3827
  187SAPI   O2221465   1.761   3.015   6.366 -0.0323 -0.7902 -0.4272
  187SAPI   C2221466   1.919   3.161   6.490 -0.3197  0.0246  0.1606
  187SAPI   H2R21467   2.007   3.132   6.552 -0.5089 -1.6167 -0.2988
  187SAPI   H2S21468   1.947   3.215   6.397  0.3830 -1.9760 -0.8266
  187SAPI    C321469   1.926   2.698   6.553 -0.0558 -0.4052  0.4737
  187SAPI    HX21470   2.033   2.722   6.573  0.0946  2.2838 -2.6914
  187SAPI    HY21471   1.911   2.599   6.506 -0.3708  1.1809 -3.0630
  187SAPI   O3121472   1.850   2.724   6.667  0.1383 -0.1557 -0.1638
  187SAPI   C3121473   1.904   2.708   6.787  0.2227  0.0227  0.5536
  187SAPI   O3221474   2.012   2.664   6.816 -0.0737  0.2315  0.1987
  187SAPI   C3221475   1.793   2.728   6.884 -0.5952  0.0727  0.1196
  187SAPI   H2X21476   1.729   2.638   6.873  1.4467 -1.2048 -2.6252
  187SAPI   H2Y21477   1.727   2.810   6.849 -1.1761 -0.0885  0.8033
  187SAPI   C2321478   1.827   3.259   6.565 -0.0359 -0.1365 -0.0230
  187SAPI   H3R21479   1.732   3.268   6.508  1.3347  0.9065 -2.2892
  187SAPI   H3S21480   1.882   3.356   6.565  0.8054 -0.5771 -1.1919
  187SAPI   C2421481   1.811   3.223   6.713  0.0511 -0.2321 -0.6733
  187SAPI   H4R21482   1.910   3.191   6.750 -0.4741  0.1342  1.1096
  187SAPI   H4S21483   1.746   3.132   6.717 -0.3763 -0.0250 -2.1878
  187SAPI   C2521484   1.735   3.336   6.785 -0.0275  0.3072  0.1856
  187SAPI   H5R21485   1.652   3.381   6.729 -1.0604 -1.2159  0.4319
  187SAPI   C2621486   1.759   3.386   6.911 -0.3385 -0.4283 -0.0632
  187SAPI   H6R21487   1.694   3.463   6.955 -0.5135 -1.5471  1.7439
  187SAPI   C2721488   1.870   3.338   7.000  0.1265  1.1987 -0.6731
  187SAPI   H7R21489   1.912   3.424   7.057  0.7776 -0.5424  1.5789
  187SAPI   H7S21490   1.948   3.283   6.944 -0.3812 -0.1286 -0.1202
  187SAPI   C2821491   1.801   3.241   7.094 -0.8358  1.2325 -0.0554
  187SAPI   H8R21492   1.766   3.150   7.041 -0.0297  1.0027 -0.2087
  187SAPI   C2921493   1.760   3.260   7.224  0.2865 -1.1499  0.2674
  187SAPI   H9R21494   1.698   3.184   7.274 -1.7991  1.2025  1.4585
  187SAPI  C21021495   1.779   3.381   7.309 -0.0897  0.4839  0.4015
  187SAPI  H10R21496   1.809   3.472   7.253  1.5520 -1.0704 -1.3835
  187SAPI  H10S21497   1.866   3.364   7.376  1.6246  2.7231 -1.1019
  187SAPI  C21121498   1.654   3.404   7.393  0.8343  1.0533 -0.4625
  187SAPI  H11R21499   1.564   3.421   7.332  1.7576 -0.1145 -2.2642
  187SAPI  C21221500   1.634   3.394   7.528  0.1025 -0.7201  0.0234
  187SAPI  H12R21501   1.533   3.406   7.569  0.2499  1.3867 -0.0839
  187SAPI  C21321502   1.729   3.358   7.638  0.0551 -0.1934 -0.0319
  187SAPI  H13R21503   1.813   3.292   7.607 -1.2492 -1.8465 -0.2328
  187SAPI  H13S21504   1.669   3.293   7.706 -1.2329 -0.3529 -1.2560
  187SAPI  C21421505   1.781   3.476   7.711  0.2966 -0.7618 -0.0984
  187SAPI  H14R21506   1.811   3.563   7.649  2.0099 -1.1060  0.1897
  187SAPI  C21521507   1.801   3.475   7.846 -0.1355  0.2996  0.0654
  187SAPI  H15R21508   1.826   3.573   7.888 -0.8306  0.0095  1.1953
  187SAPI  C21621509   1.770   3.365   7.947  0.0861 -0.1649  0.2087
  187SAPI  H16R21510   1.853   3.352   8.020 -0.6322 -1.8924  0.7735
  187SAPI  H16S21511   1.768   3.267   7.893  0.1144  0.3249 -0.6988
  187SAPI  C21721512   1.640   3.370   8.032  0.0267 -0.3341  0.2666
  187SAPI  H17R21513   1.631   3.468   8.084  0.3363  0.5752 -1.3087
  187SAPI  H17S21514   1.646   3.297   8.115 -1.4500 -1.4512 -0.5554
  187SAPI  C21821515   1.516   3.366   7.942 -0.2763 -0.2567  0.7528
  187SAPI  H18R21516   1.525   3.294   7.857  0.3117 -0.5876  1.0940
  187SAPI  H18S21517   1.512   3.454   7.874 -1.3406 -1.8531 -1.3961
  187SAPI  C21921518   1.381   3.349   8.011  0.5758  0.3437  0.2678
  187SAPI  H19R21519   1.362   3.440   8.072  2.7160  0.9827  0.0757
  187SAPI  H19S21520   1.384   3.268   8.087 -1.1681  0.2853  0.3103
  187SAPI  C22021521   1.262   3.326   7.916 -0.2138 -0.4779 -0.0575
  187SAPI  H20R21522   1.166   3.319   7.973  1.1443 -1.7318  2.2246
  187SAPI  H20S21523   1.267   3.239   7.848 -0.1195 -0.0397 -0.6159
  187SAPI  H20T21524   1.249   3.411   7.846 -0.9098  0.1381  0.7937
  187SAPI   C3321525   1.855   2.740   7.025  0.1067 -0.2249  0.2617
  187SAPI   H3X21526   1.941   2.807   7.042 -1.3794  1.5819  1.0291
  187SAPI   H3Y21527   1.893   2.642   7.062 -0.5334 -0.3211  0.6845
  187SAPI   C3421528   1.754   2.800   7.125 -0.2460  0.4922 -0.5922
  187SAPI   H4X21529   1.655   2.752   7.111 -0.7514 -0.0927  3.7205
  187SAPI   H4Y21530   1.744   2.909   7.105  0.0755  0.5712 -0.3307
  187SAPI   C3521531   1.789   2.788   7.275 -0.5380  0.2237  0.6363
  187SAPI   H5X21532   1.887   2.834   7.299  0.4278 -0.2618 -1.9898
  187SAPI   H5Y21533   1.795   2.681   7.305 -1.0816  0.2726  0.9257
  187SAPI   C3621534   1.679   2.851   7.366 -0.2817  0.8104  0.1750
  187SAPI   H6X21535   1.591   2.787   7.342  0.2703  0.9835 -2.5850
  187SAPI   H6Y21536   1.650   2.954   7.333  1.7865  1.3655 -0.0403
  187SAPI   C3721537   1.716   2.862   7.519 -0.3207 -0.1886  0.9218
  187SAPI   H7X21538   1.808   2.924   7.525 -0.2871 -0.1394 -0.0161
  187SAPI   H7Y21539   1.743   2.760   7.556 -1.0696 -0.0598  1.8448
  187SAPI   C3821540   1.605   2.924   7.606  0.0322  0.1553  0.1490
  187SAPI   H8X21541   1.510   2.868   7.594 -0.9199  1.7648 -0.0850
  187SAPI   H8Y21542   1.586   3.030   7.578 -1.7198 -0.2058 -0.1460
  187SAPI   C3921543   1.654   2.927   7.752 -0.4368  0.6800 -0.7874
  187SAPI   H9X21544   1.740   2.995   7.764  1.2808 -1.8100  2.8371
  187SAPI   H9Y21545   1.690   2.824   7.771 -0.4581  0.6611 -0.8513
  187SAPI  C31021546   1.554   2.963   7.856 -0.2508 -0.1328  0.2436
  187SAPI  H10X21547   1.450   2.971   7.819 -0.6030 -0.9058  1.0477
  187SAPI  H10Y21548   1.578   3.069   7.883 -0.4488  0.2087 -0.8530
  187SAPI  C31121549   1.557   2.880   7.983 -1.1257  0.0398  0.3447
  187SAPI  H11X21550   1.527   2.779   7.949 -2.5452  0.2095  1.0089
  187SAPI  H11Y21551   1.475   2.928   8.041 -2.8427 -1.3399 -0.8569
  187SAPI  C31221552   1.689   2.880   8.063 -0.3239 -0.6362 -0.2862
  187SAPI  H12X21553   1.777   2.880   7.995 -1.0192  0.1931 -1.2147
  187SAPI  H12Y21554   1.695   2.781   8.114  1.4856 -1.6273 -2.2618
  187SAPI  C31321555   1.704   3.005   8.156  0.0613 -0.6447  0.0073
  187SAPI  H13X21556   1.635   3.006   8.243 -1.1742  1.5179 -0.8963
  187SAPI  H13Y21557   1.674   3.100   8.107 -0.6629 -1.0207 -0.2850
  187SAPI  C31421558   1.856   3.009   8.197 -0.0148 -0.3340  0.2590
  187SAPI  H14X21559   1.911   3.076   8.128 -0.6690 -0.0967 -0.0418
  187SAPI  H14Y21560   1.898   2.907   8.185 -0.6914 -0.4538 -1.3189
  187SAPI  C31521561   1.885   3.069   8.339 -0.7279  0.5451 -0.3654
  187SAPI  H15X21562   1.824   3.014   8.415 -0.3329 -0.3307 -0.6658
  187SAPI  H15Y21563   1.850   3.174   8.346 -1.2247  0.4262 -1.0515
  187SAPI  C31621564   2.033   3.070   8.388 -0.6700  1.1463  0.3459
  187SAPI  H16X21565   2.105   3.129   8.327  1.8524 -2.7313 -0.7813
  187SAPI  H16Y21566   2.057   2.962   8.390 -1.9174  0.8131  3.5065
  187SAPI  C31721567   2.042   3.124   8.533  0.1229 -0.3049 -0.1875
  187SAPI  H17X21568   1.985   3.052   8.596 -0.8355  0.8069  0.2365
  187SAPI  H17Y21569   2.003   3.228   8.535 -0.1599 -0.3789 -1.1660
  187SAPI  C31821570   2.183   3.115   8.592 -0.9234 -0.0428  0.5761
  187SAPI  H18X21571   2.180   3.119   8.703 -0.9652  1.3175  0.5490
  187SAPI  H18Y21572   2.253   3.186   8.544  2.1411 -2.4136  1.2296
  187SAPI  H18Z21573   2.216   3.012   8.566 -1.2554  0.4968 -2.3271
  188SAPI   C1221574   5.632   5.130   5.927  0.6051 -0.2734 -0.3666
  188SAPI    H221575   5.568   5.133   6.018  0.7937 -0.0164 -0.2413
  188SAPI    O221576   5.669   4.995   5.906  0.2806  0.1733 -0.0586
  188SAPI   HO221577   5.619   4.934   5.960  0.4759  0.6542  0.6841
  188SAPI   C1321578   5.538   5.176   5.817  1.0839  0.3243  0.1964
  188SAPI    H321579   5.507   5.280   5.837 -1.3176  0.1821 -2.2323
  188SAPI    O321580   5.418   5.094   5.803 -0.2877 -0.1381  0.2319
  188SAPI   HO321581   5.391   5.062   5.889 -0.8496  1.7523  0.7957
  188SAPI   C1421582   5.627   5.175   5.688 -0.4847 -0.3329 -0.4629
  188SAPI    H421583   5.658   5.071   5.665 -2.3196 -0.2549 -3.9871
  188SAPI    O421584   5.533   5.208   5.580 -0.8344 -0.2734 -0.4837
  188SAPI   HO421585   5.538   5.302   5.558  1.1839 -0.3552 -0.5409
  188SAPI   C1521586   5.748   5.263   5.701 -0.4659 -0.2030  0.0215
  188SAPI    H521587   5.709   5.364   5.728  1.4921  0.1311  1.8617
  188SAPI    O521588   5.820   5.289   5.580 -0.0343 -0.1556 -0.2262
  188SAPI   HO521589   5.915   5.278   5.590 -0.0498 -1.0506 -0.9020
  188SAPI   C1621590   5.836   5.228   5.819  0.6901 -0.3406 -0.8491
  188SAPI    H621591   5.871   5.124   5.803 -0.7864 -1.8386  4.0868
  188SAPI    O621592   5.949   5.311   5.832 -0.1649 -0.3893  0.3608
  188SAPI   HO621593   5.929   5.379   5.896 -0.6185 -0.3760  0.2034
  188SAPI   C1121594   5.749   5.225   5.950 -0.4483 -0.4253  0.4439
  188SAPI    H121595   5.709   5.327   5.968 -1.3538 -0.9259  1.3646
  188SAPI     P21596   5.899   5.278   6.166  0.0544  0.2137  0.7218
  188SAPI   O1321597   5.916   5.408   6.103  0.6519 -0.4348  0.9628
  188SAPI   O1421598   6.021   5.213   6.219 -0.4391  0.1490 -0.6748
  188SAPI   O1221599   5.824   5.173   6.065  0.4061 -0.1508  0.1704
  188SAPI   O1121600   5.785   5.287   6.276  0.0604  0.6802  0.2220
  188SAPI    C121601   5.732   5.414   6.314 -0.4155  0.4495  0.6419
  188SAPI    HA21602   5.766   5.495   6.247  0.0985  0.0828  0.4504
  188SAPI    HB21603   5.622   5.416   6.301 -0.2212  1.8780 -1.0950
  188SAPI    C221604   5.774   5.441   6.462 -0.9597  0.1343  0.1174
  188SAPI    HS21605   5.732   5.536   6.501  1.6824  1.8780 -1.0425
  188SAPI   O2121606   5.920   5.443   6.473  0.0195  0.1786 -0.2777
  188SAPI   C2121607   5.975   5.555   6.420  0.3875 -0.4802 -0.5939
  188SAPI   O2221608   5.909   5.652   6.383  0.4974 -0.2492 -0.2340
  188SAPI   C2221609   6.127   5.554   6.408  0.0704 -0.0565 -0.0174
  188SAPI   H2R21610   6.166   5.451   6.416  2.2145  0.6315 -0.8432
  188SAPI   H2S21611   6.161   5.594   6.310 -0.6346  2.1346  0.5710
  188SAPI    C321612   5.717   5.329   6.558 -0.0093  0.2698  0.3287
  188SAPI    HX21613   5.789   5.245   6.567 -0.1246  0.0736 -0.5271
  188SAPI    HY21614   5.631   5.286   6.502  0.9498 -1.4793  0.1513
  188SAPI   O3121615   5.690   5.371   6.691 -0.1805  0.2340  0.4307
  188SAPI   C3121616   5.679   5.274   6.781 -0.0943  0.7239 -0.0688
  188SAPI   O3221617   5.655   5.153   6.752 -0.1964 -0.0510  0.8149
  188SAPI   C3221618   5.681   5.334   6.919 -0.1309 -0.4169  0.2246
  188SAPI   H2X21619   5.657   5.258   6.996 -1.7101  0.1199  0.2958
  188SAPI   H2Y21620   5.605   5.415   6.920 -0.6598 -0.7976 -2.1893
  188SAPI   C2321621   6.190   5.650   6.514  0.6686 -0.8707 -0.1344
  188SAPI   H3R21622   6.144   5.750   6.502 -1.7381 -2.2056 -3.6132
  188SAPI   H3S21623   6.296   5.661   6.483  0.9303  0.6958  1.2069
  188SAPI   C2421624   6.158   5.616   6.662 -0.1369 -0.3403  0.2369
  188SAPI   H4R21625   6.183   5.508   6.666 -1.6820 -0.6942  2.8309
  188SAPI   H4S21626   6.047   5.612   6.671 -0.3257  0.6554 -1.3249
  188SAPI   C2521627   6.202   5.712   6.770  0.1765  0.1320 -0.3901
  188SAPI   H5R21628   6.196   5.818   6.745  0.3693  0.7746  2.0474
  188SAPI   C2621629   6.238   5.676   6.897  0.1427  0.4762 -0.6462
  188SAPI   H6R21630   6.283   5.755   6.959 -0.8484  1.1495 -0.7452
  188SAPI   C2721631   6.260   5.537   6.945  0.0654  0.0118 -0.1388
  188SAPI   H7R21632   6.268   5.475   6.853 -0.1736  1.3071 -1.0626
  188SAPI   H7S21633   6.164   5.506   6.991  1.8237 -1.8159  2.5716
  188SAPI   C2821634   6.381   5.525   7.030 -0.2049 -0.4596  0.2415
  188SAPI   H8R21635   6.478   5.538   6.980 -0.1445  0.7333  0.6485
  188SAPI   C2921636   6.371   5.498   7.161 -0.6545 -0.1486 -0.2863
  188SAPI   H9R21637   6.462   5.477   7.218  0.3881  0.7921 -1.5565
  188SAPI  C21021638   6.240   5.466   7.243  0.4521  0.3368 -0.6602
  188SAPI  H10R21639   6.148   5.472   7.180  0.6132  0.4814 -0.8793
  188SAPI  H10S21640   6.218   5.540   7.323 -0.9703 -0.7865  0.0460
  188SAPI  C21121641   6.262   5.328   7.297  0.6455  0.0482  0.4126
  188SAPI  H11R21642   6.291   5.258   7.218 -2.4227  0.2615 -1.0715
  188SAPI  C21221643   6.243   5.281   7.427  0.3604  0.5291 -0.2247
  188SAPI  H12R21644   6.267   5.178   7.457 -0.3441  0.3391 -0.2861
  188SAPI  C21321645   6.195   5.363   7.543  0.7979  0.0215 -0.4795
  188SAPI  H13R21646   6.149   5.285   7.607 -0.8292  0.8692 -0.5613
  188SAPI  H13S21647   6.111   5.427   7.508 -2.5570 -2.7434  1.7636
  188SAPI  C21421648   6.300   5.441   7.623 -0.1558  0.3479  0.0182
  188SAPI  H14R21649   6.380   5.485   7.562 -0.1141 -1.4564 -1.3169
  188SAPI  C21521650   6.303   5.439   7.755 -0.4180  0.6810 -0.8058
  188SAPI  H15R21651   6.393   5.478   7.804 -1.5079  0.5532  1.3948
  188SAPI  C21621652   6.209   5.372   7.854  0.4737 -0.2765 -0.1258
  188SAPI  H16R21653   6.257   5.278   7.887  0.8401  0.6395  2.1834
  188SAPI  H16S21654   6.108   5.354   7.811 -1.1564  3.4279  1.6361
  188SAPI  C21721655   6.187   5.442   7.983 -0.3226  0.0990  0.7091
  188SAPI  H17R21656   6.286   5.461   8.030 -0.0979  0.7719 -0.0095
  188SAPI  H17S21657   6.122   5.380   8.048 -0.0479  1.4398  2.3468
  188SAPI  C21821658   6.105   5.574   7.978  0.1263 -0.3205  0.2099
  188SAPI  H18R21659   5.999   5.575   7.945  0.7070  0.7569 -1.7961
  188SAPI  H18S21660   6.150   5.634   7.896 -1.2032 -1.0017 -1.0662
  188SAPI  C21921661   6.095   5.646   8.112  0.2831 -0.1490  0.2833
  188SAPI  H19R21662   6.055   5.749   8.099 -0.9946 -0.2297  2.8730
  188SAPI  H19S21663   6.198   5.653   8.152  1.6428  0.2931 -2.9467
  188SAPI  C22021664   6.011   5.582   8.225 -0.0976 -0.2402  0.5661
  188SAPI  H20R21665   5.989   5.477   8.195 -0.8924  0.4564 -1.4194
  188SAPI  H20S21666   5.916   5.635   8.249  0.0964  0.7919 -0.8229
  188SAPI  H20T21667   6.068   5.570   8.320  1.7457  2.4753 -0.0914
  188SAPI   C3321668   5.821   5.397   6.947  0.3711 -0.0764 -0.0935
  188SAPI   H3X21669   5.841   5.488   6.887 -0.8741  0.9242  0.9748
  188SAPI   H3Y21670   5.896   5.320   6.917 -0.6389 -1.5537  1.0466
  188SAPI   C3421671   5.850   5.445   7.095 -0.5608 -0.2002  0.7197
  188SAPI   H4X21672   5.789   5.536   7.115 -2.3175 -1.4613  1.3494
  188SAPI   H4Y21673   5.959   5.463   7.099 -0.5359 -0.6812  2.8195
  188SAPI   C3521674   5.813   5.338   7.202  0.3440  0.0916 -0.6304
  188SAPI   H5X21675   5.881   5.250   7.208  0.7574  0.3480 -1.4951
  188SAPI   H5Y21676   5.711   5.308   7.171  0.7305  0.3863 -2.3006
  188SAPI   C3621677   5.809   5.401   7.336  0.4243 -0.5025  0.3969
  188SAPI   H6X21678   5.750   5.496   7.333 -1.2422 -1.5377 -1.3593
  188SAPI   H6Y21679   5.913   5.426   7.366  0.7449  1.3983 -1.9664
  188SAPI   C3721680   5.745   5.308   7.444  0.5543  0.1774 -0.5698
  188SAPI   H7X21681   5.809   5.217   7.447  0.8706  0.3413 -1.7815
  188SAPI   H7Y21682   5.643   5.282   7.408  0.3374 -0.4326  0.4407
  188SAPI   C3821683   5.734   5.377   7.579  0.2414  0.0119  0.1352
  188SAPI   H8X21684   5.666   5.465   7.573 -0.2435 -0.1515  2.5553
  188SAPI   H8Y21685   5.834   5.422   7.595  0.6158 -0.3925 -0.9541
  188SAPI   C3921686   5.705   5.288   7.696  0.3047  0.1911  0.4335
  188SAPI   H9X21687   5.758   5.191   7.689  0.3094  0.1915  0.4627
  188SAPI   H9Y21688   5.597   5.279   7.723  0.9190  1.0989  3.6680
  188SAPI  C31021689   5.773   5.357   7.815 -0.0090  0.6537 -0.2422
  188SAPI  H10X21690   5.747   5.465   7.822 -3.6350 -0.0077 -1.1030
  188SAPI  H10Y21691   5.880   5.339   7.792 -0.6429 -4.2076 -0.2931
  188SAPI  C31121692   5.734   5.287   7.949  0.2422  0.5750 -0.0838
  188SAPI  H11X21693   5.748   5.180   7.921 -0.4406 -0.4364  3.0733
  188SAPI  H11Y21694   5.624   5.301   7.959  0.0566 -0.2257 -0.8603
  188SAPI  C31221695   5.819   5.328   8.071 -0.3151 -0.2408  0.2498
  188SAPI  H12X21696   5.818   5.438   8.090 -2.8463 -0.1101 -0.3223
  188SAPI  H12Y21697   5.926   5.303   8.056  0.7736  3.5765  0.5155
  188SAPI  C31321698   5.776   5.241   8.193 -0.1277 -0.1823  0.1665
  188SAPI  H13X21699   5.854   5.275   8.265  0.0522 -1.5730  0.6540
  188SAPI  H13Y21700   5.802   5.135   8.178  0.5334 -0.1801  1.2436
  188SAPI  C31421701   5.634   5.264   8.240 -0.3842 -0.1918  0.5202
  188SAPI  H14X21702   5.567   5.195   8.186 -0.0488 -0.8240  0.9043
  188SAPI  H14Y21703   5.607   5.367   8.208 -0.5433 -0.8082 -1.4791
  188SAPI  C31521704   5.612   5.253   8.390 -0.3991  0.1500 -0.1029
  188SAPI  H15X21705   5.679   5.329   8.434  0.9857  1.1398 -3.5874
  188SAPI  H15Y21706   5.651   5.155   8.424 -0.0384  0.3972  0.1907
  188SAPI  C31621707   5.470   5.258   8.446 -0.8304  0.8011  1.3259
  188SAPI  H16X21708   5.431   5.157   8.421 -0.6398  0.8973  0.6153
  188SAPI  H16Y21709   5.405   5.332   8.394 -0.4729  0.3421  0.2015
  188SAPI  C31721710   5.464   5.285   8.587 -0.4413  0.9536 -1.0145
  188SAPI  H17X21711   5.486   5.392   8.606 -1.2962  1.5619 -3.1306
  188SAPI  H17Y21712   5.545   5.235   8.644 -1.3001  0.7902  0.1011
  188SAPI  C31821713   5.324   5.260   8.633  0.4088  1.0393 -0.5320
  188SAPI  H18X21714   5.317   5.150   8.623 -0.9182  1.0182  0.4579
  188SAPI  H18Y21715   5.242   5.305   8.573 -0.7630 -1.5161 -1.0048
  188SAPI  H18Z21716   5.303   5.278   8.741  0.6356 -0.6409 -0.1772
  189POPC     N21717   4.634   5.206  10.836  0.4719  0.0524 -0.6305
  189POPC   C1221718   4.521   5.263  10.750  0.4361 -0.2100  0.9297
  189POPC  H12A21719   4.447   5.316  10.808 -1.0065  0.7688 -1.6237
  189POPC  H12B21720   4.467   5.176  10.715 -0.4874  0.5510  0.3983
  189POPC   C1321721   4.727   5.313  10.892  0.2611 -0.0726  0.7244
  189POPC  H13A21722   4.819   5.276  10.932 -0.1481 -1.2335  0.6211
  189POPC  H13B21723   4.752   5.389  10.819  0.0332 -0.6282  0.0619
  189POPC  H13C21724   4.679   5.368  10.972 -0.5692  0.7195 -0.2670
  189POPC   C1421725   4.571   5.122  10.943 -0.1376  0.0560  0.5142
  189POPC  H14A21726   4.531   5.183  11.022  0.9997  1.3361  0.1518
  189POPC  H14B21727   4.496   5.058  10.900 -0.2863  0.3782  0.2888
  189POPC  H14C21728   4.643   5.061  10.995  0.5941  1.0061  0.6395
  189POPC   C1521729   4.716   5.118  10.749 -0.1288 -0.5382  0.3770
  189POPC  H15A21730   4.738   5.168  10.655  0.2370  0.9545  1.2264
  189POPC  H15B21731   4.658   5.034  10.715 -0.9024  0.2467 -0.2892
  189POPC  H15C21732   4.800   5.075  10.801 -1.0665 -1.2744  1.3294
  189POPC   C1121733   4.558   5.364  10.638  0.5639 -0.1922  0.2824
  189POPC  H11A21734   4.479   5.399  10.568  0.5988 -0.8429 -0.0946
  189POPC  H11B21735   4.620   5.301  10.571 -1.2642 -1.0270 -0.7106
  189POPC     P21736   4.539   5.599  10.739  0.3086  0.1717  0.1149
  189POPC   O1321737   4.622   5.706  10.801 -0.3284 -1.0552  0.3714
  189POPC   O1421738   4.437   5.546  10.832 -0.3594  0.2445 -0.3137
  189POPC   O1221739   4.628   5.483  10.678  0.6364 -0.2348  0.2543
  189POPC   O1121740   4.469   5.645  10.603 -0.1390  0.0822 -0.2502
  189POPC    C121741   4.475   5.780  10.558  0.9233  0.6641  0.3527
  189POPC    HA21742   4.578   5.819  10.545  1.0611  0.4907  0.8684
  189POPC    HB21743   4.420   5.844  10.631  0.3954  0.4255  0.1641
  189POPC    C221744   4.407   5.804  10.415  0.6042 -0.2096  0.4448
  189POPC    HS21745   4.306   5.763  10.439 -0.0023  1.7154  1.3925
  189POPC   O2121746   4.482   5.732  10.311 -0.1141 -0.2129 -0.4334
  189POPC   C2121747   4.441   5.608  10.282  0.5743  0.4032 -0.6946
  189POPC   O2221748   4.331   5.571  10.309  0.8887  0.3843  0.1176
  189POPC   C2221749   4.536   5.531  10.196  0.1212 -0.6225  0.5346
  189POPC   H2R21750   4.584   5.456  10.262 -2.0587 -2.5079  0.1276
  189POPC   H2S21751   4.603   5.610  10.156 -2.0124  1.5727  1.0520
  189POPC    C321752   4.402   5.955  10.373  0.3137 -0.0418 -0.0118
  189POPC    HX21753   4.509   5.984  10.369  0.4110 -0.5158 -1.6994
  189POPC    HY21754   4.355   6.020  10.450  0.8935 -0.8562  1.0661
  189POPC   O3121755   4.348   5.982  10.238 -0.3317  0.0247  0.1624
  189POPC   C3121756   4.228   5.936  10.210 -0.8040 -0.1165 -0.0571
  189POPC   O3221757   4.151   5.895  10.291  0.0441 -0.0285  0.3230
  189POPC   C3221758   4.207   5.961  10.064 -0.3214  0.4068  0.5536
  189POPC   H2X21759   4.286   5.906  10.008 -0.4741  0.6223  0.1229
  189POPC   H2Y21760   4.224   6.068  10.040  1.6433 -0.0304 -0.1855
  189POPC   C2321761   4.459   5.449  10.095 -0.1748  0.4444 -0.0517
  189POPC   H3R21762   4.381   5.382  10.137 -1.7466  3.4563  2.2200
  189POPC   H3S21763   4.530   5.387  10.036  0.6076  1.0212  0.2667
  189POPC   C2421764   4.390   5.531   9.988 -0.1114 -0.2060  0.4498
  189POPC   H4R21765   4.455   5.576   9.910 -2.2538  2.1678 -0.0925
  189POPC   H4S21766   4.343   5.620  10.036  2.7185  1.3288  0.6247
  189POPC   C2521767   4.277   5.454   9.914 -0.3316 -0.0330 -0.0045
  189POPC   H5R21768   4.202   5.416   9.987 -0.3287  2.6707  1.5371
  189POPC   H5S21769   4.321   5.367   9.859 -1.2347  0.1996 -1.1189
  189POPC   C2621770   4.191   5.537   9.811  0.0134  1.1955  0.4431
  189POPC   H6R21771   4.158   5.631   9.861  2.4231  1.7720  1.0979
  189POPC   H6S21772   4.107   5.470   9.783 -1.1739  1.6846  2.5834
  189POPC   C2721773   4.282   5.559   9.687 -0.2877 -0.4065 -0.2433
  189POPC   H7R21774   4.349   5.476   9.657  2.4791  1.2870  0.8567
  189POPC   H7S21775   4.355   5.641   9.702 -0.1443 -0.5773 -0.0291
  189POPC   C2821776   4.191   5.600   9.569  0.0253  0.3116 -0.4329
  189POPC   H8R21777   4.126   5.684   9.601  2.2311  2.4546 -1.2227
  189POPC   H8S21778   4.138   5.509   9.533  0.5841 -0.0796 -0.2794
  189POPC   C2921779   4.275   5.644   9.456  0.4573  0.0227 -0.3002
  189POPC   H9121780   4.314   5.746   9.463  1.3607 -0.3091 -0.2802
  189POPC  C21021781   4.309   5.577   9.345 -0.0697 -0.5278 -0.1546
  189POPC  H10121782   4.389   5.618   9.282  0.2829 -2.8802 -1.3719
  189POPC  C21121783   4.281   5.435   9.307 -0.1802  0.1919  0.2891
  189POPC  H11R21784   4.182   5.389   9.327  1.2307 -2.2856  2.1538
  189POPC  H11S21785   4.350   5.368   9.363  0.5029 -0.7586 -1.5757
  189POPC  C21221786   4.309   5.407   9.160  0.5037  0.1559 -0.2599
  189POPC  H12R21787   4.419   5.396   9.156  0.5472  0.5668 -0.2034
  189POPC  H12S21788   4.262   5.484   9.095 -2.2762 -0.5341  0.7700
  189POPC  C21321789   4.265   5.265   9.118  0.0504 -0.2429 -0.2642
  189POPC  H13R21790   4.154   5.257   9.118 -0.0784  1.2255  0.4995
  189POPC  H13S21791   4.294   5.188   9.193  0.0192  0.6765  0.7038
  189POPC  C21421792   4.312   5.251   8.980  0.1925  0.1322  0.1968
  189POPC  H14R21793   4.423   5.261   8.978  0.2334 -0.0287  1.1197
  189POPC  H14S21794   4.266   5.329   8.915  1.1444 -1.6973 -2.9042
  189POPC  C21521795   4.276   5.119   8.913  0.5097  0.5296 -0.4906
  189POPC  H15R21796   4.168   5.100   8.894 -0.1503  0.9346  2.4610
  189POPC  H15S21797   4.305   5.028   8.971 -2.8000 -0.7714 -0.6536
  189POPC  C21621798   4.338   5.111   8.767  0.3779 -0.8984 -0.5940
  189POPC  H16R21799   4.446   5.092   8.787  0.1176 -2.1187 -0.2944
  189POPC  H16S21800   4.328   5.215   8.728  1.3224  0.0614  1.5470
  189POPC  C21721801   4.273   5.004   8.684  0.0119  0.0962  0.2075
  189POPC  H17R21802   4.166   5.029   8.672 -1.0316 -3.4857  0.7361
  189POPC  H17S21803   4.264   4.909   8.741 -0.5810  0.5179  0.8406
  189POPC  C21821804   4.338   4.988   8.545  0.0088 -0.2468 -0.0808
  189POPC  H18R21805   4.448   4.998   8.555  0.1035  0.0482 -1.2823
  189POPC  H18S21806   4.302   5.068   8.477 -0.6840  1.5174  2.1987
  189POPC  H18T21807   4.314   4.886   8.508 -0.8867 -0.2052  0.3517
  189POPC   C3321808   4.068   5.914  10.023  0.6524  0.0233 -0.3018
  189POPC   H3X21809   3.987   5.928  10.098  1.0400  0.6765  0.0033
  189POPC   H3Y21810   4.069   5.807   9.991 -0.6217  0.2658 -1.2750
  189POPC   C3421811   4.021   6.001   9.901 -0.1541  0.3460 -0.6192
  189POPC   H4X21812   3.981   6.102   9.926  0.5230  0.2471  1.0118
  189POPC   H4Y21813   3.934   5.946   9.859  0.1560 -0.1722 -0.5905
  189POPC   C3521814   4.118   6.007   9.784  0.1499 -0.5192  0.0431
  189POPC   H5X21815   4.159   5.904   9.780 -0.8423 -1.1144  2.9974
  189POPC   H5Y21816   4.205   6.075   9.796  0.8742 -1.1810 -1.2270
  189POPC   C3621817   4.049   6.038   9.652 -0.4853  0.2050 -0.1426
  189POPC   H6X21818   4.007   6.140   9.663  0.7887  0.7561 -0.2239
  189POPC   H6Y21819   3.962   5.969   9.646 -0.4004  0.1655 -1.1099
  189POPC   C3721820   4.136   6.021   9.530 -0.7798 -0.5458 -0.1797
  189POPC   H7X21821   4.198   5.928   9.529 -0.8730 -0.6083 -1.0453
  189POPC   H7Y21822   4.213   6.101   9.531  0.4315 -1.6755  1.6579
  189POPC   C3821823   4.052   6.019   9.400 -0.4661 -0.3422  0.0098
  189POPC   H8X21824   3.998   6.116   9.407  0.7655  0.3633  0.0049
  189POPC   H8Y21825   3.983   5.932   9.400 -0.6905 -0.1869  1.8032
  189POPC   C3921826   4.144   6.018   9.276  0.3109 -0.3699  0.0096
  189POPC   H9X21827   4.204   5.925   9.286  0.9207 -0.0049 -0.2207
  189POPC   H9Y21828   4.201   6.114   9.281 -0.2169 -0.1059  1.7896
  189POPC  C31021829   4.070   6.017   9.142  0.1200  0.1514  0.3255
  189POPC  H10X21830   4.001   6.104   9.145 -0.0512 -0.0054  1.6282
  189POPC  H10Y21831   4.020   5.921   9.119 -0.0241  0.8256 -2.4121
  189POPC  C31121832   4.157   6.036   9.013  1.0946  0.3723  0.1320
  189POPC  H11X21833   4.231   5.954   9.000  0.9604  0.1459  0.7392
  189POPC  H11Y21834   4.211   6.133   9.012 -0.2385  1.1378  0.1555
  189POPC  C31221835   4.070   6.032   8.884 -0.3582  0.0437 -0.1801
  189POPC  H12X21836   3.993   6.112   8.890 -0.0125  0.5244 -1.6917
  189POPC  H12Y21837   4.011   5.938   8.881 -0.6035  0.1211  1.3911
  189POPC  C31321838   4.166   6.052   8.767 -0.1964 -0.2006  0.0591
  189POPC  H13X21839   4.249   5.978   8.768 -0.5430 -0.6347  1.7913
  189POPC  H13Y21840   4.221   6.148   8.764 -3.1064  1.5501 -2.2779
  189POPC  C31421841   4.098   6.042   8.630  0.0787 -0.3012 -0.2572
  189POPC  H14X21842   4.014   6.115   8.631  1.0456  0.8673  1.4641
  189POPC  H14Y21843   4.043   5.945   8.635 -0.7547  0.1000 -1.2353
  189POPC  C31521844   4.199   6.057   8.519  0.8157  0.4515 -0.0690
  189POPC  H15X21845   4.275   6.129   8.556  2.6751 -0.1494 -2.4418
  189POPC  H15Y21846   4.157   6.104   8.427  1.5567  0.5014 -0.3871
  189POPC  C31621847   4.271   5.933   8.490 -0.2215  0.8005 -0.1356
  189POPC  H16X21848   4.192   5.861   8.461 -0.2130  0.4478  0.6942
  189POPC  H16Y21849   4.340   5.901   8.571 -0.4142 -3.8259 -1.4862
  189POPC  H16Z21850   4.329   5.938   8.395 -2.0038 -0.4812 -1.3383
  190POPC     N21851   0.103   2.130  10.716  0.7072 -0.1352 -0.1946
  190POPC   C1221852   0.018   2.007  10.757  0.3299  0.3974  0.1195
  190POPC  H12A21853   0.038   1.931  10.683 -0.2007 -0.0270  0.4047
  190POPC  H12B21854  -0.082   2.042  10.741  0.1535 -0.4637 -0.7061
  190POPC   C1321855   0.247   2.100  10.718  0.4537  0.7160 -0.1154
  190POPC  H13A21856   0.277   2.041  10.633 -0.1991 -1.1004  0.8557
  190POPC  H13B21857   0.310   2.187  10.705 -0.0263  1.0529 -0.2199
  190POPC  H13C21858   0.277   2.050  10.809 -1.2338  2.6063  1.5826
  190POPC   C1421859   0.074   2.151  10.577  0.0818 -0.2016  0.0971
  190POPC  H14A21860   0.103   2.063  10.522  2.0911  0.7864 -0.5098
  190POPC  H14B21861  -0.033   2.166  10.570 -0.1390 -1.1009  1.2558
  190POPC  H14C21862   0.121   2.236  10.529 -2.6111  0.9900 -0.6474
  190POPC   C1521863   0.068   2.246  10.794 -0.2373 -1.1198  0.0083
  190POPC  H15A21864   0.117   2.230  10.889  2.3494  0.6086 -0.9264
  190POPC  H15B21865  -0.040   2.245  10.793 -0.2604 -0.4951 -2.0559
  190POPC  H15C21866   0.111   2.334  10.748 -2.0180 -1.5289 -2.6145
  190POPC   C1121867   0.035   1.943  10.896 -0.1900  0.2969  0.2813
  190POPC  H11A21868   0.137   1.901  10.911  0.3392  1.2813 -0.3989
  190POPC  H11B21869  -0.024   1.850  10.896 -0.6037  0.5553 -0.1982
  190POPC     P21870  -0.154   2.053  11.033  0.5606 -0.1725  0.1090
  190POPC   O1321871  -0.193   2.196  11.067 -0.3726  0.3522 -0.1158
  190POPC   O1421872  -0.179   1.950  11.127 -0.0224  0.3408 -0.3866
  190POPC   O1221873   0.000   2.038  10.999  0.4029 -0.2943 -0.6776
  190POPC   O1121874  -0.217   2.018  10.893 -0.1840 -0.0099 -0.4048
  190POPC    C121875  -0.339   1.937  10.879  0.2050 -0.1764  1.1921
  190POPC    HA21876  -0.419   1.962  10.952 -1.8925 -0.1005 -0.9988
  190POPC    HB21877  -0.319   1.832  10.907 -0.0091 -0.6326 -0.2629
  190POPC    C221878  -0.385   1.944  10.729 -0.0458  0.0257 -0.3401
  190POPC    HS21879  -0.310   1.896  10.663  1.2725  0.4109  0.8043
  190POPC   O2121880  -0.432   2.073  10.685 -0.5354 -0.4492 -0.1883
  190POPC   C2121881  -0.350   2.128  10.597 -1.0334 -0.1416 -0.1701
  190POPC   O2221882  -0.240   2.080  10.559  0.2613  0.1717 -0.0499
  190POPC   C2221883  -0.392   2.261  10.551  0.1180  0.1730  0.2149
  190POPC   H2R21884  -0.303   2.319  10.519  0.4773 -1.2356 -1.5206
  190POPC   H2S21885  -0.443   2.310  10.636 -0.3988 -1.5367  0.9244
  190POPC    C321886  -0.504   1.852  10.712  0.5080  0.2363  0.4882
  190POPC    HX21887  -0.585   1.870  10.787 -0.1446  0.2053 -0.1931
  190POPC    HY21888  -0.479   1.747  10.740 -2.1128 -0.8159 -0.7636
  190POPC   O3121889  -0.564   1.852  10.575  0.5456  0.2824 -0.0190
  190POPC   C3121890  -0.534   1.745  10.502  0.0949  0.0706  0.3047
  190POPC   O3221891  -0.442   1.668  10.520  0.6693 -0.1879 -0.9934
  190POPC   C3221892  -0.632   1.721  10.388  0.4990 -0.0491 -0.0943
  190POPC   H2X21893  -0.713   1.796  10.406 -0.6925 -1.1500 -0.7151
  190POPC   H2Y21894  -0.670   1.620  10.414 -0.2573  0.1575 -0.3796
  190POPC   C2321895  -0.495   2.258  10.433  0.6828  0.4938  0.6833
  190POPC   H3R21896  -0.513   2.365  10.407 -1.1476 -0.1923 -1.0742
  190POPC   H3S21897  -0.589   2.217  10.476  0.5354  1.3689  1.2306
  190POPC   C2421898  -0.444   2.177  10.309  0.5003 -0.0313 -0.2790
  190POPC   H4R21899  -0.420   2.071  10.332 -1.7138 -1.1705 -2.6783
  190POPC   H4S21900  -0.363   2.231  10.255  2.0795 -2.4437 -0.4618
  190POPC   C2521901  -0.555   2.149  10.203  0.9578 -0.4361  0.2098
  190POPC   H5R21902  -0.581   2.255  10.181 -0.6703 -0.9395 -0.4330
  190POPC   H5S21903  -0.643   2.101  10.252 -0.7019  2.6725  0.5329
  190POPC   C2621904  -0.506   2.094  10.064 -0.0225 -0.1281  0.4762
  190POPC   H6R21905  -0.478   1.988  10.083 -0.1491 -0.3082 -0.3102
  190POPC   H6S21906  -0.411   2.140  10.029  0.1280 -0.8957 -0.1542
  190POPC   C2721907  -0.602   2.090   9.948 -0.2697 -1.2200 -0.3121
  190POPC   H7R21908  -0.650   2.189   9.932 -1.3504 -1.0959  2.8957
  190POPC   H7S21909  -0.683   2.018   9.973  0.8791 -1.6156  2.6895
  190POPC   C2821910  -0.533   2.045   9.817 -0.3672 -0.2601 -0.0767
  190POPC   H8R21911  -0.614   2.023   9.745  0.3409  1.7288 -1.5637
  190POPC   H8S21912  -0.476   1.951   9.838  0.2783  0.0979 -0.2069
  190POPC   C2921913  -0.451   2.162   9.760 -0.6368  0.0480  0.8479
  190POPC   H9121914  -0.407   2.235   9.829  1.7752 -1.7456  1.3544
  190POPC  C21021915  -0.451   2.189   9.627  0.9765 -0.0064  1.0987
  190POPC  H10121916  -0.389   2.274   9.593 -0.4716  0.7005  0.1301
  190POPC  C21121917  -0.515   2.110   9.515  0.0558  0.3265 -0.3566
  190POPC  H11R21918  -0.624   2.109   9.498  0.5603  1.5188 -4.8206
  190POPC  H11S21919  -0.494   2.001   9.523  0.1892  0.3736 -0.0489
  190POPC  C21221920  -0.445   2.143   9.383 -0.3099  0.7636  0.2873
  190POPC  H12R21921  -0.336   2.134   9.400 -0.4937  0.1059  1.1807
  190POPC  H12S21922  -0.461   2.251   9.361  2.5422  1.2831  0.3136
  190POPC  C21321923  -0.496   2.059   9.265  0.0767 -0.2655  0.7897
  190POPC  H13R21924  -0.606   2.064   9.253  0.2429  3.0552 -0.4762
  190POPC  H13S21925  -0.456   1.958   9.289  2.5798  0.8527  1.7480
  190POPC  C21421926  -0.441   2.095   9.122  0.0691 -0.4435  0.3709
  190POPC  H14R21927  -0.336   2.062   9.106 -0.2512 -1.1914 -0.2389
  190POPC  H14S21928  -0.442   2.206   9.112  0.3726 -0.1475  2.9233
  190POPC  C21521929  -0.525   2.040   9.003 -0.2653  0.3316  0.7444
  190POPC  H15R21930  -0.633   2.065   9.000 -0.1260  0.8631 -0.8854
  190POPC  H15S21931  -0.517   1.929   9.009 -0.9742 -0.0675 -3.1127
  190POPC  C21621932  -0.457   2.075   8.870  0.1418  0.4354  0.2509
  190POPC  H16R21933  -0.496   2.011   8.788 -0.2611  1.0540 -0.0490
  190POPC  H16S21934  -0.349   2.059   8.888  0.1872  0.1364 -0.3000
  190POPC  C21721935  -0.471   2.221   8.824  0.5247  0.0389  0.9186
  190POPC  H17R21936  -0.451   2.294   8.905  0.7890  1.7895 -0.6613
  190POPC  H17S21937  -0.576   2.240   8.792  1.0197  2.4560  0.5559
  190POPC  C21821938  -0.387   2.255   8.697  0.1506  0.0572  0.5733
  190POPC  H18R21939  -0.377   2.178   8.618 -0.7025  0.6658 -0.1458
  190POPC  H18S21940  -0.282   2.276   8.727  1.3274  0.6241 -3.3395
  190POPC  H18T21941  -0.436   2.340   8.645 -1.4287 -0.5713  0.9894
  190POPC   C3321942  -0.573   1.740  10.255  0.8608 -0.5015  1.1429
  190POPC   H3X21943  -0.492   1.665  10.242  0.6551 -0.4801 -0.5534
  190POPC   H3Y21944  -0.535   1.843  10.237 -0.2821 -0.4695 -1.7103
  190POPC   C3421945  -0.684   1.722  10.148  0.2666 -0.2140 -0.4646
  190POPC   H4X21946  -0.758   1.800  10.119  0.6932  0.3494 -0.0425
  190POPC   H4Y21947  -0.726   1.619  10.156  0.3601 -0.1789  0.5706
  190POPC   C3521948  -0.620   1.695  10.007  0.2283  0.3048  0.2413
  190POPC   H5X21949  -0.569   1.600  10.032  0.7212  0.8275  1.2868
  190POPC   H5Y21950  -0.551   1.777   9.978 -0.5388  0.4110 -1.3982
  190POPC   C3621951  -0.724   1.684   9.897 -0.3395 -0.0973 -0.6276
  190POPC   H6X21952  -0.790   1.770   9.922 -0.2557  0.2677 -1.6465
  190POPC   H6Y21953  -0.789   1.595   9.913 -1.8806  1.0120 -0.4232
  190POPC   C3721954  -0.671   1.683   9.749 -0.2235 -0.0545 -0.3414
  190POPC   H7X21955  -0.626   1.582   9.738  1.1261  0.5911 -1.0561
  190POPC   H7Y21956  -0.592   1.761   9.739 -1.2371  1.2622  1.4625
  190POPC   C3821957  -0.786   1.703   9.656  0.3918 -0.1760  0.4268
  190POPC   H8X21958  -0.862   1.776   9.693  0.0591  0.1969 -0.9639
  190POPC   H8Y21959  -0.841   1.608   9.642 -0.6136  0.3529  0.6467
  190POPC   C3921960  -0.741   1.760   9.525 -0.4758  0.3197  0.2596
  190POPC   H9X21961  -0.664   1.696   9.478  0.9823  2.6933 -0.7876
  190POPC   H9Y21962  -0.689   1.856   9.546  2.7333 -1.0261 -0.8855
  190POPC  C31021963  -0.858   1.792   9.434 -0.7969 -0.2800  0.0215
  190POPC  H10X21964  -0.917   1.870   9.487 -0.2497 -1.6910  2.9305
  190POPC  H10Y21965  -0.923   1.702   9.426 -1.8578  0.4182  0.5481
  190POPC  C31121966  -0.814   1.851   9.301 -0.5840 -0.0857 -0.4786
  190POPC  H11X21967  -0.757   1.779   9.238  2.0093  0.8859  0.6113
  190POPC  H11Y21968  -0.736   1.927   9.324 -0.2322  0.0157 -1.8839
  190POPC  C31221969  -0.922   1.916   9.214 -0.0710  0.4916  0.1080
  190POPC  H12X21970  -0.868   1.987   9.147  2.0162  0.3166  1.5120
  190POPC  H12Y21971  -0.989   1.971   9.283 -2.0474 -1.3433 -0.2352
  190POPC  C31321972  -1.011   1.819   9.136  0.1011 -0.1527  0.4843
  190POPC  H13X21973  -1.116   1.855   9.129  0.2086 -0.0679 -0.8009
  190POPC  H13Y21974  -1.020   1.718   9.182  0.3772 -1.0300 -1.2931
  190POPC  C31421975  -0.965   1.795   8.991  0.0937  0.8168 -0.5434
  190POPC  H14X21976  -1.034   1.720   8.947  1.6014  0.7318 -2.8905
  190POPC  H14Y21977  -0.860   1.759   8.990  0.1830  1.0643 -1.5887
  190POPC  C31521978  -0.964   1.919   8.905  0.1306 -0.1031 -0.4161
  190POPC  H15X21979  -0.894   1.985   8.961 -0.5654 -0.3861  0.8258
  190POPC  H15Y21980  -1.060   1.975   8.908  0.3755  0.3083 -0.0144
  190POPC  C31621981  -0.923   1.899   8.758 -0.1671 -0.6653  0.7024
  190POPC  H16X21982  -0.945   1.992   8.702 -0.9707  0.0529  2.1286
  190POPC  H16Y21983  -0.971   1.805   8.722  0.4065  0.1223 -2.3564
  190POPC  H16Z21984  -0.815   1.875   8.745 -0.5213 -0.6675 -3.2369
  191POPC     N21985   5.661   3.398   6.104  0.1906  0.0010 -0.6995
  191POPC   C1221986   5.595   3.496   6.201  0.3377  0.9337 -0.2441
  191POPC  H12A21987   5.655   3.509   6.289  0.6579  0.6813 -0.4224
  191POPC  H12B21988   5.514   3.441   6.247  1.6802 -0.6529  0.3364
  191POPC   C1321989   5.677   3.260   6.167 -0.6128  0.2757 -0.1117
  191POPC  H13A21990   5.583   3.207   6.158  0.2550 -1.3402 -0.0086
  191POPC  H13B21991   5.757   3.206   6.117 -0.1223 -0.1487  1.0850
  191POPC  H13C21992   5.706   3.273   6.270 -0.0420  1.3428 -0.3925
  191POPC   C1421993   5.590   3.389   5.978  0.0253  0.1781  0.1773
  191POPC  H14A21994   5.578   3.487   5.935  0.9520  0.4183  0.4303
  191POPC  H14B21995   5.650   3.333   5.908 -1.4035 -0.3840 -0.6275
  191POPC  H14C21996   5.497   3.336   5.992  0.4716 -0.8795 -0.6521
  191POPC   C1521997   5.795   3.449   6.072 -0.5463  0.1341 -0.5721
  191POPC  H15A21998   5.780   3.552   6.044 -0.1988  0.3722  0.0808
  191POPC  H15B21999   5.845   3.396   5.993 -0.8846  1.8895 -2.0216
  191POPC  H15C22000   5.856   3.445   6.162  1.6298 -0.2085 -1.9817
  191POPC   C1122001   5.549   3.631   6.141 -0.5655 -0.8959 -0.6158
  191POPC  H11A22002   5.477   3.690   6.201 -2.6341 -2.5754 -1.3058
  191POPC  H11B22003   5.484   3.612   6.053 -0.2499  1.4814 -1.4558
  191POPC     P22004   5.701   3.832   6.206 -0.5236 -0.1297 -0.2665
  191POPC   O1322005   5.651   3.953   6.137  0.5727 -0.4638 -0.0174
  191POPC   O1422006   5.851   3.828   6.221 -0.6743  0.2652 -0.0127
  191POPC   O1222007   5.659   3.708   6.112  0.4431  0.3589  0.6615
  191POPC   O1122008   5.620   3.811   6.339  0.3086  0.6306  0.3290
  191POPC    C122009   5.671   3.742   6.456 -0.3742 -0.4846  0.1296
  191POPC    HA22010   5.770   3.783   6.487  0.9141 -2.4354 -1.1326
  191POPC    HB22011   5.685   3.633   6.436 -2.6722 -0.4517 -2.0514
  191POPC    C222012   5.564   3.759   6.573 -0.0418  0.2671 -0.2307
  191POPC    HS22013   5.469   3.721   6.529  0.4144 -2.1481  0.7377
  191POPC   O2122014   5.551   3.901   6.615 -0.1606 -0.2014  0.2179
  191POPC   C2122015   5.654   3.963   6.664 -0.5885  0.6493 -0.1506
  191POPC   O2222016   5.766   3.916   6.667  0.5096 -0.0878 -0.1031
  191POPC   C2222017   5.607   4.095   6.712 -0.0353  0.0090 -0.2159
  191POPC   H2R22018   5.498   4.095   6.734  0.4060  0.0423  2.2065
  191POPC   H2S22019   5.625   4.158   6.622  0.0152 -0.5654 -0.6145
  191POPC    C322020   5.589   3.654   6.684  0.2315 -0.5389  0.4274
  191POPC    HX22021   5.695   3.661   6.715  1.6315  0.9573 -3.9713
  191POPC    HY22022   5.588   3.551   6.642  2.6290 -0.6691  0.5860
  191POPC   O3122023   5.491   3.685   6.787 -0.7221 -0.0066 -0.6617
  191POPC   C3122024   5.386   3.611   6.809  0.2058 -0.8353  0.3128
  191POPC   O3222025   5.355   3.516   6.746  0.4703 -0.3408 -0.1270
  191POPC   C3222026   5.318   3.675   6.934  0.8043 -0.2456  0.0236
  191POPC   H2X22027   5.239   3.601   6.961  1.7682 -0.8704  1.2292
  191POPC   H2Y22028   5.272   3.770   6.898 -1.6010 -1.0477  0.7845
  191POPC   C2322029   5.684   4.127   6.842 -0.5300 -0.0579 -0.3616
  191POPC   H3R22030   5.681   4.236   6.867 -0.8424  0.1061 -1.0849
  191POPC   H3S22031   5.792   4.111   6.823 -0.4215  2.3603 -2.3007
  191POPC   C2422032   5.651   4.032   6.960  0.1694 -0.3282 -0.2599
  191POPC   H4R22033   5.743   4.004   7.016  0.1303  2.4701  1.3855
  191POPC   H4S22034   5.614   3.933   6.925 -1.3107 -0.3843  1.3661
  191POPC   C2522035   5.545   4.089   7.066  1.2801 -0.3682 -0.0530
  191POPC   H5R22036   5.497   3.993   7.097  2.1813 -0.9585 -0.4404
  191POPC   H5S22037   5.461   4.144   7.018  1.3843  1.1435  1.4278
  191POPC   C2622038   5.601   4.157   7.188  0.7316 -0.1725  0.2793
  191POPC   H6R22039   5.633   4.258   7.155 -1.7230 -0.1201 -2.3813
  191POPC   H6S22040   5.695   4.102   7.212  1.5389  0.0195 -2.1663
  191POPC   C2722041   5.490   4.179   7.290  0.1746  1.2711  0.0345
  191POPC   H7R22042   5.460   4.079   7.329  1.4620  1.7459  2.5140
  191POPC   H7S22043   5.400   4.227   7.246 -0.5811  0.3812  0.5861
  191POPC   C2822044   5.533   4.270   7.409  0.1579  0.3185  0.1988
  191POPC   H8R22045   5.554   4.370   7.364  0.7103 -0.9324 -2.5151
  191POPC   H8S22046   5.627   4.228   7.452 -0.9416 -2.3710  0.1474
  191POPC   C2922047   5.415   4.296   7.504 -0.1377  0.4140  0.1436
  191POPC   H9122048   5.318   4.334   7.469 -0.7521  1.4604  2.7570
  191POPC  C21022049   5.421   4.270   7.638  0.0456 -0.7674 -0.4069
  191POPC  H10122050   5.342   4.286   7.713  0.0555 -0.7100 -0.4086
  191POPC  C21122051   5.545   4.221   7.710  0.8450 -0.0671 -0.3890
  191POPC  H11R22052   5.636   4.255   7.658 -0.8636 -0.3677 -3.8274
  191POPC  H11S22053   5.539   4.110   7.709 -1.1275 -0.0090 -0.0614
  191POPC  C21222054   5.565   4.270   7.862  0.2029 -0.4000  0.1495
  191POPC  H12R22055   5.594   4.377   7.854 -1.3662  0.1652  1.4754
  191POPC  H12S22056   5.653   4.211   7.894 -0.3292 -1.5300 -0.4022
  191POPC  C21322057   5.447   4.233   7.951 -0.4531  0.9068 -0.1320
  191POPC  H13R22058   5.413   4.131   7.926  0.4815  0.1794  1.4171
  191POPC  H13S22059   5.360   4.297   7.923 -0.4759  0.7073 -0.5262
  191POPC  C21422060   5.488   4.242   8.093  0.1613 -0.2363 -0.2245
  191POPC  H14R22061   5.547   4.335   8.109  0.7713 -0.8036  0.9097
  191POPC  H14S22062   5.562   4.161   8.111 -1.0617 -1.2830  0.2671
  191POPC  C21522063   5.368   4.234   8.185  0.4581 -0.6385 -0.3049
  191POPC  H15R22064   5.413   4.187   8.276  0.6230  0.0889  0.0000
  191POPC  H15S22065   5.285   4.170   8.149  0.4527 -0.7646 -0.0761
  191POPC  C21622066   5.315   4.367   8.230 -0.2154  0.2975  0.0903
  191POPC  H16R22067   5.269   4.413   8.140  0.3034  1.0421  0.1961
  191POPC  H16S22068   5.406   4.423   8.261  1.1069 -2.3624  1.4297
  191POPC  C21722069   5.210   4.362   8.341  0.5671 -0.3640 -0.1501
  191POPC  H17R22070   5.263   4.316   8.427 -0.2213 -0.6765  0.1771
  191POPC  H17S22071   5.115   4.313   8.312  0.6671  0.0738 -1.2686
  191POPC  C21822072   5.176   4.506   8.382 -1.0525 -0.6833 -0.6916
  191POPC  H18R22073   5.111   4.561   8.310 -1.2256 -1.2104 -0.9382
  191POPC  H18S22074   5.270   4.564   8.393 -0.7187 -1.4455  0.8232
  191POPC  H18T22075   5.134   4.520   8.484  0.0434 -1.0141 -0.1838
  191POPC   C3322076   5.410   3.707   7.051  0.2103  0.1679  0.2241
  191POPC   H3X22077   5.486   3.779   7.013  0.1466 -0.0450 -0.3106
  191POPC   H3Y22078   5.449   3.608   7.084 -1.8112 -0.8762 -0.4004
  191POPC   C3422079   5.340   3.754   7.173 -0.1220 -0.8554  0.4230
  191POPC   H4X22080   5.263   3.678   7.203  0.1909 -1.9853 -1.5007
  191POPC   H4Y22081   5.278   3.844   7.152 -0.9253 -1.7440 -1.2249
  191POPC   C3522082   5.431   3.775   7.294 -0.5035 -0.2633 -0.7320
  191POPC   H5X22083   5.503   3.853   7.262  1.8951 -3.0663 -2.6957
  191POPC   H5Y22084   5.491   3.683   7.311  2.1908  1.5401  0.2557
  191POPC   C3622085   5.351   3.813   7.422 -0.2292  0.2479 -0.5273
  191POPC   H6X22086   5.274   3.734   7.439 -0.2763  0.2624 -0.6757
  191POPC   H6Y22087   5.299   3.905   7.390 -1.4233 -0.4934 -0.7810
  191POPC   C3722088   5.432   3.815   7.552  0.5850 -0.1162 -0.0186
  191POPC   H7X22089   5.518   3.883   7.535  2.0167 -1.3037  2.0318
  191POPC   H7Y22090   5.467   3.712   7.577  1.3732  0.3541  0.8825
  191POPC   C3822091   5.337   3.860   7.666 -0.5117  0.6681  0.1107
  191POPC   H8X22092   5.256   3.784   7.678  0.3135 -0.2486  0.0554
  191POPC   H8Y22093   5.292   3.959   7.646 -0.1457  0.5454 -1.4374
  191POPC   C3922094   5.404   3.854   7.805  0.1016  0.1715  0.2014
  191POPC   H9X22095   5.471   3.941   7.821  0.9033 -0.4296  0.1686
  191POPC   H9Y22096   5.471   3.765   7.813  1.6683  1.4301  1.9269
  191POPC  C31022097   5.310   3.841   7.926 -0.3695 -0.4328  0.0000
  191POPC  H10X22098   5.232   3.763   7.914 -0.7664  0.0052 -0.3334
  191POPC  H10Y22099   5.258   3.939   7.938  1.0627  0.2139  1.2474
  191POPC  C31122100   5.402   3.812   8.044 -1.0207  0.3441 -0.6937
  191POPC  H11X22101   5.485   3.886   8.035 -1.2739  0.6515 -0.5238
  191POPC  H11Y22102   5.453   3.715   8.028  0.1962  0.2460  2.9328
  191POPC  C31222103   5.344   3.829   8.184  0.3698  0.1966 -0.3942
  191POPC  H12X22104   5.290   3.926   8.186  0.2237  0.1257 -0.9011
  191POPC  H12Y22105   5.420   3.830   8.265 -1.3855 -0.4163  1.3342
  191POPC  C31322106   5.249   3.723   8.223 -0.0031  0.6425 -0.0771
  191POPC  H13X22107   5.285   3.619   8.209 -0.0050  0.2712  2.2306
  191POPC  H13Y22108   5.163   3.725   8.154 -0.5892  2.9548  0.6308
  191POPC  C31422109   5.194   3.738   8.372  0.7409  0.0812  0.8292
  191POPC  H14X22110   5.103   3.674   8.373  1.4031 -1.1534 -2.8272
  191POPC  H14Y22111   5.171   3.843   8.399 -3.2026 -0.4545  0.1986
  191POPC  C31522112   5.296   3.684   8.471 -0.0546 -0.1899  0.7541
  191POPC  H15X22113   5.397   3.715   8.439  0.5346 -0.5706  2.1838
  191POPC  H15Y22114   5.308   3.574   8.460  4.2344  0.0707  1.4365
  191POPC  C31622115   5.264   3.721   8.616 -0.5041 -0.2111  0.4276
  191POPC  H16X22116   5.258   3.832   8.618  0.5356 -0.1412  0.0833
  191POPC  H16Y22117   5.342   3.687   8.688 -1.7006 -0.7734  1.4851
  191POPC  H16Z22118   5.168   3.679   8.652  0.6210  0.4929  4.8275
  192POPC     N22119   1.020   4.725   5.906 -0.9183 -0.4248 -0.4606
  192POPC   C1222120   1.039   4.720   6.055 -0.4473  0.5606 -0.3440
  192POPC  H12A22121   0.943   4.702   6.100  0.7817 -1.5870  1.6265
  192POPC  H12B22122   1.071   4.817   6.091  0.6918 -0.3484  1.1515
  192POPC   C1322123   1.144   4.734   5.830  0.0437 -0.9064  0.9468
  192POPC  H13A22124   1.201   4.822   5.856 -1.8871  0.3618  1.1672
  192POPC  H13B22125   1.204   4.645   5.835 -2.7475 -3.1802 -1.7739
  192POPC  H13C22126   1.119   4.751   5.726  1.2476  0.3474  0.8333
  192POPC   C1422127   0.949   4.594   5.863 -0.3965 -1.1191 -0.5619
  192POPC  H14A22128   0.862   4.576   5.923 -0.1739 -1.3061 -0.2932
  192POPC  H14B22129   0.912   4.599   5.761  1.1713 -0.0298 -1.1325
  192POPC  H14C22130   1.013   4.508   5.879  0.7643 -0.6888 -2.4825
  192POPC   C1522131   0.916   4.829   5.862 -0.2040 -0.2386 -0.1645
  192POPC  H15A22132   0.964   4.925   5.873 -0.2961 -0.3126  0.9018
  192POPC  H15B22133   0.823   4.809   5.914 -0.6702  0.1199 -0.8472
  192POPC  H15C22134   0.894   4.811   5.757  1.2558 -0.2059 -0.4952
  192POPC   C1122135   1.127   4.611   6.117  0.0485  0.3298  0.3133
  192POPC  H11A22136   1.121   4.515   6.062 -0.1466  0.1797  0.5946
  192POPC  H11B22137   1.089   4.592   6.219  3.4312 -4.6066  1.0454
  192POPC     P22138   1.358   4.607   6.243  0.1926 -0.1472 -0.0532
  192POPC   O1322139   1.496   4.600   6.188  0.6833 -0.7782 -0.0591
  192POPC   O1422140   1.313   4.479   6.309  1.0238 -0.2840 -0.0696
  192POPC   O1222141   1.261   4.652   6.123 -0.5128 -0.4669  0.1278
  192POPC   O1122142   1.351   4.726   6.348  0.2663 -0.2947 -0.0162
  192POPC    C122143   1.469   4.809   6.371  0.3185  0.0638  0.5942
  192POPC    HA22144   1.495   4.872   6.282  1.5373 -0.1967  0.7460
  192POPC    HB22145   1.554   4.746   6.404 -0.9852 -1.4249  1.2207
  192POPC    C222146   1.445   4.917   6.487  0.5724  1.1898 -0.3154
  192POPC    HS22147   1.537   4.979   6.487  1.5237 -0.1289  1.7879
  192POPC   O2122148   1.422   4.837   6.609  0.1315  0.1719 -0.2377
  192POPC   C2122149   1.447   4.901   6.714  0.1353  0.0962 -0.5827
  192POPC   O2222150   1.503   5.011   6.722 -0.6042  0.3292 -0.2535
  192POPC   C2222151   1.404   4.819   6.830 -0.9410  0.0435  0.0733
  192POPC   H2R22152   1.419   4.711   6.810  0.6394  0.4890 -1.3530
  192POPC   H2S22153   1.295   4.834   6.845 -1.1178 -0.9789 -0.1632
  192POPC    C322154   1.315   5.001   6.449  0.5876  0.0556  0.4909
  192POPC    HX22155   1.245   4.917   6.427  2.5236 -1.1555 -1.4144
  192POPC    HY22156   1.337   5.052   6.353 -0.8648  1.7931  1.0042
  192POPC   O3122157   1.274   5.081   6.560 -0.0351 -0.3053  0.4812
  192POPC   C3122158   1.299   5.212   6.556 -0.0295  0.2068  0.0269
  192POPC   O3222159   1.357   5.268   6.465  0.0441 -0.1151 -0.2222
  192POPC   C3222160   1.236   5.282   6.676 -0.0475  0.1066  0.3409
  192POPC   H2X22161   1.267   5.227   6.768 -0.3975  0.3342  0.5985
  192POPC   H2Y22162   1.128   5.275   6.655  0.2901 -0.8543 -1.2423
  192POPC   C2322163   1.468   4.859   6.960  0.1550 -0.8266 -0.4129
  192POPC   H3R22164   1.476   4.969   6.973 -2.3521 -0.3358 -2.2185
  192POPC   H3S22165   1.568   4.812   6.967  1.6217  2.2472  1.2730
  192POPC   C2422166   1.371   4.821   7.081  0.1446  0.4572  0.4085
  192POPC   H4R22167   1.332   4.717   7.075  0.7256  0.2763 -0.7251
  192POPC   H4S22168   1.280   4.883   7.081 -2.1670 -2.6902  0.6234
  192POPC   C2522169   1.430   4.847   7.225  0.0738  0.2346 -0.1790
  192POPC   H5R22170   1.531   4.801   7.235 -0.3889 -0.5635  1.0119
  192POPC   H5S22171   1.357   4.789   7.286 -0.1523 -1.1278 -1.6671
  192POPC   C2622172   1.437   4.988   7.281  0.5806 -0.1700 -0.0746
  192POPC   H6R22173   1.335   5.030   7.273  0.5044 -0.2448  0.4309
  192POPC   H6S22174   1.500   5.049   7.214 -2.6980  1.8271 -1.5342
  192POPC   C2722175   1.488   4.994   7.424  0.4377 -0.1510  0.2805
  192POPC   H7R22176   1.467   5.102   7.444 -1.9749 -0.7121  1.0273
  192POPC   H7S22177   1.597   4.973   7.423  0.9125  2.0878 -0.0258
  192POPC   C2822178   1.412   4.910   7.527  0.2619 -0.1531  0.3289
  192POPC   H8R22179   1.454   4.808   7.513  3.3498  1.0205  0.0381
  192POPC   H8S22180   1.302   4.916   7.512  0.6015  0.4640 -2.6596
  192POPC   C2922181   1.462   4.938   7.663  0.5347 -0.2640  0.5603
  192POPC   H9122182   1.526   5.026   7.682 -0.0303  0.0268  1.1286
  192POPC  C21022183   1.441   4.861   7.770 -0.8631  0.6946 -0.0133
  192POPC  H10122184   1.492   4.899   7.861  0.4082  2.0077 -1.2184
  192POPC  C21122185   1.361   4.732   7.772 -0.1325 -0.4965  0.0092
  192POPC  H11R22186   1.422   4.645   7.739  0.1521 -0.0692 -0.6218
  192POPC  H11S22187   1.271   4.738   7.707 -1.1767 -1.3827  1.3206
  192POPC  C21222188   1.317   4.698   7.911 -0.9656  0.2202 -0.9507
  192POPC  H12R22189   1.402   4.719   7.979  0.3439 -2.6944 -1.5168
  192POPC  H12S22190   1.314   4.589   7.930  2.9957  0.1440  0.0557
  192POPC  C21322191   1.187   4.769   7.952  0.0349  0.1805 -0.5356
  192POPC  H13R22192   1.104   4.763   7.878 -1.6622 -0.3857  1.3161
  192POPC  H13S22193   1.210   4.876   7.967  1.1691 -0.4070  2.6212
  192POPC  C21422194   1.115   4.721   8.081  0.3765  0.3103 -0.3605
  192POPC  H14R22195   1.057   4.629   8.058 -2.0345  1.9782 -1.4074
  192POPC  H14S22196   1.054   4.806   8.119  1.5685  0.8668  0.3782
  192POPC  C21522197   1.205   4.690   8.204  0.1484  0.5396  0.1297
  192POPC  H15R22198   1.276   4.773   8.221  1.0417 -0.0362 -0.6512
  192POPC  H15S22199   1.274   4.608   8.171  0.5764  1.8486 -2.5353
  192POPC  C21622200   1.121   4.645   8.330 -0.0509 -0.0185  0.6171
  192POPC  H16R22201   1.051   4.561   8.309 -0.3587 -0.0133  1.6065
  192POPC  H16S22202   1.055   4.727   8.362 -0.1951  0.1516 -0.0931
  192POPC  C21722203   1.211   4.594   8.441  0.0159  0.6278 -0.4316
  192POPC  H17R22204   1.266   4.684   8.477 -1.2476  0.9040  0.9220
  192POPC  H17S22205   1.282   4.521   8.396 -1.0153  1.5099 -3.7118
  192POPC  C21822206   1.148   4.532   8.564 -0.3491 -0.4382  0.4464
  192POPC  H18R22207   1.068   4.589   8.616 -0.2701 -0.6367  0.7911
  192POPC  H18S22208   1.223   4.523   8.645  0.2551  1.8135  0.2192
  192POPC  H18T22209   1.112   4.430   8.540  2.4442 -1.5045  0.4465
  192POPC   C3322210   1.277   5.427   6.673  0.0032 -0.8811 -0.4663
  192POPC   H3X22211   1.246   5.487   6.585  2.6057  2.0767  0.4573
  192POPC   H3Y22212   1.386   5.441   6.688  0.1200 -1.3433 -0.8935
  192POPC   C3422213   1.225   5.508   6.798  0.3752 -0.5110  0.7333
  192POPC   H4X22214   1.114   5.504   6.809  0.3625 -1.0417  0.4252
  192POPC   H4Y22215   1.238   5.618   6.792 -0.0271 -0.4249  1.3088
  192POPC   C3522216   1.284   5.472   6.933  0.3469  0.5024 -1.0606
  192POPC   H5X22217   1.394   5.493   6.932  0.9155 -1.2789  3.2074
  192POPC   H5Y22218   1.273   5.363   6.948 -1.4741  0.5995 -1.4659
  192POPC   C3622219   1.212   5.536   7.051 -0.5616  0.4278 -0.4610
  192POPC   H6X22220   1.111   5.490   7.055 -0.4843  0.2828 -0.0487
  192POPC   H6Y22221   1.197   5.646   7.040 -0.9568  0.6087  1.4087
  192POPC   C3722222   1.280   5.514   7.186  0.3703  0.3947 -0.2073
  192POPC   H7X22223   1.363   5.586   7.199 -0.4995  0.9992  2.7702
  192POPC   H7Y22224   1.309   5.407   7.182 -1.7451 -0.3037  1.1970
  192POPC   C3822225   1.179   5.535   7.308 -0.3453  0.2969  0.8808
  192POPC   H8X22226   1.090   5.471   7.293  1.4833 -1.8837 -1.5799
  192POPC   H8Y22227   1.153   5.643   7.301 -1.6802  0.0809  2.1082
  192POPC   C3922228   1.241   5.499   7.446  0.0827  0.0289  0.1186
  192POPC   H9X22229   1.221   5.574   7.525 -0.3288 -1.4129  1.4080
  192POPC   H9Y22230   1.352   5.497   7.436  0.4083 -0.8791  2.9844
  192POPC  C31022231   1.210   5.359   7.500  0.3160  0.3686  0.2411
  192POPC  H10X22232   1.247   5.275   7.438 -1.0156 -1.2362  1.5142
  192POPC  H10Y22233   1.105   5.343   7.532 -0.5688  2.4345 -1.3925
  192POPC  C31122234   1.296   5.330   7.620 -0.2183 -0.1103 -0.2961
  192POPC  H11X22235   1.387   5.393   7.629 -2.0056  2.9787 -2.2209
  192POPC  H11Y22236   1.321   5.222   7.631 -2.7949 -0.6897  0.5111
  192POPC  C31222237   1.229   5.366   7.756  0.0558 -0.1241  0.2802
  192POPC  H12X22238   1.140   5.300   7.764 -0.5785  0.7290  0.3914
  192POPC  H12Y22239   1.189   5.469   7.761  1.3886  0.3743  1.2267
  192POPC  C31322240   1.322   5.351   7.881 -0.3495 -0.2205  0.4392
  192POPC  H13X22241   1.394   5.435   7.888  1.8827 -1.9470 -0.3995
  192POPC  H13Y22242   1.389   5.262   7.875 -1.5293 -1.0320 -2.8600
  192POPC  C31422243   1.249   5.345   8.021  0.5524 -0.0166  0.4141
  192POPC  H14X22244   1.157   5.407   8.014 -1.2950 -2.2485  2.6232
  192POPC  H14Y22245   1.309   5.391   8.101  0.5695 -0.9781  0.9775
  192POPC  C31522246   1.210   5.205   8.071  0.2144  0.0789 -0.6596
  192POPC  H15X22247   1.184   5.130   7.993 -1.3598  0.0075 -0.1110
  192POPC  H15Y22248   1.127   5.231   8.140  0.9520  0.7378 -0.0111
  192POPC  C31622249   1.327   5.149   8.148 -0.1314 -0.7040 -0.6475
  192POPC  H16X22250   1.422   5.184   8.101 -3.0343  3.3400 -4.3953
  192POPC  H16Y22251   1.331   5.039   8.159 -3.3482 -0.9467 -1.0160
  192POPC  H16Z22252   1.320   5.195   8.249  0.2054 -0.5669 -0.6842
  193SOD    SOD22253   5.728   1.600  14.662 -0.0161 -0.0706  0.0344
  194SOD    SOD22254   6.769   0.402   5.731 -0.3214  0.1987 -0.6193
  195SOD    SOD22255   5.355   4.070  11.414  0.0363  0.1192  0.2033
  196SOD    SOD22256   4.608   1.081  11.567 -0.4459 -0.1184 -0.0443
  197SOD    SOD22257   5.338   1.460  16.622  0.4898  0.1536  0.3033
  198SOD    SOD22258   2.503   4.818   4.636 -0.4339 -0.3771 -0.2435
  199SOD    SOD22259   2.221   3.208   1.313 -0.2693  0.0620 -0.2890
  200SOD    SOD22260   0.334   2.147   1.112  0.1479 -0.2934 -0.3036
  201SOD    SOD22261   4.339   6.481   0.770  0.2447  0.1599 -0.4172
  202SOD    SOD22262   0.168   0.082  13.210  0.4954 -0.2118  0.1233
  203SOD    SOD22263   0.346   2.774  16.078 -0.5395 -0.3719  0.2622
  204SOD    SOD22264   3.574   6.224   5.741 -0.4213  0.3221  0.2543
  205SOD    SOD22265   5.209   4.738  17.169 -0.0852  0.3842  0.1329
  206SOD    SOD22266   6.138   1.349   5.960  0.1489 -0.0923 -0.7145
  207SOD    SOD22267   3.203   0.569  11.305 -0.3428  0.2535  0.1027
  208SOD    SOD22268   5.532   0.681  14.838 -0.2105  0.4034  0.3431
  209SOD    SOD22269   2.857   4.623   5.022  0.1191 -0.4123  0.1740
  210SOD    SOD22270   2.669   1.989   1.910  0.4155 -0.0110 -0.0086
  211SOD    SOD22271   0.751   3.030   5.531 -0.5855  0.1627 -0.5567
  212SOD    SOD22272   2.856   2.370   6.158 -0.0927  0.4379  0.0259
  213SOD    SOD22273   4.810   6.769   0.883  0.0378 -0.2074  0.2673
  214SOD    SOD22274   2.354   6.530  13.780  0.4258  0.4275 -0.6531
  215SOD    SOD22275   3.739   6.387  13.972  0.3663  0.0175  0.2661
  216SOD    SOD22276   5.884   6.424  16.107 -0.0469 -0.0321  0.1487
  217SOD    SOD22277   2.329   3.835  14.206  0.1418  0.4486  0.2793
  218SOD    SOD22278   3.429   2.628  16.483 -0.2826 -0.0360 -0.0842
  219SOD    SOD22279   2.783   5.640  16.503  0.3277 -0.4258 -0.2237
  220SOD    SOD22280   6.132   1.234  14.569 -0.1376 -0.3859 -0.2421
  221SOD    SOD22281   0.423   1.146   5.448 -0.1707  0.2145  0.4460
  222SOD    SOD22282   2.783   4.682   1.411  0.0330  0.2055 -0.2604
  223SOD    SOD22283   4.732   6.300  12.634 -0.0210 -0.3004  0.0190
  224SOD    SOD22284   3.133   1.361   5.527 -0.0772  0.4281 -0.5259
  225SOD    SOD22285   1.500   0.469  15.661  0.3646 -0.2384  0.0579
  226SOD    SOD22286   5.184   3.500  15.458  0.1967 -0.2900  0.0871
  227SOD    SOD22287   2.281   0.686   6.669 -0.3368 -0.4396  0.6240
  228SOD    SOD22288   0.002   2.741  14.927 -0.1293 -0.1925  0.6567
  229SOD    SOD22289   5.576   5.863   4.370  0.3622  0.3167  0.1842
  230SOD    SOD22290   1.682   2.925  11.154 -0.0237  0.0141 -0.2880
  231SOD    SOD22291   5.635   1.210   1.225  0.0608  0.0195 -0.2231
  232SOD    SOD22292   6.692   3.652   5.275 -0.0091  0.0196  0.4194
  233SOD    SOD22293   0.718   1.274  12.812 -0.3905  0.2730 -0.1075
  234SOD    SOD22294   2.675   1.447   6.365 -0.0797 -0.4077  0.6611
  235SOD    SOD22295   5.266   4.119  15.260 -0.1376 -0.5608 -0.8456
  236SOD    SOD22296   6.775   2.970  11.304 -0.3556  0.0323 -0.3422
  237SOD    SOD22297   3.274   3.078  13.053  0.1048 -0.2467  0.0226
  238SOD    SOD22298   0.976   5.691   2.837  0.0764 -0.0195  0.4196
  239SOD    SOD22299   4.888   2.667  15.444 -0.2488  0.3553  0.4392
  240SOD    SOD22300   4.245   4.926   6.096 -0.1175 -0.3944  0.0940
  241SOD    SOD22301   4.859   4.275   4.882 -0.2447  0.6726  0.0611
  242SOD    SOD22302   2.042   2.450  15.945  0.0544  0.2066  0.2528
  243SOD    SOD22303   6.274   2.890   4.817 -0.0915  0.4045  0.2404
  244SOD    SOD22304   3.789   4.976   2.374 -0.4342 -0.0549  0.1602
  245SOD    SOD22305   1.477   5.501  11.620  0.2525 -0.3166 -0.0869
  246SOD    SOD22306   1.313   5.932   4.632  0.5968  0.2656 -0.1636
  247SOD    SOD22307   2.740   3.779   1.646  0.3195 -0.6322  0.0461
  248SOD    SOD22308   4.013   6.022  10.410 -0.1049  0.5929 -0.2370
  249SOD    SOD22309   1.039   6.156  14.320 -0.9253 -0.0488  0.0083
  250SOD    SOD22310   3.717   5.314  11.477  0.1228 -0.8167 -0.1894
  251SOD    SOD22311   1.624   3.779   5.768  0.1873 -0.2034 -0.2239
  252SOD    SOD22312   6.006   1.040  11.685 -0.3009  0.1384 -0.1404
  253SOD    SOD22313   3.420   5.678  13.751  0.2021  0.5782 -0.4939
  254SOD    SOD22314   0.879   1.641  15.087 -0.2654 -0.0728 -0.0682
  255SOD    SOD22315   5.952   3.758  13.463  0.2087  0.0883  0.3598
  256SOD    SOD22316   5.942   2.463   6.147  0.4220  0.5118  0.0860
  257SOD    SOD22317   5.149   6.781  15.320 -0.5830  0.1466 -0.1995
  258SOD    SOD22318   4.690   6.388  11.209  0.1358  0.2271 -0.7527
  259SOD    SOD22319   4.322   3.740  14.836 -0.3085 -0.0438  0.6305
  260SOD    SOD22320   5.393   0.457   5.221 -0.2486 -0.1806  0.7239
  261SOD    SOD22321   6.196   5.402  11.221 -0.0054 -0.3388 -0.1748
  262SOD    SOD22322   2.561   6.563   1.156  0.1165  0.4035  0.0637
  263SOD    SOD22323   5.077   1.791   2.405 -0.0296  0.0634  0.7455
  264SOD    SOD22324   4.655   0.396   4.840  0.4427 -0.5812  0.0483
  265SOD    SOD22325   5.863   0.192   0.469  0.3614  0.1595  0.3666
  266SOD    SOD22326   3.361   6.743   4.563  0.1951  0.1378  0.1004
  267SOD    SOD22327   6.308   4.240  11.479  0.4937  0.3907 -0.0012
  268SOD    SOD22328   2.015   1.520   5.408 -0.0023  0.3642 -0.5725
  269SOD    SOD22329   6.216   2.164   2.234 -0.1493  0.2586  0.1282
  270CLA    CLA22330   4.579   3.101  15.442  0.1968 -0.4296  0.4821
  271CLA    CLA22331   0.663   5.061   2.433  0.0345 -0.2736  0.6863
  272CLA    CLA22332   5.348   0.835  16.424  0.4469  0.0857  0.2197
  273CLA    CLA22333   0.288   2.871   0.016 -0.7378  0.0986  0.1356
  274CLA    CLA22334   4.786   1.046  14.708 -0.4570 -0.1519  0.2168
  275CLA    CLA22335   5.631   6.276  15.033 -0.0624 -0.8381  0.0955
  276CLA    CLA22336   5.286   1.682  12.271 -0.1903 -0.1038 -0.5557
  277CLA    CLA22337   3.151   0.680   4.270  0.2031  0.5187  0.4350
  278CLA    CLA22338   2.385   2.842   4.828 -0.0256  0.4239  0.3144
  279CLA    CLA22339   4.151   4.006  14.049  0.3900  0.2853  0.0166
  280CLA    CLA22340   3.834   5.019  15.765  0.1194  0.6833 -0.2305
  281CLA    CLA22341   5.415   0.498   4.724  0.0653 -0.2574 -0.4364
  282CLA    CLA22342   6.005   5.600   3.666 -0.1685 -0.0806 -0.3219
  283CLA    CLA22343   2.330   0.070  16.230 -0.2323 -0.3097 -0.0706
  284CLA    CLA22344   3.699   2.723  16.801  0.5183 -0.4750  0.2023
  285CLA    CLA22345   2.771   5.393  16.932  0.0890 -0.2936 -0.0247
  286CLA    CLA22346   4.104   0.357  15.544 -0.1184  0.0972 -0.1654
  287CLA    CLA22347   1.259   2.130   0.565 -0.1279  0.3882  0.0411
  288CLA    CLA22348   4.613   5.369  13.825  0.1538 -0.1596  0.5059
  289CLA    CLA22349   5.187   4.939  13.032 -0.1508  0.3660 -0.6003
  290CLA    CLA22350   0.084   2.965  14.554  0.3516  0.1659  0.1719
  291CLA    CLA22351   3.621   4.287   2.522 -0.1538 -0.5543 -0.1669
  292CLA    CLA22352   6.157   6.783   1.451  0.2038 -0.1010  0.2526
  293CLA    CLA22353   4.156   2.684  13.029 -0.2575  0.2927 -0.0355
  294CLA    CLA22354   2.114   5.837  16.377  0.1894  0.7669  0.1137
  295CLA    CLA22355   0.117   3.747  16.344  0.0832 -0.2628 -0.1414
  296CLA    CLA22356   5.348   1.680  15.299  0.3574 -0.1527 -0.2305
  297CLA    CLA22357   3.443   5.954   0.432  0.1197  0.2222 -0.0521
  298CLA    CLA22358   5.319   1.487   1.801  0.1403 -0.1071  0.3331
  299CLA    CLA22359   4.025   1.333   2.472 -0.3108  0.1452 -0.2635
  300CLA    CLA22360   0.806   1.021  14.871  0.0008 -0.0244  0.2070
  301CLA    CLA22361   3.330   5.915   4.586  0.1817  0.3235 -0.4702
  302CLA    CLA22362   4.271   5.022   3.083  0.0118  0.1059  0.2305
  303CLA    CLA22363   2.246   5.800   1.895 -0.6260 -0.4462  0.3270
  304CLA    CLA22364   6.382   2.342   5.237 -0.0042  0.0863 -0.4899
  305CLA    CLA22365   3.301   2.999   1.334  0.3997  0.1173 -0.1715
  306CLA    CLA22366   2.826   1.012  15.048  0.2399 -0.1027 -0.3652
  307CLA    CLA22367   2.607   5.456   1.841  0.2957 -0.1455  0.0459
  308CLA    CLA22368   6.212   5.498   4.671 -0.0569  0.0077 -0.0805
  309CLA    CLA22369   2.074   3.467  12.006 -0.1932  0.2862 -0.0102
  310CLA    CLA22370   5.838   3.720   0.276 -0.0439 -0.0962 -0.0692
  311CLA    CLA22371   3.948   0.495   4.964  0.0768  0.2418  0.2458
  312CLA    CLA22372   0.440   1.065   1.548 -0.3033  0.2177  0.2902
  313CLA    CLA22373   6.474   0.738   0.345 -0.4017 -0.3256 -0.2036
  314CLA    CLA22374   1.676   5.730  13.639 -0.1379 -0.0268  0.2563
  315CLA    CLA22375   1.894   4.529  14.103 -0.0598 -0.0598 -0.4005
  316CLA    CLA22376   5.969   3.275  14.524 -0.0948  0.1486  0.0723
  317CLA    CLA22377   0.116   2.205   3.108 -0.0067  0.4182  0.0886
  318CLA    CLA22378   2.263   5.190   4.377 -0.0019  0.5543 -0.5883
  319CLA    CLA22379   3.844   1.025   3.700 -0.3712  0.3667 -0.0324
  320CLA    CLA22380   2.522   4.943  14.926  0.1664 -0.1986 -0.2827
  321CLA    CLA22381   6.554   4.183   0.937 -0.2975 -0.1461  0.0536
  322CLA    CLA22382   0.387   4.949   1.389 -0.0648 -0.2168 -0.0394
  323TIP3   OH222383   3.436   4.837  16.331 -0.1361 -0.3329 -0.0405
  323TIP3    H122384   3.420   4.925  16.366  0.5242 -0.5718  0.8948
  323TIP3    H222385   3.529   4.838  16.306 -0.5084 -0.2777 -1.5031
  324TIP3   OH222386   0.354   5.222   5.493 -0.8848 -0.7430  0.4695
  324TIP3    H122387   0.283   5.184   5.546 -1.3504 -0.2050  0.2453
  324TIP3    H222388   0.342   5.316   5.501 -2.9614 -0.5109 -3.0579
  325TIP3   OH222389   5.538   0.686  16.630 -0.7389  0.3759 -0.5286
  325TIP3    H122390   5.544   0.761  16.689 -0.7504 -0.0475  0.0235
  325TIP3    H222391   5.476   0.714  16.562  0.6549  1.5349 -1.3761
  326TIP3   OH222392   6.616   3.275   5.085 -0.2125 -0.4425  0.0707
  326TIP3    H122393   6.709   3.255   5.087 -0.1555 -0.1298  0.8658
  326TIP3    H222394   6.573   3.199   5.124 -0.1287  0.1930  1.4713
  327TIP3   OH222395   5.506   6.783   0.453 -0.7094  0.6194 -0.5025
  327TIP3    H122396   5.529   6.782   0.360  0.8450  0.3354 -0.1388
  327TIP3    H222397   5.589   6.798   0.498 -1.2015 -0.6689  0.9018
  328TIP3   OH222398   1.210   2.586   3.464  0.1246  1.0214 -0.0015
  328TIP3    H122399   1.140   2.626   3.516 -1.1538 -0.1564 -0.7556
  328TIP3    H222400   1.209   2.494   3.489  1.0140  0.8744 -0.4688
  329TIP3   OH222401   5.552   1.817   5.754 -0.4808  0.7686  0.1320
  329TIP3    H122402   5.490   1.825   5.827 -1.2054 -0.0925 -0.3646
  329TIP3    H222403   5.501   1.778   5.683  0.0999  1.9680 -0.9955
  330TIP3   OH222404   1.050   4.940   0.442  0.1244 -0.1987  0.0169
  330TIP3    H122405   1.033   5.016   0.386  0.3439  0.1041  0.3542
  330TIP3    H222406   1.020   4.865   0.390 -0.0546  0.1122 -0.3375
  331TIP3   OH222407   6.336   0.668   1.273  0.3438 -0.5418 -0.0197
  331TIP3    H122408   6.420   0.696   1.311  0.7634  1.3375 -2.1296
  331TIP3    H222409   6.272   0.730   1.309 -0.6163 -2.9547  2.9136
  332TIP3   OH222410   1.560   0.309  11.352  0.0211  0.1345  0.4324
  332TIP3    H122411   1.553   0.369  11.278 -0.5701 -0.6335 -0.1490
  332TIP3    H222412   1.612   0.236  11.319 -1.9430 -1.1747  0.1104
  333TIP3   OH222413   6.300   4.988  16.687  0.2070 -0.5311 -0.8569
  333TIP3    H122414   6.255   4.933  16.751 -2.0729 -0.4288 -2.2522
  333TIP3    H222415   6.268   4.957  16.602  1.0720  1.0878 -1.8268
  334TIP3   OH222416   2.177   5.877  15.614 -0.2145 -0.2281 -0.2615
  334TIP3    H122417   2.210   5.941  15.677  1.0085 -0.1406 -0.9593
  334TIP3    H222418   2.217   5.902  15.531 -2.8928  0.5156 -1.4353
  335TIP3   OH222419   0.492   5.444  14.304  0.2116  0.1876  0.2344
  335TIP3    H122420   0.480   5.395  14.385  0.4150 -0.9053 -0.3840
  335TIP3    H222421   0.585   5.467  14.303  0.0841  0.7523  0.6022
  336TIP3   OH222422   6.452   5.639  16.869  0.3543  0.1094 -0.4637
  336TIP3    H122423   6.377   5.679  16.824  0.3580  0.8659  0.1799
  336TIP3    H222424   6.513   5.617  16.799 -0.3654 -0.2930 -0.9748
  337TIP3   OH222425   2.934   0.471  16.153 -0.2048 -0.5060 -0.1582
  337TIP3    H122426   2.886   0.473  16.070  0.7138 -0.9637 -0.7147
  337TIP3    H222427   2.938   0.378  16.175 -0.9255 -0.3420  0.6908
  338TIP3   OH222428   0.456   1.213  15.989  0.2709  0.1413  0.1880
  338TIP3    H122429   0.453   1.125  16.026 -2.7600  0.0370 -0.0476
  338TIP3    H222430   0.414   1.268  16.055  1.8201  1.3749  0.1762
  339TIP3   OH222431   3.549   4.089   4.283  0.0136  0.1317  0.2170
  339TIP3    H122432   3.588   4.151   4.345  0.2419  0.0222  0.1827
  339TIP3    H222433   3.500   4.145   4.222  1.4017  0.4230 -0.6890
  340TIP3   OH222434   3.529   1.667  11.650 -0.3117 -0.4082  0.3696
  340TIP3    H122435   3.452   1.651  11.597 -0.6823 -1.3406  1.1550
  340TIP3    H222436   3.573   1.741  11.608 -0.2000 -1.5392 -1.6340
  341TIP3   OH222437   3.033   0.928  15.596 -0.2393 -0.3148 -0.0134
  341TIP3    H122438   3.009   0.859  15.534 -4.6516  1.4996 -0.6824
  341TIP3    H222439   3.061   1.001  15.540  0.3094 -0.1935  0.4161
  342TIP3   OH222440   1.196   3.877  12.773 -0.3863  0.1083 -0.5304
  342TIP3    H122441   1.287   3.903  12.788 -0.6942  1.8864 -1.3698
  342TIP3    H222442   1.177   3.909  12.684 -2.1870  0.9300  0.0965
  343TIP3   OH222443   5.955   2.911  13.737  0.0572 -0.5453  0.6933
  343TIP3    H122444   6.027   2.974  13.732 -1.2355  0.9144 -0.7065
  343TIP3    H222445   5.909   2.921  13.653 -1.4309 -1.8515  1.3108
  344TIP3   OH222446   4.104   4.666  14.349 -0.1403 -0.0677  0.4656
  344TIP3    H122447   4.028   4.721  14.335 -0.4828 -0.5645  0.3386
  344TIP3    H222448   4.172   4.726  14.380 -0.4503  0.4480  0.1600
  345TIP3   OH222449   6.661   3.322  13.408 -0.0578 -0.2844  0.1942
  345TIP3    H122450   6.733   3.380  13.385  0.6354 -1.6366 -1.1857
  345TIP3    H222451   6.588   3.381  13.428  1.0091  1.0674  0.1876
  346TIP3   OH222452   3.584   3.780  13.207  0.1345 -0.1047  0.2239
  346TIP3    H122453   3.517   3.758  13.272  0.3338  0.0529  0.4852
  346TIP3    H222454   3.579   3.876  13.199 -0.5395 -0.1991 -0.7003
  347TIP3   OH222455   5.487   0.423  13.459 -0.4917  0.0179  0.2962
  347TIP3    H122456   5.481   0.501  13.404 -1.0090  0.3115  0.7550
  347TIP3    H222457   5.426   0.361  13.420 -1.9868  0.7571  1.3613
  348TIP3   OH222458   6.682   2.883  10.682  0.1789 -0.2104  0.6348
  348TIP3    H122459   6.650   2.811  10.736  0.8646  0.6676  2.2995
  348TIP3    H222460   6.773   2.858  10.662 -0.4059 -1.0616 -1.1241
  349TIP3   OH222461   2.000   1.804   3.856 -0.8267 -0.5147  0.2447
  349TIP3    H122462   2.067   1.829   3.792 -0.6571 -0.5295  0.4194
  349TIP3    H222463   2.008   1.709   3.864  0.2065 -0.3341  1.4753
  350TIP3   OH222464   0.182   0.152   2.671  0.0703  0.1681 -0.5939
  350TIP3    H122465   0.087   0.151   2.660  0.0530  1.6046 -0.7747
  350TIP3    H222466   0.216   0.189   2.589  0.6611  1.1439  0.0708
  351TIP3   OH222467   2.198   4.950  11.788 -0.4266 -0.2744  0.0380
  351TIP3    H122468   2.177   4.889  11.717 -0.0614 -0.3245 -0.0299
  351TIP3    H222469   2.114   4.993  11.808 -0.6372 -0.6317 -0.0681
  352TIP3   OH222470   5.519   3.653  11.388 -0.4329  0.2641 -0.5264
  352TIP3    H122471   5.465   3.596  11.443 -0.6948  0.4789 -0.5627
  352TIP3    H222472   5.482   3.643  11.300 -0.1529  0.0918 -0.6287
  353TIP3   OH222473   5.589   2.300   3.653  0.3059 -0.5140 -0.1390
  353TIP3    H122474   5.498   2.330   3.662  0.7914  2.0499 -2.4002
  353TIP3    H222475   5.636   2.345   3.723  0.1198 -0.4017 -0.0848
  354TIP3   OH222476   3.373   6.365  10.983 -0.5051  0.0365 -0.0590
  354TIP3    H122477   3.322   6.416  11.046 -2.9726  0.8962 -2.5406
  354TIP3    H222478   3.309   6.312  10.937  0.8508  0.6845 -2.9560
  355TIP3   OH222479   1.146   4.462  16.683  0.2107  0.4675 -0.4393
  355TIP3    H122480   1.111   4.374  16.670 -1.0479  0.7007  1.0526
  355TIP3    H222481   1.233   4.459  16.645 -0.0828 -1.2156 -1.0573
  356TIP3   OH222482   1.990   4.406  11.889  0.2362  0.1026 -0.4590
  356TIP3    H122483   2.026   4.495  11.891 -0.4908  0.3960  0.0036
  356TIP3    H222484   1.944   4.397  11.973  0.4401 -0.7689 -0.4273
  357TIP3   OH222485   1.298   4.305  15.719 -0.0956  0.4125 -0.0128
  357TIP3    H122486   1.267   4.365  15.786  1.2490 -0.1187  1.1257
  357TIP3    H222487   1.385   4.336  15.696 -0.4080  0.3962 -1.2989
  358TIP3   OH222488   5.748   0.690  14.774  0.1471  0.6059  0.2962
  358TIP3    H122489   5.829   0.712  14.820  1.5445  1.4856 -2.3934
  358TIP3    H222490   5.777   0.641  14.697 -2.0566 -0.5770  0.1422
  359TIP3   OH222491   1.120   4.338   3.018 -0.1125  0.1634 -0.3021
  359TIP3    H122492   1.190   4.274   3.033 -0.0671  0.5333  1.2309
  359TIP3    H222493   1.074   4.306   2.940  1.7697 -0.0640 -1.3595
  360TIP3   OH222494   4.959   2.616   1.360 -0.6287  0.0710  0.6939
  360TIP3    H122495   4.878   2.580   1.322 -0.6038 -3.3630  3.4489
  360TIP3    H222496   5.020   2.543   1.359  1.4882  1.7297  1.5011
  361TIP3   OH222497   1.872   2.413  12.746 -0.2835  0.3527  0.8028
  361TIP3    H122498   1.881   2.498  12.702 -0.9961 -0.0464 -0.1564
  361TIP3    H222499   1.789   2.418  12.793  0.5559  0.8393  2.3069
  362TIP3   OH222500   2.718   1.762   2.493 -0.3209  0.3512 -0.2447
  362TIP3    H122501   2.721   1.850   2.455  1.3756  0.7342  0.6927
  362TIP3    H222502   2.755   1.772   2.580  0.3845 -1.3682 -0.3054
  363TIP3   OH222503   5.143   2.940  13.665  0.6232  0.6486  0.2718
  363TIP3    H122504   5.108   2.970  13.750  1.7255  0.3049  0.8645
  363TIP3    H222505   5.171   2.850  13.681 -1.3561 -0.2670 -1.1281
  364TIP3   OH222506   4.913   1.485  12.932  0.5717 -0.0552 -0.2567
  364TIP3    H122507   4.953   1.412  12.885  0.2730 -0.6625  0.4223
  364TIP3    H222508   4.895   1.550  12.864  0.8260 -0.6161 -0.8711
  365TIP3   OH222509   0.796   1.889   0.514  0.4485  0.5240 -0.2626
  365TIP3    H122510   0.881   1.916   0.478  0.7297  1.2391  0.8857
  365TIP3    H222511   0.813   1.804   0.554  1.3914  1.8895  2.4813
  366TIP3   OH222512   6.643   6.365  16.385  1.0648 -0.2287 -0.4700
  366TIP3    H122513   6.592   6.288  16.408  1.7672 -0.5637 -0.0248
  366TIP3    H222514   6.729   6.350  16.423  1.5690  0.2364 -1.3918
  367TIP3   OH222515   0.790   2.972   5.020 -0.3433  0.1042  0.7033
  367TIP3    H122516   0.836   2.920   5.086  0.4311 -1.3704 -0.9253
  367TIP3    H222517   0.698   2.947   5.029 -0.2567 -0.0213  1.2758
  368TIP3   OH222518   3.405   1.552  16.673  0.3910  0.3533  0.0892
  368TIP3    H122519   3.398   1.648  16.675 -0.5803  0.3502 -1.3438
  368TIP3    H222520   3.319   1.522  16.705  1.2552 -0.0993  2.1328
  369TIP3   OH222521   6.002   3.951   3.658  0.6119 -0.1081 -0.0390
  369TIP3    H122522   6.028   4.034   3.697 -0.1751  0.1554 -0.0579
  369TIP3    H222523   5.980   3.895   3.733  0.2753 -0.0041 -0.0606
  370TIP3   OH222524   3.773   4.937  11.888 -0.2487 -0.1153  0.4141
  370TIP3    H122525   3.762   5.013  11.946  2.1100  0.3432  0.3472
  370TIP3    H222526   3.866   4.935  11.868 -0.5632 -1.9119 -1.1730
  371TIP3   OH222527   3.126   4.288  17.146 -0.3899  0.3770  0.1740
  371TIP3    H122528   3.107   4.200  17.179  0.7030  0.6523  1.6196
  371TIP3    H222529   3.214   4.281  17.109 -1.2310  0.3109 -1.9305
  372TIP3   OH222530   3.045   5.863  16.825  0.4072 -0.1830  0.4830
  372TIP3    H122531   2.968   5.807  16.837  1.5808 -2.5319 -1.8276
  372TIP3    H222532   3.013   5.938  16.775 -0.4890 -0.8919 -0.0357
  373TIP3   OH222533   4.520   1.274   2.647  0.2062  0.4642 -0.4946
  373TIP3    H122534   4.520   1.350   2.705 -0.2928 -0.6928  1.1029
  373TIP3    H222535   4.577   1.211   2.691  0.8347 -0.0098 -1.9264
  374TIP3   OH222536   1.302   5.123  10.541  0.0683  0.0228 -0.0723
  374TIP3    H122537   1.335   5.038  10.569 -0.4337 -0.0869  0.1975
  374TIP3    H222538   1.380   5.179  10.537  0.4474 -0.5375 -0.6036
  375TIP3   OH222539   0.821   3.227   2.067  0.1570  0.1796 -0.3011
  375TIP3    H122540   0.846   3.319   2.064  0.3219  0.1229 -2.3336
  375TIP3    H222541   0.903   3.179   2.051  0.2536 -0.3949  1.6830
  376TIP3   OH222542   2.139   6.608   6.285  0.1337 -0.0203  0.2132
  376TIP3    H122543   2.105   6.540   6.343 -0.2449  1.7377  2.1488
  376TIP3    H222544   2.082   6.604   6.208  2.3633 -4.3234 -1.6018
  377TIP3   OH222545   2.376   0.103  15.617 -0.2234  0.2560 -0.6656
  377TIP3    H122546   2.445   0.119  15.553 -0.7895 -2.0375 -1.9879
  377TIP3    H222547   2.390   0.012  15.645 -2.2232 -0.0323 -0.4181
  378TIP3   OH222548   0.674   1.528  17.015 -0.5823 -0.0562 -0.3411
  378TIP3    H122549   0.717   1.611  17.035 -0.3778 -0.5115  1.2978
  378TIP3    H222550   0.635   1.500  17.098 -2.3291 -0.6647 -1.3024
  379TIP3   OH222551   0.529   4.503  13.572 -0.0789 -0.0708  0.4971
  379TIP3    H122552   0.442   4.504  13.612  0.0265  0.3635  0.7144
  379TIP3    H222553   0.519   4.556  13.493 -0.4481 -1.4287 -0.4084
  380TIP3   OH222554   3.306   3.842  17.137 -0.3886  0.4783 -0.3442
  380TIP3    H122555   3.227   3.891  17.161 -1.7015 -1.3486 -0.7558
  380TIP3    H222556   3.292   3.819  17.045  0.3284 -0.4134 -0.2377
  381TIP3   OH222557   2.392   4.150   3.392 -0.1036  0.2791 -0.0074
  381TIP3    H122558   2.470   4.101   3.416 -0.1054  1.2856  2.3649
  381TIP3    H222559   2.424   4.227   3.346  0.2175  0.1902  0.0695
  382TIP3   OH222560   4.918   6.292  14.343  0.0018  0.4710  0.7007
  382TIP3    H122561   4.849   6.227  14.330  1.0481 -0.7567  1.0934
  382TIP3    H222562   4.911   6.349  14.267 -1.8900  0.8244  1.0691
  383TIP3   OH222563   2.171   1.902   5.543 -0.1065  0.0710  0.4952
  383TIP3    H122564   2.140   1.981   5.586 -0.9278 -0.1033  0.2351
  383TIP3    H222565   2.256   1.885   5.583 -0.9893 -0.2937  2.3408
  384TIP3   OH222566   4.814   2.528  15.616 -0.4176 -0.0580  0.0954
  384TIP3    H122567   4.850   2.469  15.682  0.9645  1.1977  0.5192
  384TIP3    H222568   4.739   2.569  15.659  0.0958  0.2885  0.6716
  385TIP3   OH222569   6.471   0.134  15.677  0.3089 -0.0251 -0.6185
  385TIP3    H122570   6.507   0.214  15.714  3.1967 -0.0141 -3.0572
  385TIP3    H222571   6.456   0.076  15.752  2.0231  1.3648  0.8621
  386TIP3   OH222572   6.723   2.930  15.963  0.1804 -0.7216  0.1469
  386TIP3    H122573   6.698   3.022  15.956 -1.1938 -1.1163 -0.5896
  386TIP3    H222574   6.783   2.916  15.889  0.5848 -0.3680  0.4038
  387TIP3   OH222575   4.500   6.238  13.228 -0.5142  0.0223 -0.5657
  387TIP3    H122576   4.433   6.263  13.165 -0.6064  0.5963 -0.2488
  387TIP3    H222577   4.491   6.143  13.236  0.2013 -0.2101 -2.1888
  388TIP3   OH222578   0.843   2.227   0.015  0.2663  0.2092  0.6013
  388TIP3    H122579   0.869   2.272  -0.066 -0.9475 -0.8991 -0.4595
  388TIP3    H222580   0.833   2.298   0.079  0.1865  1.2457 -0.5094
  389TIP3   OH222581   5.099   4.491   1.311  0.3956 -0.0716 -0.2012
  389TIP3    H122582   5.072   4.520   1.224 -0.0013  0.6383  0.1530
  389TIP3    H222583   5.021   4.501   1.365  0.8097  0.0706  0.3778
  390TIP3   OH222584   4.204   3.214  16.114 -0.4968  0.0540 -0.0226
  390TIP3    H122585   4.162   3.279  16.058 -0.5826  1.0081  1.1069
  390TIP3    H222586   4.173   3.235  16.203  1.2544 -0.0905  0.6615
  391TIP3   OH222587   0.054   3.443  14.625  0.7919 -0.2606 -0.0663
  391TIP3    H122588   0.015   3.360  14.650  0.3463 -0.3032 -0.8593
  391TIP3    H222589   0.147   3.434  14.644  0.7431 -0.9402 -0.1543
  392TIP3   OH222590   4.627   3.885  15.908 -0.0202  0.0999  0.1740
  392TIP3    H122591   4.575   3.958  15.875  0.0253 -0.1453 -0.4425
  392TIP3    H222592   4.596   3.809  15.858  1.0480 -0.0179 -0.3234
  393TIP3   OH222593   3.447   2.866   4.057 -0.2141 -0.4184 -0.3414
  393TIP3    H122594   3.526   2.906   4.021 -0.0343 -1.3260 -0.9904
  393TIP3    H222595   3.430   2.791   4.000 -0.4581 -1.3493  0.9213
  394TIP3   OH222596   4.418   4.912   4.873 -0.1269 -0.1828  0.1521
  394TIP3    H122597   4.345   4.876   4.823  1.3548 -0.8134 -1.6757
  394TIP3    H222598   4.453   4.983   4.819  0.7802 -0.0627  0.8561
  395TIP3   OH222599   2.653   1.468  15.043 -0.9829 -0.3119  0.4599
  395TIP3    H122600   2.668   1.475  15.137  1.4844 -2.0490  0.2864
  395TIP3    H222601   2.574   1.416  15.035 -1.0324 -0.4336  1.5770
  396TIP3   OH222602   0.336   5.364   2.783  0.0392  0.3192  0.0259
  396TIP3    H122603   0.402   5.379   2.851 -0.9055 -0.7943  1.2401
  396TIP3    H222604   0.373   5.294   2.729  0.2243  0.2832  0.1979
  397TIP3   OH222605   5.303   5.083   1.544  0.6431  0.5018 -0.9069
  397TIP3    H122606   5.233   5.143   1.566  0.7855  0.5413 -0.5567
  397TIP3    H222607   5.365   5.090   1.616  0.2675 -0.6730 -0.4371
  398TIP3   OH222608   3.328   0.961   4.704  0.3028 -0.1521  0.5323
  398TIP3    H122609   3.240   0.997   4.689 -0.2337 -0.6846  2.0892
  398TIP3    H222610   3.321   0.870   4.677  0.3974 -0.1757  0.5875
  399TIP3   OH222611   5.587   3.608   0.467  0.3043 -0.3750 -0.1714
  399TIP3    H122612   5.604   3.673   0.535  1.1179 -0.9807  0.2169
  399TIP3    H222613   5.622   3.647   0.387  1.9309 -0.8218  0.2806
  400TIP3   OH222614   0.226   0.276  12.933  0.3703  0.0613 -0.1585
  400TIP3    H122615   0.291   0.292  12.864 -0.7097  0.3255 -1.1378
  400TIP3    H222616   0.213   0.361  12.974 -0.1576  0.2323 -0.6810
  401TIP3   OH222617   3.636   1.284  14.123  0.3002 -0.2112  0.1491
  401TIP3    H122618   3.724   1.313  14.101  0.7056 -1.3713  0.2070
  401TIP3    H222619   3.601   1.354  14.179  1.3795 -0.0049  0.5883
  402TIP3   OH222620   4.980   4.388  12.196 -0.0792  0.4817  0.1687
  402TIP3    H122621   5.047   4.321  12.209 -0.0552  0.0922 -1.6888
  402TIP3    H222622   4.901   4.351  12.235 -0.6672 -1.7610 -2.8001
  403TIP3   OH222623   1.279   5.887  13.040 -0.1104 -0.1958  0.0131
  403TIP3    H122624   1.331   5.820  13.084  1.0521  0.4957 -0.2705
  403TIP3    H222625   1.189   5.857  13.049  0.1966 -0.7024  1.7637
  404TIP3   OH222626   2.066   0.002   1.412 -0.2786  0.1924  0.0471
  404TIP3    H122627   2.004  -0.010   1.485 -0.6097  2.1723  0.1459
  404TIP3    H222628   2.151   0.009   1.454 -0.0369 -1.7289 -0.0304
  405TIP3   OH222629   4.864   5.703  14.832  0.5525  0.1181  0.2083
  405TIP3    H122630   4.777   5.664  14.825  0.3607  0.6432 -0.3595
  405TIP3    H222631   4.921   5.643  14.784  1.0312 -1.7206  2.8346
  406TIP3   OH222632   4.310   1.500  15.977 -0.8006  0.4518 -0.2168
  406TIP3    H122633   4.302   1.477  15.884  0.9314 -2.0331  0.1297
  406TIP3    H222634   4.326   1.594  15.977  1.2489  0.2315 -2.6341
  407TIP3   OH222635   4.975   3.188   2.991  0.0496  0.5504  0.2481
  407TIP3    H122636   4.992   3.094   2.985  1.1889  0.7230  0.5027
  407TIP3    H222637   4.880   3.196   2.988 -0.0419 -0.5843 -0.1047
  408TIP3   OH222638   5.711   5.222   2.856  0.1400 -0.0913  0.0712
  408TIP3    H122639   5.733   5.190   2.944 -0.8979  1.0307  0.7755
  408TIP3    H222640   5.704   5.143   2.802 -0.5019 -0.9185  1.3138
  409TIP3   OH222641   2.644   1.098  11.825 -0.0389  0.5658 -0.1806
  409TIP3    H122642   2.633   1.003  11.825  1.3707  0.3171  2.5501
  409TIP3    H222643   2.557   1.133  11.844 -0.7522 -0.0788 -2.0722
  410TIP3   OH222644   4.239   2.886  14.594 -0.2596  0.2887 -0.6064
  410TIP3    H122645   4.271   2.807  14.550 -0.9352 -0.1465 -0.3339
  410TIP3    H222646   4.159   2.909  14.546  0.3410  1.2558 -1.1666
  411TIP3   OH222647   6.652   1.976   5.239  0.4221 -0.2518 -0.2807
  411TIP3    H122648   6.633   2.033   5.313  0.8733  0.2422 -0.5363
  411TIP3    H222649   6.675   1.892   5.278  0.7542  0.0316  0.1430
  412TIP3   OH222650   0.595   0.436  15.596 -0.1888 -0.3342 -0.4421
  412TIP3    H122651   0.644   0.419  15.677 -1.1213 -1.6441 -0.1206
  412TIP3    H222652   0.561   0.350  15.570 -1.2276  0.3290 -1.3617
  413TIP3   OH222653   1.012   1.195   1.521 -0.4523 -0.2142 -0.2590
  413TIP3    H122654   0.995   1.107   1.555 -0.8513 -0.0922 -0.1425
  413TIP3    H222655   0.999   1.253   1.597  2.2117 -0.2549  0.3238
  414TIP3   OH222656   6.043   5.538  12.960  0.6847  0.2274 -0.2798
  414TIP3    H122657   6.018   5.600  12.891  0.0510  0.9544  0.5869
  414TIP3    H222658   5.966   5.484  12.974  1.5841 -1.5537 -1.8121
  415TIP3   OH222659   3.366   0.494   2.528  0.5125  0.0428  0.5984
  415TIP3    H122660   3.341   0.402   2.515 -1.5082  0.4623  1.2354
  415TIP3    H222661   3.325   0.541   2.456  1.6697  0.4706  0.1871
  416TIP3   OH222662   1.078   6.704  11.812  0.2590  0.3129 -0.5931
  416TIP3    H122663   1.060   6.776  11.752 -0.9770 -0.0745 -0.7289
  416TIP3    H222664   1.034   6.629  11.772  0.4446 -0.2197  0.1909
  417TIP3   OH222665   0.456   1.123   3.652 -0.1857  0.1700 -0.0973
  417TIP3    H122666   0.535   1.069   3.658  0.2679  0.8368 -0.0346
  417TIP3    H222667   0.450   1.147   3.559 -0.5975 -0.2861 -0.1961
  418TIP3   OH222668   5.113   4.647  11.648  0.4867  0.3196 -0.0622
  418TIP3    H122669   5.025   4.677  11.626  0.6809  0.5087 -0.6096
  418TIP3    H222670   5.170   4.695  11.588  0.9557  0.1323  0.2256
  419TIP3   OH222671   0.661   1.365   3.112 -0.3197 -1.2570 -0.1669
  419TIP3    H122672   0.683   1.372   3.019  1.6769  1.4901  0.3542
  419TIP3    H222673   0.716   1.294   3.145 -0.2578 -1.5558 -0.8986
  420TIP3   OH222674   2.907   0.709  12.532 -0.4825  0.1391 -0.1601
  420TIP3    H122675   2.977   0.702  12.467 -1.2462  0.0769 -0.9926
  420TIP3    H222676   2.907   0.624  12.577  0.4594  0.4059  0.3556
  421TIP3   OH222677   5.288   3.543   0.622  0.1994 -0.1294  0.2215
  421TIP3    H122678   5.324   3.592   0.548  2.0147 -0.3863  0.8792
  421TIP3    H222679   5.209   3.503   0.587  0.8810 -0.0609 -1.5375
  422TIP3   OH222680   3.360   6.188   4.481  0.1671 -0.1639 -0.0523
  422TIP3    H122681   3.278   6.237   4.476  0.4187  0.5022  1.5028
  422TIP3    H222682   3.338   6.109   4.531  0.4414 -0.0354  0.2753
  423TIP3   OH222683   6.416   5.728   4.030 -0.1363  0.0523 -0.3094
  423TIP3    H122684   6.457   5.642   4.021  1.7878  0.6668  1.7169
  423TIP3    H222685   6.396   5.735   4.124 -2.9395  0.7148 -0.8639
  424TIP3   OH222686   2.643   1.879  13.159 -0.1875 -0.1358  0.3300
  424TIP3    H122687   2.671   1.971  13.167  0.5028 -0.3618  0.6089
  424TIP3    H222688   2.722   1.833  13.130  0.1944 -1.0751  2.6813
  425TIP3   OH222689   4.033   3.740   1.164 -0.2272  0.0872  0.2690
  425TIP3    H122690   4.035   3.832   1.137  0.1536  0.2230  0.7364
  425TIP3    H222691   3.960   3.702   1.115  0.7410  0.1873 -1.3317
  426TIP3   OH222692   4.803   4.684   0.169 -0.8305 -0.2292  0.1824
  426TIP3    H122693   4.780   4.739   0.244  0.0675 -0.5643  0.7191
  426TIP3    H222694   4.852   4.612   0.207 -0.8809 -0.7212 -0.6711
  427TIP3   OH222695   2.145   5.308  15.346 -0.4011  0.4619 -0.1858
  427TIP3    H122696   2.192   5.271  15.271  1.1144 -0.7568  1.2914
  427TIP3    H222697   2.069   5.252  15.357  0.8337 -1.1136  0.8086
  428TIP3   OH222698   3.869   6.065  15.978  0.2054  0.3546 -0.2758
  428TIP3    H122699   3.815   6.144  15.965  0.2891  0.2729 -1.1934
  428TIP3    H222700   3.807   6.000  16.012 -0.0523  0.5777 -0.3075
  429TIP3   OH222701   1.102   1.802   6.486  0.0385  0.4049 -0.1299
  429TIP3    H122702   1.154   1.734   6.529  1.0834  1.8688  1.0370
  429TIP3    H222703   1.011   1.777   6.504  0.3375 -1.3491 -0.8412
  430TIP3   OH222704   6.623   4.556  15.031 -0.0127 -0.2705 -0.0237
  430TIP3    H122705   6.551   4.561  15.093  0.1088  1.6008  0.0257
  430TIP3    H222706   6.597   4.613  14.958  1.1996  0.0633 -0.2229
  431TIP3   OH222707   1.977   3.303  11.206 -0.0511  0.6972  0.2587
  431TIP3    H122708   2.054   3.347  11.242  0.4283  1.2370 -1.3313
  431TIP3    H222709   1.951   3.357  11.132 -0.9343 -0.3937 -0.2569
  432TIP3   OH222710   3.448   0.920  13.481 -0.1430 -0.0023  0.4543
  432TIP3    H122711   3.373   0.890  13.533 -0.0919 -0.6869  0.1523
  432TIP3    H222712   3.492   0.984  13.537 -3.1538  3.5302 -0.8594
  433TIP3   OH222713   2.912   5.697   4.646 -0.7224 -0.0553  0.2852
  433TIP3    H122714   3.000   5.662   4.660  0.0005  1.2115 -0.8327
  433TIP3    H222715   2.871   5.636   4.584 -0.5593 -0.5385  0.6521
  434TIP3   OH222716   2.975   2.276   4.544 -0.1712  1.2138 -0.5853
  434TIP3    H122717   2.990   2.353   4.599 -0.9696  0.6240  0.4950
  434TIP3    H222718   2.883   2.255   4.556  0.7718 -2.3989  2.6193
  435TIP3   OH222719   2.136   2.142   3.060 -0.1212 -0.0762 -0.4719
  435TIP3    H122720   2.183   2.060   3.043 -1.6854 -1.8592  2.8782
  435TIP3    H222721   2.082   2.155   2.982  0.6695 -1.8855 -1.3767
  436TIP3   OH222722   0.198   5.645  11.662  0.5394 -0.2519 -0.6604
  436TIP3    H122723   0.248   5.565  11.674  1.1850  0.3099  0.5487
  436TIP3    H222724   0.262   5.715  11.672 -0.2807  0.4519 -0.2763
  437TIP3   OH222725   0.857   0.044   0.148  0.3596 -0.5641  0.9887
  437TIP3    H122726   0.939   0.094   0.139 -0.5180  0.8611  0.4521
  437TIP3    H222727   0.831   0.057   0.239 -0.9415  1.8413  0.3639
  438TIP3   OH222728   4.395   0.624   3.084  0.0281 -0.4534  0.1265
  438TIP3    H122729   4.444   0.587   3.010 -0.4464 -0.0120 -0.4180
  438TIP3    H222730   4.387   0.551   3.146 -1.9564 -1.6981 -1.4544
  439TIP3   OH222731   2.399   1.132  13.855 -0.7678 -0.0697  0.6967
  439TIP3    H122732   2.407   1.227  13.844  0.2108 -0.1852  0.2643
  439TIP3    H222733   2.485   1.098  13.830 -1.0952 -1.0711  0.8843
  440TIP3   OH222734   3.522   0.470   1.837 -0.1200 -0.1770 -0.3755
  440TIP3    H122735   3.513   0.443   1.929  0.0209  1.0848  0.0330
  440TIP3    H222736   3.471   0.551   1.831  0.5160  0.1755 -1.2181
  441TIP3   OH222737   0.300   5.697   1.600 -0.1997  0.3106  0.3621
  441TIP3    H122738   0.252   5.691   1.517 -0.1463 -0.1688  0.3683
  441TIP3    H222739   0.312   5.607   1.629  0.7498  0.4226  0.3437
  442TIP3   OH222740   2.397   5.816  14.894 -0.8330 -0.0294  0.3992
  442TIP3    H122741   2.424   5.737  14.848 -0.4167  0.7057 -0.6706
  442TIP3    H222742   2.338   5.785  14.963 -0.9376 -1.2322 -0.2073
  443TIP3   OH222743   4.252   3.243   1.001 -0.3109 -0.2687  0.6053
  443TIP3    H122744   4.174   3.198   0.968  0.9261 -2.2302  0.2066
  443TIP3    H222745   4.264   3.317   0.941  0.3509 -2.2151 -1.8476
  444TIP3   OH222746   5.900   4.933  16.825  0.0272  0.2218 -0.3950
  444TIP3    H122747   5.947   4.916  16.743  1.2264  0.1685  0.2756
  444TIP3    H222748   5.846   4.856  16.838 -0.0279  0.1431 -1.0371
  445TIP3   OH222749   2.071   1.339  12.838  0.5361  0.3258 -0.1203
  445TIP3    H122750   1.979   1.334  12.812  0.7314 -2.6437 -0.5182
  445TIP3    H222751   2.107   1.411  12.786 -1.1032  0.2228 -1.4453
  446TIP3   OH222752   5.601   2.868   4.289 -0.1978  0.2425 -1.3650
  446TIP3    H122753   5.607   2.805   4.217  0.2778 -1.1659 -0.1679
  446TIP3    H222754   5.566   2.816   4.362  1.4066  1.0385  0.0301
  447TIP3   OH222755   4.364   3.970  11.893 -0.3008 -0.0048 -0.3939
  447TIP3    H122756   4.443   4.017  11.866  0.3865 -1.4369 -0.9899
  447TIP3    H222757   4.366   3.971  11.988  0.4841 -0.0771 -0.4056
  448TIP3   OH222758   0.843   0.129  11.245  0.1543  0.3733 -0.0584
  448TIP3    H122759   0.925   0.102  11.286 -1.3330 -1.9046  1.6374
  448TIP3    H222760   0.870   0.188  11.175  3.0814  1.3438  1.7088
  449TIP3   OH222761   6.636   0.320   1.128  0.1102  0.6788  0.6171
  449TIP3    H122762   6.570   0.284   1.069  0.7966 -0.3808  0.4632
  449TIP3    H222763   6.623   0.273   1.210  1.9491 -1.0778 -0.0090
  450TIP3   OH222764   6.561   3.090  12.520  0.2084 -0.2515  0.5372
  450TIP3    H122765   6.547   3.002  12.554  2.2709 -0.8007  0.0922
  450TIP3    H222766   6.580   3.143  12.598 -2.6284  0.2512  1.0084
  451TIP3   OH222767   5.430   0.263   1.797 -0.3681  0.1993 -0.2392
  451TIP3    H122768   5.462   0.346   1.833  1.6018 -0.7228  0.2414
  451TIP3    H222769   5.346   0.249   1.840  0.2506  0.9304  1.2577
  452TIP3   OH222770   0.967   6.208  13.854  0.1249  0.8432 -0.6489
  452TIP3    H122771   1.025   6.151  13.904 -1.2409  1.0771  1.2863
  452TIP3    H222772   1.018   6.288  13.839  0.7692  0.5224 -0.1893
  453TIP3   OH222773   4.013   5.611  11.521  0.9620 -0.3305 -0.0530
  453TIP3    H122774   3.933   5.578  11.562 -0.4371  0.7217 -1.8238
  453TIP3    H222775   4.080   5.547  11.544 -0.8028 -2.3005 -0.1647
  454TIP3   OH222776   6.229   2.776   1.011 -0.2374  0.0106 -0.4534
  454TIP3    H122777   6.174   2.838   0.963  1.1100  2.9250  1.4584
  454TIP3    H222778   6.166   2.715   1.051 -1.8574  1.3785 -0.7747
  455TIP3   OH222779   3.480   3.908   2.233 -0.2995 -0.0462 -0.4031
  455TIP3    H122780   3.562   3.941   2.269 -0.3897 -0.8065  0.5568
  455TIP3    H222781   3.496   3.901   2.139 -0.0328  1.9306 -0.5451
  456TIP3   OH222782   2.186   1.387  14.154 -0.4299  0.2542 -0.7390
  456TIP3    H122783   2.123   1.359  14.088  0.2477 -0.3351 -1.1447
  456TIP3    H222784   2.163   1.479  14.171 -0.0427  0.7218 -2.4963
  457TIP3   OH222785   1.429   5.215  13.896  0.5115  0.3198 -0.0513
  457TIP3    H122786   1.337   5.207  13.871  0.5247  0.4936 -0.1607
  457TIP3    H222787   1.446   5.310  13.894  0.9554  0.2331 -0.9930
  458TIP3   OH222788   5.710   6.525  16.495  0.1466 -0.0343 -0.0950
  458TIP3    H122789   5.668   6.511  16.410 -0.2905  1.3808 -0.1381
  458TIP3    H222790   5.641   6.560  16.550  0.9470  1.0748  0.2259
  459TIP3   OH222791   5.596   2.121  12.900  0.4146  0.0157 -0.4498
  459TIP3    H122792   5.614   2.092  12.810 -0.1708  0.8646 -0.8597
  459TIP3    H222793   5.609   2.216  12.896  0.5258  0.0384  0.4089
  460TIP3   OH222794   3.706   0.358   0.913  0.6354  0.0994 -0.0082
  460TIP3    H122795   3.786   0.377   0.864  0.8527  0.3728  0.4450
  460TIP3    H222796   3.655   0.439   0.907  0.7078  0.1677  0.3017
  461TIP3   OH222797   6.311   4.796  13.092 -0.8067 -0.4555 -0.5326
  461TIP3    H122798   6.296   4.888  13.114 -1.9892 -0.7458 -0.0794
  461TIP3    H222799   6.405   4.784  13.105 -0.9392  0.2037  1.3128
  462TIP3   OH222800   6.009   1.643  15.024  0.5411 -0.0050  0.2559
  462TIP3    H122801   5.979   1.727  15.058  1.2466  0.1775  0.4263
  462TIP3    H222802   5.929   1.602  14.989 -0.3676 -0.4208  2.5749
  463TIP3   OH222803   6.560   3.133  15.237  0.1790  0.2074 -0.2448
  463TIP3    H122804   6.595   3.134  15.148  0.8570  1.0936  0.0142
  463TIP3    H222805   6.465   3.131  15.226  0.1755  2.4739 -1.0275
  464TIP3   OH222806   4.720   2.677  12.759 -0.1597 -0.2990 -0.0801
  464TIP3    H122807   4.688   2.597  12.717 -2.6158 -0.5135  1.9236
  464TIP3    H222808   4.656   2.694  12.829  0.5155  3.1772 -0.1448
  465TIP3   OH222809   1.821   6.211  14.384 -0.1086  0.0188 -0.6892
  465TIP3    H122810   1.754   6.252  14.329  0.4243  0.9671 -0.6433
  465TIP3    H222811   1.899   6.266  14.373  0.3571 -0.4690  0.0737
  466TIP3   OH222812   0.062   5.473  13.881 -0.2438 -0.4386 -0.5977
  466TIP3    H122813   0.116   5.538  13.836 -1.0175  0.0227 -0.8699
  466TIP3    H222814   0.112   5.451  13.960 -0.5171  1.3645  0.1262
  467TIP3   OH222815   5.399   5.735  11.375  0.3476 -0.0318 -0.8459
  467TIP3    H122816   5.358   5.743  11.288  0.7105  0.9958 -0.9390
  467TIP3    H222817   5.355   5.660  11.415  1.2151 -1.5038 -2.4730
  468TIP3   OH222818   4.964   1.013  11.228  0.1535  0.2092 -0.1146
  468TIP3    H122819   4.936   0.959  11.155  2.2440 -1.1597  0.0195
  468TIP3    H222820   4.932   0.967  11.306 -0.2262  0.5370 -0.0697
  469TIP3   OH222821   2.417   1.963  17.101 -0.2460  0.0053 -0.1104
  469TIP3    H122822   2.493   1.975  17.045  0.0340  1.8956  0.6278
  469TIP3    H222823   2.346   2.011  17.057 -0.1091  1.2062  0.9384
  470TIP3   OH222824   3.155   1.728   1.347 -0.2089 -0.3177 -0.5896
  470TIP3    H122825   3.068   1.690   1.354 -0.6697  0.4313 -1.9747
  470TIP3    H222826   3.214   1.654   1.362 -1.0249 -0.5950  1.6536
  471TIP3   OH222827   0.926   6.538   4.593  0.4258  0.2881 -0.3321
  471TIP3    H122828   0.966   6.574   4.513  1.2784  0.6525  0.2409
  471TIP3    H222829   0.984   6.467   4.619  0.6642  0.7766  0.4783
  472TIP3   OH222830   2.782   6.778  11.416  0.9495  0.1647 -0.1798
  472TIP3    H122831   2.857   6.733  11.454  1.4491  0.0510 -1.2491
  472TIP3    H222832   2.789   6.760  11.322 -1.6650 -1.7867 -0.1148
  473TIP3   OH222833   4.026   4.435  16.201  0.9380 -0.2665  0.5782
  473TIP3    H122834   4.007   4.504  16.265  1.7673  0.3085  0.2168
  473TIP3    H222835   4.086   4.476  16.139 -0.2665 -0.6351 -0.8891
  474TIP3   OH222836   2.996   3.098  12.306 -1.1357  0.5127 -0.1351
  474TIP3    H122837   2.940   3.143  12.242  0.3819  1.2360 -1.0372
  474TIP3    H222838   3.072   3.069  12.254  0.2415  1.3000  1.3651
  475TIP3   OH222839   0.253   0.941  12.321 -0.2958  0.1690 -0.5992
  475TIP3    H122840   0.197   1.003  12.275  0.7432  0.2574 -1.7743
  475TIP3    H222841   0.307   0.994  12.379 -0.5829  0.1928 -0.3509
  476TIP3   OH222842   2.451   6.600   3.688 -0.6977 -0.2542 -0.5329
  476TIP3    H122843   2.489   6.537   3.749  1.6317  0.8793 -0.6798
  476TIP3    H222844   2.465   6.685   3.730  0.4184  0.5017 -2.3190
  477TIP3   OH222845   0.676   0.289   1.850  0.0762  0.0434 -0.0900
  477TIP3    H122846   0.664   0.199   1.882  0.5479 -0.7554 -2.0088
  477TIP3    H222847   0.594   0.309   1.804  0.6022 -0.0719 -1.1105
  478TIP3   OH222848   6.411   4.214   1.199 -0.5531  0.0326  0.1624
  478TIP3    H122849   6.477   4.221   1.129  0.8746  1.0093  1.5389
  478TIP3    H222850   6.395   4.121   1.207  0.1819 -0.1842 -0.6425
  479TIP3   OH222851   6.547   5.002  12.989 -0.0437  0.3020  0.6276
  479TIP3    H122852   6.545   4.907  12.999  1.1446  0.2551  0.6058
  479TIP3    H222853   6.637   5.027  13.010  0.0651  1.2461 -0.7938
  480TIP3   OH222854   1.830   3.757   4.806  0.1652 -0.4655 -0.1639
  480TIP3    H122855   1.891   3.827   4.783 -0.4397  0.2203  0.3099
  480TIP3    H222856   1.879   3.676   4.787  2.2146 -0.0090  2.6207
  481TIP3   OH222857   1.102   2.574  15.057  0.2613 -0.3075  0.0980
  481TIP3    H122858   1.007   2.577  15.053  0.1779 -0.3658  1.3893
  481TIP3    H222859   1.126   2.492  15.014 -0.1656  0.2771 -1.3109
  482TIP3   OH222860   6.495   1.264   2.246  0.2642 -0.1117 -0.9090
  482TIP3    H122861   6.430   1.197   2.222  0.2698 -0.0556 -1.0779
  482TIP3    H222862   6.566   1.214   2.287  0.6851 -0.3114 -1.8656
  483TIP3   OH222863   0.788   3.460  10.995 -0.4240  0.0949 -0.0746
  483TIP3    H122864   0.714   3.400  10.999  0.2966 -0.8787 -0.5718
  483TIP3    H222865   0.794   3.483  10.902 -1.0833  1.4702  0.2072
  484TIP3   OH222866   4.859   0.087   4.110 -0.6185  0.1974 -0.0281
  484TIP3    H122867   4.770   0.102   4.144 -0.8014  0.2071 -0.5133
  484TIP3    H222868   4.856   0.117   4.020  0.3965  2.0100  0.4917
  485TIP3   OH222869   5.786   1.768  15.185 -0.4606 -0.2920  0.6155
  485TIP3    H122870   5.695   1.771  15.154 -0.5612 -0.3770  0.9041
  485TIP3    H222871   5.819   1.857  15.170 -0.3181 -0.4939 -0.3039
  486TIP3   OH222872   2.684   0.430  11.983  0.5337 -0.3365  0.5556
  486TIP3    H122873   2.690   0.482  11.903  0.7919  0.1453  0.8883
  486TIP3    H222874   2.598   0.389  11.978  0.5371 -0.2939  0.0408
  487TIP3   OH222875   1.552   4.535  14.364  0.0781 -0.0386 -0.1210
  487TIP3    H122876   1.609   4.601  14.403  1.0937 -0.6719 -0.4971
  487TIP3    H222877   1.527   4.571  14.279  0.3045  0.0345 -0.1568
  488TIP3   OH222878   6.015   4.264  12.144  0.1256 -0.1693  0.3678
  488TIP3    H122879   5.921   4.252  12.152 -0.1028 -0.2247 -1.6893
  488TIP3    H222880   6.027   4.357  12.124  0.7677  0.4025  3.0779
  489TIP3   OH222881   5.407   4.891  15.294 -0.3058 -0.2291  0.2760
  489TIP3    H122882   5.407   4.975  15.249  1.8759 -1.3349 -1.9957
  489TIP3    H222883   5.463   4.905  15.371 -0.4087  0.5238  0.2203
  490TIP3   OH222884   0.070   1.728  14.345 -0.7903 -0.1741  0.3103
  490TIP3    H122885   0.077   1.750  14.252  1.0508  1.0030  0.6806
  490TIP3    H222886   0.158   1.701  14.370 -0.9549  0.7600  2.0099
  491TIP3   OH222887   4.458   6.448   5.311  0.2751  0.0899 -0.9520
  491TIP3    H122888   4.401   6.372   5.311 -0.2387  0.4012  1.5620
  491TIP3    H222889   4.403   6.519   5.278 -0.5474  0.1736  0.5066
  492TIP3   OH222890   2.507   1.373   4.265 -0.0930 -0.0570 -0.0858
  492TIP3    H122891   2.429   1.318   4.255 -0.3523  0.3095 -0.1398
  492TIP3    H222892   2.578   1.312   4.281 -0.4153 -0.3916  0.0901
  493TIP3   OH222893   3.498   5.410   1.234 -0.1209 -0.4488  0.1815
  493TIP3    H122894   3.405   5.430   1.245  0.0298 -0.7160  2.4743
  493TIP3    H222895   3.519   5.441   1.146 -2.2553  0.0297 -0.2276
  494TIP3   OH222896   4.975   3.858  13.223  0.0030  0.7151 -0.0763
  494TIP3    H122897   4.955   3.796  13.293 -0.8258  0.8072 -0.2237
  494TIP3    H222898   4.944   3.943  13.257  2.6777  1.4308  0.8616
  495TIP3   OH222899   0.164   4.524  12.652 -0.3355  0.2842 -0.2882
  495TIP3    H122900   0.101   4.502  12.584 -0.9926 -0.0721  0.4272
  495TIP3    H222901   0.245   4.480  12.625 -0.9299 -0.9174 -0.2083
  496TIP3   OH222902   1.693   0.091  11.250  0.2176 -0.3663  0.1313
  496TIP3    H122903   1.673   0.028  11.181 -0.0913  0.5988 -0.6967
  496TIP3    H222904   1.754   0.045  11.307  0.3359 -1.2650 -0.6812
  497TIP3   OH222905   4.841   1.432   3.379  0.0939  0.0778  0.0609
  497TIP3    H122906   4.748   1.433   3.402  0.1169  0.9899  0.1584
  497TIP3    H222907   4.844   1.463   3.288  0.2034 -1.2422 -0.4141
  498TIP3   OH222908   4.063   0.589  16.327 -0.0220 -0.3782  0.2778
  498TIP3    H122909   4.150   0.622  16.304 -0.2536 -0.5684 -0.9524
  498TIP3    H222910   4.061   0.501  16.289 -0.8464 -0.2731  0.0668
  499TIP3   OH222911   5.956   1.214   2.157 -0.1939  0.1012 -0.2568
  499TIP3    H122912   6.019   1.159   2.203 -0.9802 -0.7497 -0.1627
  499TIP3    H222913   5.921   1.272   2.224  1.1061  1.1831 -0.4833
  500TIP3   OH222914   4.717   1.252  13.914 -0.2665 -0.0003  0.4851
  500TIP3    H122915   4.692   1.231  14.004  1.5412  0.7913  1.2205
  500TIP3    H222916   4.791   1.194  13.895  1.1508  1.7137  0.5454
  501TIP3   OH222917   0.196   6.051  11.815  0.1047 -0.1426 -0.2675
  501TIP3    H122918   0.139   6.076  11.888 -0.0299 -1.7766  0.2365
  501TIP3    H222919   0.170   6.109  11.743  1.8867  3.1998  1.5736
  502TIP3   OH222920   6.265   6.662   1.152  0.0161 -0.1804  0.3526
  502TIP3    H122921   6.219   6.686   1.233  1.3277  0.3065  0.9812
  502TIP3    H222922   6.324   6.735   1.136  0.0498 -0.4525 -0.8585
  503TIP3   OH222923   4.491   0.448   3.604 -0.3316 -0.0477 -0.5130
  503TIP3    H122924   4.517   0.501   3.679 -1.1070  0.1953 -0.4080
  503TIP3    H222925   4.454   0.369   3.642 -2.6012  0.9370 -0.5584
  504TIP3   OH222926   1.558   5.284  14.994  0.2977  0.1867  0.4624
  504TIP3    H122927   1.471   5.259  14.963 -0.3532  1.8126  0.9027
  504TIP3    H222928   1.592   5.341  14.925  1.2367 -0.8057  0.0704
  505TIP3   OH222929   4.018   2.325  16.267  0.5301  0.5976 -0.1839
  505TIP3    H122930   4.041   2.406  16.220  0.8647  1.9386  2.1503
  505TIP3    H222931   3.935   2.345  16.310  0.1751 -0.6348 -0.2639
  506TIP3   OH222932   3.491   5.828   6.498  0.6891  0.3427 -0.8145
  506TIP3    H122933   3.441   5.907   6.521 -0.3312 -0.8646  1.5518
  506TIP3    H222934   3.562   5.826   6.562  1.2477 -0.1884 -1.4439
  507TIP3   OH222935   0.723   5.603  14.983  0.7363  0.4879 -0.1995
  507TIP3    H122936   0.779   5.558  14.920  0.0975 -0.3620 -0.1784
  507TIP3    H222937   0.686   5.677  14.934  2.6654  1.7337  0.0758
  508TIP3   OH222938   6.299   3.421   0.144 -0.3072  0.2586  0.6967
  508TIP3    H122939   6.206   3.433   0.123  0.0305 -0.1275 -1.1172
  508TIP3    H222940   6.344   3.490   0.095  0.5323 -0.8035 -0.0642
  509TIP3   OH222941   3.358   3.435   6.628 -0.4770  0.0835  0.6532
  509TIP3    H122942   3.395   3.483   6.702  0.0450  0.1969  0.3229
  509TIP3    H222943   3.388   3.483   6.550 -1.6128  0.3901  0.3785
  510TIP3   OH222944   1.311   5.121  13.026  0.0383 -0.1162  1.1028
  510TIP3    H122945   1.250   5.055  12.993 -0.0699  0.5113 -0.0142
  510TIP3    H222946   1.353   5.080  13.101 -2.4650 -0.2363  2.5500
  511TIP3   OH222947   5.809   6.041  16.383  0.0400 -0.2502 -0.4486
  511TIP3    H122948   5.791   5.984  16.308  1.0820 -1.6493  0.3224
  511TIP3    H222949   5.810   5.982  16.458 -0.1664  1.0084  0.5631
  512TIP3   OH222950   3.820   6.662  15.587 -0.1021 -0.2052 -0.4666
  512TIP3    H122951   3.845   6.605  15.515  0.2512  0.4735 -0.8961
  512TIP3    H222952   3.853   6.749  15.562 -0.1321  0.0792  0.4245
  513TIP3   OH222953   1.772   4.881   5.219  0.0771  0.4363 -0.1075
  513TIP3    H122954   1.707   4.846   5.159  0.5875 -0.7712  0.0218
  513TIP3    H222955   1.855   4.872   5.172  0.4266 -0.1241  0.5994
  514TIP3   OH222956   6.165   2.735   1.351  0.1624 -0.2359  0.3500
  514TIP3    H122957   6.259   2.723   1.361  0.4287 -0.4492 -1.9028
  514TIP3    H222958   6.139   2.668   1.287 -0.8419  2.0198 -1.7515
  515TIP3   OH222959   4.946   0.209   0.289  0.3979  0.3133  0.1400
  515TIP3    H122960   5.031   0.209   0.334  0.5279  3.1553  0.0470
  515TIP3    H222961   4.963   0.167   0.205  1.4891  0.0229  0.4945
  516TIP3   OH222962   5.498   6.497  16.309  0.1831  0.4879 -0.0759
  516TIP3    H122963   5.414   6.539  16.289  0.5480  0.4725 -1.7328
  516TIP3    H222964   5.481   6.404  16.297  0.0498  0.3391  1.1205
  517TIP3   OH222965   1.496   6.654  10.473  0.4896 -0.0777  0.0596
  517TIP3    H122966   1.545   6.716  10.528  0.4463  2.0692 -2.1360
  517TIP3    H222967   1.454   6.709  10.408 -1.8965 -2.2325 -0.3597
  518TIP3   OH222968   1.687   0.736   0.631 -0.1460  0.0281  0.0023
  518TIP3    H122969   1.675   0.825   0.663  0.5107  0.3492 -0.6129
  518TIP3    H222970   1.777   0.714   0.655 -0.9338 -1.2617  2.0068
  519TIP3   OH222971   0.363   2.898   5.609  0.0535  0.0328 -0.0309
  519TIP3    H122972   0.409   2.965   5.660 -1.6064  1.0964  0.1661
  519TIP3    H222973   0.371   2.818   5.661  1.6217  0.1675 -0.0095
  520TIP3   OH222974   4.612   2.611  11.675 -0.5759  0.1687 -0.1314
  520TIP3    H122975   4.638   2.519  11.682 -1.2066  0.0279  0.4739
  520TIP3    H222976   4.572   2.618  11.588 -1.2452 -0.3224  0.1291
  521TIP3   OH222977   1.427   5.991   6.312  0.2340  0.7715  0.3635
  521TIP3    H122978   1.505   5.965   6.361  0.2992  0.2626  0.0045
  521TIP3    H222979   1.362   6.014   6.378 -0.8745 -3.1895  0.8947
  522TIP3   OH222980   3.595   6.442  15.365 -0.0785  0.1182 -0.5950
  522TIP3    H122981   3.513   6.392  15.368 -1.0052  1.5985  0.6570
  522TIP3    H222982   3.567   6.531  15.344  1.2466  0.6142 -0.3413
  523TIP3   OH222983   0.247   2.990  14.030 -0.6197 -0.3227  0.1756
  523TIP3    H122984   0.152   2.981  14.035 -0.5072 -1.6767  0.3674
  523TIP3    H222985   0.277   2.977  14.120 -0.2460  0.0429  0.1064
  524TIP3   OH222986   0.369   1.480   5.240 -0.3062  0.1306 -0.1943
  524TIP3    H122987   0.284   1.491   5.282 -0.8415  0.5963 -1.3634
  524TIP3    H222988   0.378   1.556   5.182  1.1928  0.4257  0.3633
  525TIP3   OH222989   5.445   4.557   0.771 -0.7389  0.2049 -0.2031
  525TIP3    H122990   5.414   4.499   0.841 -0.4649 -0.4171 -0.5931
  525TIP3    H222991   5.403   4.641   0.790 -0.2576  0.1923  1.0137
  526TIP3   OH222992   4.090   0.824  12.272 -0.0193  0.2301 -0.0838
  526TIP3    H122993   4.170   0.857  12.229 -0.5137 -0.5202 -1.6739
  526TIP3    H222994   4.037   0.791  12.199 -0.4345 -2.1766  1.2376
  527TIP3   OH222995   2.989   5.384   2.158  0.2280 -0.1765  0.7556
  527TIP3    H122996   3.056   5.452   2.148 -1.9027  1.9403  0.0188
  527TIP3    H222997   2.966   5.387   2.251 -1.5601  1.9493  0.3251
  528TIP3   OH222998   6.558   1.289  14.255  0.4859 -0.3043 -0.4009
  528TIP3    H122999   6.604   1.224  14.309  1.1982  0.6488  0.1618
  528TIP3    H223000   6.489   1.239  14.211 -0.6425 -0.9992  1.9698
  529TIP3   OH223001   6.408   1.879  12.168  0.5980 -0.2092  0.4765
  529TIP3    H123002   6.450   1.793  12.176 -0.9283 -1.3137 -1.9846
  529TIP3    H223003   6.316   1.859  12.152 -0.0946  1.9814  1.3392
  530TIP3   OH223004   6.235   5.657   2.248  0.4341  0.3070 -0.0755
  530TIP3    H123005   6.307   5.600   2.223 -0.9452 -1.7135  0.3146
  530TIP3    H223006   6.243   5.666   2.343 -0.2519 -0.5508  0.0682
  531TIP3   OH223007   2.109   3.031  16.439  0.2283  0.0284  0.0976
  531TIP3    H123008   2.164   3.073  16.504  1.0290 -0.2936 -0.3606
  531TIP3    H223009   2.049   2.976  16.490  1.8155 -1.3910  0.5232
  532TIP3   OH223010   6.293   5.615  14.622 -0.0583 -0.3292  0.2243
  532TIP3    H123011   6.270   5.691  14.567 -0.8853  1.2315  2.5723
  532TIP3    H223012   6.211   5.594  14.668  0.7035 -1.3005  1.1737
  533TIP3   OH223013   1.442   1.505   1.793 -0.3449 -0.1439  0.0907
  533TIP3    H123014   1.509   1.518   1.860 -0.1571 -0.3127 -0.0640
  533TIP3    H223015   1.361   1.538   1.833 -0.5490 -1.6365  0.9738
  534TIP3   OH223016   0.807   1.148  13.309  0.2084  0.2840 -0.1310
  534TIP3    H123017   0.794   1.064  13.263  1.4854 -0.5572  0.9879
  534TIP3    H223018   0.762   1.136  13.392  0.6224  0.6177  0.1411
  535TIP3   OH223019   3.082   3.692   3.444 -0.2214 -0.3611  0.1588
  535TIP3    H123020   3.059   3.599   3.441  1.5433 -0.9384  1.9728
  535TIP3    H223021   3.090   3.712   3.537  2.4341  0.7274 -0.1899
  536TIP3   OH223022   0.107   4.606   2.109 -0.2033 -0.5986  0.5673
  536TIP3    H123023   0.043   4.539   2.084  0.4581 -0.7191 -0.9211
  536TIP3    H223024   0.150   4.571   2.186 -0.9419 -1.1641  0.7339
  537TIP3   OH223025   2.262   0.865  16.834 -0.1574 -0.6409 -0.1777
  537TIP3    H123026   2.266   0.803  16.906 -0.1471 -0.0447  0.3372
  537TIP3    H223027   2.353   0.886  16.815 -0.1323 -1.1890 -0.7195
  538TIP3   OH223028   1.997   3.279   2.310 -0.0878 -0.1922 -0.2558
  538TIP3    H123029   1.991   3.191   2.347  1.1303 -0.4538 -0.6405
  538TIP3    H223030   1.961   3.336   2.378  0.7149 -0.8151  0.7134
  539TIP3   OH223031   1.127   2.620  13.151  0.2271  0.1561  0.3461
  539TIP3    H123032   1.179   2.701  13.145 -0.2264  0.4109 -0.2361
  539TIP3    H223033   1.185   2.552  13.118  0.7573  0.1650  1.2130
  540TIP3   OH223034   6.129   3.465   0.435 -1.0249  0.2306 -0.0711
  540TIP3    H123035   6.116   3.463   0.530 -1.1606  0.2598 -0.0891
  540TIP3    H223036   6.040   3.458   0.399 -0.9676  0.1434 -0.1962
  541TIP3   OH223037   6.114   5.406  11.004 -0.2659  0.2853 -0.0027
  541TIP3    H123038   6.167   5.447  10.935  0.0574  1.3355  0.8549
  541TIP3    H223039   6.029   5.450  10.998 -0.3071  0.2228  0.1227
  542TIP3   OH223040   0.806   3.332   1.289  0.0834  0.3680 -0.1728
  542TIP3    H123041   0.782   3.412   1.242 -2.9423 -0.0825  0.3907
  542TIP3    H223042   0.898   3.345   1.314 -0.2404  3.5865 -0.2540
  543TIP3   OH223043   4.543   4.275   6.235  0.0101 -0.0493 -0.4296
  543TIP3    H123044   4.526   4.181   6.244  0.0549  0.0170  0.4097
  543TIP3    H223045   4.639   4.281   6.230  0.0325 -0.0207 -0.0345
  544TIP3   OH223046   2.660   4.298  16.727  0.2183  0.0648  0.0494
  544TIP3    H123047   2.754   4.289  16.709  0.0414 -1.7119 -0.1578
  544TIP3    H223048   2.647   4.251  16.809 -0.3189  1.3094  0.6889
  545TIP3   OH223049   6.582   4.723   3.050 -0.1619 -0.6124 -0.4962
  545TIP3    H123050   6.503   4.777   3.046  1.3081  1.5764 -2.6233
  545TIP3    H223051   6.597   4.697   2.959  0.9476 -1.9550  0.0501
  546TIP3   OH223052   2.468   4.504  12.996 -0.1832  0.1323 -0.6750
  546TIP3    H123053   2.525   4.507  12.919 -1.4661  1.0288 -1.6359
  546TIP3    H223054   2.446   4.596  13.014  0.6529  0.0087  1.2313
  547TIP3   OH223055   5.839   0.074   2.068  0.1330 -0.2981 -0.1896
  547TIP3    H123056   5.757   0.122   2.075 -0.1675 -1.0134  1.9108
  547TIP3    H223057   5.906   0.137   2.094  0.0056 -0.3377  0.2345
  548TIP3   OH223058   5.977   4.395  15.074 -0.1355  0.1007  0.0829
  548TIP3    H123059   6.016   4.479  15.050  1.0484 -0.1996  0.9008
  548TIP3    H223060   5.938   4.410  15.160  0.5163 -0.3121  0.4563
  549TIP3   OH223061   1.303   3.312  12.961 -0.3414 -0.3111  0.0741
  549TIP3    H123062   1.327   3.226  12.926 -1.6164 -0.5678 -0.2261
  549TIP3    H223063   1.363   3.373  12.917 -0.9251 -0.7980 -1.4564
  550TIP3   OH223064   2.341   4.849  10.611  0.0184  0.1532 -0.3107
  550TIP3    H123065   2.356   4.760  10.644  0.9596  0.3326 -0.2432
  550TIP3    H223066   2.319   4.836  10.518 -0.5997 -0.1941 -0.1269
  551TIP3   OH223067   6.026   6.485  11.117  0.0571 -0.3319 -0.1114
  551TIP3    H123068   6.067   6.486  11.204  0.8854 -0.8345 -0.4844
  551TIP3    H223069   6.099   6.496  11.056 -0.4857 -0.2886 -0.7616
  552TIP3   OH223070   5.810   2.738   5.347 -0.2218 -0.1006  0.7050
  552TIP3    H123071   5.734   2.774   5.300  2.2743  1.0717 -2.8484
  552TIP3    H223072   5.807   2.644   5.328  0.5516  0.3035 -1.7258
  553TIP3   OH223073   1.642   2.843   6.084  0.5077 -0.2915  0.3739
  553TIP3    H123074   1.623   2.779   6.015  1.6666  0.6001 -0.8049
  553TIP3    H223075   1.673   2.790   6.157 -0.5663 -1.2386  0.1822
  554TIP3   OH223076   6.071   5.513  15.335 -0.4357 -0.0594 -0.1581
  554TIP3    H123077   6.022   5.453  15.278 -0.7732 -0.1299  0.2054
  554TIP3    H223078   6.009   5.583  15.355 -0.7427 -0.6730  1.1543
  555TIP3   OH223079   4.360   4.224   0.458  0.2552  0.2890 -0.4334
  555TIP3    H123080   4.421   4.150   0.455  1.3095  1.1712 -2.9066
  555TIP3    H223081   4.376   4.264   0.543 -1.6162 -3.2237  1.8489
  556TIP3   OH223082   5.290   3.874  11.582 -0.2931  0.2821  0.5444
  556TIP3    H123083   5.383   3.878  11.562 -0.1308  1.4723  1.4369
  556TIP3    H223084   5.278   3.788  11.623  0.5596  0.4313  1.1177
  557TIP3   OH223085   6.187   3.377   2.136  0.4889  0.0677  0.0485
  557TIP3    H123086   6.149   3.421   2.212 -1.9126 -1.5051 -0.1516
  557TIP3    H223087   6.241   3.307   2.174 -0.4006 -0.4772  0.3465
  558TIP3   OH223088   0.511   6.369  11.658  0.3240 -0.2715 -0.3469
  558TIP3    H123089   0.581   6.409  11.606  1.2632 -0.2045  0.9383
  558TIP3    H223090   0.492   6.432  11.727 -0.6533 -0.5207 -0.3755
  559TIP3   OH223091   0.926   1.364   3.441  0.4564  0.1077 -0.0626
  559TIP3    H123092   0.848   1.314   3.464 -0.3834  1.0700 -0.7115
  559TIP3    H223093   0.988   1.299   3.409 -0.4529 -0.5792 -0.4773
  560TIP3   OH223094   6.608   4.343  14.737  0.0187 -0.0103  0.8945
  560TIP3    H123095   6.591   4.424  14.688  1.9425  0.7321  1.3579
  560TIP3    H223096   6.564   4.275  14.686  0.1128  1.0418 -0.6614
  561TIP3   OH223097   1.393   4.635   1.422  0.5489  0.3547 -0.5184
  561TIP3    H123098   1.308   4.656   1.383  0.9765  2.8689 -0.2270
  561TIP3    H223099   1.388   4.541   1.441 -1.7687  0.2390 -1.4330
  562TIP3   OH223100   4.152   1.759  14.707 -0.5508 -0.1450 -0.0142
  562TIP3    H123101   4.192   1.835  14.748 -0.9883  0.4539 -0.6821
  562TIP3    H223102   4.210   1.686  14.729  0.2965  0.5147 -0.0282
  563TIP3   OH223103   0.727   1.625   1.677  0.2357  0.2018 -0.1317
  563TIP3    H123104   0.636   1.611   1.649 -0.4342  0.8030  1.6214
  563TIP3    H223105   0.720   1.669   1.761  2.1888  0.9760 -0.3229
  564TIP3   OH223106   3.884   5.946   0.662 -0.0845  0.2359  0.8825
  564TIP3    H123107   3.900   5.914   0.751 -0.8395  0.3005  1.0410
  564TIP3    H223108   3.918   6.035   0.662  1.2229 -0.2411  0.6919
  565TIP3   OH223109   6.603   5.703   1.153 -0.8498 -0.2934 -0.2862
  565TIP3    H123110   6.556   5.649   1.089 -0.3342 -1.6044  0.4048
  565TIP3    H223111   6.560   5.684   1.236 -0.4086  0.0682  0.0302
  566TIP3   OH223112   2.260   6.391   3.790 -0.0336  0.0883 -0.0188
  566TIP3    H123113   2.181   6.387   3.736  0.5416  1.6306 -1.0222
  566TIP3    H223114   2.265   6.482   3.819  2.7765  0.7457 -2.1970
  567TIP3   OH223115   4.463   3.380  15.202  0.5143  0.2364  0.4473
  567TIP3    H123116   4.372   3.406  15.215  0.4588 -0.3844  1.4473
  567TIP3    H223117   4.504   3.390  15.288  1.3294  0.2755  0.0679
  568TIP3   OH223118   3.507   6.327   2.443 -0.1488 -0.2007 -0.2456
  568TIP3    H123119   3.433   6.380   2.474 -2.0088 -0.6128 -3.4887
  568TIP3    H223120   3.552   6.301   2.523 -2.2185  1.8853  1.7911
  569TIP3   OH223121   1.004   1.889   0.781 -0.3714 -0.1677 -0.0840
  569TIP3    H123122   1.083   1.896   0.834  0.3945  0.8100 -1.3165
  569TIP3    H223123   0.950   1.964   0.809 -1.0442 -0.9969  0.9660
  570TIP3   OH223124   4.123   0.503   0.405 -0.0563 -0.1571  0.3897
  570TIP3    H123125   4.090   0.428   0.357  0.3494  0.4344 -0.8403
  570TIP3    H223126   4.046   0.542   0.447 -0.3432 -0.9312  0.5849
  571TIP3   OH223127   4.992   6.261  15.673  0.3762 -0.2690  0.2939
  571TIP3    H123128   4.998   6.251  15.578  0.1483  1.4252  0.0785
  571TIP3    H223129   4.900   6.248  15.693  0.6070 -1.8527  0.4711
  572TIP3   OH223130   0.240   6.454  13.533 -0.3111 -0.0694  0.1586
  572TIP3    H123131   0.162   6.504  13.557 -1.8324 -1.4359 -1.5352
  572TIP3    H223132   0.290   6.513  13.477 -2.0502 -0.2913 -1.7838
  573TIP3   OH223133   5.452   1.396  11.336 -0.0896 -0.2716  0.1900
  573TIP3    H123134   5.496   1.481  11.338  2.2278 -1.3204 -1.6095
  573TIP3    H223135   5.432   1.377  11.428 -1.1312  2.3674  0.5804
  574TIP3   OH223136   4.312   2.552   4.712 -0.1617  0.6597  0.0967
  574TIP3    H123137   4.387   2.560   4.654  0.2407 -0.3660  0.4508
  574TIP3    H223138   4.314   2.632   4.765  1.1394  0.2943  0.6313
  575TIP3   OH223139   2.590   3.560   3.758  0.0756  0.5296 -0.1438
  575TIP3    H123140   2.571   3.561   3.852 -1.8457 -1.8163 -0.4127
  575TIP3    H223141   2.628   3.474   3.742  1.0491  1.1604 -1.4636
  576TIP3   OH223142   3.578   2.296   0.936  0.1617 -0.2316 -0.6107
  576TIP3    H123143   3.497   2.336   0.905 -0.1163  0.2366  0.6480
  576TIP3    H223144   3.551   2.243   1.012  1.1422  0.6169  0.3585
  577TIP3   OH223145   2.487   3.571   5.501 -0.2789 -0.3256  0.1277
  577TIP3    H123146   2.461   3.548   5.590  0.4507  0.4554  0.5565
  577TIP3    H223147   2.553   3.506   5.478  0.1540 -0.0180  0.4866
  578TIP3   OH223148   0.300   0.786   4.714  0.3598  0.1907 -0.1774
  578TIP3    H123149   0.221   0.752   4.672  0.2979 -0.6028  0.5559
  578TIP3    H223150   0.369   0.726   4.687  0.3893 -0.1097  0.5331
  579TIP3   OH223151   0.925   5.915  14.373  0.1459 -0.1894 -0.0409
  579TIP3    H123152   1.000   5.857  14.360  0.9587  0.9248 -0.4838
  579TIP3    H223153   0.890   5.889  14.458  1.6281 -0.1054  0.6321
  580TIP3   OH223154   6.477   1.421  16.660  0.2988 -0.1542  0.3398
  580TIP3    H123155   6.522   1.352  16.709  3.5246 -0.7537 -2.9375
  580TIP3    H223156   6.460   1.382  16.574  0.8559  2.5994 -1.1571
  581TIP3   OH223157   3.103   3.752  16.348 -0.0292 -0.2188 -0.0222
  581TIP3    H123158   3.128   3.783  16.261  1.2263 -0.2438  0.3107
  581TIP3    H223159   3.186   3.741  16.394 -0.6164 -1.2490  0.8302
  582TIP3   OH223160   2.024   6.130  13.910  0.2876 -0.2603 -0.2043
  582TIP3    H123161   1.990   6.123  13.999  1.7145  1.2030  0.5129
  582TIP3    H223162   2.118   6.114  13.920  1.2217  3.8397 -0.6896
  583TIP3   OH223163   2.176   3.367   0.864  0.1079  0.2375  0.3079
  583TIP3    H123164   2.138   3.391   0.779  0.1176 -0.2910  0.1475
  583TIP3    H223165   2.114   3.303   0.900 -0.7960  1.6912  1.4827
  584TIP3   OH223166   3.480   0.772   3.064 -0.0492 -0.4773  0.3707
  584TIP3    H123167   3.514   0.843   3.010 -0.4943 -0.2932  0.3249
  584TIP3    H223168   3.539   0.769   3.140 -0.0451 -0.0380  0.3870
  585TIP3   OH223169   5.526   4.476   3.559  0.7050 -0.1799  0.6666
  585TIP3    H123170   5.440   4.436   3.572  1.0770 -0.8344  1.1423
  585TIP3    H223171   5.509   4.547   3.497  0.0787 -1.2624 -0.4594
  586TIP3   OH223172   2.172   4.871   0.975  0.0736  0.1970  0.4687
  586TIP3    H123173   2.131   4.915   1.049 -1.9655  2.4403 -1.8012
  586TIP3    H223174   2.238   4.933   0.943  1.1480 -0.8720  0.5256
  587TIP3   OH223175   5.554   4.062  12.556 -0.1612 -0.3982  0.2453
  587TIP3    H123176   5.534   4.043  12.465  1.9110 -0.1858 -0.2998
  587TIP3    H223177   5.575   3.976  12.594  0.1172 -0.3394  0.2214
  588TIP3   OH223178   1.615   1.889  14.422 -0.1917 -0.2181 -0.1402
  588TIP3    H123179   1.693   1.940  14.443 -0.6973  1.0158 -1.1411
  588TIP3    H223180   1.645   1.824  14.358  0.6676 -1.9123  1.8628
  589TIP3   OH223181   3.232   4.150   4.127  0.2728 -0.2025 -0.2093
  589TIP3    H123182   3.175   4.212   4.081 -0.2842 -0.1831  0.4752
  589TIP3    H223183   3.316   4.194   4.134  0.1999  0.0186 -0.7133
  590TIP3   OH223184   0.804   1.485  16.487  0.1767  0.1138 -0.4326
  590TIP3    H123185   0.805   1.561  16.545  0.7828 -0.4300  0.2796
  590TIP3    H223186   0.744   1.423  16.529 -1.8512  0.9063 -1.9748
  591TIP3   OH223187   4.034   4.429   4.997  0.6230  0.3241  0.1534
  591TIP3    H123188   4.018   4.425   5.091  0.2850 -1.9324  0.0491
  591TIP3    H223189   4.053   4.521   4.980  0.3985  0.8337  2.3693
  592TIP3   OH223190   2.186   1.531  12.349 -0.3262 -0.6717 -0.6453
  592TIP3    H123191   2.241   1.604  12.375 -2.8624  0.8908  0.7207
  592TIP3    H223192   2.167   1.546  12.256  2.1949 -1.7937 -1.4348
  593TIP3   OH223193   4.713   6.758  15.104 -0.3980 -0.2573  0.1882
  593TIP3    H123194   4.748   6.847  15.100 -0.5350 -0.1968  0.3598
  593TIP3    H223195   4.622   6.769  15.132 -0.1570 -0.5171  1.1078
  594TIP3   OH223196   0.665   4.531   0.935  0.0580  0.3790 -1.2936
  594TIP3    H123197   0.678   4.464   0.868  1.3467  0.6432 -1.3287
  594TIP3    H223198   0.676   4.614   0.890  1.1330  0.5558 -0.7528
  595TIP3   OH223199   5.319   3.560  14.302  0.2961 -0.3308 -0.1024
  595TIP3    H123200   5.409   3.548  14.270  1.0457  0.8610  1.4144
  595TIP3    H223201   5.324   3.639  14.357 -2.0870  0.8690 -1.4591
  596TIP3   OH223202   0.325   3.309  13.679  0.6208  0.2846 -0.6600
  596TIP3    H123203   0.290   3.222  13.660  0.7121 -0.0008  0.4311
  596TIP3    H223204   0.374   3.333  13.600 -0.8984  0.1364 -1.6995
  597TIP3   OH223205   3.507   4.929  13.233  0.0481  0.4055 -0.2314
  597TIP3    H123206   3.562   4.925  13.312  0.1620  0.6040 -0.3007
  597TIP3    H223207   3.544   5.001  13.182 -0.1023  0.3552 -0.4097
  598TIP3   OH223208   2.357   2.264  14.235 -0.3332  0.0900  0.3178
  598TIP3    H123209   2.322   2.309  14.312 -1.3523 -0.5183  0.2321
  598TIP3    H223210   2.327   2.174  14.244 -0.8636  0.1068 -1.0144
  599TIP3   OH223211   5.163   5.059   3.473 -0.1721 -0.4418  0.5041
  599TIP3    H123212   5.245   5.106   3.459  0.3179 -0.8801  1.7904
  599TIP3    H223213   5.131   5.039   3.385  0.1287  1.3655 -0.0614
  600TIP3   OH223214   3.443   5.509   5.156  0.0390  0.0656 -0.3764
  600TIP3    H123215   3.481   5.528   5.070  0.0427 -1.3159 -0.7138
  600TIP3    H223216   3.515   5.522   5.217  0.6404 -0.9543 -0.8311
  601TIP3   OH223217   2.112   5.594  14.486 -0.1684 -0.2596  0.1083
  601TIP3    H123218   2.165   5.640  14.551  0.5399 -0.5131 -0.2793
  601TIP3    H223219   2.035   5.564  14.535 -0.1545  0.4653  0.5826
  602TIP3   OH223220   4.853   5.868  12.434 -0.5168 -0.4620  0.3228
  602TIP3    H123221   4.859   5.954  12.477 -1.1180  0.0865 -0.6656
  602TIP3    H223222   4.896   5.808  12.496 -1.8815  0.1805  1.9756
  603TIP3   OH223223   6.068   4.812   0.621 -0.3925  0.5471  0.9195
  603TIP3    H123224   5.979   4.807   0.657 -0.2917 -1.7239  1.0289
  603TIP3    H223225   6.122   4.837   0.696 -0.3205 -3.2032  2.3421
  604TIP3   OH223226   1.592   2.244  15.921 -0.6362  0.7382 -0.3632
  604TIP3    H123227   1.648   2.281  15.989 -0.9793 -0.5645  0.6788
  604TIP3    H223228   1.506   2.282  15.937 -1.1607 -0.9183  1.1581
  605TIP3   OH223229   2.373   0.503  15.239 -0.3861  0.4341  0.5138
  605TIP3    H123230   2.346   0.576  15.295 -1.9647 -0.1067  0.5362
  605TIP3    H223231   2.321   0.429  15.272 -1.1676  0.0361 -1.4933
  606TIP3   OH223232   0.340   4.670   5.889  0.0369  0.0292  0.4059
  606TIP3    H123233   0.346   4.687   5.795 -2.3779  1.1044  0.3740
  606TIP3    H223234   0.404   4.729   5.929  1.1827 -0.5372 -0.5423
  607TIP3   OH223235   5.154   2.869   5.660  0.4963 -0.4293 -0.3713
  607TIP3    H123236   5.115   2.840   5.578 -0.3857  0.0705 -0.1369
  607TIP3    H223237   5.178   2.961   5.644  0.6955 -0.4500 -0.2007
  608TIP3   OH223238   2.336   0.745   5.620 -0.3656 -0.6426  0.5910
  608TIP3    H123239   2.352   0.697   5.539 -3.4582 -1.1660  0.1577
  608TIP3    H223240   2.261   0.801   5.600  0.3967  1.1676  2.3873
  609TIP3   OH223241   0.064   4.736  10.710  0.5288 -0.7690 -0.0123
  609TIP3    H123242   0.027   4.770  10.628  0.2343 -2.1873 -0.5140
  609TIP3    H223243   0.145   4.693  10.684  1.6717  0.7993  0.8262
  610TIP3   OH223244   3.753   1.282  14.650 -0.8712  0.6650  0.0361
  610TIP3    H123245   3.790   1.205  14.607 -0.2741  0.3296  1.1224
  610TIP3    H223246   3.795   1.284  14.736 -1.4745  1.7525  0.3200
  611TIP3   OH223247   5.420   4.025   6.407 -0.6849 -0.9999 -0.0631
  611TIP3    H123248   5.483   3.957   6.431 -0.2271 -1.0667 -1.4049
  611TIP3    H223249   5.415   4.081   6.484  1.1830 -0.8678  0.0087
  612TIP3   OH223250   3.949   0.268   5.196  0.0147  0.3380  0.4268
  612TIP3    H123251   3.950   0.336   5.129  0.9595 -0.2423 -0.1928
  612TIP3    H223252   4.041   0.239   5.201  0.1315  0.9043  2.5585
  613TIP3   OH223253   2.174   6.693   5.723  0.1051  0.3439  0.5379
  613TIP3    H123254   2.254   6.740   5.746  0.1136  0.6608 -0.1145
  613TIP3    H223255   2.121   6.758   5.677 -1.1126  0.5336  2.1374
  614TIP3   OH223256   0.599   1.865  10.603  0.0573 -0.5480 -0.3470
  614TIP3    H123257   0.540   1.815  10.660 -0.1455  0.3818  0.2850
  614TIP3    H223258   0.543   1.897  10.533 -0.1617  0.1636  0.1431
  615TIP3   OH223259   4.167   0.670  11.318  0.0170 -0.4119 -0.3310
  615TIP3    H123260   4.235   0.636  11.376  1.1274  1.8196 -0.2252
  615TIP3    H223261   4.172   0.765  11.329 -1.5506 -0.0743 -2.1076
  616TIP3   OH223262   2.757   4.012   4.788  0.3863  0.1171  0.0395
  616TIP3    H123263   2.711   4.032   4.706  0.2546 -1.7838 -0.4015
  616TIP3    H223264   2.784   3.921   4.778 -0.5729 -0.5282  2.5540
  617TIP3   OH223265   6.701   1.884  16.439  0.0575 -0.6178 -0.3022
  617TIP3    H123266   6.645   1.888  16.361 -1.6314 -0.3384  0.8822
  617TIP3    H223267   6.645   1.913  16.511  2.3975  1.9932  0.6355
  618TIP3   OH223268   1.166   0.261  15.450  0.3457  0.1909  0.2852
  618TIP3    H123269   1.222   0.276  15.374 -0.8603 -0.2320 -0.7154
  618TIP3    H223270   1.223   0.216  15.513  1.6304  1.4220  0.0433
  619TIP3   OH223271   5.567   0.518  16.896  0.2539 -0.1017 -0.1797
  619TIP3    H123272   5.549   0.590  16.835 -0.1206 -0.1968 -0.1847
  619TIP3    H223273   5.617   0.455  16.844 -0.9367 -0.6534 -0.7158
  620TIP3   OH223274   5.779   1.507   0.492 -0.5442 -0.3264  0.8600
  620TIP3    H123275   5.845   1.564   0.534  0.9063 -0.6466 -0.8608
  620TIP3    H223276   5.790   1.423   0.536  1.1385 -0.7308 -0.2568
  621TIP3   OH223277   0.443   4.914   4.116 -0.2715  0.4832 -0.3687
  621TIP3    H123278   0.397   4.952   4.191  1.8080  0.5612  0.9435
  621TIP3    H223279   0.478   4.990   4.069  0.6755  0.3512  0.1071
  622TIP3   OH223280   0.610   2.253   1.624  0.3611 -0.3335 -0.3982
  622TIP3    H123281   0.631   2.321   1.559 -0.7281  0.9749  0.5590
  622TIP3    H223282   0.669   2.271   1.697 -1.2868  0.9280  0.6974
  623TIP3   OH223283   1.340   5.091   3.873 -0.4260 -0.1557 -0.7874
  623TIP3    H123284   1.353   4.998   3.855 -0.2282  0.0636 -1.7986
  623TIP3    H223285   1.428   5.128   3.873 -0.2211 -0.3682  2.1252
  624TIP3   OH223286   3.898   0.794  15.365  0.1980 -0.2716  0.2029
  624TIP3    H123287   3.924   0.752  15.447 -0.1325 -0.2694  0.3088
  624TIP3    H223288   3.809   0.762  15.349  0.5352 -0.8736 -0.5417
  625TIP3   OH223289   3.145   3.524   1.824 -0.0802 -0.4050  0.3396
  625TIP3    H123290   3.203   3.569   1.886  2.4997 -2.3292 -0.4719
  625TIP3    H223291   3.153   3.431   1.846 -1.5292 -0.8722 -0.9338
  626TIP3   OH223292   1.522   1.047   3.174 -0.4721  0.8443  0.4769
  626TIP3    H123293   1.525   1.041   3.269 -0.6974  2.0790  0.5831
  626TIP3    H223294   1.603   1.093   3.151 -0.0344 -0.1419 -0.0036
  627TIP3   OH223295   0.603   4.163   3.293  0.3336  0.7064  0.3103
  627TIP3    H123296   0.601   4.069   3.275 -0.2781  0.8863 -0.6104
  627TIP3    H223297   0.598   4.204   3.207  0.6253  1.5921  0.7048
  628TIP3   OH223298   6.032   4.016   6.688  0.1048  0.0967 -0.3593
  628TIP3    H123299   6.015   4.075   6.615 -1.3843 -2.0111 -1.8581
  628TIP3    H223300   5.951   3.965   6.697  0.4372 -0.0756  2.4531
  629TIP3   OH223301   2.125   0.338  13.340 -0.5794 -0.1076  0.5179
  629TIP3    H123302   2.201   0.297  13.381  0.6239  1.0745 -0.4369
  629TIP3    H223303   2.150   0.347  13.248 -0.6311  2.9286  0.6945
  630TIP3   OH223304   4.258   1.506  11.521  0.2770 -0.0496  0.1799
  630TIP3    H123305   4.171   1.472  11.502  0.8550 -1.4164 -0.1354
  630TIP3    H223306   4.269   1.493  11.615  0.7590 -1.4630 -0.0437
  631TIP3   OH223307   0.231   6.219  11.482 -0.4917 -0.1304 -0.6271
  631TIP3    H123308   0.225   6.281  11.555 -0.8719  1.0863 -1.6557
  631TIP3    H223309   0.262   6.272  11.409 -1.0520 -1.1196 -1.5993
  632TIP3   OH223310   0.976   4.769  10.414  0.0467 -0.3221  0.4938
  632TIP3    H123311   1.065   4.756  10.381  0.0217  0.9669 -0.1494
  632TIP3    H223312   0.930   4.688  10.391  1.0134 -0.9671  0.7481
  633TIP3   OH223313   1.401   6.218   6.707  0.1410  0.7895 -0.2087
  633TIP3    H123314   1.479   6.231   6.761  0.6827  0.1474 -0.8133
  633TIP3    H223315   1.403   6.289   6.644  1.9346 -0.8500 -2.1548
  634TIP3   OH223316   3.128   0.184  10.954 -0.8022 -0.2527 -0.2488
  634TIP3    H123317   3.206   0.233  10.928 -1.2479  0.5013 -0.1835
  634TIP3    H223318   3.065   0.200  10.885 -0.7541 -1.2615 -0.5531
  635TIP3   OH223319   2.369   5.513   4.438  0.0113  0.0341 -0.2641
  635TIP3    H123320   2.332   5.424   4.437  0.2060 -0.0488 -0.1637
  635TIP3    H223321   2.405   5.525   4.350 -0.4775  0.2116 -0.4447
  636TIP3   OH223322   1.703   4.852   2.466  0.3549  0.0226 -0.3956
  636TIP3    H123323   1.748   4.832   2.548  0.2756  0.7915 -0.1562
  636TIP3    H223324   1.768   4.900   2.414  1.2490 -2.5414 -1.8031
  637TIP3   OH223325   1.163   0.773   4.808  0.4052 -0.1503  0.0592
  637TIP3    H123326   1.229   0.842   4.799  0.3014 -0.2474 -2.0343
  637TIP3    H223327   1.182   0.732   4.892  1.0854  1.7689  0.9015
  638TIP3   OH223328   2.609   6.097   0.113 -0.4127 -0.1173  0.2073
  638TIP3    H123329   2.635   6.009   0.142  1.7706  0.5326  0.3797
  638TIP3    H223330   2.687   6.150   0.125 -0.9521  1.3391 -2.1412
  639TIP3   OH223331   4.805   6.309   3.646 -0.1764 -0.4536 -0.0131
  639TIP3    H123332   4.864   6.379   3.675  0.7264 -1.1035 -0.2244
  639TIP3    H223333   4.804   6.315   3.551 -2.8647  1.4511  0.0214
  640TIP3   OH223334   6.414   0.664   2.873 -0.6955 -0.5875  0.1130
  640TIP3    H123335   6.340   0.640   2.818 -1.5198  1.1384  0.4123
  640TIP3    H223336   6.380   0.731   2.932  1.1649  0.5036  0.0505
  641TIP3   OH223337   5.270   4.158   3.358  0.2014  0.3251 -0.1864
  641TIP3    H123338   5.247   4.251   3.362 -0.4917  0.2048  4.2887
  641TIP3    H223339   5.186   4.113   3.371  0.8348 -0.8394 -0.0476
  642TIP3   OH223340   6.210   3.110  14.315  0.0094  0.4396 -0.6072
  642TIP3    H123341   6.184   3.110  14.407  1.4400  1.0837 -0.1849
  642TIP3    H223342   6.192   3.020  14.286 -1.2435  0.4494  0.0398
  643TIP3   OH223343   5.210   5.630   4.260 -0.1451 -0.0817 -0.0702
  643TIP3    H123344   5.179   5.611   4.172  2.3172  0.0316 -1.0455
  643TIP3    H223345   5.161   5.569   4.316  0.4085 -2.3876 -1.9118
  644TIP3   OH223346   5.479   2.094   3.461  0.2388 -0.0659  0.3490
  644TIP3    H123347   5.521   2.145   3.531  0.6145 -0.4140  0.3769
  644TIP3    H223348   5.406   2.149   3.433  0.2847  0.2286  0.7864
  645TIP3   OH223349   0.985   0.691   2.483 -0.7250  0.8851 -0.5433
  645TIP3    H123350   0.992   0.786   2.495 -0.3708  0.9150 -0.9763
  645TIP3    H223351   0.960   0.681   2.391 -1.7389  0.5941 -0.2550
  646TIP3   OH223352   3.704   3.625  12.836  0.1421 -0.0920 -0.1815
  646TIP3    H123353   3.641   3.622  12.908 -1.8546  2.9811 -1.6189
  646TIP3    H223354   3.694   3.541  12.792 -2.4392  0.0187  0.0827
  647TIP3   OH223355   0.958   0.855   0.169 -0.2494  0.4193  0.2497
  647TIP3    H123356   1.026   0.920   0.154 -0.7967  0.9502  0.0041
  647TIP3    H223357   0.879   0.907   0.186 -0.7587 -0.1715 -0.2493
  648TIP3   OH223358   6.678   4.709   6.303  0.1923 -0.3841  0.1811
  648TIP3    H123359   6.679   4.803   6.321  3.8670  0.2355 -2.2582
  648TIP3    H223360   6.696   4.668   6.388 -3.3699  0.7753  1.7086
  649TIP3   OH223361   3.311   2.247   0.388  0.0080 -0.8482 -0.0221
  649TIP3    H123362   3.322   2.188   0.462  0.7952  0.7818  1.2501
  649TIP3    H223363   3.306   2.334   0.428 -1.7189 -0.0803 -1.7657
  650TIP3   OH223364   5.072   0.323   4.839  0.2894 -0.1401 -0.1476
  650TIP3    H123365   5.079   0.378   4.762 -1.2985  0.8971  0.3947
  650TIP3    H223366   4.981   0.333   4.868  0.1595 -2.3998  0.4685
  651TIP3   OH223367   6.026   4.165  16.727  0.2488  0.4195  0.2431
  651TIP3    H123368   6.095   4.099  16.729  1.8941  2.0548  0.1187
  651TIP3    H223369   6.073   4.248  16.724 -1.7507  1.5930 -0.0189
  652TIP3   OH223370   3.465   4.785   0.570  0.3007  0.0206 -0.5063
  652TIP3    H123371   3.415   4.858   0.534  0.5509  0.3779 -0.1367
  652TIP3    H223372   3.409   4.709   0.558 -0.4064  0.4447  0.0500
  653TIP3   OH223373   6.435   5.315  12.347 -0.0522 -0.5752 -0.5478
  653TIP3    H123374   6.406   5.224  12.346 -0.8459 -0.3237 -0.7724
  653TIP3    H223375   6.355   5.367  12.349  0.3842  0.1272 -0.6753
  654TIP3   OH223376   4.656   2.863  11.852  0.1420 -0.3803 -0.3682
  654TIP3    H123377   4.648   2.775  11.814  2.3043  0.2275 -2.4531
  654TIP3    H223378   4.735   2.899  11.812 -0.5522  2.4486  0.6034
  655TIP3   OH223379   3.168   4.827   4.159  0.1581 -0.2689 -0.2211
  655TIP3    H123380   3.084   4.786   4.136  0.4763 -0.3477 -1.3256
  655TIP3    H223381   3.233   4.774   4.113  0.6502  0.9856 -1.0093
  656TIP3   OH223382   0.861   6.105  13.392  0.6310 -0.4165 -0.2722
  656TIP3    H123383   0.926   6.046  13.355  2.1285  1.0594 -0.1033
  656TIP3    H223384   0.871   6.095  13.487  0.1244 -0.6978 -0.2481
  657TIP3   OH223385   3.246   5.413  12.355 -0.2303  0.1287  0.1774
  657TIP3    H123386   3.341   5.417  12.350 -0.2312  0.8683  0.6646
  657TIP3    H223387   3.226   5.320  12.370  0.3236 -0.3018 -1.5456
  658TIP3   OH223388   4.364   2.797  12.837 -0.3208  0.6160  0.2281
  658TIP3    H123389   4.317   2.739  12.898  0.8322 -0.0627  0.4824
  658TIP3    H223390   4.456   2.785  12.858  0.0588  0.9705 -1.1432
  659TIP3   OH223391   4.543   0.936  13.897  0.2805 -0.3533  0.4501
  659TIP3    H123392   4.560   0.850  13.935  1.1087 -0.6109 -0.4863
  659TIP3    H223393   4.475   0.974  13.954 -0.6970 -1.9396  0.3860
  660TIP3   OH223394   6.450   1.193   3.306  0.2875 -0.3947  0.1179
  660TIP3    H123395   6.481   1.281   3.285 -1.5220  0.6245  1.3745
  660TIP3    H223396   6.401   1.166   3.228  3.3083 -1.6492 -1.5122
  661TIP3   OH223397   0.442   0.793   3.642  0.5400 -0.1067  0.5188
  661TIP3    H123398   0.500   0.739   3.589 -0.9591  0.5313 -1.8958
  661TIP3    H223399   0.486   0.877   3.647  0.1640  0.1881 -0.7767
  662TIP3   OH223400   0.967   0.705   4.050  0.4502 -0.0790 -0.0400
  662TIP3    H123401   0.942   0.619   4.083  0.0421  0.2848  0.6122
  662TIP3    H223402   0.916   0.767   4.102 -0.3539  0.5151 -1.4744
  663TIP3   OH223403   4.372   2.655  14.719 -0.2091 -0.2774  0.3402
  663TIP3    H123404   4.278   2.668  14.729 -0.2948 -0.0499 -0.5833
  663TIP3    H223405   4.383   2.626  14.628  0.5690 -0.7959  0.5827
  664TIP3   OH223406   3.455   0.688   5.118 -0.1431  0.8810 -0.1069
  664TIP3    H123407   3.498   0.627   5.058 -0.7679  1.3883 -1.0788
  664TIP3    H223408   3.444   0.769   5.068 -3.7309  0.2995 -0.5417
  665TIP3   OH223409   6.222   4.655  11.182 -0.0524  0.4053  0.7263
  665TIP3    H123410   6.165   4.706  11.125 -0.2178  1.7640  2.0399
  665TIP3    H223411   6.225   4.568  11.142  1.4360  1.7789 -2.4459
  666TIP3   OH223412   5.676   4.986  11.923 -0.0354 -0.2993  0.1579
  666TIP3    H123413   5.667   4.899  11.883  0.5638 -0.3847  0.2058
  666TIP3    H223414   5.770   4.998  11.935  0.0320  0.9855 -1.2441
  667TIP3   OH223415   6.442   0.040   1.488  0.2022 -0.0833  0.4199
  667TIP3    H123416   6.475  -0.050   1.481 -0.1140 -0.0825 -1.7877
  667TIP3    H223417   6.347   0.030   1.484  0.1608  0.3351  0.3357
  668TIP3   OH223418   1.886   4.185  15.034  0.7076  0.0389  0.4442
  668TIP3    H123419   1.827   4.216  14.965 -0.9881 -4.1840 -0.3213
  668TIP3    H223420   1.832   4.184  15.113  1.0277 -0.1025  0.6620
  669TIP3   OH223421   2.105   4.422   1.380 -0.1846 -0.0665 -0.4440
  669TIP3    H123422   2.067   4.497   1.335 -1.5385 -0.2534  0.3303
  669TIP3    H223423   2.173   4.390   1.321  0.6487  1.9331 -0.6595
  670TIP3   OH223424   5.691   1.159  13.046 -0.3691  0.6793 -0.7198
  670TIP3    H123425   5.772   1.161  13.096  0.6568  2.3276 -2.3110
  670TIP3    H223426   5.631   1.216  13.094  0.2165  1.3357 -0.7628
  671TIP3   OH223427   3.581   0.308  14.978  0.3591 -0.0115 -0.9846
  671TIP3    H123428   3.675   0.303  14.994 -0.0520 -0.9741  1.5431
  671TIP3    H223429   3.547   0.364  15.048 -1.0100 -0.0321 -1.5902
  672TIP3   OH223430   4.859   4.511  14.165  0.1287  0.3120 -0.5087
  672TIP3    H123431   4.948   4.526  14.131 -0.2897  0.4899 -1.5586
  672TIP3    H223432   4.846   4.417  14.155  0.2616  0.2617 -0.2026
  673TIP3   OH223433   3.649   1.644  14.863  0.6875  0.4782  0.4561
  673TIP3    H123434   3.579   1.672  14.804  0.6049 -1.1488 -0.2826
  673TIP3    H223435   3.729   1.657  14.812  0.8523  1.3964  0.9295
  674TIP3   OH223436   2.748   4.038   0.856  0.0989  0.4178  0.0370
  674TIP3    H123437   2.675   4.098   0.844  1.3637  1.4893 -3.5945
  674TIP3    H223438   2.826   4.089   0.833  1.7359 -1.4473  1.0598
  675TIP3   OH223439   3.775   1.377  11.750 -0.4772 -0.7181 -0.2889
  675TIP3    H123440   3.867   1.350  11.755 -0.7133 -1.4255  0.3404
  675TIP3    H223441   3.773   1.441  11.679  0.5756 -0.3792 -0.0290
  676TIP3   OH223442   3.028   0.558  15.860  0.0534 -0.2107 -0.5267
  676TIP3    H123443   3.094   0.494  15.834  1.2899  0.6573  0.3609
  676TIP3    H223444   2.945   0.520  15.833  0.5022 -3.1945  1.7613
  677TIP3   OH223445   2.472   4.508  12.181  0.0900  0.3406  0.3201
  677TIP3    H123446   2.384   4.479  12.207 -0.2321  0.8068 -0.2426
  677TIP3    H223447   2.461   4.542  12.093  0.8248  0.4945  0.2848
  678TIP3   OH223448   0.915   0.495   5.231  0.3824 -0.6007  0.0598
  678TIP3    H123449   0.940   0.484   5.139  0.3128 -1.5620  0.1441
  678TIP3    H223450   0.921   0.589   5.246  1.4759 -0.5396 -0.6287
  679TIP3   OH223451   2.045   4.871  15.694  0.5882 -0.2348 -0.1436
  679TIP3    H123452   2.061   4.840  15.783  0.3036 -0.9838 -0.3433
  679TIP3    H223453   2.072   4.798  15.638 -0.3617 -0.2449 -0.6169
  680TIP3   OH223454   2.260   0.160   5.139 -0.1545  0.3634  0.0176
  680TIP3    H123455   2.236   0.134   5.228  1.8792 -0.8614  0.2786
  680TIP3    H223456   2.335   0.219   5.151  0.2375  0.0646 -0.8813
  681TIP3   OH223457   0.608   1.527   1.390 -0.2977 -0.0492  0.1095
  681TIP3    H123458   0.536   1.468   1.413 -0.7998 -0.8564 -2.9820
  681TIP3    H223459   0.687   1.475   1.404 -0.5721 -0.4897  0.0586
  682TIP3   OH223460   4.906   2.403   1.686 -0.6685  0.3187  0.3563
  682TIP3    H123461   4.986   2.446   1.716  0.2421 -1.4831  0.6670
  682TIP3    H223462   4.890   2.334   1.751 -1.3237 -0.6479 -0.7902
  683TIP3   OH223463   5.655   1.382   1.755 -0.2329 -0.1419  0.1826
  683TIP3    H123464   5.616   1.314   1.811 -0.0739  1.0693  1.8340
  683TIP3    H223465   5.582   1.439   1.731  0.0263  0.5081  0.9001
  684TIP3   OH223466   4.963   6.503   0.382  1.0055  0.4926  0.5326
  684TIP3    H123467   4.949   6.426   0.436  0.3763 -2.0427 -2.9121
  684TIP3    H223468   5.055   6.526   0.396  1.6306 -1.8463  0.5921
  685TIP3   OH223469   0.634   6.287   1.919 -0.4936  0.0333 -0.1495
  685TIP3    H123470   0.627   6.230   1.996 -0.5805  3.3562  2.5745
  685TIP3    H223471   0.579   6.246   1.853 -0.7541 -2.8325  1.6891
  686TIP3   OH223472   1.640   2.001   5.064  0.0367  0.2587 -0.7342
  686TIP3    H123473   1.563   2.055   5.046 -0.8239 -1.3038 -2.0932
  686TIP3    H223474   1.686   2.047   5.133 -2.0628  1.3108  0.0629
  687TIP3   OH223475   2.112   4.323  14.007 -0.0775 -0.0541 -0.2619
  687TIP3    H123476   2.151   4.324  14.094 -0.4107 -0.6081 -0.0998
  687TIP3    H223477   2.036   4.380  14.015 -0.2573 -0.3103 -0.1136
  688TIP3   OH223478   4.882   2.174   6.149  0.4750  0.2738  0.2011
  688TIP3    H123479   4.941   2.160   6.075  1.6392 -0.6063  1.2594
  688TIP3    H223480   4.927   2.237   6.205  0.5546 -0.5812  1.1306
  689TIP3   OH223481   1.850   0.321   2.862  0.3780 -0.5975  0.0637
  689TIP3    H123482   1.768   0.338   2.908  0.4100 -2.6304  0.9861
  689TIP3    H223483   1.914   0.378   2.905 -0.3752  0.5058 -0.2167
  690TIP3   OH223484   4.444   2.179   1.949 -0.1613 -0.2538 -0.7120
  690TIP3    H123485   4.355   2.143   1.949 -0.0024 -0.7701  1.0480
  690TIP3    H223486   4.488   2.132   2.020  1.6515 -0.2979 -1.8274
  691TIP3   OH223487   1.439   2.110   3.373  0.3547 -0.0822  0.3692
  691TIP3    H123488   1.433   2.145   3.284 -1.7925 -1.6016 -0.1530
  691TIP3    H223489   1.479   2.181   3.424 -0.8617  1.8644 -1.2491
  692TIP3   OH223490   3.724   1.958   4.762 -0.2488  0.4013 -0.2662
  692TIP3    H123491   3.760   1.899   4.828 -0.7272 -0.8325 -1.0661
  692TIP3    H223492   3.714   1.903   4.683 -0.4870  1.6110 -1.1098
  693TIP3   OH223493   2.859   2.791   4.554  0.2828  0.3792  0.2667
  693TIP3    H123494   2.828   2.826   4.637 -0.2598  1.2857 -0.3082
  693TIP3    H223495   2.850   2.696   4.563  0.1092  0.4756  1.1849
  694TIP3   OH223496   2.757   2.863   3.326  0.0311 -0.8090 -0.2377
  694TIP3    H123497   2.800   2.844   3.243 -0.3982 -2.1061 -0.1749
  694TIP3    H223498   2.690   2.928   3.303  0.6578 -0.2948 -0.6826
  695TIP3   OH223499   2.012   5.618   5.021 -0.4937 -0.2124  0.3813
  695TIP3    H123500   2.044   5.666   4.945 -0.6519  0.1735  0.5555
  695TIP3    H223501   2.082   5.626   5.086 -0.5512 -0.1595  0.4364
  696TIP3   OH223502   4.557   0.115  12.776  0.2099  0.1841  0.0568
  696TIP3    H123503   4.524   0.198  12.811  0.7615 -0.1961  1.5445
  696TIP3    H223504   4.495   0.049  12.807  0.1384 -0.0588 -0.5753
  697TIP3   OH223505   5.003   3.093   2.748  0.0859 -0.1758  0.1065
  697TIP3    H123506   4.975   3.140   2.669  1.2808 -2.1855 -1.6150
  697TIP3    H223507   5.007   3.161   2.816  1.1707  2.0953 -2.0771
  698TIP3   OH223508   2.273   0.883  15.898  0.1998 -0.1510 -0.5217
  698TIP3    H123509   2.284   0.895  15.992  2.3132  0.6769 -0.8174
  698TIP3    H223510   2.270   0.972  15.863 -0.5389 -0.4527 -1.2549
  699TIP3   OH223511   3.120   5.934   5.201  0.4399  0.8834 -0.3399
  699TIP3    H123512   3.106   5.963   5.111 -1.2713 -3.7324 -1.8523
  699TIP3    H223513   3.039   5.957   5.246 -0.8420 -1.1622 -1.4636
  700TIP3   OH223514   0.389   3.613   2.058 -0.1418 -0.0643  0.0532
  700TIP3    H123515   0.418   3.566   1.979  1.4078  0.0033  0.5430
  700TIP3    H223516   0.454   3.683   2.069 -0.8641  0.4942  0.8758
  701TIP3   OH223517   3.919   5.082  13.200  0.8278  0.0416  0.5386
  701TIP3    H123518   3.980   5.138  13.153  0.5209  0.2350  0.3658
  701TIP3    H223519   3.833   5.120  13.183  0.5642 -0.7495  0.0127
  702TIP3   OH223520   5.501   1.070   5.157 -0.3204 -0.2677 -0.6413
  702TIP3    H123521   5.528   1.078   5.065  1.2449  1.9952 -0.0807
  702TIP3    H223522   5.474   1.158   5.181 -1.2821 -0.9624  0.9235
  703TIP3   OH223523   2.876   5.216   2.900 -0.3988 -0.4165 -0.6538
  703TIP3    H123524   2.845   5.157   2.969 -0.5702 -0.3511 -0.6741
  703TIP3    H223525   2.835   5.300   2.920 -2.2417 -0.9113 -2.0503
  704TIP3   OH223526   5.979   6.640  12.554 -0.0743 -0.2958  0.2562
  704TIP3    H123527   6.030   6.698  12.610  0.1997 -0.7050  0.4369
  704TIP3    H223528   6.013   6.655  12.466 -0.9345  0.8136  0.0934
  705TIP3   OH223529   0.062   0.069  13.444  0.1644  0.3073 -0.5380
  705TIP3    H123530   0.119   0.131  13.492 -0.2555  0.2808  0.0040
  705TIP3    H223531  -0.002   0.040  13.509  0.1238 -0.4134 -0.8893
  706TIP3   OH223532   3.124   0.371  17.004  0.2056 -0.4627 -0.3006
  706TIP3    H123533   3.094   0.407  16.920 -0.2707 -0.8264 -0.2941
  706TIP3    H223534   3.180   0.298  16.980  1.7908  0.7221 -0.3306
  707TIP3   OH223535   1.185   3.810   3.221  0.6943  0.4791  0.3152
  707TIP3    H123536   1.149   3.750   3.155  0.0131  2.0879 -0.8595
  707TIP3    H223537   1.162   3.898   3.188  0.6739  1.3623  2.5152
  708TIP3   OH223538   1.506   1.536  12.175 -0.1966 -0.1335  0.0357
  708TIP3    H123539   1.558   1.492  12.243  1.1491 -1.2764 -1.6625
  708TIP3    H223540   1.431   1.478  12.162  0.6660 -1.0779 -0.9433
  709TIP3   OH223541   4.215   3.159  15.562 -0.3988  0.5509 -0.0114
  709TIP3    H123542   4.155   3.234  15.563 -1.6303 -0.3840  2.1515
  709TIP3    H223543   4.289   3.188  15.616 -0.7796  0.3167  0.6515
  710TIP3   OH223544   4.578   3.554  15.433  0.7058 -0.1468  0.0361
  710TIP3    H123545   4.649   3.494  15.412  0.9605 -0.3158  1.3079
  710TIP3    H223546   4.622   3.637  15.451  0.7185 -0.5304  1.9346
  711TIP3   OH223547   1.410   6.418   4.739 -0.4857 -0.2674 -0.1060
  711TIP3    H123548   1.342   6.381   4.682 -0.8978 -1.6929  1.2547
  711TIP3    H223549   1.487   6.423   4.683 -1.2453 -0.2242 -1.1988
  712TIP3   OH223550   5.169   3.436   0.048 -0.2277 -0.7712  0.2464
  712TIP3    H123551   5.224   3.358   0.054  1.2910  0.1821 -0.5234
  712TIP3    H223552   5.183   3.481   0.131  0.1448 -0.5454  0.0637
  713TIP3   OH223553   1.051   4.522  15.765  0.4609  0.1091  0.0632
  713TIP3    H123554   1.012   4.436  15.750  0.1210  0.3455 -0.4321
  713TIP3    H223555   0.977   4.579  15.786  0.4263  0.7092 -1.5372
  714TIP3   OH223556   5.250   1.642   5.529  0.1288  0.0074 -0.0768
  714TIP3    H123557   5.238   1.712   5.593 -0.6667 -1.0451  0.9811
  714TIP3    H223558   5.342   1.646   5.504  0.1376  1.2685  0.1413
  715TIP3   OH223559   3.695   0.803  13.358 -0.4272  0.5221 -0.1395
  715TIP3    H123560   3.628   0.741  13.328  0.0157  0.2800 -0.6432
  715TIP3    H223561   3.646   0.878  13.392 -0.9745 -0.0726  0.4198
  716TIP3   OH223562   4.345   2.863   2.322 -0.0244  0.2912  0.1787
  716TIP3    H123563   4.392   2.932   2.276  2.6614 -0.3881  1.6527
  716TIP3    H223564   4.367   2.783   2.274  2.3643 -0.3458  2.1015
  717TIP3   OH223565   3.297   0.731  14.119  0.1867  0.6049 -0.2861
  717TIP3    H123566   3.268   0.664  14.057 -0.3793 -0.7931  1.4000
  717TIP3    H223567   3.365   0.688  14.170 -0.1383  1.3274  0.7798
  718TIP3   OH223568   6.697   6.040   2.274  0.1789 -0.1182 -0.1711
  718TIP3    H123569   6.725   6.107   2.338 -1.8524 -1.1324  1.9307
  718TIP3    H223570   6.616   6.074   2.238  0.3323 -0.4318 -0.8176
  719TIP3   OH223571   1.079   4.588   1.372  0.1830 -0.2757  0.1613
  719TIP3    H123572   1.071   4.536   1.452  0.1354 -0.4270  0.0587
  719TIP3    H223573   0.989   4.611   1.348  0.1615 -0.6530 -0.1250
  720TIP3   OH223574   4.701   0.961  12.933 -0.9357 -0.1209 -0.0565
  720TIP3    H123575   4.792   0.932  12.926 -0.8696 -0.0896  0.6541
  720TIP3    H223576   4.705   1.056  12.924 -0.9230 -0.1346 -0.2055
  721TIP3   OH223577   1.591   6.601   0.751  0.0560 -0.8466 -0.1627
  721TIP3    H123578   1.550   6.687   0.744 -1.3677 -1.4871 -0.0423
  721TIP3    H223579   1.685   6.618   0.745 -0.0689  0.9196  1.8767
  722TIP3   OH223580   0.173   1.586   4.413  0.0344  0.1694  0.2938
  722TIP3    H123581   0.095   1.534   4.429 -0.0546  0.5110  1.0021
  722TIP3    H223582   0.146   1.651   4.348 -0.0440 -0.2181 -0.0668
  723TIP3   OH223583   5.794   2.407  15.482 -0.1105 -0.4894  0.2777
  723TIP3    H123584   5.744   2.488  15.493  0.0725 -0.5322  1.5526
  723TIP3    H223585   5.756   2.347  15.546 -0.5084 -1.5610 -0.9163
  724TIP3   OH223586   5.771   0.381  16.775 -0.6379  0.3392  0.0329
  724TIP3    H123587   5.820   0.431  16.709 -2.3728  0.2891 -1.3641
  724TIP3    H223588   5.756   0.296  16.734 -0.4167 -0.2565  1.1470
  725TIP3   OH223589   2.710   5.536   0.026  0.0555 -0.0321 -0.3498
  725TIP3    H123590   2.721   5.506  -0.065 -0.0506 -0.7278 -0.1395
  725TIP3    H223591   2.693   5.456   0.075  2.6207 -0.0325  0.7135
  726TIP3   OH223592   2.782   4.373   4.531  0.6078 -0.0788 -0.5524
  726TIP3    H123593   2.781   4.333   4.618 -2.0121  0.0102 -0.4557
  726TIP3    H223594   2.874   4.396   4.516  1.3228 -1.1979  1.6538
  727TIP3   OH223595   4.488   5.077   0.518 -0.2278  0.2139  0.0869
  727TIP3    H123596   4.416   5.015   0.507 -0.4856  0.7575 -1.8118
  727TIP3    H223597   4.559   5.025   0.555 -0.5651 -1.1363 -1.0588
  728TIP3   OH223598   5.419   1.406   6.249  0.0969 -0.5029  0.0059
  728TIP3    H123599   5.468   1.485   6.225  0.2351 -1.3227 -2.7588
  728TIP3    H223600   5.478   1.357   6.305 -0.3668  1.7353  2.6400
  729TIP3   OH223601   3.745   1.653   1.549  0.2058 -0.1906 -0.2841
  729TIP3    H123602   3.836   1.666   1.574  0.5429 -0.6579 -1.1998
  729TIP3    H223603   3.750   1.592   1.475 -0.8512 -0.2567 -0.3081
  730TIP3   OH223604   1.344   5.996   3.669 -0.3651  0.2445 -0.4545
  730TIP3    H123605   1.319   6.030   3.583 -0.0060 -0.5453 -0.8870
  730TIP3    H223606   1.435   5.968   3.658 -0.4472 -0.2531  0.0650
  731TIP3   OH223607   0.483   4.046   5.294  0.9372  0.7260 -0.3094
  731TIP3    H123608   0.398   4.002   5.305  0.8680  0.9199 -0.0656
  731TIP3    H223609   0.539   4.007   5.360  0.9425  0.8404 -0.2468
  732TIP3   OH223610   1.847   3.673  11.122 -0.0485  0.7201  0.4225
  732TIP3    H123611   1.772   3.651  11.067  0.1262 -0.7820  0.7322
  732TIP3    H223612   1.914   3.609  11.097  0.0266 -0.0302  2.3565
  733TIP3   OH223613   2.628   4.374   0.164  0.5864  0.2957 -0.3815
  733TIP3    H123614   2.692   4.444   0.151  0.9626  0.2743  1.1299
  733TIP3    H223615   2.642   4.345   0.255 -1.7114  0.4424  0.0911
  734TIP3   OH223616   4.924   5.978  14.070 -0.4595  0.0858 -0.0301
  734TIP3    H123617   4.852   5.963  14.008  0.4334 -1.3159 -0.7987
  734TIP3    H223618   4.881   5.998  14.153 -1.7528 -1.5814 -0.2563
  735TIP3   OH223619   2.727   3.526   4.766  0.3174 -0.1240 -0.3605
  735TIP3    H123620   2.665   3.566   4.827  1.5273  1.7674 -0.2862
  735TIP3    H223621   2.750   3.442   4.806 -0.0747  0.3970  1.0035
  736TIP3   OH223622   1.286   4.836   0.110 -0.2180 -0.3079 -0.2621
  736TIP3    H123623   1.323   4.854   0.197  0.4893  0.6893 -0.7515
  736TIP3    H223624   1.250   4.919   0.081  3.0399  0.5198 -2.5409
  737TIP3   OH223625   1.848   0.916   5.986 -0.2037  0.1915 -0.1035
  737TIP3    H123626   1.769   0.967   6.000  0.1125  1.1002 -1.4590
  737TIP3    H223627   1.836   0.875   5.900  0.8517  0.4769 -0.4057
  738TIP3   OH223628   5.078   3.986  12.948  0.3972  0.4188  0.4589
  738TIP3    H123629   5.170   3.982  12.922  0.2106 -0.3475 -0.1258
  738TIP3    H223630   5.054   3.894  12.963  0.6850  0.7889  4.0971
  739TIP3   OH223631   1.356   4.818   1.629  0.0317  0.0902 -0.2922
  739TIP3    H123632   1.437   4.842   1.674 -0.6165  0.1913  0.8439
  739TIP3    H223633   1.368   4.726   1.605  0.9427  0.4191 -1.1915
  740TIP3   OH223634   5.707   0.996  17.166  0.3580 -0.5475  0.2550
  740TIP3    H123635   5.625   0.965  17.129  1.0329 -0.7868 -1.0829
  740TIP3    H223636   5.754   0.917  17.194  0.1520 -0.4125  1.0247
  741TIP3   OH223637   1.952   6.462  16.668 -0.1789  0.7066  1.0802
  741TIP3    H123638   1.864   6.434  16.642 -0.9255  2.7032  1.2756
  741TIP3    H223639   1.973   6.406  16.743 -0.7049 -0.6695  0.2564
  742TIP3   OH223640   2.293   0.436   2.876 -0.1524 -0.2426 -0.4652
  742TIP3    H123641   2.322   0.369   2.938  0.1278 -0.2180 -0.5686
  742TIP3    H223642   2.288   0.390   2.792 -2.3322 -0.7563 -0.1180
  743TIP3   OH223643   0.372   1.673  13.595 -0.4302  0.6416 -0.0103
  743TIP3    H123644   0.393   1.685  13.688  0.3703  1.7302 -0.3047
  743TIP3    H223645   0.276   1.673  13.592 -0.4763 -0.2047  0.8928
  744TIP3   OH223646   1.730   5.669  12.618 -0.2800  0.7013  0.5589
  744TIP3    H123647   1.682   5.750  12.637 -1.0126  0.8606 -1.6241
  744TIP3    H223648   1.803   5.698  12.563  0.8116  0.1279  1.6731
  745TIP3   OH223649   3.496   5.048   3.394 -0.4477  0.0440  0.1227
  745TIP3    H123650   3.556   5.013   3.329 -0.1728 -1.1939  1.0067
  745TIP3    H223651   3.546   5.049   3.476 -1.0725  0.6690  0.5122
  746TIP3   OH223652   4.077   2.109   4.060  0.4203 -0.3469 -1.0976
  746TIP3    H123653   4.015   2.159   4.113  3.4759  2.6568  0.0022
  746TIP3    H223654   4.087   2.026   4.107 -1.0666 -0.0021 -0.1125
  747TIP3   OH223655   2.220   4.473   4.178  0.4437 -0.3974  0.3989
  747TIP3    H123656   2.293   4.516   4.223  0.6097 -0.7369  0.4522
  747TIP3    H223657   2.161   4.447   4.249  0.2484 -0.0831  0.3526
  748TIP3   OH223658   0.771   0.422  17.049  0.1549  0.2428 -0.1924
  748TIP3    H123659   0.856   0.379  17.058 -0.3730 -0.4512  2.1892
  748TIP3    H223660   0.776   0.498  17.107 -0.6866  0.4566 -0.3821
  749TIP3   OH223661   2.843   3.976   3.710  0.6140  0.2868  0.1920
  749TIP3    H123662   2.900   4.032   3.657 -0.0353  0.0103 -0.8380
  749TIP3    H223663   2.828   3.899   3.655 -3.5461  1.7804 -1.2232
  750TIP3   OH223664   1.401   3.286   1.110  0.0915 -0.0791 -0.4936
  750TIP3    H123665   1.358   3.202   1.127  0.1619  0.0283  0.2178
  750TIP3    H223666   1.337   3.352   1.136  0.3530  0.0866 -0.2734
  751TIP3   OH223667   0.268   0.490   0.867  0.0448  0.4296  0.1545
  751TIP3    H123668   0.218   0.423   0.915 -1.0703 -0.3840 -2.0220
  751TIP3    H223669   0.353   0.492   0.911 -0.9947 -0.0413  2.3167
  752TIP3   OH223670   4.057   3.625   4.049  0.9557 -0.6413  0.1945
  752TIP3    H123671   4.012   3.607   4.132  0.0022 -1.9897 -0.5606
  752TIP3    H223672   3.987   3.658   3.992  1.1644 -1.5710 -0.6277
  753TIP3   OH223673   5.646   0.371  12.420  0.0993  0.3189  0.1190
  753TIP3    H123674   5.714   0.432  12.448  1.1198 -0.5678 -0.3787
  753TIP3    H223675   5.662   0.292  12.471  0.6979 -0.5936 -1.4343
  754TIP3   OH223676   0.653   6.512   4.343  0.3990 -0.4844 -0.3015
  754TIP3    H123677   0.674   6.552   4.259 -0.6239 -1.1784 -0.9046
  754TIP3    H223678   0.693   6.426   4.341 -0.8734 -1.0911 -0.7111
  755TIP3   OH223679   3.237   3.759  13.941 -0.3827 -0.4395 -0.0519
  755TIP3    H123680   3.249   3.671  13.977 -0.9991 -0.7120 -0.4936
  755TIP3    H223681   3.240   3.817  14.017  3.0523 -0.4729  0.0232
  756TIP3   OH223682   3.740   1.082  12.874 -0.0942  1.2056 -0.1328
  756TIP3    H123683   3.804   1.011  12.880 -1.0803  0.3989  1.4887
  756TIP3    H223684   3.720   1.088  12.780 -0.4770 -1.1565 -0.2790
  757TIP3   OH223685   1.800   4.502  12.737 -0.4094  0.2717 -0.1198
  757TIP3    H123686   1.736   4.479  12.670  0.7784  1.3252 -1.6774
  757TIP3    H223687   1.845   4.420  12.756  0.1785  0.2032 -1.6662
  758TIP3   OH223688   6.418   6.279   5.848 -0.1438 -0.1497  0.2701
  758TIP3    H123689   6.513   6.282   5.863 -0.2933 -0.9438  1.4535
  758TIP3    H223690   6.380   6.285   5.935 -1.2684  1.9815 -0.2940
  759TIP3   OH223691   2.091   4.536  11.296 -0.1227  0.8328 -0.2707
  759TIP3    H123692   2.166   4.494  11.255  0.1071  0.2094  0.7516
  759TIP3    H223693   2.103   4.521  11.390 -1.7783  0.2917 -0.1120
  760TIP3   OH223694   4.858   4.259  14.106  0.1313 -0.0608  0.0441
  760TIP3    H123695   4.919   4.192  14.136  1.1211  1.4666  1.6441
  760TIP3    H223696   4.859   4.251  14.010  0.7617 -1.8029  0.1566
  761TIP3   OH223697   1.133   0.290   4.786 -0.2833 -0.3237  0.6524
  761TIP3    H123698   1.215   0.282   4.736 -0.4404 -0.7840  0.4636
  761TIP3    H223699   1.066   0.253   4.728 -0.5077 -0.6329  1.1106
  762TIP3   OH223700   5.805   4.386   3.610  0.0514  0.0837  0.3829
  762TIP3    H123701   5.850   4.455   3.560 -0.3061 -0.4600 -0.7307
  762TIP3    H223702   5.713   4.410   3.607  0.0742  0.2910  1.1966
  763TIP3   OH223703   6.651   3.712  13.672 -0.1585 -0.0510  0.1132
  763TIP3    H123704   6.659   3.707  13.577 -1.2363  1.2546 -0.0718
  763TIP3    H223705   6.728   3.761  13.701  0.3862 -0.8087 -0.0297
  764TIP3   OH223706   0.256   2.239  16.900  0.4003 -0.1552  0.0919
  764TIP3    H123707   0.311   2.198  16.833 -0.0762  0.3718 -0.6360
  764TIP3    H223708   0.167   2.221  16.872  0.1567  1.8739 -0.5984
  765TIP3   OH223709   6.391   4.381   3.018  0.1963 -0.4052 -0.1517
  765TIP3    H123710   6.312   4.332   3.039  0.1975 -1.5068 -2.3492
  765TIP3    H223711   6.360   4.464   2.982  0.0186 -0.6724 -0.6328
  766TIP3   OH223712   4.011   4.552   3.737  0.2139  0.0270  0.4840
  766TIP3    H123713   4.048   4.482   3.791  1.6312 -0.8147 -1.4772
  766TIP3    H223714   3.920   4.526   3.724 -0.1022  0.1452  2.2579
  767TIP3   OH223715   1.611   0.705   5.405  0.2354 -0.4976 -0.6309
  767TIP3    H123716   1.676   0.772   5.427 -0.0637 -0.2008 -0.6329
  767TIP3    H223717   1.636   0.673   5.319  0.8721 -0.9952 -0.2719
  768TIP3   OH223718   0.882   1.856  15.009 -0.2070 -0.7457  0.1360
  768TIP3    H123719   0.896   1.915  15.083 -3.6469  0.1340  0.2672
  768TIP3    H223720   0.889   1.913  14.932 -0.4639 -0.8210  0.0570
  769TIP3   OH223721   2.607   3.689  12.870  0.1992 -1.0419  0.1859
  769TIP3    H123722   2.616   3.784  12.878 -1.7159 -0.7738 -0.5147
  769TIP3    H223723   2.529   3.668  12.922 -1.0127 -1.8373 -1.8471
  770TIP3   OH223724   0.931   6.761   4.774 -0.3669  0.4538  0.7761
  770TIP3    H123725   1.022   6.786   4.759 -0.6123  2.4611  2.1022
  770TIP3    H223726   0.920   6.678   4.728  2.0841  0.2182  0.4832
  771TIP3   OH223727   0.452   2.130  12.330  0.0725 -0.0240 -0.0108
  771TIP3    H123728   0.509   2.127  12.253  1.4301 -2.3220  0.9934
  771TIP3    H223729   0.506   2.165  12.400 -0.7554  0.8021  0.2369
  772TIP3   OH223730   2.472   5.296  12.126  0.0005  0.7593 -0.0910
  772TIP3    H123731   2.513   5.367  12.077  0.2985  0.9180  0.3852
  772TIP3    H223732   2.533   5.277  12.197 -1.0691  1.5056  1.0705
  773TIP3   OH223733   6.765   2.443  12.577  0.2013 -0.1890  0.3238
  773TIP3    H123734   6.732   2.437  12.488  0.7864 -3.7221  0.2254
  773TIP3    H223735   6.686   2.442  12.632 -0.2536  3.3785 -0.0024
  774TIP3   OH223736   0.499   3.323   5.196 -0.3831 -0.5639 -0.0888
  774TIP3    H123737   0.478   3.249   5.252  2.4342 -0.1313  1.7150
  774TIP3    H223738   0.565   3.290   5.135 -1.4720 -0.3162 -1.4636
  775TIP3   OH223739   2.833   0.365   3.992 -0.1525  0.6895 -0.1951
  775TIP3    H123740   2.852   0.457   4.012  0.0048  0.7930 -0.8149
  775TIP3    H223741   2.903   0.317   4.037 -0.4673  0.8409  0.4688
  776TIP3   OH223742   4.852   2.937   1.137  0.0962  0.3208  0.1186
  776TIP3    H123743   4.803   3.014   1.110  1.1221  0.1000 -2.7341
  776TIP3    H223744   4.882   2.957   1.225 -0.4095  2.8072 -0.2105
  777TIP3   OH223745   4.162   1.590   2.595  0.1555  0.4939 -0.1005
  777TIP3    H123746   4.175   1.566   2.687 -0.9765 -0.8142 -0.2542
  777TIP3    H223747   4.135   1.509   2.552  4.6716 -0.0719 -2.5287
  778TIP3   OH223748   1.930   1.454  15.203 -0.4137 -0.7409 -0.5650
  778TIP3    H123749   1.943   1.545  15.229 -1.5457 -0.1569 -1.9636
  778TIP3    H223750   1.966   1.448  15.115 -3.1092 -0.8381 -1.7234
  779TIP3   OH223751   0.067   3.155   1.561 -1.1197 -0.0688  0.1294
  779TIP3    H123752   0.072   3.139   1.656 -1.7851  0.7713  0.3199
  779TIP3    H223753   0.025   3.241   1.554  0.7061  0.8140 -0.8765
  780TIP3   OH223754   4.226   5.278   4.516 -0.1793  0.2411 -0.2660
  780TIP3    H123755   4.224   5.280   4.611  0.8581  0.5705 -0.2390
  780TIP3    H223756   4.191   5.192   4.492 -3.4479  1.2639  0.2642
  781TIP3   OH223757   0.807   4.838   1.274  0.5155  0.6078  0.3500
  781TIP3    H123758   0.822   4.923   1.316 -0.6454  0.9814  0.0646
  781TIP3    H223759   0.776   4.782   1.345  1.4966  0.3499  0.5828
  782TIP3   OH223760   1.931   0.801   3.891 -0.1643 -0.0003 -0.0100
  782TIP3    H123761   1.965   0.782   3.803 -1.9594 -1.4124 -0.4745
  782TIP3    H223762   1.868   0.871   3.877 -0.9332 -0.6724  0.0193
  783TIP3   OH223763   0.946   3.830   1.190 -0.0641  0.5545  0.1722
  783TIP3    H123764   1.028   3.845   1.143  0.1469 -0.8668  0.0232
  783TIP3    H223765   0.878   3.862   1.132  0.3720  1.9114  0.3703
  784TIP3   OH223766   3.571   2.390  17.070 -0.0613  0.3087  0.4661
  784TIP3    H123767   3.665   2.373  17.062  0.0328 -0.0460  2.0728
  784TIP3    H223768   3.566   2.480  17.105 -0.2800  0.0327  1.1671
  785TIP3   OH223769   2.416   2.390  12.407  0.1307  0.1055 -0.0421
  785TIP3    H123770   2.464   2.404  12.325 -1.2307 -0.2608 -0.9451
  785TIP3    H223771   2.354   2.463  12.412 -1.8217 -1.3908 -0.9143
  786TIP3   OH223772   6.591   4.747  13.146  0.4057  0.5132 -0.1748
  786TIP3    H123773   6.658   4.802  13.186  1.7058  0.6069 -2.3200
  786TIP3    H223774   6.641   4.676  13.105 -0.9849 -0.4486 -0.2655
  787TIP3   OH223775   4.610   6.629   5.538  0.3990  0.1198  0.3668
  787TIP3    H123776   4.638   6.624   5.630  2.4415 -0.6588 -0.2340
  787TIP3    H223777   4.535   6.570   5.532 -1.0349  1.6722  1.9083
  788TIP3   OH223778   1.306   4.116   5.558  0.5375 -0.5036  0.3791
  788TIP3    H123779   1.361   4.082   5.487  1.0344 -0.6814  0.8409
  788TIP3    H223780   1.365   4.171   5.610  0.3735 -0.9860  1.0844
  789TIP3   OH223781   5.937   2.737  17.080 -0.2914  0.7365  0.2248
  789TIP3    H123782   5.950   2.649  17.044 -0.6533  0.0134  1.7948
  789TIP3    H223783   6.026   2.771  17.092 -0.0543 -0.2993  1.6446
  790TIP3   OH223784   6.658   0.943   2.646 -0.0864  0.5668  0.3302
  790TIP3    H123785   6.634   0.882   2.716  1.2330 -1.0061 -0.5077
  790TIP3    H223786   6.733   0.991   2.680  0.7061 -0.3650 -0.0376
  791TIP3   OH223787   4.037   0.658  14.806  0.2802  0.3978 -0.2602
  791TIP3    H123788   4.032   0.656  14.901 -0.9316  0.0588 -0.3095
  791TIP3    H223789   4.010   0.747  14.782  1.8408  0.9028 -0.2552
  792TIP3   OH223790   2.584   0.417  16.687  0.2689 -0.8614  0.1271
  792TIP3    H123791   2.590   0.323  16.673  1.6792 -0.6370 -1.1615
  792TIP3    H223792   2.588   0.428  16.782  1.7185 -2.0548  0.2465
  793TIP3   OH223793   5.926   6.708  13.974  0.0615 -0.1933  0.5776
  793TIP3    H123794   5.930   6.628  13.921  0.1303 -0.0736  0.4020
  793TIP3    H223795   5.904   6.677  14.062  3.5588 -0.7846  1.3785
  794TIP3   OH223796   4.476   3.570   5.351  0.3807 -0.1630 -0.2939
  794TIP3    H123797   4.418   3.608   5.417  0.9184  1.1721 -0.5508
  794TIP3    H223798   4.555   3.546   5.400 -0.1719 -1.5258 -0.0312
  795TIP3   OH223799   6.096   0.180  13.453 -0.0223  0.0871  0.3893
  795TIP3    H123800   6.115   0.243  13.383  0.0009  0.9623  1.1594
  795TIP3    H223801   6.048   0.110  13.409  0.9589  0.0639 -0.7147
  796TIP3   OH223802   4.581   2.402   3.769 -0.1354 -0.2929 -0.3318
  796TIP3    H123803   4.645   2.427   3.702 -1.7229  0.0130 -1.8212
  796TIP3    H223804   4.631   2.397   3.850  1.5419  1.0268 -1.2280
  797TIP3   OH223805   3.340   3.422  12.509 -0.4606  0.0347  1.0083
  797TIP3    H123806   3.428   3.454  12.491  0.5045 -1.9660  1.8001
  797TIP3    H223807   3.283   3.498  12.497  1.3331  1.3258  0.2606
  798TIP3   OH223808   0.828   4.669  11.478 -0.0760 -0.3462 -0.8920
  798TIP3    H123809   0.861   4.652  11.389 -0.6997  1.2107 -1.4607
  798TIP3    H223810   0.751   4.725  11.465  1.3816  2.2524  0.6912
  799TIP3   OH223811   6.246   3.956   5.403 -0.2582 -0.0047 -0.7023
  799TIP3    H123812   6.206   3.880   5.445 -0.7219  1.0374  0.8250
  799TIP3    H223813   6.247   3.934   5.310 -0.9838 -1.5980 -0.3690
  800TIP3   OH223814   6.460   0.181  12.423 -0.6345  0.5043  0.2031
  800TIP3    H123815   6.449   0.098  12.471  0.8254  0.6739  0.8534
  800TIP3    H223816   6.370   0.206  12.400 -1.1601 -0.9299  0.5394
  801TIP3   OH223817   5.509   1.688  14.675 -0.0892 -0.2314  0.1821
  801TIP3    H123818   5.491   1.625  14.745 -1.2131  0.6803  0.7508
  801TIP3    H223819   5.424   1.701  14.632  0.6952 -1.2362 -1.7777
  802TIP3   OH223820   2.619   2.444  14.483 -0.2311  0.3804  0.3120
  802TIP3    H123821   2.573   2.371  14.523 -0.4455  0.3891  0.0780
  802TIP3    H223822   2.627   2.509  14.553  0.4121 -0.0698  0.6676
  803TIP3   OH223823   6.697   3.211  16.270  0.1206 -0.1843  0.2269
  803TIP3    H123824   6.746   3.151  16.327  0.9962  0.3850  0.0995
  803TIP3    H223825   6.714   3.179  16.182  0.0772 -0.1210  0.1958
  804TIP3   OH223826   2.108   2.042   2.651 -0.4015  0.3672 -0.1735
  804TIP3    H123827   2.190   1.996   2.666  0.0638  0.2539 -2.6768
  804TIP3    H223828   2.040   1.980   2.679  0.3100 -0.3645 -0.0421
  805TIP3   OH223829   0.735   3.554   1.082 -0.4792 -0.6563  0.2149
  805TIP3    H123830   0.727   3.648   1.100 -1.4400 -0.5301 -0.7865
  805TIP3    H223831   0.772   3.549   0.994 -3.4927 -1.1202 -1.1710
  806TIP3   OH223832   4.486   2.621  14.343 -1.0021  0.2214  0.4617
  806TIP3    H123833   4.566   2.569  14.354 -3.3234 -3.5173  1.8575
  806TIP3    H223834   4.484   2.641  14.250  0.3558 -1.8405 -0.0946
  807TIP3   OH223835   6.713   1.390  10.429 -0.3131  0.4626  1.0793
  807TIP3    H123836   6.633   1.422  10.470 -0.4100  0.6120  0.7760
  807TIP3    H223837   6.707   1.295  10.433 -0.3069  0.4773  1.4399
  808TIP3   OH223838   2.573   4.353  14.955 -0.3746  0.2735 -0.4128
  808TIP3    H123839   2.575   4.447  14.975 -1.2070  0.3368 -0.5940
  808TIP3    H223840   2.484   4.337  14.924 -0.7994 -0.9133  1.2603
  809TIP3   OH223841   0.631   3.422   0.251  0.0545 -0.1227  0.1853
  809TIP3    H123842   0.560   3.408   0.315  1.0845  0.7924  1.6115
  809TIP3    H223843   0.612   3.509   0.214  0.2316 -0.0325  0.3057
  810TIP3   OH223844   5.551   3.884  11.098 -0.0167  0.0339  0.3334
  810TIP3    H123845   5.464   3.873  11.138  0.0831  1.6076  1.0405
  810TIP3    H223846   5.552   3.974  11.067  2.1132  0.7638  2.2634
  811TIP3   OH223847   5.978   0.826  11.751 -0.1696 -0.2746  0.9089
  811TIP3    H123848   6.049   0.775  11.790  0.6921  1.6378  1.9816
  811TIP3    H223849   5.899   0.774  11.768  0.6276 -1.1346  2.1848
  812TIP3   OH223850   2.262   1.869   4.749  0.5131 -0.7299 -0.2961
  812TIP3    H123851   2.272   1.784   4.707 -0.4442  0.1575 -2.4402
  812TIP3    H223852   2.350   1.893   4.777  0.8116 -2.3428  0.2693
  813TIP3   OH223853   0.378   5.249  14.142 -0.9761  0.4900  0.8177
  813TIP3    H123854   0.456   5.291  14.179  0.4369 -1.5868  0.3081
  813TIP3    H223855   0.307   5.278  14.200  0.3335  1.4849  2.0187
  814TIP3   OH223856   2.362   3.448   1.760 -0.2131 -0.3159  0.3306
  814TIP3    H123857   2.419   3.456   1.837 -0.3728 -0.3901  0.4570
  814TIP3    H223858   2.408   3.496   1.691 -0.0588 -0.2678  0.4668
  815TIP3   OH223859   0.017   1.270  10.806  0.3608 -0.1200  0.1667
  815TIP3    H123860   0.035   1.184  10.844  1.9913  0.2899  0.4092
  815TIP3    H223861  -0.060   1.256  10.750  0.6576 -1.7573  0.1139
  816TIP3   OH223862   1.683   1.323  11.498 -0.5046 -0.0026  0.0064
  816TIP3    H123863   1.647   1.400  11.542  1.0180  1.4151 -1.1059
  816TIP3    H223864   1.777   1.342  11.491 -0.0266 -2.1736  0.0774
  817TIP3   OH223865   3.472   0.926   4.978  0.2112  0.1454 -0.1542
  817TIP3    H123866   3.567   0.922   4.967  0.1960 -0.7309 -0.0625
  817TIP3    H223867   3.439   0.952   4.892  0.4978 -0.2285 -0.3829
  818TIP3   OH223868   5.930   1.248  12.380  0.3210 -0.0306 -0.0943
  818TIP3    H123869   5.838   1.275  12.384  0.0667 -1.0267  1.3790
  818TIP3    H223870   5.972   1.296  12.452  0.7801 -0.2128 -0.2358
  819TIP3   OH223871   0.528   1.076   2.769  0.2362  0.4281 -0.5302
  819TIP3    H123872   0.498   1.001   2.718 -1.7794 -0.0219  1.1833
  819TIP3    H223873   0.461   1.143   2.754 -0.6779  0.1303  1.7638
  820TIP3   OH223874   5.395   3.419  16.605  0.3777  0.5911  0.1202
  820TIP3    H123875   5.398   3.502  16.652 -0.2588 -0.0350  1.3109
  820TIP3    H223876   5.399   3.352  16.673 -0.8010 -0.3400 -0.6789
  821TIP3   OH223877   1.092   2.873   5.680 -0.4724 -0.2448  0.3934
  821TIP3    H123878   1.141   2.954   5.675 -0.6786 -0.1805 -2.1718
  821TIP3    H223879   1.158   2.804   5.687 -0.2367  0.0471  1.1017
  822TIP3   OH223880   1.201   0.071   2.587  0.0820 -0.0874  0.5822
  822TIP3    H123881   1.245   0.130   2.648 -1.2494 -0.4937  1.9922
  822TIP3    H223882   1.270   0.040   2.529  1.4941 -0.0557  2.1912
  823TIP3   OH223883   3.832   0.760  13.615  0.4914  0.0763  0.8346
  823TIP3    H123884   3.828   0.832  13.677 -1.0747  0.5839  0.1718
  823TIP3    H223885   3.742   0.746  13.586  0.8360 -1.7445  0.4795
  824TIP3   OH223886   5.076   1.862   3.849 -0.9650 -0.2382 -0.3420
  824TIP3    H123887   5.131   1.875   3.773 -1.1487  0.9682 -0.2758
  824TIP3    H223888   4.995   1.909   3.830 -0.5528  1.1299  1.0830
  825TIP3   OH223889   6.066   0.250   2.142 -0.0002 -0.3266 -0.1126
  825TIP3    H123890   6.091   0.311   2.212 -0.6260 -1.5112  1.1969
  825TIP3    H223891   6.088   0.296   2.061  1.2019  0.8982  0.8626
  826TIP3   OH223892   3.282   2.493  11.816  0.6986  0.0035  0.1471
  826TIP3    H123893   3.327   2.473  11.734 -0.3477 -0.9792 -0.2078
  826TIP3    H223894   3.310   2.425  11.877  2.8980  1.7450  1.2189
  827TIP3   OH223895   5.292   2.131   1.842  0.9163 -0.2653 -0.5519
  827TIP3    H123896   5.374   2.115   1.795  1.2290 -0.0584 -0.0805
  827TIP3    H223897   5.245   2.048   1.836  2.3624 -1.3242  1.5645
  828TIP3   OH223898   1.576   1.653   0.843  0.3590  0.1449  0.0397
  828TIP3    H123899   1.617   1.655   0.930  2.6489  2.0742 -0.9498
  828TIP3    H223900   1.527   1.735   0.838 -0.0530 -0.1252 -0.3522
  829TIP3   OH223901   6.407   5.284   4.943  0.4690 -0.0935 -0.5040
  829TIP3    H123902   6.464   5.341   4.995  1.0013  0.0345 -1.2045
  829TIP3    H223903   6.442   5.291   4.854 -0.5009 -0.1974 -0.9074
  830TIP3   OH223904   1.882   2.522   2.791  0.2715  0.1551 -0.0749
  830TIP3    H123905   1.946   2.450   2.786 -1.1999 -1.5276  2.7951
  830TIP3    H223906   1.802   2.485   2.754 -0.7996 -0.1938  2.3903
  831TIP3   OH223907   5.374   6.062  15.558 -0.0426 -0.2890  0.2190
  831TIP3    H123908   5.400   5.989  15.614 -0.3845 -0.7908 -0.2681
  831TIP3    H223909   5.441   6.065  15.489  0.6557  0.6370  0.8977
  832TIP3   OH223910   0.473   0.922  11.554  0.1047  0.0820 -0.2774
  832TIP3    H123911   0.444   0.904  11.644 -0.3750  1.3693 -0.1472
  832TIP3    H223912   0.405   0.884  11.499  0.6564 -1.1663 -0.1382
  833TIP3   OH223913   4.853   5.769  10.630 -0.5533  0.0680 -0.8704
  833TIP3    H123914   4.778   5.784  10.688  0.6148 -0.1371  0.7551
  833TIP3    H223915   4.917   5.725  10.685  1.5290  1.9678 -1.6125
  834TIP3   OH223916   2.623   1.241   2.741 -0.0905 -0.2298 -0.1397
  834TIP3    H123917   2.560   1.225   2.812 -1.3261 -0.3491 -1.2196
  834TIP3    H223918   2.630   1.336   2.737 -1.2602 -0.1509 -0.8676
  835TIP3   OH223919   1.026   0.827  13.688  0.1595 -0.6093 -0.0028
  835TIP3    H123920   1.100   0.793  13.639  0.3988 -0.9064  0.5515
  835TIP3    H223921   0.958   0.842  13.623  0.0247 -2.2011 -0.2666
  836TIP3   OH223922   6.212   0.982  12.251 -0.1183 -0.2713 -0.4182
  836TIP3    H123923   6.307   0.974  12.244 -0.0437 -1.2323  1.2359
  836TIP3    H223924   6.191   0.945  12.336 -2.1836 -1.7372 -1.4780
  837TIP3   OH223925   1.935   0.909  13.808 -0.2004 -0.5642  0.6529
  837TIP3    H123926   1.913   0.914  13.901 -1.4437  1.0614  0.3152
  837TIP3    H223927   1.906   0.821  13.781 -3.2640  0.2179  1.0427
  838TIP3   OH223928   4.560   0.584  15.650  0.0900 -0.5357 -0.0723
  838TIP3    H123929   4.598   0.665  15.685  1.6208 -1.7633  1.2059
  838TIP3    H223930   4.633   0.539  15.607 -1.0001 -0.7300 -1.8309
  839TIP3   OH223931   5.058   3.794  16.630  0.1589  0.1432 -0.1090
  839TIP3    H123932   5.061   3.727  16.563  1.5741 -0.0870  0.1386
  839TIP3    H223933   4.971   3.788  16.668 -0.3442 -0.3228 -1.3076
  840TIP3   OH223934   2.170   1.887   6.751  0.0780  0.4600 -0.6500
  840TIP3    H123935   2.142   1.803   6.714  4.1396 -0.3180 -2.6273
  840TIP3    H223936   2.133   1.953   6.692 -1.4500 -0.0446 -0.2963
  841TIP3   OH223937   4.865   4.567   0.748 -0.1500  0.0338  0.0866
  841TIP3    H123938   4.828   4.491   0.792  0.8617 -0.3133  0.3829
  841TIP3    H223939   4.862   4.546   0.655  0.4071 -0.5159  0.1864
  842TIP3   OH223940   3.941   4.465  12.448 -0.2294 -0.5377  0.6492
  842TIP3    H123941   4.034   4.446  12.458 -0.2085  0.4621  2.9041
  842TIP3    H223942   3.896   4.386  12.478 -0.0995 -0.2668  1.5818
  843TIP3   OH223943   4.968   6.551  15.634 -0.3739 -0.3986 -0.2208
  843TIP3    H123944   4.993   6.611  15.705  2.3350 -0.0314 -1.3521
  843TIP3    H223945   4.986   6.464  15.669  2.4658 -0.1692 -0.8250
  844TIP3   OH223946   0.561   5.017  10.957  0.1358  0.2824  0.3671
  844TIP3    H123947   0.530   5.003  11.047  2.5433 -0.3825  1.1702
  844TIP3    H223948   0.490   5.065  10.914 -0.1982  2.6554  3.2654
  845TIP3   OH223949   1.106   5.670   4.522  0.2554 -0.0981 -0.1179
  845TIP3    H123950   1.085   5.577   4.531 -0.6826  0.0530 -0.5970
  845TIP3    H223951   1.157   5.674   4.441  1.2838 -0.3295  0.4971
  846TIP3   OH223952   2.899   0.606   3.380  0.1542  0.6822  0.2127
  846TIP3    H123953   2.983   0.578   3.345 -0.8185  0.3443 -2.0896
  846TIP3    H223954   2.851   0.524   3.395 -0.2615  0.9025  0.1009
  847TIP3   OH223955   6.173   0.289   1.553  0.2963  0.4918  0.1381
  847TIP3    H123956   6.160   0.198   1.526 -0.9920  0.7073 -0.0619
  847TIP3    H223957   6.095   0.310   1.604  0.1883  1.7232 -0.4967
  848TIP3   OH223958   1.974   5.575  12.859 -0.1113 -0.1922  0.3131
  848TIP3    H123959   2.001   5.523  12.935 -0.8884 -1.9520 -0.5595
  848TIP3    H223960   2.030   5.545  12.788 -0.7155  0.0027 -0.2599
  849TIP3   OH223961   5.429   6.442   2.697 -0.0863 -0.0756  0.4351
  849TIP3    H123962   5.466   6.524   2.731  0.1887 -0.5388  1.2903
  849TIP3    H223963   5.336   6.447   2.720 -0.0818  0.0192  0.4351
  850TIP3   OH223964   2.934   4.069   5.702 -0.1385 -0.6488  0.5380
  850TIP3    H123965   2.911   4.160   5.721 -0.4890 -1.2068  3.1543
  850TIP3    H223966   2.943   4.066   5.607  0.3350  2.2079  0.4036
  851TIP3   OH223967   4.899   4.028   4.906  0.0513 -0.0429 -0.0598
  851TIP3    H123968   4.895   3.937   4.877  0.7366  0.3851 -1.5951
  851TIP3    H223969   4.952   4.026   4.986 -1.4819 -1.1995  0.9898
  852TIP3   OH223970   3.662   2.202   6.536 -0.7521 -0.1529  0.1258
  852TIP3    H123971   3.584   2.244   6.572  0.1807  0.0722  2.0411
  852TIP3    H223972   3.728   2.272   6.535 -0.3542 -0.5281 -0.7293
  853TIP3   OH223973   6.619   2.402  16.465 -0.2735  0.6357 -0.3205
  853TIP3    H123974   6.674   2.468  16.506  0.3972  1.0735 -1.8582
  853TIP3    H223975   6.572   2.361  16.538  0.4287  1.7627  0.8001
  854TIP3   OH223976   1.448   4.696   5.328 -0.3435  0.1013  0.2586
  854TIP3    H123977   1.458   4.761   5.398 -2.3325  0.0539  0.6517
  854TIP3    H223978   1.356   4.705   5.301 -0.3293 -1.7257 -0.5126
  855TIP3   OH223979   6.520   0.604  15.822  0.3863 -0.0933  0.0358
  855TIP3    H123980   6.481   0.529  15.867  3.4931 -1.7419  0.2875
  855TIP3    H223981   6.527   0.672  15.889 -2.2482  0.4586 -0.1358
  856TIP3   OH223982   2.179   0.821   3.996  0.1765 -0.2794 -0.1468
  856TIP3    H123983   2.090   0.815   3.960 -0.1408  2.0258  0.0644
  856TIP3    H223984   2.170   0.792   4.087 -0.5251  0.5445  0.0636
  857TIP3   OH223985   5.644   4.682  11.413  0.0280  0.7300 -0.1905
  857TIP3    H123986   5.593   4.745  11.465 -0.7582  1.3403 -1.6458
  857TIP3    H223987   5.713   4.735  11.374 -0.7517  0.7674 -1.5789
  858TIP3   OH223988   5.095   6.592  13.955 -0.1764  0.2136  0.2707
  858TIP3    H123989   5.082   6.545  14.037  0.7758  1.0157  0.8996
  858TIP3    H223990   5.104   6.522  13.889 -3.6818 -0.4353  0.3116
  859TIP3   OH223991   5.361   5.711  16.843  0.1363 -0.3698  0.8557
  859TIP3    H123992   5.437   5.746  16.797 -1.4028 -1.3673 -2.8092
  859TIP3    H223993   5.324   5.785  16.890  1.8441  0.7336  0.5228
  860TIP3   OH223994   1.564   0.007  14.158 -0.5764  0.1304 -0.2612
  860TIP3    H123995   1.498   0.064  14.119 -0.7562  0.4234  0.4623
  860TIP3    H223996   1.608   0.062  14.223  0.5520  0.0133 -0.9123
  861TIP3   OH223997   2.831   2.379  13.472 -0.0456  0.4723  0.7338
  861TIP3    H123998   2.867   2.295  13.446 -0.7140 -0.1769  1.8443
  861TIP3    H223999   2.851   2.386  13.565  0.4191  1.7643  0.5562
  862TIP3   OH224000   3.013   6.607   2.082  0.1085 -0.3354 -0.4239
  862TIP3    H124001   3.075   6.676   2.057 -0.0783 -0.5658 -1.5751
  862TIP3    H224002   3.068   6.531   2.098  0.2511 -0.1244  0.1215
  863TIP3   OH224003   5.476   0.375  15.266 -0.3554  0.3169  0.2828
  863TIP3    H124004   5.425   0.447  15.303 -0.0736  0.3901  0.5404
  863TIP3    H224005   5.567   0.401  15.279 -0.2485 -0.1124  0.4427
  864TIP3   OH224006   0.936   5.925  15.451  0.0025 -0.2144 -0.4034
  864TIP3    H124007   0.845   5.895  15.454  0.2022 -0.8296 -0.4697
  864TIP3    H224008   0.987   5.848  15.426  0.9044 -0.6958  2.4892
  865TIP3   OH224009   1.663   2.845   3.965 -0.1488  0.0684  0.1413
  865TIP3    H124010   1.626   2.789   4.033  0.4847  0.7729  1.0970
  865TIP3    H224011   1.758   2.839   3.978 -0.0542  0.9625 -0.0481
  866TIP3   OH224012   4.660   1.280  14.555  0.2121 -0.1171  0.1040
  866TIP3    H124013   4.733   1.311  14.501 -1.6525  3.3326 -0.7273
  866TIP3    H224014   4.691   1.197  14.591  4.3680  0.9441 -0.4790
  867TIP3   OH224015   6.286   0.910  14.336 -0.1452 -0.1860  0.2802
  867TIP3    H124016   6.370   0.869  14.314 -0.4571  0.7086 -2.9743
  867TIP3    H224017   6.226   0.836  14.348  0.2371 -0.7827 -1.3447
  868TIP3   OH224018   4.485   0.597   0.489  0.0708  0.7593  0.2299
  868TIP3    H124019   4.443   0.621   0.572  0.1377 -1.0048  0.8188
  868TIP3    H224020   4.576   0.629   0.498  0.0553  0.6473  0.7935
  869TIP3   OH224021   1.710   3.436  13.764  0.3826  0.1820  0.1763
  869TIP3    H124022   1.636   3.474  13.718  1.9260  0.8381 -1.9117
  869TIP3    H224023   1.783   3.443  13.703  2.7565  1.5762  2.8987
  870TIP3   OH224024   1.948   0.748   3.019 -0.0065  0.2854  0.6534
  870TIP3    H124025   1.995   0.743   2.936  1.4719  0.5867  1.4450
  870TIP3    H224026   1.858   0.770   2.994  0.5692  1.1144 -0.8120
  871TIP3   OH224027   4.446   5.472   4.496 -0.9876 -0.0872 -0.6982
  871TIP3    H124028   4.451   5.499   4.588 -1.1406  0.7618 -0.9289
  871TIP3    H224029   4.383   5.400   4.496 -0.8625 -0.2058 -0.1132
  872TIP3   OH224030   0.019   3.149   1.925 -1.0152  0.1515 -0.0793
  872TIP3    H124031  -0.026   3.204   1.989 -0.5508 -2.1578  2.4459
  872TIP3    H224032   0.112   3.170   1.937 -0.8254 -1.0772  0.9630
  873TIP3   OH224033   3.764   0.219  13.947 -0.2999 -0.1244 -0.2513
  873TIP3    H124034   3.841   0.242  14.000 -0.7368 -0.9206  0.7519
  873TIP3    H224035   3.790   0.139  13.902 -1.4988 -2.0763  2.3259
  874TIP3   OH224036   2.876   5.244  14.262 -0.6302  0.3608 -0.1660
  874TIP3    H124037   2.809   5.271  14.325  0.6775 -0.2531  1.5573
  874TIP3    H224038   2.907   5.326  14.224 -0.5908  0.8552  0.8941
  875TIP3   OH224039   4.713   1.649  14.436  0.2965  0.1363  0.0330
  875TIP3    H124040   4.806   1.628  14.425  0.0026 -0.5116 -1.3535
  875TIP3    H224041   4.683   1.677  14.350 -1.3105 -1.8384 -0.1312
  876TIP3   OH224042   5.251   5.824   1.152  0.0108 -0.0186 -0.2052
  876TIP3    H124043   5.200   5.747   1.178  0.9348 -1.1887 -1.7010
  876TIP3    H224044   5.186   5.884   1.115 -0.3392 -1.6520 -2.4566
  877TIP3   OH224045   3.192   0.827   3.727 -0.5995  0.1710 -0.4597
  877TIP3    H124046   3.240   0.906   3.704 -0.0447 -0.3684 -1.1876
  877TIP3    H224047   3.108   0.837   3.682 -0.4394  0.2347 -0.7486
  878TIP3   OH224048   4.588   3.779  16.243 -0.4921 -0.5496  0.1124
  878TIP3    H124049   4.544   3.823  16.316  0.1797 -0.2243  0.3269
  878TIP3    H224050   4.659   3.730  16.283  0.1360 -0.0448 -0.3473
  879TIP3   OH224051   3.995   1.063  14.192  0.5407  0.1457 -0.1763
  879TIP3    H124052   3.906   1.065  14.226  0.4720  2.3549 -0.2977
  879TIP3    H224053   4.034   0.984  14.230 -1.5590 -1.1051 -0.4563
  880TIP3   OH224054   3.723   3.890  12.896 -0.0514  0.3372 -0.2220
  880TIP3    H124055   3.735   3.797  12.880 -3.1414 -0.1525 -0.3133
  880TIP3    H224056   3.638   3.911  12.856  0.4209  3.1546  0.0072
  881TIP3   OH224057   0.411   5.637  16.265  0.2949 -0.0156  0.7699
  881TIP3    H124058   0.471   5.712  16.276 -0.2419  0.4215  0.7692
  881TIP3    H224059   0.469   5.561  16.263  0.8047  0.3349  1.4656
  882TIP3   OH224060   2.740   4.256  13.803 -0.0842 -0.0223 -0.6034
  882TIP3    H124061   2.646   4.260  13.819  0.1405  1.2402  0.5272
  882TIP3    H224062   2.757   4.164  13.782 -1.0735 -1.0639  2.5782
  883TIP3   OH224063   3.055   6.033  16.242 -1.0487  0.3056  0.3737
  883TIP3    H124064   2.964   6.062  16.246 -1.5638 -0.5761 -2.4527
  883TIP3    H224065   3.079   6.042  16.149  0.1642 -3.8347  0.0675
  884TIP3   OH224066   1.156   4.408   1.574 -0.0247  0.1688  0.5971
  884TIP3    H124067   1.210   4.373   1.503 -0.7809 -0.0428  0.1099
  884TIP3    H224068   1.217   4.424   1.645  0.6718 -0.0986  0.0724
  885TIP3   OH224069   4.956   2.797  15.268 -0.0800  0.0708  0.3073
  885TIP3    H124070   4.930   2.859  15.200  0.7874  1.8160  1.5090
  885TIP3    H224071   5.046   2.772  15.245 -0.5703 -1.1304 -0.4102
  886TIP3   OH224072   6.789   6.577  13.371 -0.0032 -0.6057 -0.0366
  886TIP3    H124073   6.771   6.536  13.456  1.0259 -2.0277 -0.4717
  886TIP3    H224074   6.858   6.640  13.389  0.0206 -0.7114  0.2457
  887TIP3   OH224075   2.324   4.841  14.025  0.6039 -0.0112 -0.2256
  887TIP3    H124076   2.367   4.757  14.036  1.1207  0.4801  2.1562
  887TIP3    H224077   2.242   4.833  14.073 -0.2519  0.2724 -1.5766
  888TIP3   OH224078   2.051   1.903  15.898  0.3561 -0.3992 -0.0670
  888TIP3    H124079   2.124   1.925  15.956 -0.3192 -1.0289  1.0529
  888TIP3    H224080   1.977   1.954  15.931 -0.2007 -1.2557  0.0440
  889TIP3   OH224081   4.848   1.378   0.145 -0.2738 -0.9301  0.0499
  889TIP3    H124082   4.792   1.408   0.216 -1.9123 -2.3396 -0.5617
  889TIP3    H224083   4.844   1.448   0.080  0.2898 -0.1555  0.8229
  890TIP3   OH224084   6.341   3.967   4.520  0.2351 -0.1694 -0.0306
  890TIP3    H124085   6.314   4.029   4.452 -0.6969  0.5634  0.9730
  890TIP3    H224086   6.373   3.891   4.472  0.1644  0.5681 -1.2867
  891TIP3   OH224087   0.633   4.176  14.125 -0.2341  1.0440  0.1601
  891TIP3    H124088   0.578   4.102  14.100  0.4648  0.3918  0.5025
  891TIP3    H224089   0.578   4.253  14.113 -0.9602  0.4682 -0.2353
  892TIP3   OH224090   2.154   1.697   5.328 -0.1353 -0.0836  0.2231
  892TIP3    H124091   2.143   1.782   5.369  1.4323 -0.8496  2.3669
  892TIP3    H224092   2.213   1.713   5.254 -0.9107  0.8576 -0.2231
  893TIP3   OH224093   2.599   3.380   0.033 -0.1468  0.1960 -0.0413
  893TIP3    H124094   2.519   3.335   0.062 -1.1692  0.6741 -1.9354
  893TIP3    H224095   2.567   3.459  -0.009  1.4503  1.1288  0.4284
  894TIP3   OH224096   3.116   1.143  12.899 -0.0956  0.3326 -0.0430
  894TIP3    H124097   3.028   1.105  12.892 -0.3129  0.9954 -1.3020
  894TIP3    H224098   3.135   1.144  12.993 -1.8883  1.1654  0.3600
  895TIP3   OH224099   3.043   1.500  16.488 -0.1843  1.2464 -0.4289
  895TIP3    H124100   3.078   1.529  16.404  1.0536  1.4949  0.1491
  895TIP3    H224101   3.086   1.556  16.553 -1.2979  1.2264  0.3627
  896TIP3   OH224102   1.231   2.883   0.040  0.1929  0.1082 -0.0815
  896TIP3    H124103   1.184   2.902   0.121  1.8848 -0.5703  1.1176
  896TIP3    H224104   1.305   2.944   0.040  0.0254  0.3438 -1.3105
  897TIP3   OH224105   6.495   6.512  13.691  0.3736 -0.0505 -0.3037
  897TIP3    H124106   6.471   6.435  13.639 -2.0084  0.2468  0.2281
  897TIP3    H224107   6.486   6.482  13.782  1.3669  0.3248 -0.0756
  898TIP3   OH224108   1.138   2.534  16.911 -0.1600 -0.1350 -0.6590
  898TIP3    H124109   1.140   2.536  16.815  1.2374  2.4913 -0.6522
  898TIP3    H224110   1.207   2.472  16.934  0.3863  0.1921 -1.3638
  899TIP3   OH224111   1.158   2.617   1.458 -1.0680 -0.4281  0.8317
  899TIP3    H124112   1.186   2.571   1.537 -0.1280 -0.1450  0.6688
  899TIP3    H224113   1.168   2.553   1.388  2.4982  0.6144  0.2043
  900TIP3   OH224114   1.447   0.516  11.202  0.0795  0.3847 -0.1464
  900TIP3    H124115   1.525   0.508  11.147  1.4941  0.9041  1.6977
  900TIP3    H224116   1.431   0.610  11.208  1.7187  0.5972  2.5786
  901TIP3   OH224117   3.729   1.451   0.992  0.4181 -0.1573  0.1832
  901TIP3    H124118   3.639   1.477   1.011  0.3320 -0.2090 -0.1585
  901TIP3    H224119   3.734   1.360   1.021  0.3234 -0.1965  0.0755
  902TIP3   OH224120   4.343   2.697  15.007  0.2270 -0.7011 -0.0310
  902TIP3    H124121   4.293   2.644  14.945 -0.3252 -0.2060 -0.0223
  902TIP3    H224122   4.335   2.651  15.091 -1.0399 -0.1310  0.1831
  903TIP3   OH224123   2.156   4.476   3.091 -0.1675 -0.4085 -0.2214
  903TIP3    H124124   2.187   4.450   3.004  0.4359  1.0687 -0.4849
  903TIP3    H224125   2.060   4.473   3.084 -0.1377 -2.2477 -0.2871
  904TIP3   OH224126   3.662   2.353  13.411  0.1931 -0.0942 -0.4590
  904TIP3    H124127   3.668   2.441  13.374 -0.7224  0.1919  0.0256
  904TIP3    H224128   3.705   2.296  13.347 -0.3362  0.5366 -1.4080
  905TIP3   OH224129   5.727   6.238  16.967 -0.1370 -0.0004  1.0600
  905TIP3    H124130   5.701   6.275  16.883  1.5585 -1.4952 -0.1933
  905TIP3    H224131   5.652   6.186  16.995 -0.1176 -0.8846 -0.4129
  906TIP3   OH224132   0.718   2.360  11.115  0.4232 -0.0362 -0.0066
  906TIP3    H124133   0.707   2.265  11.116  0.9773 -0.1028  0.4140
  906TIP3    H224134   0.805   2.374  11.077  0.7759  0.2446  0.8627
  907TIP3   OH224135   6.391   6.099   1.232  0.3738 -0.2588 -0.1631
  907TIP3    H124136   6.447   6.168   1.197  0.0513 -0.4126 -1.0164
  907TIP3    H224137   6.323   6.145   1.282 -1.8620  0.3900 -3.4936
  908TIP3   OH224138   5.943   1.732   0.569  0.5227 -0.5528 -0.2403
  908TIP3    H124139   5.879   1.797   0.539  1.6986  1.4398  1.3061
  908TIP3    H224140   5.930   1.729   0.664  2.0726 -0.7960 -0.0199
  909TIP3   OH224141   2.759   3.031  15.111 -0.1365  0.5490 -0.7021
  909TIP3    H124142   2.849   3.002  15.119 -0.2163  0.8019  2.0456
  909TIP3    H224143   2.735   3.060  15.199 -3.1035 -0.1090 -1.1802
  910TIP3   OH224144   0.240   3.981  14.431  0.5869 -0.1934 -0.6494
  910TIP3    H124145   0.332   4.005  14.438  0.2275  0.9788  0.7407
  910TIP3    H224146   0.228   3.912  14.496  0.2282  0.6265  0.1862
  911TIP3   OH224147   4.346   3.975   2.877  0.2309 -0.0552 -0.2244
  911TIP3    H124148   4.337   3.968   2.972 -1.1328  1.2538 -0.2195
  911TIP3    H224149   4.344   3.885   2.846  0.7437 -0.5027  0.9815
  912TIP3   OH224150   4.339   6.076  12.367  0.2557 -0.1853 -0.1771
  912TIP3    H124151   4.258   6.043  12.407  0.3691  0.3839  0.5421
  912TIP3    H224152   4.349   6.025  12.287 -0.4609 -0.7245  0.0707
  913TIP3   OH224153   1.693   1.075   2.733  0.0292  0.9334  0.3512
  913TIP3    H124154   1.629   1.132   2.775 -1.1108 -0.4957  0.6175
  913TIP3    H224155   1.760   1.060   2.800 -0.0611  1.3243  0.5320
  914TIP3   OH224156   2.650   0.393   0.514  0.3745 -0.0534 -0.1897
  914TIP3    H124157   2.736   0.427   0.489  1.0585 -1.4986  0.1010
  914TIP3    H224158   2.650   0.303   0.483  1.3442 -2.0996  4.8891
  915TIP3   OH224159   0.592   0.975   1.988 -0.1407  0.0402  0.4322
  915TIP3    H124160   0.608   0.882   1.970 -1.2113 -0.2844  1.1170
  915TIP3    H224161   0.637   1.020   1.916 -0.0314 -1.0199 -0.1967
  916TIP3   OH224162   4.803   3.763   4.186  0.3519  0.2012 -0.2153
  916TIP3    H124163   4.837   3.715   4.261 -0.5444 -0.2340 -0.0746
  916TIP3    H224164   4.864   3.836   4.174  2.2626 -1.4163 -0.9779
  917TIP3   OH224165   3.288   4.426  15.316  0.2625 -0.3264  0.4977
  917TIP3    H124166   3.209   4.479  15.309  0.2636 -0.4270 -0.3667
  917TIP3    H224167   3.257   4.335  15.313  0.3458 -0.3804  1.0240
  918TIP3   OH224168   4.571   0.353  16.282  0.2367  0.4492 -0.4253
  918TIP3    H124169   4.637   0.420  16.264  1.1111 -0.5715 -1.1529
  918TIP3    H224170   4.620   0.284  16.326 -0.9796  0.9509  1.8281
  919TIP3   OH224171   5.371   4.141   1.754 -0.2503 -0.0388 -0.3467
  919TIP3    H124172   5.397   4.141   1.846  0.3238  0.1794 -0.5064
  919TIP3    H224173   5.360   4.233   1.732  0.2225 -0.0552 -0.6642
  920TIP3   OH224174   4.870   3.546   3.578 -0.5292  0.0114  0.1409
  920TIP3    H124175   4.823   3.627   3.596  1.0639  1.0085 -0.0157
  920TIP3    H224176   4.955   3.574   3.544  0.3354 -1.7122  0.7622
  921TIP3   OH224177   1.378   4.176  11.054 -0.3076  0.3244 -0.0148
  921TIP3    H124178   1.356   4.086  11.031 -1.2135 -0.1846  2.5334
  921TIP3    H224179   1.437   4.205  10.984 -1.3855 -1.6123 -1.8319
  922TIP3   OH224180   3.516   2.252  15.236 -0.2028  0.0095  0.0516
  922TIP3    H124181   3.495   2.159  15.227  4.0504 -1.1906  0.7284
  922TIP3    H224182   3.499   2.272  15.328  3.0771 -1.5200  1.1415
  923TIP3   OH224183   6.481   1.260   1.830 -0.0877  0.3802  0.0858
  923TIP3    H124184   6.566   1.253   1.875 -0.9951  1.7518  2.1743
  923TIP3    H224185   6.489   1.340   1.777  0.1153  0.1815 -0.1863
  924TIP3   OH224186   3.072   4.086  12.850 -0.0741 -0.3111  0.2042
  924TIP3    H124187   3.000   4.146  12.829 -0.5755 -0.8972  0.2289
  924TIP3    H224188   3.052   4.007  12.800 -0.2897 -1.0526  1.4427
  925TIP3   OH224189   5.415   5.992  12.382  0.9953  0.0603  0.4627
  925TIP3    H124190   5.450   6.072  12.345  0.1407  0.5456  0.6777
  925TIP3    H224191   5.484   5.927  12.368  1.6995  0.8268  0.3034
  926TIP3   OH224192   3.275   0.263  12.735  0.0948  0.0211  0.5742
  926TIP3    H124193   3.206   0.225  12.681  1.1797 -1.0975 -0.0829
  926TIP3    H224194   3.356   0.226  12.700  0.9168  0.0512  2.3369
  927TIP3   OH224195   1.863   6.408  16.231 -0.5732  0.0312 -0.7058
  927TIP3    H124196   1.805   6.337  16.203  0.9410 -1.2771 -0.6999
  927TIP3    H224197   1.914   6.370  16.302 -0.2404  1.3954 -0.1972
  928TIP3   OH224198   0.931   1.365  10.476 -0.8654  1.2958 -0.5777
  928TIP3    H124199   1.010   1.392  10.522 -1.0636  0.5200  0.2492
  928TIP3    H224200   0.892   1.446  10.444 -1.5966  2.0745  2.0696
  929TIP3   OH224201   4.499   0.443   4.038 -0.6212 -0.1669 -0.5782
  929TIP3    H124202   4.594   0.439   4.049 -0.6502 -0.9197 -0.5982
  929TIP3    H224203   4.481   0.536   4.022 -0.0073  0.1588  0.5357
  930TIP3   OH224204   2.440   3.262   2.179  0.0620  0.2279 -0.4530
  930TIP3    H124205   2.388   3.314   2.117 -2.6851 -0.2216  1.2837
  930TIP3    H224206   2.462   3.324   2.249 -0.2945 -0.1546  0.0014
  931TIP3   OH224207   1.488   6.148   1.448  0.6470 -0.2740  0.5737
  931TIP3    H124208   1.538   6.210   1.397  0.4049 -0.0762  0.5727
  931TIP3    H224209   1.542   6.130   1.525  0.6296  0.0929  0.6728
  932TIP3   OH224210   2.189   3.958  14.375 -0.1495  0.4341  0.1338
  932TIP3    H124211   2.241   3.981  14.452  1.2023 -1.2167 -0.2335
  932TIP3    H224212   2.098   3.975  14.401  0.3373  0.5067  1.8785
  933TIP3   OH224213   1.785   2.750   1.909 -0.0744  0.5592 -0.0596
  933TIP3    H124214   1.801   2.829   1.960  1.7162  1.0490 -1.2743
  933TIP3    H224215   1.873   2.718   1.887 -0.7775 -1.4148 -0.1446
  934TIP3   OH224216   2.025   1.721  16.361 -0.5318 -0.2442  0.4473
  934TIP3    H124217   2.043   1.651  16.297 -0.6035 -1.0151  1.2582
  934TIP3    H224218   2.039   1.680  16.446 -1.3335  0.5187  0.9608
  935TIP3   OH224219   0.999   0.684   1.041  0.0456 -0.1079 -0.2352
  935TIP3    H124220   1.020   0.721   1.126 -0.8173  0.1522 -0.1363
  935TIP3    H224221   0.998   0.589   1.055 -1.5384 -0.0237  0.3930
  936TIP3   OH224222   5.573   5.153   6.319  0.1873  0.9170 -0.5821
  936TIP3    H124223   5.653   5.204   6.327  0.6608  0.1419 -0.2558
  936TIP3    H224224   5.602   5.062   6.326 -0.5871  0.5803 -1.5309
  937TIP3   OH224225   2.543   1.809   3.331 -0.4521 -0.3701 -0.2975
  937TIP3    H124226   2.603   1.797   3.256  1.3194 -0.1861  1.0184
  937TIP3    H224227   2.546   1.725   3.377 -1.2714 -0.3692 -0.2405
  938TIP3   OH224228   5.884   3.014   6.030  0.5979 -0.3275 -1.0406
  938TIP3    H124229   5.845   2.997   6.116  1.1677 -0.9056 -0.8926
  938TIP3    H224230   5.808   3.020   5.971  0.2833 -3.8823 -1.2027
  939TIP3   OH224231   0.146   0.348   5.840 -0.2686  0.1025  0.0450
  939TIP3    H124232   0.225   0.316   5.797 -0.8251  1.8843 -2.5162
  939TIP3    H224233   0.178   0.412   5.904  0.4014  0.3407 -0.5161
  940TIP3   OH224234   3.170   4.861   1.501 -0.0388  0.2646  0.3779
  940TIP3    H124235   3.108   4.921   1.541  0.6127  0.8845  0.4872
  940TIP3    H224236   3.121   4.819   1.431 -0.4209  1.1830  0.0742
  941TIP3   OH224237   2.794   2.158   2.310 -0.4112 -0.2154  0.2497
  941TIP3    H124238   2.876   2.164   2.358 -0.6176 -1.8564  0.8786
  941TIP3    H224239   2.734   2.114   2.371 -1.2020 -0.7197 -0.8547
  942TIP3   OH224240   6.620   6.256   1.170  0.7225  0.4789 -0.4108
  942TIP3    H124241   6.677   6.180   1.163 -0.6227 -0.7647  1.1623
  942TIP3    H224242   6.631   6.287   1.260 -1.6878 -0.3892  0.2579
  943TIP3   OH224243   2.569   5.761   1.631 -0.6090 -0.6938 -0.0658
  943TIP3    H124244   2.588   5.710   1.553  0.5544 -1.7140  0.8375
  943TIP3    H224245   2.496   5.715   1.673 -0.3251 -0.9485  0.1518
  944TIP3   OH224246   4.143   2.011  12.968 -0.0081  0.4817 -0.5559
  944TIP3    H124247   4.174   1.926  13.000  2.8018  2.6632  3.4429
  944TIP3    H224248   4.054   2.018  13.003 -0.4675 -0.9205 -1.3437
  945TIP3   OH224249   3.610   4.194  12.820 -0.3856  0.4601 -0.6315
  945TIP3    H124250   3.516   4.190  12.838 -0.2329  1.4018  0.4929
  945TIP3    H224251   3.617   4.216  12.728 -1.2817  1.1429 -0.5436
  946TIP3   OH224252   6.645   2.491  11.472  0.4289  0.1724 -0.5887
  946TIP3    H124253   6.660   2.429  11.401  0.3700 -0.0341 -0.4244
  946TIP3    H224254   6.732   2.507  11.509  0.4341  0.1173 -0.5758
  947TIP3   OH224255   2.876   4.162   1.814 -0.6048  0.1244  0.0339
  947TIP3    H124256   2.841   4.217   1.884 -1.1698 -1.6848  1.2281
  947TIP3    H224257   2.931   4.098   1.858  0.3108 -0.0976 -1.3582
  948TIP3   OH224258   6.099   5.478   5.254 -0.0936  0.2503 -0.3051
  948TIP3    H124259   6.168   5.517   5.308 -0.3059 -0.2510  0.3304
  948TIP3    H224260   6.142   5.462   5.169  0.1781  1.2396 -0.3754
  949TIP3   OH224261   5.763   2.161  15.674  0.0026  0.0430  1.0466
  949TIP3    H124262   5.780   2.221  15.746 -0.2817 -1.6236  2.5573
  949TIP3    H224263   5.718   2.087  15.714  0.9954 -1.5385 -0.5921
  950TIP3   OH224264   3.329   3.605  15.486 -0.3205  0.2123 -0.0898
  950TIP3    H124265   3.363   3.675  15.430 -3.0059  2.0095  0.3562
  950TIP3    H224266   3.304   3.536  15.426 -0.8169  1.0754 -0.9012
  951TIP3   OH224267   2.270   2.759  15.563  0.0773 -0.5445  0.3441
  951TIP3    H124268   2.247   2.769  15.655  0.5220 -1.8401  0.6188
  951TIP3    H224269   2.194   2.716  15.523  0.7071 -1.9758  0.5974
  952TIP3   OH224270   5.722   1.951   4.547 -0.1450 -0.1712  0.1403
  952TIP3    H124271   5.653   2.016   4.562  0.5653  0.7348 -0.4027
  952TIP3    H224272   5.794   1.980   4.602  1.0445  0.9016 -1.9009
  953TIP3   OH224273   0.334   1.347   3.823 -0.2650 -0.2217 -0.2393
  953TIP3    H124274   0.325   1.287   3.749  1.9573 -0.6866 -0.2036
  953TIP3    H224275   0.331   1.434   3.783  1.4043 -0.4750 -0.9847
  954TIP3   OH224276   0.569   6.622   3.831  0.2247  0.1566 -0.0461
  954TIP3    H124277   0.527   6.636   3.746  1.2637 -0.7725 -0.7525
  954TIP3    H224278   0.631   6.551   3.815  1.4875  0.9430  1.1378
  955TIP3   OH224279   4.930   0.632   0.943  0.1412  0.0746  0.0177
  955TIP3    H124280   4.875   0.568   0.898  2.8839 -2.3912 -0.1901
  955TIP3    H224281   4.931   0.602   1.034  1.1466  0.0126 -0.0008
  956TIP3   OH224282   1.833   6.323   0.998  0.8844  0.1927  0.2090
  956TIP3    H124283   1.753   6.336   0.946  2.3942  0.2372 -2.2685
  956TIP3    H224284   1.801   6.296   1.084 -1.8965  2.9224  0.2481
  957TIP3   OH224285   0.073   1.608   0.729  0.2627  0.3142  0.1009
  957TIP3    H124286   0.111   1.603   0.641 -0.3585 -1.6976 -0.1024
  957TIP3    H224287   0.119   1.541   0.779  1.0178  1.8356  1.5103
  958TIP3   OH224288   0.243   4.257   0.399 -0.0890 -0.2161  0.2392
  958TIP3    H124289   0.288   4.310   0.333 -0.9049  0.9656  0.6086
  958TIP3    H224290   0.254   4.167   0.368 -1.0423  0.3492 -1.9006
  959TIP3   OH224291   2.863   5.292   5.160  0.0463  0.2922  0.1016
  959TIP3    H124292   2.853   5.228   5.231  0.2672  0.0224 -0.1087
  959TIP3    H224293   2.780   5.289   5.113 -0.0256  0.3229  0.2248
  960TIP3   OH224294   4.352   5.548   4.112 -0.3946  0.0689 -0.7810
  960TIP3    H124295   4.420   5.607   4.080 -1.2058  1.3269 -0.2785
  960TIP3    H224296   4.395   5.463   4.119  0.8913  0.6556 -1.2634
  961TIP3   OH224297   2.350   6.158   1.247 -0.2397  0.4896 -0.6699
  961TIP3    H124298   2.289   6.222   1.283 -1.8593 -1.2286 -0.1737
  961TIP3    H224299   2.348   6.085   1.310  1.8728  0.1072 -0.9698
  962TIP3   OH224300   4.141   3.398   3.836  0.2873 -0.0176 -0.2322
  962TIP3    H124301   4.061   3.407   3.888 -0.4841  1.5971 -1.5855
  962TIP3    H224302   4.205   3.453   3.880  0.0029  0.3651 -0.2855
  963TIP3   OH224303   4.961   6.426   5.278 -0.1147 -0.1464  0.0658
  963TIP3    H124304   5.042   6.375   5.274 -0.4703 -0.8808  1.4747
  963TIP3    H224305   4.905   6.387   5.210  0.0199 -0.9176  0.3868
  964TIP3   OH224306   5.931   0.158   6.165 -0.1315 -0.8017  0.1239
  964TIP3    H124307   5.867   0.116   6.108  0.8866 -3.1924  0.6267
  964TIP3    H224308   5.883   0.179   6.245 -0.7541 -0.6432 -0.2851
  965TIP3   OH224309   6.110   0.984   0.083  0.4905  0.2905  0.2253
  965TIP3    H124310   6.090   0.908   0.029 -0.6555 -0.3177  1.4330
  965TIP3    H224311   6.148   0.947   0.163  3.4856  1.2437 -0.6450
  966TIP3   OH224312   0.062   3.365  11.457  0.2433 -0.0619  0.0760
  966TIP3    H124313   0.155   3.354  11.437  0.6819  2.5787  0.2359
  966TIP3    H224314   0.060   3.432  11.525 -1.7965  0.1738 -0.1510
  967TIP3   OH224315   3.284   5.205   1.846 -0.3444 -0.2325 -0.0331
  967TIP3    H124316   3.195   5.238   1.837  0.1993  1.0639 -0.8769
  967TIP3    H224317   3.335   5.256   1.783  1.0876 -0.6144  0.7881
  968TIP3   OH224318   1.369   4.394   3.491 -0.4340  0.2687  0.4647
  968TIP3    H124319   1.431   4.393   3.418 -2.1327 -1.4799 -1.0336
  968TIP3    H224320   1.393   4.318   3.544  1.3080  1.9681  2.3161
  969TIP3   OH224321   3.418   2.524   4.725  0.0773 -0.2555  0.1691
  969TIP3    H124322   3.396   2.521   4.632  0.6495 -0.5540  0.0344
  969TIP3    H224323   3.441   2.615   4.742  1.0834 -0.4148 -0.2613
  970TIP3   OH224324   5.427   4.165   2.018 -0.2652  0.1739  0.1160
  970TIP3    H124325   5.399   4.243   2.065 -0.9073 -0.8497  1.5119
  970TIP3    H224326   5.442   4.100   2.087 -0.6689 -1.2153 -1.0595
  971TIP3   OH224327   6.657   0.964  12.119 -0.2002  0.2984  0.8181
  971TIP3    H124328   6.611   0.940  12.199 -0.1703  0.7824  0.9870
  971TIP3    H224329   6.640   0.892  12.059  1.1672 -0.8893  1.7980
  972TIP3   OH224330   1.887   6.631  15.433 -0.7563 -0.6204  0.0575
  972TIP3    H124331   1.822   6.563  15.454  1.4570 -2.4827  1.2586
  972TIP3    H224332   1.950   6.626  15.504  0.3850  1.5873 -0.7369
  973TIP3   OH224333   1.937   0.482   1.264  0.5254  0.2522 -0.2035
  973TIP3    H124334   2.030   0.463   1.255  0.4780  0.2522 -0.7673
  973TIP3    H224335   1.902   0.471   1.175  0.4263  2.5737 -0.5148
  974TIP3   OH224336   3.605   3.305  14.498  0.3807 -0.3186 -0.3145
  974TIP3    H124337   3.522   3.266  14.472 -0.9209  1.1337  1.3885
  974TIP3    H224338   3.646   3.240  14.555  0.1899 -0.8333 -0.7558
  975TIP3   OH224339   0.899   2.077   2.698  0.1476 -0.4643  0.3453
  975TIP3    H124340   0.931   1.987   2.689  1.3952 -0.1420  1.2042
  975TIP3    H224341   0.916   2.099   2.790 -0.5120  0.5200  0.2471
  976TIP3   OH224342   3.266   0.772  12.639 -0.7658 -0.1420 -0.4043
  976TIP3    H124343   3.210   0.845  12.614 -0.0741  0.9493  1.0651
  976TIP3    H224344   3.307   0.800  12.721 -0.3092 -2.0981  0.0933
  977TIP3   OH224345   2.525   5.984  15.082 -0.0969 -0.2090  0.5237
  977TIP3    H124346   2.580   5.917  15.124 -2.0827 -1.9940  0.5046
  977TIP3    H224347   2.495   5.942  15.001 -1.5632  0.6102  0.6136
  978TIP3   OH224348   4.682   3.116   3.031  0.0960 -0.1994  0.0001
  978TIP3    H124349   4.662   3.145   2.942 -0.1336  0.3668  0.2321
  978TIP3    H224350   4.597   3.092   3.068  0.0630  0.4897  0.3854
  979TIP3   OH224351   5.169   1.168  12.514 -0.2330  0.2204  0.1537
  979TIP3    H124352   5.178   1.181  12.420 -0.3319  1.6011  0.3145
  979TIP3    H224353   5.209   1.246  12.553 -0.5408 -0.1474  1.2384
  980TIP3   OH224354   5.002   4.896   1.564 -0.2772  0.6737  0.1020
  980TIP3    H124355   5.010   4.856   1.651  3.2546  2.6472  0.8903
  980TIP3    H224356   4.942   4.839   1.516  1.7309 -3.5676  2.1591
  981TIP3   OH224357   6.549   1.428  13.429  0.1367  0.1099  0.3180
  981TIP3    H124358   6.571   1.446  13.338  0.5099 -0.4631  0.2873
  981TIP3    H224359   6.542   1.514  13.470 -0.7498  0.4083 -0.4105
  982TIP3   OH224360   5.363   4.397   0.494 -0.6297  0.1597 -0.2650
  982TIP3    H124361   5.445   4.353   0.517 -0.9876 -1.4665 -1.8364
  982TIP3    H224362   5.362   4.476   0.547  0.9689 -0.8039  1.3008
  983TIP3   OH224363   0.957   3.252  15.282 -0.0552  0.1133 -0.3842
  983TIP3    H124364   0.948   3.279  15.373 -0.6570 -1.0495 -0.0791
  983TIP3    H224365   0.916   3.166  15.278 -2.1988  1.1043 -2.2399
  984TIP3   OH224366   5.857   6.782   1.371 -0.1792  0.0825 -0.7326
  984TIP3    H124367   5.950   6.802   1.384 -0.2285 -0.6899  1.1236
  984TIP3    H224368   5.827   6.750   1.456 -1.9300 -0.5783 -1.5444
  985TIP3   OH224369   3.207   5.616   2.708  0.6356  0.3570 -0.3133
  985TIP3    H124370   3.199   5.574   2.622 -1.9092  2.5638 -1.3277
  985TIP3    H224371   3.218   5.709   2.688  1.6699  0.7514  1.7929
  986TIP3   OH224372   3.141   0.975  13.333  0.3110 -0.0123 -0.5106
  986TIP3    H124373   3.049   0.951  13.322  0.3085 -0.3392  0.1388
  986TIP3    H224374   3.143   1.023  13.416  0.8870 -0.9737  0.0527
  987TIP3   OH224375   3.922   3.972  17.026  0.6280  0.1431 -0.0152
  987TIP3    H124376   3.901   4.053  16.980 -1.8144  0.5406  1.6408
  987TIP3    H224377   3.884   3.903  16.972  2.0144  0.1265 -1.0148
  988TIP3   OH224378   1.380   4.790   3.015  0.2398 -0.2050 -0.3926
  988TIP3    H124379   1.332   4.873   3.006  1.7926  0.6617 -1.0195
  988TIP3    H224380   1.375   4.750   2.928  1.3139  0.2812 -0.6909
  989TIP3   OH224381   0.469   1.982   1.695 -0.0004 -0.5481 -0.0550
  989TIP3    H124382   0.512   2.063   1.669  0.0867 -0.7572 -0.5802
  989TIP3    H224383   0.470   1.983   1.791  2.4031 -1.1775 -0.0128
  990TIP3   OH224384   6.103   1.236   1.508 -0.3277 -0.0350 -0.0753
  990TIP3    H124385   6.097   1.286   1.426  0.2668  1.0768  0.5399
  990TIP3    H224386   6.070   1.296   1.575  0.1687 -0.5572  0.6528
  991TIP3   OH224387   3.222   5.207  13.244  0.4212  0.4747 -0.8831
  991TIP3    H124388   3.304   5.183  13.288  0.7039  1.8887 -0.6153
  991TIP3    H224389   3.209   5.135  13.181  1.3020 -0.3121 -0.2167
  992TIP3   OH224390   4.437   5.823   3.259 -0.3230  0.3008 -0.1679
  992TIP3    H124391   4.446   5.903   3.207  1.2053 -0.3828 -1.0185
  992TIP3    H224392   4.394   5.761   3.200 -1.0075  0.2988  0.3102
  993TIP3   OH224393   2.386   1.397   0.165 -0.2674 -0.3513  0.1725
  993TIP3    H124394   2.360   1.406   0.073  0.4003  0.5533  0.0617
  993TIP3    H224395   2.307   1.367   0.210 -0.3961 -1.5651 -0.8185
  994TIP3   OH224396   4.237   0.979   1.428 -0.2824  0.6292 -0.1885
  994TIP3    H124397   4.204   0.943   1.345  0.8384 -0.2969 -0.2635
  994TIP3    H224398   4.321   1.020   1.404  2.3946 -3.4927  1.0642
  995TIP3   OH224399   6.088   3.629  11.324  0.6239 -0.1325 -0.2928
  995TIP3    H124400   6.110   3.679  11.245  2.6787 -0.4803  0.0029
  995TIP3    H224401   6.004   3.589  11.304  1.7761 -1.4711 -2.9783
  996TIP3   OH224402   4.052   1.315  11.781  0.0677 -0.0268  0.3122
  996TIP3    H124403   4.064   1.410  11.788  1.7327 -0.2542  0.8086
  996TIP3    H224404   4.061   1.297  11.688 -1.1657  0.3929  0.0896
  997TIP3   OH224405   0.285   1.803   2.885 -0.2009  0.1244  0.3686
  997TIP3    H124406   0.330   1.763   2.811 -1.3284  1.2446 -0.9663
  997TIP3    H224407   0.355   1.832   2.943  0.7438  0.4403 -0.8993
  998TIP3   OH224408   4.186   5.837  11.194 -0.3118  0.2539 -0.1200
  998TIP3    H124409   4.168   5.744  11.180  1.0792  0.2675 -2.8505
  998TIP3    H224410   4.149   5.879  11.116  2.0779  1.4796 -0.6800
  999TIP3   OH224411   4.706   1.061   1.927  1.0463  0.7084  0.1473
  999TIP3    H124412   4.728   1.141   1.974 -1.2053  1.1367  0.5825
  999TIP3    H224413   4.655   1.091   1.852  0.3936 -0.2839  0.1794
 1000TIP3   OH224414   6.122   4.403  16.605  0.2445 -0.5504  0.0269
 1000TIP3    H124415   6.076   4.429  16.525  0.3316 -0.4724  0.0004
 1000TIP3    H224416   6.173   4.326  16.579 -0.6879 -1.2848  0.3160
 1001TIP3   OH224417   4.557   4.091   4.371  0.1334  0.4691  0.3363
 1001TIP3    H124418   4.593   4.008   4.402  0.2962  0.4350  0.0600
 1001TIP3    H224419   4.576   4.153   4.441  0.4096  0.3735  0.3459
 1002TIP3   OH224420   3.889   3.279  16.092 -0.0641  0.6803  0.0596
 1002TIP3    H124421   3.928   3.357  16.132  0.0909  0.5942  0.0738
 1002TIP3    H224422   3.796   3.285  16.115  0.3165 -0.3719  2.0593
 1003TIP3   OH224423   3.774   3.628   5.560  0.1761 -0.3763  0.1981
 1003TIP3    H124424   3.750   3.581   5.481 -1.3926  1.9998 -0.8429
 1003TIP3    H224425   3.711   3.598   5.626 -0.3442 -0.2999 -0.2537
 1004TIP3   OH224426   6.782   3.832  17.115  0.0751  0.1825  0.0353
 1004TIP3    H124427   6.764   3.864  17.027 -3.5285 -0.9741  0.1527
 1004TIP3    H224428   6.792   3.911  17.168 -3.6690  1.2200 -0.5068
 1005TIP3   OH224429   3.725   2.327   1.852  0.4460 -0.1437 -0.4074
 1005TIP3    H124430   3.738   2.407   1.904 -0.1926 -0.1028 -0.3018
 1005TIP3    H224431   3.791   2.332   1.783  1.1385 -0.0647  0.2403
 1006TIP3   OH224432   5.895   1.773  11.800 -0.1506  0.5609  0.0732
 1006TIP3    H124433   5.862   1.730  11.878  1.0786  0.0900  0.3485
 1006TIP3    H224434   5.837   1.848  11.788 -0.4414  0.5620  1.3571
 1007TIP3   OH224435   5.012   1.261   3.632  0.1409 -0.2052  0.6510
 1007TIP3    H124436   5.033   1.338   3.579 -0.7167 -0.4908 -0.1396
 1007TIP3    H224437   4.965   1.297   3.708  1.2849  0.1969  1.1846
 1008TIP3   OH224438   5.096   0.385  12.586 -0.2500 -0.0663  0.0587
 1008TIP3    H124439   5.086   0.315  12.521 -1.8337 -0.8042  1.0081
 1008TIP3    H224440   5.111   0.464  12.535 -2.3513 -0.4616 -1.3202
 1009TIP3   OH224441   0.664   5.595   3.225  0.7084 -0.2145 -0.2209
 1009TIP3    H124442   0.630   5.541   3.297  1.4304 -0.3261  0.0508
 1009TIP3    H224443   0.632   5.683   3.245  0.7605 -0.2747  0.1462
 1010TIP3   OH224444   4.615   1.660   3.250 -0.0010 -0.0427 -0.1351
 1010TIP3    H124445   4.579   1.633   3.335 -0.4033 -0.2536 -0.3691
 1010TIP3    H224446   4.686   1.597   3.233  0.1371  0.0523  0.0832
 1011TIP3   OH224447   3.966   2.218   4.893  0.4759  0.3530  0.7372
 1011TIP3    H124448   4.049   2.172   4.907 -1.0286 -2.0407  2.8340
 1011TIP3    H224449   3.937   2.191   4.806 -0.0109 -2.3321  1.6237
 1012TIP3   OH224450   0.246   6.294  13.119  0.2754  0.0347 -0.6961
 1012TIP3    H124451   0.278   6.372  13.073  1.2795  0.0789  0.0562
 1012TIP3    H224452   0.306   6.282  13.192 -1.5399  0.2046  0.8869
 1013TIP3   OH224453   1.935   3.458   3.339 -0.8160  0.2399  0.1670
 1013TIP3    H124454   1.941   3.372   3.297 -0.0542  1.2302 -1.9034
 1013TIP3    H224455   2.026   3.483   3.354 -0.8734  1.7160 -1.6124
 1014TIP3   OH224456   2.756   0.349   2.335  0.1130  0.0434 -0.5344
 1014TIP3    H124457   2.682   0.409   2.323  0.1253  0.3295  0.6979
 1014TIP3    H224458   2.814   0.367   2.261 -0.5264  0.6026 -0.9073
 1015TIP3   OH224459   6.102   1.512  11.300 -0.2935  0.1467  0.2489
 1015TIP3    H124460   6.189   1.543  11.273  0.6297  0.2569  3.0148
 1015TIP3    H224461   6.117   1.424  11.333 -1.7583 -0.8310 -1.4842
 1016TIP3   OH224462   0.228   3.652  14.328  0.1257 -0.1846  0.0339
 1016TIP3    H124463   0.254   3.593  14.399  1.7460 -0.7974 -1.0222
 1016TIP3    H224464   0.309   3.697  14.303 -0.8793  1.8169  0.1595
 1017TIP3   OH224465   2.983   4.769   1.299  0.0326  0.7359 -0.1324
 1017TIP3    H124466   2.998   4.800   1.210  1.8182  0.0188 -0.1151
 1017TIP3    H224467   3.047   4.699   1.312 -1.0199 -0.0118  1.3035
 1018TIP3   OH224468   2.659   1.439  12.794  0.0128  0.4400  0.1225
 1018TIP3    H124469   2.744   1.472  12.822  0.7993 -0.3089 -1.2625
 1018TIP3    H224470   2.629   1.385  12.868  1.3514 -0.3413  0.1338
 1019TIP3   OH224471   1.280   4.382   5.262 -0.1188  0.3705  0.2358
 1019TIP3    H124472   1.298   4.288   5.261 -0.7093  0.2621 -0.2568
 1019TIP3    H224473   1.200   4.391   5.313 -0.5321  0.5204 -0.4305
 1020TIP3   OH224474   2.110   2.020   0.937 -0.3169 -0.6078 -0.1244
 1020TIP3    H124475   2.126   2.102   0.889 -0.1210 -0.6951 -0.2117
 1020TIP3    H224476   2.022   1.993   0.911 -1.4196  0.8712  1.7898
 1021TIP3   OH224477   1.324   3.921  16.010  0.6433 -0.0706 -0.1881
 1021TIP3    H124478   1.308   3.831  15.982 -1.4746  0.7385 -1.8223
 1021TIP3    H224479   1.316   3.973  15.930 -0.1577  1.7898  1.0370
 1022TIP3   OH224480   4.501   1.687   2.983  0.2181 -0.1908  0.3738
 1022TIP3    H124481   4.525   1.690   3.075  0.1528 -2.2605  0.4938
 1022TIP3    H224482   4.575   1.728   2.938  1.6921 -1.8547  1.1384
 1023TIP3   OH224483   4.456   0.524   4.530 -0.0917  0.3240 -0.1895
 1023TIP3    H124484   4.453   0.463   4.604 -0.1190  2.8235  2.0242
 1023TIP3    H224485   4.369   0.521   4.493 -0.1591 -0.8038  0.0218
 1024TIP3   OH224486   0.679   1.047   1.714 -0.3147 -0.1065 -0.6401
 1024TIP3    H124487   0.594   1.051   1.670 -0.1965  0.1836 -0.8413
 1024TIP3    H224488   0.742   1.031   1.645 -0.2466 -0.7760 -0.4348
 1025TIP3   OH224489   5.231   6.317  16.703 -0.4587 -0.0117 -0.1736
 1025TIP3    H124490   5.203   6.252  16.638 -0.4296  1.6816 -1.9706
 1025TIP3    H224491   5.186   6.397  16.677 -0.1138  0.8293  1.6917
 1026TIP3   OH224492   0.889   3.961   5.115 -0.2000  0.2529  0.3747
 1026TIP3    H124493   0.811   3.921   5.154 -0.4904 -0.0718 -0.5053
 1026TIP3    H224494   0.923   3.895   5.055 -0.8555  1.3754 -1.3246
 1027TIP3   OH224495   0.445   5.496  14.831 -0.0301 -0.8424  0.3513
 1027TIP3    H124496   0.523   5.442  14.825 -0.1763 -1.0625  0.4271
 1027TIP3    H224497   0.452   5.539  14.916 -0.3548 -1.4251  0.6760
 1028TIP3   OH224498   2.585   1.616   0.304 -0.2818 -0.1774  0.3280
 1028TIP3    H124499   2.505   1.581   0.267  0.5381  0.0719 -1.8197
 1028TIP3    H224500   2.556   1.683   0.366 -1.7135  0.1417 -0.6533
 1029TIP3   OH224501   2.806   2.278  12.970  0.6364 -0.0928  0.2987
 1029TIP3    H124502   2.778   2.218  13.040  0.3503  0.0666  0.3204
 1029TIP3    H224503   2.894   2.247  12.947  0.5675 -0.4048  0.4406
 1030TIP3   OH224504   1.048   1.979  13.930 -0.0738 -0.3881  0.3840
 1030TIP3    H124505   0.981   2.039  13.899  3.1359  2.3345 -2.0298
 1030TIP3    H224506   1.056   1.998  14.024 -1.2891  0.6769  0.2926
 1031TIP3   OH224507   1.923   2.429  12.236  0.5914  0.6018 -0.1914
 1031TIP3    H124508   1.949   2.337  12.226 -0.6496  0.0649  1.1903
 1031TIP3    H224509   1.838   2.434  12.193  0.5486  1.0607 -0.0579
 1032TIP3   OH224510   0.932   3.828  12.592 -0.5102 -0.3425  0.3841
 1032TIP3    H124511   0.983   3.907  12.576 -1.1176 -0.1339 -0.6375
 1032TIP3    H224512   0.947   3.807  12.684 -1.0138  1.4387  0.8990
 1033TIP3   OH224513   2.162   2.381  12.773 -0.1281 -0.4904  0.2099
 1033TIP3    H124514   2.070   2.407  12.781  0.1023 -0.0201  1.6589
 1033TIP3    H224515   2.196   2.437  12.703 -1.0753 -1.1175 -0.7942
 1034TIP3   OH224516   2.432   0.050   5.500  0.7072 -0.3251  0.2076
 1034TIP3    H124517   2.355   0.095   5.464  1.3168 -1.1499 -2.3901
 1034TIP3    H224518   2.472   0.115   5.558 -0.4975  1.0963 -0.4542
 1035TIP3   OH224519   0.751   5.879  15.149  0.2087  0.1932  0.1187
 1035TIP3    H124520   0.834   5.838  15.124  0.3399  0.1169  0.6765
 1035TIP3    H224521   0.692   5.859  15.076  0.4738 -0.3705  0.0567
 1036TIP3   OH224522   4.308   0.752  14.600  0.0702  0.0290  0.0341
 1036TIP3    H124523   4.284   0.771  14.691  0.9507  0.9932  0.0781
 1036TIP3    H224524   4.380   0.690  14.607 -0.0237 -0.0862 -0.0157
 1037TIP3   OH224525   3.722   1.465  15.062  0.2193 -0.1172  0.3515
 1037TIP3    H124526   3.802   1.503  15.098  2.5260 -1.9146 -2.5338
 1037TIP3    H224527   3.693   1.528  14.996  1.0114 -0.8292 -0.6998
 1038TIP3   OH224528   4.052   4.672   1.065 -0.0241  0.2270  0.0290
 1038TIP3    H124529   4.135   4.625   1.070 -0.8498 -1.2615  0.4134
 1038TIP3    H224530   4.047   4.720   1.147  0.6271  0.6438 -0.1684
 1039TIP3   OH224531   3.865   3.148  11.813  0.6952 -0.0907 -0.0490
 1039TIP3    H124532   3.783   3.134  11.766  0.1773 -0.9626  1.0697
 1039TIP3    H224533   3.845   3.124  11.903  2.5899 -1.8252 -0.0304
 1040TIP3   OH224534   5.453   2.751  12.802 -0.1424 -0.5604  0.1880
 1040TIP3    H124535   5.442   2.704  12.719 -0.1386 -1.9132  0.9360
 1040TIP3    H224536   5.364   2.773  12.829 -0.1754 -0.5638  0.0830
 1041TIP3   OH224537   5.787   1.209  17.041 -0.4336  0.4778  0.2508
 1041TIP3    H124538   5.708   1.252  17.073 -0.7797  0.9778 -1.1917
 1041TIP3    H224539   5.776   1.117  17.067 -2.1982  0.2465 -1.1159
 1042TIP3   OH224540   3.728   0.606   2.305  0.2939  0.1448  0.5526
 1042TIP3    H124541   3.775   0.600   2.389 -0.5539 -0.5647  1.0060
 1042TIP3    H224542   3.779   0.551   2.246 -0.0510 -0.8246  1.1083
 1043TIP3   OH224543   0.904   2.601  16.130 -0.1374  0.3615 -0.5629
 1043TIP3    H124544   0.842   2.528  16.140  1.1803 -0.7007  0.1656
 1043TIP3    H224545   0.863   2.674  16.178 -0.8887 -0.2721 -0.2148
 1044TIP3   OH224546   4.563   5.841   0.757  0.3176  0.1812  0.0187
 1044TIP3    H124547   4.531   5.751   0.754 -0.5823  0.3835  1.9749
 1044TIP3    H224548   4.559   5.871   0.666 -0.1540 -1.4886 -0.5413
 1045TIP3   OH224549   5.006   5.200  11.113  0.3876 -0.2104  0.0959
 1045TIP3    H124550   4.951   5.276  11.132  1.0788  0.6741 -1.2601
 1045TIP3    H224551   5.055   5.225  11.035  0.6210 -2.0656 -0.4010
 1046TIP3   OH224552   1.670   5.017   4.555  0.4024  0.7548 -1.0438
 1046TIP3    H124553   1.636   4.930   4.535  4.0171 -0.2344 -3.8836
 1046TIP3    H224554   1.643   5.071   4.481  1.9723  0.7885 -1.6344
 1047TIP3   OH224555   1.980   5.595  15.928  0.2305 -0.8126 -0.8893
 1047TIP3    H124556   2.016   5.678  15.959 -3.6171  0.9899 -0.5917
 1047TIP3    H224557   1.995   5.596  15.834  2.6131 -1.2064 -0.5822
 1048TIP3   OH224558   4.340   0.908   1.685  0.3479  0.0918 -0.1271
 1048TIP3    H124559   4.287   0.940   1.612  0.2271 -0.4585 -0.2896
 1048TIP3    H224560   4.278   0.857   1.739  0.2755  1.0783  0.7434
 1049TIP3   OH224561   4.958   1.883   5.869  0.5519 -0.1421 -0.4190
 1049TIP3    H124562   4.996   1.876   5.956 -0.0014  1.4900 -0.0052
 1049TIP3    H224563   4.864   1.879   5.882  0.4594  0.1738 -0.9263
 1050TIP3   OH224564   2.530   5.108  11.201  0.0205  0.5682 -0.3512
 1050TIP3    H124565   2.626   5.102  11.209  0.0201  0.7633 -0.1942
 1050TIP3    H224566   2.499   5.106  11.291 -0.3243 -2.6308 -0.4390
 1051TIP3   OH224567   4.521   4.221  13.983  0.0490  0.2359 -0.2397
 1051TIP3    H124568   4.427   4.237  13.991 -0.1062 -0.8777  0.4899
 1051TIP3    H224569   4.561   4.305  14.002 -0.8045  0.6711 -0.3217
 1052TIP3   OH224570   5.329   3.779   5.032  0.2473 -0.8701 -0.4043
 1052TIP3    H124571   5.400   3.804   5.091  0.0890  0.3011 -0.6773
 1052TIP3    H224572   5.370   3.721   4.968  0.2247 -2.9418  1.3501
 1053TIP3   OH224573   1.757   5.116   0.309 -0.2776  0.5553 -0.1597
 1053TIP3    H124574   1.717   5.092   0.226  1.0008  2.1623 -1.3066
 1053TIP3    H224575   1.713   5.198   0.334  1.7388  2.0312 -1.1459
 1054TIP3   OH224576   5.674   4.739   4.470  0.2527  0.3114 -0.1754
 1054TIP3    H124577   5.734   4.668   4.494 -0.7007 -0.2517  0.6076
 1054TIP3    H224578   5.601   4.730   4.530 -0.4496  1.2252 -0.8647
 1055TIP3   OH224579   4.445   1.927   3.853 -0.3198  0.4106 -0.1952
 1055TIP3    H124580   4.476   1.841   3.824 -1.1276 -0.7026  1.9993
 1055TIP3    H224581   4.525   1.976   3.872  0.1789 -0.8341  1.0858
 1056TIP3   OH224582   4.463   0.135  16.709  0.0921 -0.0112 -0.1659
 1056TIP3    H124583   4.477   0.090  16.626 -2.0257  0.0576 -0.6277
 1056TIP3    H224584   4.375   0.173  16.701  0.1113  0.5860  1.8507
 1057TIP3   OH224585   1.781   3.241   2.810 -0.0677 -1.0003  0.4861
 1057TIP3    H124586   1.738   3.177   2.867  0.3994 -0.0838  1.9421
 1057TIP3    H224587   1.732   3.322   2.826  0.8287 -0.4522  0.4904
 1058TIP3   OH224588   1.975   5.189  14.264  0.0926 -0.4564 -0.0160
 1058TIP3    H124589   1.988   5.190  14.359 -2.5221  0.3730  0.4261
 1058TIP3    H224590   2.000   5.277  14.236  1.7728 -0.9943 -0.2866
 1059TIP3   OH224591   0.872   0.364   2.533 -0.1105  0.2846 -0.2722
 1059TIP3    H124592   0.809   0.345   2.602 -0.1843 -0.0584 -0.4302
 1059TIP3    H224593   0.886   0.458   2.538  1.3884  0.0169  1.4996
 1060TIP3   OH224594   0.744   1.836  16.337  0.0812 -0.2330 -0.2520
 1060TIP3    H124595   0.704   1.788  16.411  0.9995  0.0686  0.4584
 1060TIP3    H224596   0.748   1.771  16.267 -0.1921 -0.7261  0.1739
 1061TIP3   OH224597   3.555   4.299  12.390 -0.0132 -0.1049 -0.2135
 1061TIP3    H124598   3.489   4.297  12.321  2.1919 -1.5895 -2.4024
 1061TIP3    H224599   3.535   4.379  12.440 -1.4784  1.2293 -2.7595
 1062TIP3   OH224600   2.809   0.329   1.627  0.0296 -0.4888  0.1611
 1062TIP3    H124601   2.773   0.379   1.553 -0.4310 -0.1727  0.5909
 1062TIP3    H224602   2.870   0.267   1.587  2.5268  2.0167 -0.2337
 1063TIP3   OH224603   1.416   5.292  15.538 -0.3851 -0.8168 -0.1523
 1063TIP3    H124604   1.328   5.298  15.500 -0.0433 -2.5163 -1.3286
 1063TIP3    H224605   1.412   5.347  15.616 -2.0348  0.3498 -0.9936
 1064TIP3   OH224606   4.936   3.102   3.941 -0.5265  0.4637 -0.2644
 1064TIP3    H124607   4.962   3.143   3.859  1.0546  1.4788  0.6823
 1064TIP3    H224608   4.859   3.050   3.919 -0.6413  1.3696 -2.1994
 1065TIP3   OH224609   1.085   1.802  14.468 -0.2361 -0.7591  0.0597
 1065TIP3    H124610   1.144   1.748  14.520 -2.3085 -0.4144  3.0444
 1065TIP3    H224611   1.117   1.891  14.480 -0.1387 -0.7702 -0.1117
 1066TIP3   OH224612   1.862   1.560  11.321 -0.2032  0.8682 -0.6623
 1066TIP3    H124613   1.786   1.580  11.265  0.4004  1.6607 -1.2140
 1066TIP3    H224614   1.937   1.567  11.262  0.4969  2.2583  0.3598
 1067TIP3   OH224615   5.073   5.638  15.469 -0.3325  0.1277  0.2799
 1067TIP3    H124616   4.996   5.661  15.521  0.3502  0.2549  1.2764
 1067TIP3    H224617   5.125   5.582  15.527  0.2897 -0.0141 -0.3950
 1068TIP3   OH224618   3.775   2.903   4.228 -0.1788 -0.3262  0.6495
 1068TIP3    H124619   3.716   2.978   4.235  1.7207  1.0947  2.0033
 1068TIP3    H224620   3.792   2.895   4.134 -0.6850  0.6882  0.4616
 1069TIP3   OH224621   0.120   1.765  13.642  0.8806 -0.0713  0.1244
 1069TIP3    H124622   0.041   1.730  13.601  0.4050  1.8125 -0.6597
 1069TIP3    H224623   0.122   1.725  13.729  0.4310 -2.0491 -0.7108
 1070TIP3   OH224624   5.481   5.662  11.767 -0.2066  0.0792  0.1742
 1070TIP3    H124625   5.557   5.720  11.773  0.3368 -0.6508  0.4908
 1070TIP3    H224626   5.514   5.576  11.793 -0.8105 -0.5455 -1.0417
 1071TIP3   OH224627   2.693   2.261   4.588  0.3647 -0.2299  0.0160
 1071TIP3    H124628   2.600   2.261   4.608  0.1360  0.0191 -0.9650
 1071TIP3    H224629   2.723   2.172   4.608 -0.1020 -0.3329  0.2559
 1072TIP3   OH224630   0.643   1.816   5.408 -0.2385 -0.1615 -0.0268
 1072TIP3    H124631   0.562   1.810   5.459  0.2876  0.5470  0.9324
 1072TIP3    H224632   0.712   1.823   5.474  0.6387 -0.9661 -0.8205
 1073TIP3   OH224633   2.923   2.597   0.103  0.9391  0.4172 -0.1739
 1073TIP3    H124634   2.980   2.645   0.162  1.1374 -1.1726  1.0089
 1073TIP3    H224635   2.974   2.520   0.077 -0.6520 -1.1562  1.0718
 1074TIP3   OH224636   0.011   0.175  12.072  0.2091  0.1393 -0.4408
 1074TIP3    H124637   0.037   0.234  12.000  1.3067  0.7097  0.3962
 1074TIP3    H224638  -0.002   0.233  12.147 -0.9359 -0.4527 -0.1589
 1075TIP3   OH224639   1.522   0.070  15.780  0.4037 -0.5910  0.1433
 1075TIP3    H124640   1.610   0.044  15.755  0.0669 -2.7262  0.9591
 1075TIP3    H224641   1.532   0.116  15.863  0.6971 -1.5789  0.6660
 1076TIP3   OH224642   3.564   1.731   4.988 -0.3450 -0.6349  0.0777
 1076TIP3    H124643   3.635   1.706   4.929  0.1363  0.3064  0.2528
 1076TIP3    H224644   3.518   1.649   5.005 -0.7735 -0.8621 -1.9637
 1077TIP3   OH224645   5.788   0.108   4.100  0.2433  0.0327  0.3201
 1077TIP3    H124646   5.744   0.129   4.182  1.4490 -0.2418  1.0558
 1077TIP3    H224647   5.857   0.046   4.124  0.5624 -0.1278 -0.9089
 1078TIP3   OH224648   1.915   2.807   4.542  0.6302  0.1589  0.1579
 1078TIP3    H124649   1.908   2.845   4.630 -0.6825  0.1460  0.0824
 1078TIP3    H224650   1.915   2.883   4.484  1.9884  0.1908  0.1707
 1079TIP3   OH224651   3.522   0.588  11.128 -0.2832 -0.3612 -0.0246
 1079TIP3    H124652   3.432   0.610  11.108 -0.4031 -1.1649 -0.4302
 1079TIP3    H224653   3.568   0.672  11.132 -0.6926 -0.0357 -1.5439
 1080TIP3   OH224654   0.773   5.950   2.093 -0.7879  0.0297 -0.3518
 1080TIP3    H124655   0.750   5.973   2.003 -0.5543 -1.3978 -0.8157
 1080TIP3    H224656   0.692   5.963   2.143 -1.2023 -0.1386 -0.9724
 1081TIP3   OH224657   6.653   0.221   2.255 -0.2291 -0.0503  0.0770
 1081TIP3    H124658   6.624   0.165   2.183 -0.7372 -0.4891  0.6156
 1081TIP3    H224659   6.686   0.160   2.321  0.2638  0.3512  0.2108
 1082TIP3   OH224660   4.683   4.983   1.345  0.0111 -0.0218 -0.1780
 1082TIP3    H124661   4.683   5.067   1.392  0.6419  0.3573 -0.8459
 1082TIP3    H224662   4.727   5.002   1.262  0.0231 -0.9806 -0.3963
 1083TIP3   OH224663   3.131   2.302  13.966 -0.0498  0.0469  0.0871
 1083TIP3    H124664   3.210   2.256  13.939 -0.1820 -0.0556 -0.1290
 1083TIP3    H224665   3.104   2.350  13.887  0.8389  1.5763  0.6655
 1084TIP3   OH224666   4.413   4.351   1.141 -0.2641  0.3986 -0.3280
 1084TIP3    H124667   4.355   4.327   1.213  2.2788 -1.2233  1.3362
 1084TIP3    H224668   4.386   4.293   1.069 -0.0253 -1.1842  0.7891
 1085TIP3   OH224669   1.046   4.416  16.408 -0.8580 -0.3938  0.2687
 1085TIP3    H124670   1.026   4.322  16.402  0.7855 -0.7234 -0.7084
 1085TIP3    H224671   1.141   4.419  16.419 -0.7831  1.1737 -0.5483
 1086TIP3   OH224672   5.131   6.191   5.576 -0.4737 -0.1486  0.7759
 1086TIP3    H124673   5.192   6.259   5.605 -0.3651  0.1800 -0.1700
 1086TIP3    H224674   5.048   6.237   5.562 -0.3134 -0.1239 -0.1883
 1087TIP3   OH224675   4.316   0.463   0.003 -0.0370  0.3676 -0.0624
 1087TIP3    H124676   4.270   0.514   0.070 -0.7553 -0.2244 -0.0985
 1087TIP3    H224677   4.350   0.387   0.050 -0.0455  0.2461 -0.2533
 1088TIP3   OH224678   3.699   1.225   4.902 -0.2259 -0.1418 -0.6295
 1088TIP3    H124679   3.680   1.166   4.829  1.1823  0.3999 -1.4792
 1088TIP3    H224680   3.617   1.270   4.918 -1.0401 -1.5556 -0.6758
 1089TIP3   OH224681   4.613   5.366  15.712 -0.7247  0.1888  0.0195
 1089TIP3    H124682   4.545   5.299  15.707 -0.2530 -0.2631 -0.4968
 1089TIP3    H224683   4.576   5.440  15.664 -1.0808  0.1568  0.2364
 1090TIP3   OH224684   4.359   3.709   0.029 -0.2171 -0.3461  0.1694
 1090TIP3    H124685   4.267   3.719   0.002 -0.2527 -0.8602  0.0962
 1090TIP3    H224686   4.388   3.799   0.045 -0.5537 -0.1277 -0.3959
 1091TIP3   OH224687   3.305   1.956  13.454  0.0313  0.0356  0.1539
 1091TIP3    H124688   3.285   1.862  13.453 -0.9359  0.2297 -0.6164
 1091TIP3    H224689   3.375   1.967  13.389 -0.2839 -0.0652 -0.2013
 1092TIP3   OH224690   2.636   4.038   3.413  0.1877  0.1543 -0.3639
 1092TIP3    H124691   2.689   3.968   3.452  0.4975 -0.3535 -1.6223
 1092TIP3    H224692   2.698   4.109   3.397  0.0526  0.3788  0.1031
 1093TIP3   OH224693   5.070   5.573  14.985 -0.2948 -0.0315 -0.5549
 1093TIP3    H124694   5.047   5.621  15.064  0.8155  2.5346 -1.6707
 1093TIP3    H224695   4.991   5.573  14.932  0.0781  2.0532 -1.1933
 1094TIP3   OH224696   4.833   6.160  12.127 -0.4521 -0.0381  0.6841
 1094TIP3    H124697   4.802   6.242  12.089 -0.1953  0.1105  0.7946
 1094TIP3    H224698   4.753   6.116  12.157 -0.9515 -1.1664 -1.9595
 1095TIP3   OH224699   2.424   4.430   3.944  0.2644 -0.1002  0.1133
 1095TIP3    H124700   2.407   4.523   3.932 -0.5708 -0.2288  0.2357
 1095TIP3    H224701   2.454   4.423   4.035 -1.1221 -0.1289  0.5885
 1096TIP3   OH224702   6.629   5.358   6.071 -0.3252 -0.1136  0.1064
 1096TIP3    H124703   6.606   5.277   6.026 -1.1612 -0.1192  0.5338
 1096TIP3    H224704   6.687   5.329   6.142  0.0909 -0.2292 -0.2732
 1097TIP3   OH224705   0.245   4.701  14.391 -0.0300 -0.0960 -0.2683
 1097TIP3    H124706   0.266   4.634  14.326 -0.2173 -0.4803  0.0639
 1097TIP3    H224707   0.167   4.667  14.435 -0.4226  0.5728 -0.4320
 1098TIP3   OH224708   6.197   5.712  12.211 -0.3393  0.3077 -0.7329
 1098TIP3    H124709   6.150   5.705  12.127  0.2296  3.8383 -1.4917
 1098TIP3    H224710   6.185   5.803  12.238  0.6259 -0.3814  2.3985
 1099TIP3   OH224711   3.540   1.848  10.599  0.0406  0.4282 -0.3556
 1099TIP3    H124712   3.515   1.915  10.536 -3.2265 -0.2481  0.0422
 1099TIP3    H224713   3.484   1.773  10.579 -0.9466  0.0520  3.0266
 1100TIP3   OH224714   5.178   4.000   5.451  0.5294  0.0608  0.0461
 1100TIP3    H124715   5.238   4.056   5.501  1.5816  0.5867 -1.7238
 1100TIP3    H224716   5.165   3.923   5.507  1.4452  0.7197  1.2212
 1101TIP3   OH224717   0.557   3.412   4.032 -0.0357 -0.3536 -0.9127
 1101TIP3    H124718   0.520   3.498   4.012  0.6048  0.3802  0.8602
 1101TIP3    H224719   0.563   3.368   3.947 -1.9441  0.6855 -1.6475
 1102TIP3   OH224720   2.807   0.586   5.592 -0.2375  0.2962 -0.0673
 1102TIP3    H124721   2.772   0.619   5.509 -0.6384 -0.1454 -0.0748
 1102TIP3    H224722   2.879   0.528   5.567 -0.3623  0.1584 -0.1091
 1103TIP3   OH224723   4.897   2.980   3.217 -0.8829  0.1538 -0.2650
 1103TIP3    H124724   4.838   3.031   3.161 -1.7268  1.3629  1.6123
 1103TIP3    H224725   4.974   2.965   3.163 -1.5878  1.3975 -1.7015
 1104TIP3   OH224726   3.556   3.074   4.548  0.1862 -0.5115  0.5525
 1104TIP3    H124727   3.502   3.140   4.505  2.3180  0.8002 -0.2800
 1104TIP3    H224728   3.585   3.017   4.477  0.0595 -1.0676  0.9477
 1105TIP3   OH224729   0.230   4.468   2.493  0.0714 -0.0170 -0.2980
 1105TIP3    H124730   0.309   4.433   2.450 -0.3732 -1.2302 -0.1571
 1105TIP3    H224731   0.256   4.557   2.520  1.4741 -0.4752 -0.0314
 1106TIP3   OH224732   2.263   0.148   1.646 -0.1331 -0.1283  0.1000
 1106TIP3    H124733   2.203   0.218   1.619  0.2660  0.4721  0.7681
 1106TIP3    H224734   2.228   0.117   1.729  0.8076  0.6248  0.7907
 1107TIP3   OH224735   0.443   2.293  13.174  0.0642  0.8725 -0.0286
 1107TIP3    H124736   0.483   2.367  13.130  0.1831  0.0138 -1.4277
 1107TIP3    H224737   0.517   2.242  13.207 -0.0113  1.2175  0.7058
 1108TIP3   OH224738   2.150   0.010   1.872 -0.8072  0.1851 -0.4264
 1108TIP3    H124739   2.069  -0.041   1.882 -0.0674 -0.8805  0.4214
 1108TIP3    H224740   2.204  -0.018   1.946  0.3253  0.8886 -0.9796
 1109TIP3   OH224741   0.303   3.876  11.510 -0.0372 -0.7476  0.1046
 1109TIP3    H124742   0.338   3.936  11.443  0.1604 -0.3302  0.5766
 1109TIP3    H224743   0.256   3.933  11.571 -0.5750 -1.1772  0.0966
 1110TIP3   OH224744   4.116   4.788  13.769 -0.2097 -0.0138 -0.4729
 1110TIP3    H124745   4.199   4.763  13.729 -0.4654  1.0063 -1.7528
 1110TIP3    H224746   4.136   4.867  13.819 -0.3907  0.2740 -0.8400
 1111TIP3   OH224747   4.155   6.060   1.944  0.4418  0.3404  0.6857
 1111TIP3    H124748   4.112   5.982   1.980 -0.4067 -0.3929 -1.7261
 1111TIP3    H224749   4.240   6.029   1.913  0.9873  0.8677  1.6083
 1112TIP3   OH224750   1.449   2.240  13.801 -0.0746 -0.1812  0.1947
 1112TIP3    H124751   1.410   2.264  13.885 -1.3705 -2.8331  0.4725
 1112TIP3    H224752   1.540   2.268  13.807 -0.5294  1.0841  1.8221
 1113TIP3   OH224753   2.618   4.054   4.532  0.0119 -0.0706 -0.3389
 1113TIP3    H124754   2.523   4.048   4.539  0.1011 -1.0238  0.1641
 1113TIP3    H224755   2.636   4.038   4.439 -0.3081  0.1240 -0.4384
 1114TIP3   OH224756   5.279   0.608  15.237 -0.1138  0.2864  0.5599
 1114TIP3    H124757   5.322   0.644  15.314  1.2844  0.0720 -0.0880
 1114TIP3    H224758   5.216   0.676  15.211 -0.0080  0.7151  1.4035
 1115TIP3   OH224759   5.447   2.209   2.794  0.1579  0.3551  0.2960
 1115TIP3    H124760   5.451   2.132   2.851 -0.4865  0.6596  0.7660
 1115TIP3    H224761   5.362   2.202   2.750  0.1508  0.7269  0.2457
 1116TIP3   OH224762   3.624   0.307   3.665 -0.0777 -0.2727  0.2403
 1116TIP3    H124763   3.699   0.254   3.690 -0.1677  0.3558  1.9642
 1116TIP3    H224764   3.641   0.394   3.702 -1.4485 -0.0150  0.3477
 1117TIP3   OH224765   2.956   4.332   2.492  0.2788  0.1625  0.1404
 1117TIP3    H124766   2.999   4.405   2.446 -0.8368 -1.0586 -3.1060
 1117TIP3    H224767   3.024   4.267   2.502  0.2912 -0.0257 -0.9788
 1118TIP3   OH224768   3.710   2.066   6.301 -0.1334 -0.0789 -0.0426
 1118TIP3    H124769   3.792   2.111   6.280  1.7149 -2.4438  1.5493
 1118TIP3    H224770   3.676   2.112   6.378 -0.9977  1.6174 -1.3678
 1119TIP3   OH224771   2.485   6.182  14.173 -0.2997 -0.2539  0.0261
 1119TIP3    H124772   2.447   6.100  14.203 -0.1410 -0.0760  0.7299
 1119TIP3    H224773   2.575   6.181  14.207 -0.0155 -0.1790 -0.6966
 1120TIP3   OH224774   5.220   6.092   1.963  1.0429 -0.8442 -0.0904
 1120TIP3    H124775   5.240   6.095   2.057  0.1446 -1.5678  0.1342
 1120TIP3    H224776   5.303   6.113   1.920  0.8845  2.3292  0.8671
 1121TIP3   OH224777   2.593   3.669  12.300 -0.4744 -0.0451 -0.4322
 1121TIP3    H124778   2.542   3.721  12.238 -2.1934 -2.4481 -1.1705
 1121TIP3    H224779   2.544   3.674  12.382 -2.2440 -2.5378 -1.1987
 1122TIP3   OH224780   3.337   3.086   5.371 -0.1187 -0.3051 -0.7099
 1122TIP3    H124781   3.261   3.056   5.421 -0.9152  0.8622 -1.1678
 1122TIP3    H224782   3.401   3.016   5.379 -0.1534 -0.1347  2.0942
 1123TIP3   OH224783   6.283   5.512  10.831 -0.0419  0.1756 -0.1928
 1123TIP3    H124784   6.337   5.581  10.792  0.6938 -0.8431 -1.0075
 1123TIP3    H224785   6.230   5.480  10.759 -2.2642  1.5769  0.7101
 1124TIP3   OH224786   4.574   2.326   2.488 -0.9619 -0.4506  0.1598
 1124TIP3    H124787   4.507   2.330   2.419 -1.5340 -0.4022  0.7051
 1124TIP3    H224788   4.578   2.415   2.522  0.5737 -0.0623 -0.9608
 1125TIP3   OH224789   3.289   1.785   0.491 -0.0807  0.1614  0.2409
 1125TIP3    H124790   3.310   1.877   0.509  1.3475 -0.0947 -0.0428
 1125TIP3    H224791   3.209   1.790   0.438 -0.8933  1.1575  1.4845
 1126TIP3   OH224792   5.935   3.569   5.815 -0.2483  0.1171  0.4014
 1126TIP3    H124793   5.913   3.584   5.907 -2.1614  0.8124 -0.1216
 1126TIP3    H224794   5.970   3.653   5.785  0.1768 -0.0452  0.4457
 1127TIP3   OH224795   0.323   3.340   3.432  0.4164  0.6166 -0.0590
 1127TIP3    H124796   0.284   3.423   3.458 -1.2541 -0.2859  0.4616
 1127TIP3    H224797   0.331   3.290   3.513  1.7539  0.3960 -0.3115
 1128TIP3   OH224798   6.051   2.448  12.274  0.1384 -0.1852 -0.1764
 1128TIP3    H124799   6.116   2.378  12.279 -1.5092 -1.7392  1.1401
 1128TIP3    H224800   6.088   2.520  12.326  0.4624 -1.3698  1.2953
 1129TIP3   OH224801   1.818   2.878   0.708 -0.4694 -0.2610 -0.2917
 1129TIP3    H124802   1.759   2.952   0.693 -0.5180 -0.2593 -0.1035
 1129TIP3    H224803   1.904   2.918   0.724 -1.0300 -0.0204  2.7986
 1130TIP3   OH224804   3.352   3.355   0.253  0.6900  0.5056  0.6212
 1130TIP3    H124805   3.382   3.439   0.288 -0.3306  0.5483  1.4403
 1130TIP3    H224806   3.327   3.373   0.163  2.4242  0.6112  0.1112
 1131TIP3   OH224807   3.878   3.682   4.813  0.0549  0.4691  0.3154
 1131TIP3    H124808   3.927   3.729   4.881 -1.1851  0.5868  1.1614
 1131TIP3    H224809   3.881   3.741   4.737  2.3796 -0.1419 -0.1437
 1132TIP3   OH224810   3.518   5.226  12.115  0.2943 -0.0118 -0.0789
 1132TIP3    H124811   3.487   5.136  12.106  1.6817 -0.4032 -1.3356
 1132TIP3    H224812   3.539   5.254  12.026 -0.5290  1.7333  0.2220
 1133TIP3   OH224813   3.722   2.261  12.032 -0.4749 -0.0783  0.6291
 1133TIP3    H124814   3.777   2.306  11.967 -0.4937 -3.3688 -1.9298
 1133TIP3    H224815   3.776   2.190  12.065 -2.4018 -2.2948 -0.6160
 1134TIP3   OH224816   2.292   0.928  14.028  0.2178  0.4380  0.1593
 1134TIP3    H124817   2.334   1.009  14.000 -1.0171  0.7595 -0.8680
 1134TIP3    H224818   2.347   0.896  14.099  1.6664  1.2915 -0.5357
 1135TIP3   OH224819   0.828   3.379  14.878 -0.3436  0.3752 -0.0426
 1135TIP3    H124820   0.827   3.422  14.963 -0.8213 -0.2278  0.2626
 1135TIP3    H224821   0.761   3.425  14.827 -1.2728 -0.3619  0.4743
 1136TIP3   OH224822   1.790   5.724   2.760 -0.2569 -0.2051  0.3961
 1136TIP3    H124823   1.763   5.654   2.820  0.3483 -2.1098 -1.4194
 1136TIP3    H224824   1.885   5.713   2.753 -0.4467 -0.9455 -1.8707
 1137TIP3   OH224825   4.944   0.428   2.951  0.0271  0.2031  0.3533
 1137TIP3    H124826   5.025   0.377   2.941 -0.3635 -0.1806 -0.9500
 1137TIP3    H224827   4.927   0.425   3.045  1.6679  0.5146  0.7019
 1138TIP3   OH224828   4.776   2.915  15.102  0.0320 -0.3466 -0.2583
 1138TIP3    H124829   4.689   2.946  15.076 -0.0316 -0.4044 -0.1166
 1138TIP3    H224830   4.828   2.921  15.022 -0.5864 -2.1097 -0.8396
 1139TIP3   OH224831   1.650   1.213  14.762  0.5386 -0.0652 -0.0759
 1139TIP3    H124832   1.729   1.267  14.771  0.4658  0.1974 -0.9674
 1139TIP3    H224833   1.651   1.184  14.671  1.7806 -3.4592  0.8533
 1140TIP3   OH224834   6.123   1.840  12.805 -0.3313  0.4287  0.2155
 1140TIP3    H124835   6.042   1.892  12.803 -1.9331 -1.9011 -0.2781
 1140TIP3    H224836   6.103   1.764  12.751  1.8294 -0.7932  1.0235
 1141TIP3   OH224837   3.055   3.643  15.379 -0.2351  0.2150  0.3459
 1141TIP3    H124838   3.073   3.557  15.341 -4.3212 -0.9552  0.5877
 1141TIP3    H224839   3.096   3.705  15.320  2.1469 -1.8037 -0.2960
 1142TIP3   OH224840   2.985   4.260  16.725  0.3764  0.4157 -0.1380
 1142TIP3    H124841   3.026   4.182  16.687  0.0072 -0.7069  1.6625
 1142TIP3    H224842   2.943   4.229  16.805 -0.7656  2.2687  0.0412
 1143TIP3   OH224843   0.777   1.801   4.587  0.7536  0.2728  0.3260
 1143TIP3    H124844   0.749   1.799   4.495 -0.0497 -2.3409  0.5715
 1143TIP3    H224845   0.869   1.829   4.582  0.5681  0.7328 -1.2055
 1144TIP3   OH224846   2.113   0.467   0.868  0.0550  0.4311  0.0459
 1144TIP3    H124847   2.102   0.554   0.906 -0.1504  0.9117 -1.0697
 1144TIP3    H224848   2.179   0.479   0.799 -0.0763 -0.2601 -0.2139
 1145TIP3   OH224849   1.147   0.238   1.340 -0.2303  0.4833 -0.6020
 1145TIP3    H124850   1.056   0.229   1.369  0.1622 -1.8934  0.0734
 1145TIP3    H224851   1.179   0.315   1.388 -1.5931  0.7783 -0.1105
 1146TIP3   OH224852   3.267   6.743   3.452 -0.1860  0.3782 -0.2636
 1146TIP3    H124853   3.302   6.781   3.371 -2.2866  0.1139 -1.3701
 1146TIP3    H224854   3.184   6.704   3.426 -0.4806 -0.5419  1.8663
 1147TIP3   OH224855   2.423   0.974  10.662 -0.2070  0.4805 -0.0357
 1147TIP3    H124856   2.476   1.041  10.618 -2.0088  1.3152 -1.0372
 1147TIP3    H224857   2.452   0.891  10.624  0.4909  0.8891 -0.4211
 1148TIP3   OH224858   0.193   0.298  13.629  0.7773 -0.6628  0.5056
 1148TIP3    H124859   0.209   0.315  13.722  1.4257  0.3495  0.2329
 1148TIP3    H224860   0.280   0.286  13.591  0.5681 -0.3747 -0.0850
 1149TIP3   OH224861   4.653   4.596   5.023 -0.1932  0.7930 -0.3723
 1149TIP3    H124862   4.727   4.587   5.082 -0.4218 -0.4546 -0.2529
 1149TIP3    H224863   4.576   4.598   5.081 -0.3455  0.6923 -0.5704
 1150TIP3   OH224864   4.870   1.124   5.251  0.0357 -0.0574  0.4988
 1150TIP3    H124865   4.933   1.055   5.271  1.0302  0.7014  0.0570
 1150TIP3    H224866   4.862   1.174   5.333  0.5248  0.2431  0.3663
 1151TIP3   OH224867   4.542   5.867   0.040  0.3127 -0.0821  0.3261
 1151TIP3    H124868   4.529   5.962   0.048  1.7285  0.1040  0.6082
 1151TIP3    H224869   4.585   5.855  -0.044 -0.1734 -0.5194  0.1337
 1152TIP3   OH224870   1.002   4.372   0.982  0.3407  0.0307 -0.0854
 1152TIP3    H124871   0.935   4.307   0.961  0.7968 -0.2677 -0.6471
 1152TIP3    H224872   0.954   4.442   1.027 -0.5299  0.2690 -1.3220
 1153TIP3   OH224873   5.176   5.445  15.954  1.1911  0.3939 -0.2212
 1153TIP3    H124874   5.178   5.365  15.902 -0.6897  0.5925 -0.7044
 1153TIP3    H224875   5.143   5.417  16.040  2.5287  0.3572  0.3065
 1154TIP3   OH224876   5.653   0.848   6.106 -0.3421  0.4052 -0.0579
 1154TIP3    H124877   5.561   0.826   6.122 -0.2291 -0.0458 -0.0097
 1154TIP3    H224878   5.681   0.787   6.038 -0.3764  1.2714 -0.8531
 1155TIP3   OH224879   5.725   3.786  16.378 -0.3293  0.5623 -0.6762
 1155TIP3    H124880   5.711   3.843  16.302 -1.0548  2.4316  0.7653
 1155TIP3    H224881   5.752   3.846  16.448  0.6011 -1.1238  0.4847
 1156TIP3   OH224882   6.728   1.631   2.131 -0.1827 -0.0105  0.0662
 1156TIP3    H124883   6.687   1.710   2.095  0.1188  0.8257  1.4590
 1156TIP3    H224884   6.664   1.562   2.118 -0.1649  0.2882 -1.8248
 1157TIP3   OH224885   4.035   4.073  12.415  0.7796 -0.0259 -0.1687
 1157TIP3    H124886   3.979   4.145  12.385  1.1833 -0.1711 -1.3215
 1157TIP3    H224887   3.986   4.033  12.487 -0.2058  0.3898 -0.5904
 1158TIP3   OH224888   2.267   2.317  11.672 -0.3847 -0.0845  0.1959
 1158TIP3    H124889   2.353   2.353  11.651 -1.5293  1.9428 -1.3509
 1158TIP3    H224890   2.220   2.318  11.590 -2.8838  1.7616  1.5229
 1159TIP3   OH224891   5.851   6.421   1.611  0.6149 -0.6217 -0.1201
 1159TIP3    H124892   5.767   6.377   1.625  0.5033 -0.8369 -1.4069
 1159TIP3    H224893   5.896   6.411   1.695 -0.7169 -0.2975  0.6769
 1160TIP3   OH224894   2.914   0.374  15.328 -0.4068  0.1928  0.2261
 1160TIP3    H124895   2.974   0.410  15.393 -1.3260  1.3252  0.4809
 1160TIP3    H224896   2.926   0.429  15.251 -2.4463  1.6688  0.9004
 1161TIP3   OH224897   4.506   0.257   2.912 -0.4449  0.0576  0.1397
 1161TIP3    H124898   4.593   0.235   2.878  0.4760  2.3885  0.7780
 1161TIP3    H224899   4.458   0.290   2.836 -0.0114  0.7457  0.1483
 1162TIP3   OH224900   2.823   2.694   2.711  0.1876  0.3957 -0.4277
 1162TIP3    H124901   2.830   2.759   2.781  0.2791  1.4184 -1.3701
 1162TIP3    H224902   2.740   2.713   2.668 -0.0684 -0.4949 -0.3461
 1163TIP3   OH224903   3.579   4.249  13.604 -0.5897 -0.2450  0.3523
 1163TIP3    H124904   3.520   4.219  13.534  0.5146 -1.1199 -0.2474
 1163TIP3    H224905   3.588   4.173  13.661  0.4818 -0.3599  0.0515
 1164TIP3   OH224906   0.430   5.425   2.310  0.0999 -0.5685 -0.1847
 1164TIP3    H124907   0.398   5.507   2.273  0.0975 -0.8606 -0.8569
 1164TIP3    H224908   0.493   5.392   2.245 -0.0267 -1.1751 -0.0103
 1165TIP3   OH224909   5.445   1.637  15.910 -0.0713  0.3390 -0.1529
 1165TIP3    H124910   5.358   1.658  15.944  0.4389  0.9998  0.7689
 1165TIP3    H224911   5.428   1.604  15.822 -1.0948  2.5576 -0.8562
 1166TIP3   OH224912   5.694   3.108   1.099 -0.0968 -0.0295 -0.1960
 1166TIP3    H124913   5.623   3.134   1.041  0.5840  0.9661 -0.6065
 1166TIP3    H224914   5.659   3.121   1.187 -0.4404  0.4085 -0.3936
 1167TIP3   OH224915   6.221   2.168  12.073  0.4046 -0.0108  0.4450
 1167TIP3    H124916   6.135   2.144  12.107  0.2208  2.0158  1.5915
 1167TIP3    H224917   6.214   2.158  11.978 -1.6094  1.5225  0.3791
 1168TIP3   OH224918   0.385   2.481  16.947 -0.8514 -0.3723 -0.1404
 1168TIP3    H124919   0.333   2.400  16.937 -0.7528 -0.6494  1.3958
 1168TIP3    H224920   0.464   2.465  16.895 -0.0647 -1.9879  1.4267
 1169TIP3   OH224921   0.371   5.274  12.053  0.3795  0.0826 -0.5452
 1169TIP3    H124922   0.389   5.272  12.147  0.5922  1.7449 -0.5276
 1169TIP3    H224923   0.357   5.366  12.033 -4.4134 -0.5666 -1.2897
 1170TIP3   OH224924   4.077   4.880   1.749 -0.6002 -0.3658  0.4961
 1170TIP3    H124925   4.017   4.866   1.676 -0.3551  0.0569  0.2049
 1170TIP3    H224926   4.149   4.931   1.711 -1.8201  2.4446  1.6224
 1171TIP3   OH224927   2.976   1.897   2.356  0.3794  0.1214 -0.2678
 1171TIP3    H124928   3.038   1.825   2.347  0.6455  0.4400 -1.1005
 1171TIP3    H224929   3.018   1.970   2.312  0.4491  1.0227  1.2178
 1172TIP3   OH224930   4.422   5.061  11.985 -0.0783  0.2720  0.5166
 1172TIP3    H124931   4.427   5.051  11.890 -0.4343 -0.3416  0.5525
 1172TIP3    H224932   4.329   5.071  12.003 -0.2161 -1.3769  0.9373
 1173TIP3   OH224933   3.669   6.676   6.036  0.0003  0.2705 -0.6472
 1173TIP3    H124934   3.664   6.706   6.127  0.3632  0.6514 -0.7486
 1173TIP3    H224935   3.700   6.586   6.042  0.0838  0.3149 -0.3943
 1174TIP3   OH224936   5.497   6.647  14.600  0.4056 -0.6400 -0.1568
 1174TIP3    H124937   5.453   6.644  14.515 -1.7725  1.9702  0.7490
 1174TIP3    H224938   5.446   6.588  14.655  1.6571 -2.1165 -0.4642
 1175TIP3   OH224939   6.298   2.938   0.220 -1.2931 -0.0571  0.0203
 1175TIP3    H124940   6.300   2.941   0.124  0.9269 -2.4212 -0.0933
 1175TIP3    H224941   6.288   2.846   0.242  0.0056  0.2098  2.0445
 1176TIP3   OH224942   5.412   3.194  13.491  0.3194  0.4326 -0.6630
 1176TIP3    H124943   5.377   3.265  13.545  0.1063 -0.6292  0.6743
 1176TIP3    H224944   5.364   3.199  13.409 -0.6104  1.0481 -0.0961
 1177TIP3   OH224945   2.554   3.889  14.283 -1.0502  0.2372  0.2345
 1177TIP3    H124946   2.611   3.836  14.338 -0.5579 -0.4823 -0.9239
 1177TIP3    H224947   2.610   3.960  14.252 -0.2769 -1.2839 -2.0978
 1178TIP3   OH224948   4.228   4.519  17.036  0.0522 -0.5576  0.2195
 1178TIP3    H124949   4.242   4.611  17.061  1.7932  0.0352 -2.5155
 1178TIP3    H224950   4.142   4.498  17.072 -0.7227  2.3633  0.3661
 1179TIP3   OH224951   1.896   1.995   0.480 -0.1624 -0.6252 -0.2463
 1179TIP3    H124952   1.887   2.044   0.562  1.3987 -1.2578  0.3276
 1179TIP3    H224953   1.835   2.038   0.420 -1.8753 -0.5696  1.4185
 1180TIP3   OH224954   3.492   0.479   5.693  0.3891 -0.0079 -0.2775
 1180TIP3    H124955   3.435   0.431   5.632 -0.3813  0.2651  0.2041
 1180TIP3    H224956   3.564   0.511   5.639 -0.3631  0.3647 -1.0923
 1181TIP3   OH224957   0.064   0.586   3.820 -0.4895  0.4103 -0.0318
 1181TIP3    H124958   0.146   0.622   3.853 -0.9245 -0.8012  2.6849
 1181TIP3    H224959   0.089   0.532   3.745  0.8072  2.0866 -0.8621
 1182TIP3   OH224960   6.012   6.700  11.757 -0.0777  0.1713  0.0788
 1182TIP3    H124961   5.976   6.678  11.671 -1.3521 -0.2775  0.6933
 1182TIP3    H224962   6.063   6.622  11.781 -0.6187 -0.1552  0.1896
 1183TIP3   OH224963   1.207   5.622  17.103 -0.1625 -0.6566  0.4037
 1183TIP3    H124964   1.251   5.610  17.188 -1.3881 -0.9866  1.0116
 1183TIP3    H224965   1.211   5.535  17.063  1.3743 -0.2597 -0.3831
 1184TIP3   OH224966   5.458   4.345   6.114  0.4546  0.5087  0.7786
 1184TIP3    H124967   5.497   4.390   6.188  0.8918  2.3156 -0.4742
 1184TIP3    H224968   5.402   4.411   6.072  1.2416 -0.0097 -1.2171
 1185TIP3   OH224969   2.693   3.486  16.844  0.0525  0.2614  0.4537
 1185TIP3    H124970   2.739   3.566  16.818 -2.2448  1.6489  0.3910
 1185TIP3    H224971   2.615   3.484  16.789 -0.6518 -1.3020  1.4310
 1186TIP3   OH224972   1.716   4.633  15.692 -0.5441  0.3333  0.2687
 1186TIP3    H124973   1.758   4.590  15.767 -0.7513  2.0442  1.4385
 1186TIP3    H224974   1.779   4.625  15.621 -0.4298 -1.5328  0.5394
 1187TIP3   OH224975   1.833   0.304   1.448  0.5248 -0.1113 -0.4186
 1187TIP3    H124976   1.737   0.304   1.449  0.4842 -1.8761 -1.1375
 1187TIP3    H224977   1.856   0.366   1.379 -0.0813  0.4118 -0.1636
 1188TIP3   OH224978   4.393   2.912  13.121  0.3026  0.9640 -0.9942
 1188TIP3    H124979   4.329   2.871  13.062 -0.5165 -0.6349  0.9231
 1188TIP3    H224980   4.473   2.862  13.107 -0.6277 -1.3207  1.1617
 1189TIP3   OH224981   2.455   2.257  13.769  0.3141  0.3280  0.3935
 1189TIP3    H124982   2.517   2.329  13.758 -0.1390  0.5728 -0.5922
 1189TIP3    H224983   2.510   2.178  13.768  0.5566  0.4913 -1.1945
 1190TIP3   OH224984   0.420   2.172  15.978  0.7717 -0.2601 -0.7674
 1190TIP3    H124985   0.448   2.196  16.067  0.8300  1.0949 -1.1392
 1190TIP3    H224986   0.325   2.177  15.980  0.7096 -1.2534 -0.5162
 1191TIP3   OH224987   4.002   6.462   1.819  0.1758 -0.0609  0.0619
 1191TIP3    H124988   4.095   6.465   1.798 -0.3374 -0.7936 -2.6156
 1191TIP3    H224989   3.960   6.428   1.740 -2.4782  1.0210  0.8959
 1192TIP3   OH224990   0.787   3.791   0.641 -0.2355  0.3897  0.3078
 1192TIP3    H124991   0.769   3.850   0.567 -0.2652 -0.1635 -0.1279
 1192TIP3    H224992   0.845   3.842   0.698  0.5958  0.4671 -0.5829
 1193TIP3   OH224993   1.368   2.283  10.869  0.0583 -0.6667 -0.0129
 1193TIP3    H124994   1.443   2.278  10.928  0.9097  0.1885 -0.9855
 1193TIP3    H224995   1.308   2.345  10.912  1.0291  0.5763 -0.3870
 1194TIP3   OH224996   1.260   3.959   3.959 -0.3852 -0.0235 -0.3115
 1194TIP3    H124997   1.273   3.893   4.027  0.8509  0.6023  0.0878
 1194TIP3    H224998   1.345   3.967   3.916 -0.8565  0.3934 -1.2153
 1195TIP3   OH224999   3.235   5.644  10.725 -0.4460 -0.0671  0.1887
 1195TIP3    H125000   3.312   5.691  10.693 -0.8375 -0.3848 -1.3101
 1195TIP3    H225001   3.196   5.703  10.790 -0.0421  0.9650 -0.4807
 1196TIP3   OH225002   5.671   0.485  11.103  0.2834 -1.1534 -0.3455
 1196TIP3    H125003   5.594   0.538  11.127  0.1115 -0.3883 -2.3925
 1196TIP3    H225004   5.655   0.458  11.013  2.2435 -1.2877 -0.7052
 1197TIP3   OH225005   1.827   0.131  12.404  0.2275 -0.4634 -0.2142
 1197TIP3    H125006   1.877   0.174  12.473 -0.0688  0.4699 -0.5650
 1197TIP3    H225007   1.883   0.059  12.375  2.3871  1.7881 -2.0495
 1198TIP3   OH225008   2.537   2.648  11.542 -0.1244  0.0263 -0.3394
 1198TIP3    H125009   2.466   2.655  11.606  1.3272  0.7842  1.2689
 1198TIP3    H225010   2.546   2.554  11.527 -0.8067 -0.1382  0.1929
 1199TIP3   OH225011   2.782   2.067   0.587 -0.5065  0.2843  0.1736
 1199TIP3    H125012   2.811   2.148   0.545  1.3282 -0.2637  0.2958
 1199TIP3    H225013   2.735   2.097   0.665  0.5302  1.2473  0.4606
 1200TIP3   OH225014   0.049   1.788  11.210 -0.1295  0.1031  0.7260
 1200TIP3    H125015   0.046   1.713  11.150 -3.0025 -0.7542  1.8027
 1200TIP3    H225016  -0.027   1.841  11.186  0.5206  1.4451  1.5326
 1201TIP3   OH225017   6.390   1.842  11.219  0.0801  0.0107  0.1356
 1201TIP3    H125018   6.479   1.857  11.188  0.4227 -2.6229 -0.3683
 1201TIP3    H225019   6.393   1.867  11.312  1.3950 -0.2396  0.1814
 1202TIP3   OH225020   6.044   1.602  12.350  0.2029 -0.2255  0.3501
 1202TIP3    H125021   5.970   1.543  12.365 -0.3278  0.5607  0.9081
 1202TIP3    H225022   6.121   1.546  12.358 -0.3172 -1.0432 -0.1658
 1203TIP3   OH225023   1.600   4.312   3.353  0.2648 -0.3691  0.2167
 1203TIP3    H125024   1.694   4.300   3.344  0.3115  0.6713 -1.0203
 1203TIP3    H225025   1.563   4.226   3.333  0.9113 -0.5361 -0.2818
 1204TIP3   OH225026   1.116   3.155   5.897 -0.0261 -0.5363 -0.1033
 1204TIP3    H125027   1.138   3.141   5.989 -1.9634  1.6532  0.8025
 1204TIP3    H225028   1.090   3.247   5.892 -3.4554 -1.4149 -2.0489
 1205TIP3   OH225029   0.789   0.114   1.106  0.3814 -0.4493 -0.7235
 1205TIP3    H125030   0.791   0.103   1.201  2.5381 -2.0195 -0.8973
 1205TIP3    H225031   0.798   0.026   1.071  2.2726  0.3095 -2.3552
 1206TIP3   OH225032   4.389   2.991  14.204  0.4008 -0.2905 -0.1592
 1206TIP3    H125033   4.462   2.936  14.178  0.1037 -0.6386 -0.2722
 1206TIP3    H225034   4.392   3.066  14.143  0.8847 -0.1101  0.0825
 1207TIP3   OH225035   2.377   1.486   6.564  0.2737  0.0193 -0.7452
 1207TIP3    H125036   2.375   1.392   6.576  1.1351  0.2134  1.3794
 1207TIP3    H225037   2.458   1.514   6.607  0.0483  1.7421 -1.3396
 1208TIP3   OH225038   1.683   5.280   5.827  0.2520  0.2212 -0.5896
 1208TIP3    H125039   1.678   5.311   5.737 -1.6645  0.9929 -0.2676
 1208TIP3    H225040   1.683   5.184   5.820  0.1943  0.2808 -1.4234
 1209TIP3   OH225041   1.894   1.915   5.329 -0.0449 -0.1770  0.2888
 1209TIP3    H125042   1.874   1.826   5.358 -2.8097 -0.1541 -1.2053
 1209TIP3    H225043   1.976   1.907   5.281  0.7380 -1.5254  1.7426
 1210TIP3   OH225044   2.049   1.852  14.873 -0.2620 -0.5456  0.7378
 1210TIP3    H125045   1.988   1.832  14.802 -0.6097 -1.5127  1.2874
 1210TIP3    H225046   1.995   1.848  14.952  0.0258  0.9557  1.0313
 1211TIP3   OH225047   0.104   5.507  13.572  0.7950  0.0873  0.5953
 1211TIP3    H125048   0.063   5.466  13.649 -1.8891 -0.6693 -1.0981
 1211TIP3    H225049   0.134   5.433  13.519  2.7837  0.6075  0.9130
 1212TIP3   OH225050   6.344   0.773  13.137 -0.2546 -0.0229  0.2763
 1212TIP3    H125051   6.402   0.849  13.135  0.8996 -0.8544  0.8220
 1212TIP3    H225052   6.359   0.734  13.223  0.0533 -1.5130 -0.4233
 1213TIP3   OH225053   4.779   5.635  14.508  0.6351  0.7084 -0.6674
 1213TIP3    H125054   4.762   5.647  14.415  0.6772  0.4924 -0.7011
 1213TIP3    H225055   4.691   5.636  14.548  0.6824  2.3731 -0.5236
 1214TIP3   OH225056   0.957   4.714  12.410  0.3793  0.1081  0.0696
 1214TIP3    H125057   0.913   4.800  12.414 -0.6216 -0.4101  0.7302
 1214TIP3    H225058   0.943   4.684  12.320 -0.1942  0.1814  0.1281
 1215TIP3   OH225059   3.793   5.926  17.025 -0.5526  0.3652  0.2243
 1215TIP3    H125060   3.825   5.845  17.065  0.3193  1.0690  1.0113
 1215TIP3    H225061   3.703   5.934  17.056 -0.3071  0.2220  0.9910
 1216TIP3   OH225062   3.007   3.028  14.802 -1.0450 -0.2624 -0.5882
 1216TIP3    H125063   3.048   3.086  14.867 -0.0482 -0.2046 -1.2455
 1216TIP3    H225064   3.012   2.941  14.841 -3.1813  0.1210  0.7219
 1217TIP3   OH225065   1.718   4.300  10.682  0.3869 -0.5507 -0.2063
 1217TIP3    H125066   1.640   4.299  10.626  0.5128 -2.4923 -0.4120
 1217TIP3    H225067   1.686   4.275  10.769  0.6573 -0.6272 -0.1268
 1218TIP3   OH225068   2.559   3.969  12.885 -0.3968 -0.0181 -0.0160
 1218TIP3    H125069   2.561   3.992  12.978 -1.0832  2.9411 -0.6263
 1218TIP3    H225070   2.487   4.021  12.849 -0.5676 -1.5751 -2.1273
 1219TIP3   OH225071   5.375   0.834   6.115 -0.2845 -0.1376 -0.3077
 1219TIP3    H125072   5.337   0.921   6.106  0.3529  0.2584  0.6494
 1219TIP3    H225073   5.341   0.802   6.199  0.2014 -0.4327 -0.2197
 1220TIP3   OH225074   1.350   0.072  15.549 -0.4662  0.1081  0.6187
 1220TIP3    H125075   1.389   0.009  15.488 -0.3967 -0.1462  0.9294
 1220TIP3    H225076   1.409   0.074  15.624  0.9655  2.4199 -0.4311
 1221TIP3   OH225077   2.611   5.956   3.517 -0.3358 -0.1449 -0.4286
 1221TIP3    H125078   2.564   5.879   3.484  1.2442 -0.0246 -3.3382
 1221TIP3    H225079   2.651   5.927   3.598 -3.1048 -1.0520  0.7375
 1222TIP3   OH225080   6.662   1.606   1.828 -0.1978 -0.1750 -0.6213
 1222TIP3    H125081   6.701   1.674   1.882 -0.7160  0.0177 -0.4845
 1222TIP3    H225082   6.590   1.571   1.881 -1.6325  0.9816 -1.7168
 1223TIP3   OH225083   3.526   1.371  12.222  0.1305 -0.4717  0.2717
 1223TIP3    H125084   3.600   1.331  12.267  0.2191 -0.6168  0.0052
 1223TIP3    H225085   3.557   1.385  12.132  0.2749  0.6832  0.4873
 1224TIP3   OH225086   4.520   5.818  16.433 -0.7893 -0.1403  0.4347
 1224TIP3    H125087   4.451   5.865  16.480 -0.3066 -0.3862  1.4196
 1224TIP3    H225088   4.485   5.729  16.423 -0.4822 -0.3604  1.2509
 1225TIP3   OH225089   3.635   3.929  11.305  0.2740  0.2035  0.0452
 1225TIP3    H125090   3.655   3.949  11.396  1.0917 -1.0877  0.1739
 1225TIP3    H225091   3.707   3.969  11.256  0.0009  0.6253 -0.0207
 1226TIP3   OH225092   3.726   0.029  11.023  0.2323 -0.1400  0.7414
 1226TIP3    H125093   3.803  -0.018  10.990 -1.1835 -1.8918 -0.2785
 1226TIP3    H225094   3.704   0.090  10.952 -0.1987 -0.7166  0.3781
 1227TIP3   OH225095   6.526   2.158   5.441  0.2075  0.1306  0.1464
 1227TIP3    H125096   6.614   2.195   5.450 -0.2377  1.5932 -1.0823
 1227TIP3    H225097   6.477   2.224   5.392 -1.3541 -1.0234  0.0702
 1228TIP3   OH225098   3.609   0.764  10.623 -0.0217 -0.2523  0.2797
 1228TIP3    H125099   3.639   0.677  10.649 -1.1385 -1.2750 -1.5724
 1228TIP3    H225100   3.527   0.777  10.671 -0.3365 -0.6698 -0.1244
 1229TIP3   OH225101   6.167   3.283  13.908 -0.5160  0.2037 -0.1030
 1229TIP3    H125102   6.252   3.283  13.951  0.8629 -1.2750 -2.5634
 1229TIP3    H225103   6.120   3.208  13.946 -1.4292  1.9063  2.3451
 1230TIP3   OH225104   3.870   4.534   2.492 -0.0619 -0.2296 -0.4448
 1230TIP3    H125105   3.810   4.460   2.485  0.2911 -0.3405 -5.2845
 1230TIP3    H225106   3.949   4.498   2.532 -0.8439 -1.7300 -0.1910
 1231TIP3   OH225107   3.164   3.881   3.268  0.0625 -0.1992  0.2704
 1231TIP3    H125108   3.146   3.811   3.331  1.4000 -0.4557  0.3941
 1231TIP3    H225109   3.119   3.958   3.305 -1.7752 -1.0522 -0.0829
 1232TIP3   OH225110   3.664   2.691   2.061  0.4983 -0.0964  0.6644
 1232TIP3    H125111   3.666   2.756   2.131  0.3130 -0.2662  0.8299
 1232TIP3    H225112   3.728   2.625   2.088  1.4905  0.5567 -0.0420
 1233TIP3   OH225113   4.027   4.844  16.998  0.1892 -0.2318  0.5490
 1233TIP3    H125114   4.046   4.917  17.056 -0.4654 -1.5844  2.5930
 1233TIP3    H225115   4.004   4.884  16.914  4.1267  1.7258  0.1873
 1234TIP3   OH225116   1.357   0.551   2.304  0.5182  0.4309  0.4181
 1234TIP3    H125117   1.432   0.500   2.273  1.0321  1.7951 -0.7279
 1234TIP3    H225118   1.396   0.623   2.353 -0.1306  0.2841  1.1534
 1235TIP3   OH225119   6.022   0.208  13.977 -0.0371 -0.1362 -0.2913
 1235TIP3    H125120   6.117   0.199  13.981  0.1142  1.0720 -0.7899
 1235TIP3    H225121   5.990   0.118  13.964  1.0723 -0.4585 -0.9169
 1236TIP3   OH225122   1.727   4.498   2.324  0.3785 -0.2267  0.0100
 1236TIP3    H125123   1.683   4.583   2.324 -1.6291 -1.2114  0.3034
 1236TIP3    H225124   1.694   4.455   2.245  1.4619 -0.7009 -0.1920
 1237TIP3   OH225125   3.877   0.393  16.813 -0.4015  0.1518 -0.5250
 1237TIP3    H125126   3.863   0.338  16.737 -0.2970  1.2234 -1.3447
 1237TIP3    H225127   3.939   0.460  16.784  0.6022 -0.1227  0.8563
 1238TIP3   OH225128   4.595   6.299  12.244 -0.1725 -0.1108  0.0562
 1238TIP3    H125129   4.571   6.207  12.253 -2.1029  0.0593 -2.3523
 1238TIP3    H225130   4.512   6.345  12.235  0.8011  1.7045 -0.1445
 1239TIP3   OH225131   6.457   1.156   4.464  0.0369 -0.3152 -0.0434
 1239TIP3    H125132   6.375   1.153   4.513 -1.0453 -0.2114 -1.7666
 1239TIP3    H225133   6.480   1.249   4.463 -0.1960 -0.2579 -0.1348
 1240TIP3   OH225134   5.590   2.337   3.971  0.0785 -0.1418  0.2344
 1240TIP3    H125135   5.495   2.339   3.986  0.0876 -2.1940  0.9434
 1240TIP3    H225136   5.621   2.424   3.997 -1.5560  0.4295  0.3647
 1241TIP3   OH225137   3.382   4.670   1.846 -0.0588 -0.6874  0.1352
 1241TIP3    H125138   3.364   4.749   1.896  0.0745 -0.2015 -0.5763
 1241TIP3    H225139   3.459   4.632   1.889  0.5285  0.1357 -0.1583
 1242TIP3   OH225140   2.198   0.725  12.223  0.3735 -0.4472 -0.5737
 1242TIP3    H125141   2.169   0.639  12.194 -0.9573 -1.5939  3.4285
 1242TIP3    H225142   2.136   0.786  12.182 -0.4987 -1.7020 -1.1829
 1243TIP3   OH225143   4.045   4.505  16.611 -0.4237 -0.0201 -0.3393
 1243TIP3    H125144   4.091   4.434  16.567 -0.0023 -0.3580  0.6112
 1243TIP3    H225145   4.036   4.475  16.702 -0.5974  0.9689 -0.0184
 1244TIP3   OH225146   6.131   3.801   0.703  0.2463  0.2026 -0.1470
 1244TIP3    H125147   6.130   3.818   0.797 -1.7198  0.0052 -0.0908
 1244TIP3    H225148   6.157   3.709   0.696  1.5807  0.5410  0.1027
 1245TIP3   OH225149   0.014   3.211   2.306  0.4695  0.3842  0.1056
 1245TIP3    H125150   0.037   3.302   2.325 -0.6885  0.2603  2.3984
 1245TIP3    H225151  -0.048   3.217   2.233  2.1146  1.2197 -1.2846
 1246TIP3   OH225152   6.348   5.141   0.137  0.1561  0.0748 -0.0025
 1246TIP3    H125153   6.256   5.166   0.145 -0.0196 -0.7200  0.5342
 1246TIP3    H225154   6.392   5.222   0.111 -0.2823  1.1589  2.3626
 1247TIP3   OH225155   1.765   0.937   5.123 -0.0715  0.0721 -0.1836
 1247TIP3    H125156   1.733   1.018   5.161 -1.2711  0.0622 -1.1034
 1247TIP3    H225157   1.842   0.914   5.175 -0.9330  0.6808  1.4289
 1248TIP3   OH225158   6.732   1.345   5.536  0.5579 -0.2279 -0.8436
 1248TIP3    H125159   6.787   1.409   5.493 -0.2948  0.4762 -0.9028
 1248TIP3    H225160   6.645   1.385   5.540  0.1609 -1.0937 -0.2772
 1249TIP3   OH225161   1.745   3.074   1.919 -0.2239 -0.0764  0.1438
 1249TIP3    H125162   1.771   3.120   1.999  0.0528 -0.2439  0.1524
 1249TIP3    H225163   1.649   3.078   1.919 -0.2066  2.7226 -1.1626
 1250TIP3   OH225164   2.272   2.604  12.368 -0.5061  0.1420 -0.2407
 1250TIP3    H125165   2.275   2.698  12.350  0.2023  0.4547  1.3376
 1250TIP3    H225166   2.184   2.590  12.404 -0.5006  0.2685 -0.1760
 1251TIP3   OH225167   4.627   5.800  15.231  0.0497 -0.0710  0.0997
 1251TIP3    H125168   4.629   5.825  15.323  0.4460 -0.3732  0.1779
 1251TIP3    H225169   4.540   5.827  15.200  0.3078  1.0213  0.2804
 1252TIP3   OH225170   2.394   5.080   1.085  0.6547  0.3083  0.4683
 1252TIP3    H125171   2.420   5.124   1.166 -0.2762  0.7104  0.5529
 1252TIP3    H225172   2.333   5.141   1.043 -0.9012 -1.0117  0.7374
 1253TIP3   OH225173   6.064   5.665  16.211  0.1328  0.7054  0.6081
 1253TIP3    H125174   6.016   5.747  16.220  0.7303  1.0412  0.7216
 1253TIP3    H225175   6.152   5.691  16.185 -0.5061 -0.0193 -2.7767
 1254TIP3   OH225176   3.554   0.609  14.540  0.0920  0.7051 -0.1577
 1254TIP3    H125177   3.547   0.591  14.634  2.8920 -1.1570 -0.1668
 1254TIP3    H225178   3.573   0.702  14.534 -1.5398  1.1569  0.9651
 1255TIP3   OH225179   1.186   3.663   4.072 -0.6526 -0.6818  1.1003
 1255TIP3    H125180   1.261   3.639   4.017 -1.1216  0.0059  0.1217
 1255TIP3    H225181   1.145   3.580   4.096  0.5935 -1.0911  1.9295
 1256TIP3   OH225182   5.206   1.930  14.337 -0.1560  0.9601  0.2770
 1256TIP3    H125183   5.215   1.976  14.253  1.5688 -1.2836 -0.8575
 1256TIP3    H225184   5.235   1.994  14.402 -0.2596  2.3055 -0.9458
 1257TIP3   OH225185   2.617   4.650   2.517  0.2329  0.2656 -0.3975
 1257TIP3    H125186   2.596   4.621   2.429  0.4499  2.3958 -1.2189
 1257TIP3    H225187   2.589   4.742   2.519  0.6528  0.3915  1.6012
 1258TIP3   OH225188   6.592   6.168   4.030 -0.2533 -0.1943  0.0380
 1258TIP3    H125189   6.662   6.104   4.038 -1.0482 -0.8296  2.9944
 1258TIP3    H225190   6.625   6.246   4.076 -1.3042 -0.3883  1.1812
 1259TIP3   OH225191   4.784   5.517  10.479  0.9008  0.0362  0.1799
 1259TIP3    H125192   4.801   5.603  10.519  0.7746 -0.8486  2.2734
 1259TIP3    H225193   4.718   5.477  10.535 -0.3803 -0.7565 -1.7969
 1260TIP3   OH225194   2.589   0.403  13.017  0.1812  0.0213  0.7055
 1260TIP3    H125195   2.505   0.387  12.974  0.9369 -1.3462 -0.3378
 1260TIP3    H225196   2.565   0.443  13.101 -1.5090 -0.4170  0.4826
 1261TIP3   OH225197   1.250   3.163   0.816  0.0427 -0.3061  0.1948
 1261TIP3    H125198   1.247   3.086   0.873 -1.4253  2.2792  4.0932
 1261TIP3    H225199   1.158   3.184   0.800  0.3256  1.6249  0.8353
 1262TIP3   OH225200   0.743   5.050   1.524 -0.4340 -0.1828 -0.0692
 1262TIP3    H125201   0.691   5.055   1.604  1.2119  0.5486  0.9946
 1262TIP3    H225202   0.829   5.084   1.548  0.5953 -1.4081 -1.7547
 1263TIP3   OH225203   2.144   2.966   3.211 -0.1716 -0.3229  0.3783
 1263TIP3    H125204   2.122   2.914   3.134  3.7860 -1.9857  0.1450
 1263TIP3    H225205   2.236   2.945   3.229  1.8193  6.2429  0.5531
 1264TIP3   OH225206   4.770   6.098   2.955  0.2371 -0.7316  0.0706
 1264TIP3    H125207   4.765   6.160   3.029  1.7537  0.6640 -0.9090
 1264TIP3    H225208   4.864   6.094   2.935 -0.0978 -1.4856 -1.4397
 1265TIP3   OH225209   2.820   6.192  12.904  0.4679 -0.2159 -0.7807
 1265TIP3    H125210   2.911   6.183  12.876  1.7059  0.9332  2.4814
 1265TIP3    H225211   2.809   6.123  12.970 -0.6147  0.4794 -0.2165
 1266TIP3   OH225212   6.731   2.064   5.006  0.4348 -0.2072 -0.7130
 1266TIP3    H125213   6.713   2.036   5.096 -0.6877 -0.6179 -1.0514
 1266TIP3    H225214   6.792   2.137   5.016  0.2003 -0.1411  0.3946
 1267TIP3   OH225215   2.707   4.722  11.232  0.4975  0.0016  0.0291
 1267TIP3    H125216   2.672   4.753  11.149 -0.8942 -0.1116  0.5449
 1267TIP3    H225217   2.757   4.797  11.266  1.7310 -0.2113 -1.2325
 1268TIP3   OH225218   5.072   3.147   1.473 -0.0623 -0.3677 -0.4305
 1268TIP3    H125219   4.993   3.186   1.511 -0.0238 -1.2991  0.6808
 1268TIP3    H225220   5.040   3.080   1.412 -0.1240  1.0690 -2.0352
 1269TIP3   OH225221   6.509   2.902   4.192 -0.1767 -0.5297  0.5203
 1269TIP3    H125222   6.512   2.823   4.245  0.7241  0.0056  1.2948
 1269TIP3    H225223   6.590   2.948   4.213 -1.0447  0.9788  0.6779
 1270TIP3   OH225224   5.300   3.189   2.502 -0.4697  0.4457 -0.4355
 1270TIP3    H125225   5.260   3.256   2.557 -1.7653 -1.7027  1.4363
 1270TIP3    H225226   5.394   3.206   2.508 -0.7358  1.7238  0.4803
 1271TIP3   OH225227   1.925   1.837   2.787  0.6890  0.1868 -0.0503
 1271TIP3    H125228   1.907   1.857   2.879 -0.4558  1.2659 -0.4807
 1271TIP3    H225229   1.873   1.901   2.738  2.0972  0.3315 -1.4419
 1272TIP3   OH225230   4.050   6.396   5.087  0.0561 -0.5484 -0.2612
 1272TIP3    H125231   4.145   6.408   5.093  0.0552 -1.0042  0.8095
 1272TIP3    H225232   4.015   6.437   5.166 -0.8129  1.1247 -1.4404
 1273TIP3   OH225233   6.624   3.804   2.179 -0.1685  0.5373 -0.0549
 1273TIP3    H125234   6.683   3.828   2.250  1.1141 -0.0233 -0.9033
 1273TIP3    H225235   6.675   3.746   2.123 -0.7448  1.7985 -2.0204
 1274TIP3   OH225236   6.123   1.126  12.701 -0.0487 -0.0856 -0.3543
 1274TIP3    H125237   6.201   1.140  12.756 -0.3456  0.9278 -0.1675
 1274TIP3    H225238   6.065   1.073  12.756 -0.3945  1.0190  0.3778
 1275TIP3   OH225239   5.822   5.223  10.526  0.1168  0.4113 -0.0141
 1275TIP3    H125240   5.784   5.181  10.603  0.9638 -0.2639  0.0513
 1275TIP3    H225241   5.844   5.312  10.555  2.1541 -0.4076  1.1016
 1276TIP3   OH225242   0.523   0.314   4.144 -0.3566  0.1779 -0.0016
 1276TIP3    H125243   0.505   0.406   4.128  1.0219  0.6014  0.6657
 1276TIP3    H225244   0.557   0.311   4.234  0.8016 -0.7811 -0.4330
 1277TIP3   OH225245   5.531   1.854  15.488  0.0724 -0.2660 -0.0617
 1277TIP3    H125246   5.467   1.804  15.437  1.5447 -1.7228 -0.5680
 1277TIP3    H225247   5.564   1.920  15.428 -0.9341  0.5376  0.2194
 1278TIP3   OH225248   3.706   0.272   5.327  0.0010 -0.3621 -0.7177
 1278TIP3    H125249   3.797   0.274   5.300  0.2413  2.6671 -0.0246
 1278TIP3    H225250   3.684   0.363   5.345 -1.9955 -1.3854  2.9949
 1279TIP3   OH225251   5.641   0.301   2.045  0.0772 -0.1254  0.1137
 1279TIP3    H125252   5.561   0.261   2.077 -0.1971 -0.6403 -1.1292
 1279TIP3    H225253   5.645   0.387   2.087 -2.1480  0.7161 -1.2354
 1280TIP3   OH225254   5.622   6.491   3.085 -0.0916  0.3997 -0.6152
 1280TIP3    H125255   5.688   6.455   3.144  1.2294  1.9502 -1.0709
 1280TIP3    H225256   5.541   6.444   3.108  1.0307 -1.1680  0.3167
 1281TIP3   OH225257   3.818   2.342   6.021 -0.0350  0.3019  0.4686
 1281TIP3    H125258   3.792   2.255   5.990  1.3871 -0.2056  0.6559
 1281TIP3    H225259   3.831   2.331   6.115 -2.5075  1.4050  1.0430
 1282TIP3   OH225260   0.303   3.078   1.224 -0.4369  0.6767 -0.0029
 1282TIP3    H125261   0.272   3.160   1.186 -0.5246  0.5814 -0.1369
 1282TIP3    H225262   0.223   3.027   1.240 -0.2606 -0.3521 -2.1107
 1283TIP3   OH225263   4.315   4.295  12.755  0.1829 -0.3461 -0.7460
 1283TIP3    H125264   4.228   4.296  12.715 -1.0887 -4.3079  1.3265
 1283TIP3    H225265   4.329   4.384  12.786 -2.8301  0.5741 -1.6984
 1284TIP3   OH225266   3.190   2.042  17.046  0.3701 -0.4097  0.5420
 1284TIP3    H125267   3.227   2.062  17.132 -1.1266  1.5062  0.8013
 1284TIP3    H225268   3.105   2.002  17.064 -0.0348  0.1676 -0.0429
 1285TIP3   OH225269   5.986   3.338   2.609  0.1489  0.2472 -0.0417
 1285TIP3    H125270   6.043   3.344   2.686  1.4701  1.2835 -1.0327
 1285TIP3    H225271   5.991   3.246   2.582  0.4893  0.0987  0.5277
 1286TIP3   OH225272   3.563   3.119   0.633  0.0067 -0.5043 -0.6307
 1286TIP3    H125273   3.622   3.067   0.687 -0.2895 -1.5364 -1.2586
 1286TIP3    H225274   3.543   3.062   0.558 -1.8114 -0.2034 -0.4130
 1287TIP3   OH225275   2.891   5.122  12.348  0.4459  0.2219  0.0955
 1287TIP3    H125276   2.973   5.167  12.331 -0.3515  1.8746  0.4730
 1287TIP3    H225277   2.826   5.170  12.297 -0.3570 -0.8502  0.0717
 1288TIP3   OH225278   5.166   1.918  16.725  0.1197  0.0318 -0.1499
 1288TIP3    H125279   5.092   1.968  16.691 -1.3516 -1.8272  0.2274
 1288TIP3    H225280   5.228   1.915  16.652 -0.6485  0.6668 -0.8426
 1289TIP3   OH225281   1.400   2.326  14.508 -0.1660  0.4126  0.0689
 1289TIP3    H125282   1.342   2.360  14.441 -2.0127  3.2795  2.8290
 1289TIP3    H225283   1.470   2.391  14.516 -0.0043  0.1526  0.9380
 1290TIP3   OH225284   0.837   6.183   2.379  0.1756 -0.3736 -0.0782
 1290TIP3    H125285   0.834   6.165   2.285  0.5296 -0.4609 -0.0736
 1290TIP3    H225286   0.748   6.213   2.400 -0.8456 -3.2525  0.1362
 1291TIP3   OH225287   5.465   0.326  16.190  0.1994  0.1903  0.4186
 1291TIP3    H125288   5.472   0.374  16.273  0.1099 -0.7053  0.9644
 1291TIP3    H225289   5.546   0.275  16.186  0.7338  1.0904 -0.6212
 1292TIP3   OH225290   1.349   2.974   3.433  0.5413  0.1873 -0.1615
 1292TIP3    H125291   1.443   2.987   3.440  0.5268  1.1841 -1.5297
 1292TIP3    H225292   1.338   2.914   3.358  0.0984 -0.2365  0.2301
 1293TIP3   OH225293   3.253   4.859  13.191 -0.3429  0.8282 -0.3202
 1293TIP3    H125294   3.332   4.904  13.223  0.6997  0.5004 -2.2629
 1293TIP3    H225295   3.260   4.771  13.228 -0.3836  1.1094  0.3868
 1294TIP3   OH225296   5.228   6.033  16.266  0.5248 -0.0108  0.3847
 1294TIP3    H125297   5.254   5.990  16.184  0.0635 -0.2040  0.3390
 1294TIP3    H225298   5.150   6.084  16.243  1.7114  1.7897  0.1568
 1295TIP3   OH225299   2.804   5.717  12.435 -0.1490  0.2273 -0.5315
 1295TIP3    H125300   2.830   5.787  12.496 -1.7495  0.5421 -0.1587
 1295TIP3    H225301   2.749   5.660  12.488  0.0136 -0.5676 -1.2096
 1296TIP3   OH225302   0.749   0.464  15.169 -0.5196 -0.0712 -0.4367
 1296TIP3    H125303   0.670   0.485  15.218 -1.0023 -0.3040 -1.1065
 1296TIP3    H225304   0.783   0.550  15.142 -0.3371  0.0486  0.1592
 1297TIP3   OH225305   3.870   5.203   2.447  0.6747 -0.1468 -0.3325
 1297TIP3    H125306   3.949   5.251   2.426  0.2367  0.5925 -0.3259
 1297TIP3    H225307   3.842   5.238   2.532 -0.4679  0.6690 -1.0214
 1298TIP3   OH225308   5.273   0.708  12.016 -0.2917  0.0977  0.4221
 1298TIP3    H125309   5.246   0.767  11.945 -1.1718 -0.9854 -0.1835
 1298TIP3    H225310   5.325   0.640  11.972 -1.4479 -0.9883  0.6546
 1299TIP3   OH225311   4.182   1.438   5.941  0.3385 -0.4215  0.2675
 1299TIP3    H125312   4.222   1.495   5.875 -1.3536 -1.0118 -1.3660
 1299TIP3    H225313   4.250   1.375   5.963  1.0359 -0.0221 -0.6825
 1300TIP3   OH225314   4.478   3.260   4.311  0.3777  0.2120  0.1241
 1300TIP3    H125315   4.572   3.275   4.302  1.3887 -3.3033  2.7797
 1300TIP3    H225316   4.455   3.302   4.394  0.2075 -1.0383  0.7271
 1301TIP3   OH225317   4.981   5.718   1.635  0.1641 -0.2830  0.2566
 1301TIP3    H125318   4.946   5.680   1.716 -1.5353  0.4310 -0.0943
 1301TIP3    H225319   5.034   5.792   1.664 -0.6616  0.1378  0.7305
 1302TIP3   OH225320   5.947   1.187   0.113 -0.4470 -0.8201 -0.4385
 1302TIP3    H125321   5.976   1.096   0.118 -0.4736 -0.8118 -0.0267
 1302TIP3    H225322   5.906   1.196   0.028 -0.4906 -1.2089 -0.4567
 1303TIP3   OH225323   5.932   3.807  12.952  0.4375  0.2858  0.2329
 1303TIP3    H125324   5.909   3.863  12.877 -0.4185 -0.3051  0.0371
 1303TIP3    H225325   5.961   3.869  13.019  1.0983  0.8347 -0.5387
 1304TIP3   OH225326   3.158   0.863   5.968  0.0263  0.1136  0.1534
 1304TIP3    H125327   3.186   0.782   5.926  2.5338  0.5540  0.8073
 1304TIP3    H225328   3.213   0.870   6.047  0.7800  3.0050 -0.5048
 1305TIP3   OH225329   1.947   6.565  13.397 -0.4384 -0.2003 -0.0458
 1305TIP3    H125330   2.017   6.501  13.410 -2.5759 -2.4132  1.4690
 1305TIP3    H225331   1.903   6.536  13.318 -0.8503 -0.0310  0.1212
 1306TIP3   OH225332   4.629   4.041  16.520 -0.0617  0.5941 -0.2772
 1306TIP3    H125333   4.678   4.068  16.598 -0.5754  1.9242 -0.3802
 1306TIP3    H225334   4.644   4.112  16.458 -1.2157  0.4720 -0.7024
 1307TIP3   OH225335   4.737   4.647   2.119 -0.3676 -0.3583 -0.1149
 1307TIP3    H125336   4.795   4.655   2.195  0.1043 -3.4238 -0.0077
 1307TIP3    H225337   4.775   4.705   2.053  2.7593 -2.0113  0.0532
 1308TIP3   OH225338   1.053   3.091   2.504 -0.1755  0.1073  0.3032
 1308TIP3    H125339   1.109   3.116   2.430  1.2271 -1.1261  0.8814
 1308TIP3    H225340   0.985   3.036   2.465  1.0992 -1.3354 -0.0116
 1309TIP3   OH225341   1.956   4.277   2.660 -0.2233 -0.1632  0.0119
 1309TIP3    H125342   1.954   4.182   2.656  2.2907 -0.2891  0.4177
 1309TIP3    H225343   1.873   4.304   2.621 -1.0759 -2.4934  0.0439
 1310TIP3   OH225344   4.376   4.472   0.182 -0.8750 -0.2216 -0.1271
 1310TIP3    H125345   4.312   4.525   0.135  1.1465  1.5750 -0.9887
 1310TIP3    H225346   4.461   4.500   0.148  0.5813 -0.3576  3.0580
 1311TIP3   OH225347   1.103   1.150  11.899  0.9898  0.1645  0.1977
 1311TIP3    H125348   1.126   1.063  11.865  0.4367  0.0291  0.1630
 1311TIP3    H225349   1.146   1.155  11.984  1.3996  0.0393  0.0043
 1312TIP3   OH225350   5.096   1.235  14.055 -0.4589 -0.1195 -0.2034
 1312TIP3    H125351   5.056   1.321  14.065  0.5156  0.3988 -0.5429
 1312TIP3    H225352   5.151   1.244  13.977  1.5807 -0.2623  1.1385
 1313TIP3   OH225353   5.405   2.055   4.158  0.1592 -0.4130  0.0131
 1313TIP3    H125354   5.315   2.073   4.182  0.8481  1.2871  1.6117
 1313TIP3    H225355   5.427   1.974   4.204 -0.0677  0.0632  0.9690
 1314TIP3   OH225356   3.511   3.667  12.520 -0.4036 -0.0669 -0.2783
 1314TIP3    H125357   3.473   3.657  12.606  1.3243 -0.7210  0.4544
 1314TIP3    H225358   3.572   3.741  12.529  1.6610 -1.6996 -0.1929
 1315TIP3   OH225359   1.082   4.941  13.074 -0.3649  0.2408  0.2342
 1315TIP3    H125360   1.103   4.849  13.055 -0.6253  0.7321 -2.8713
 1315TIP3    H225361   1.109   4.953  13.165  0.3493 -2.7054  0.5134
 1316TIP3   OH225362   0.005   6.083  12.046 -0.1786 -0.2071 -0.5237
 1316TIP3    H125363   0.041   6.118  12.128 -0.7263  2.0555 -1.1640
 1316TIP3    H225364  -0.062   6.147  12.021 -2.0052 -2.3152 -1.3164
 1317TIP3   OH225365   3.581   5.567   2.368  0.2830 -0.1537  0.0461
 1317TIP3    H125366   3.590   5.659   2.345  2.0148 -0.1591  0.6257
 1317TIP3    H225367   3.577   5.566   2.463 -0.6108 -0.6307  0.0168
 1318TIP3   OH225368   6.655   4.120  11.151 -0.0577  0.2183 -0.0753
 1318TIP3    H125369   6.666   4.208  11.185 -2.3558 -0.0949  1.7206
 1318TIP3    H225370   6.700   4.064  11.214 -0.2919 -0.0255 -0.1218
 1319TIP3   OH225371   6.325   6.704  15.835 -0.0345 -0.3113  0.5434
 1319TIP3    H125372   6.323   6.609  15.841 -0.2647 -0.3064  0.5393
 1319TIP3    H225373   6.236   6.729  15.809  0.4126 -0.2160 -1.0202
 1320TIP3   OH225374   6.710   0.272   2.976  0.2620  0.2795 -0.1876
 1320TIP3    H125375   6.794   0.233   2.951 -0.0470 -0.3225 -0.3001
 1320TIP3    H225376   6.691   0.335   2.906  1.7213  2.1221  0.9971
 1321TIP3   OH225377   6.547   6.144  16.580  0.0044  0.5138 -0.0262
 1321TIP3    H125378   6.474   6.177  16.631 -0.4839  0.7012 -0.8202
 1321TIP3    H225379   6.564   6.057  16.615 -0.5176  0.5226  0.2588
 1322TIP3   OH225380   5.570   2.065  15.304 -0.5658 -0.3479 -0.3199
 1322TIP3    H125381   5.511   2.132  15.338 -0.9351 -1.2500  0.9162
 1322TIP3    H225382   5.643   2.114  15.264 -1.1407  0.7664 -0.0397
 1323TIP3   OH225383   3.709   2.819   2.970 -0.5051 -0.4779  0.2600
 1323TIP3    H125384   3.799   2.791   2.985 -0.1275  0.8310  0.5483
 1323TIP3    H225385   3.694   2.804   2.877  0.8748  1.6130 -0.3607
 1324TIP3   OH225386   2.441   1.371  12.402 -0.0117 -0.0803 -0.3202
 1324TIP3    H125387   2.373   1.344  12.465 -0.2014  1.8441  0.3686
 1324TIP3    H225388   2.410   1.455  12.368  1.4600  0.2599 -0.9011
 1325TIP3   OH225389   4.647   3.104   1.885 -0.4989 -0.5842 -0.7544
 1325TIP3    H125390   4.713   3.168   1.858 -0.9415  0.0986 -0.2424
 1325TIP3    H225391   4.578   3.112   1.820 -1.7715  1.3809  0.7392
 1326TIP3   OH225392   6.569   3.001   3.486  0.1663 -0.0753 -0.2029
 1326TIP3    H125393   6.510   2.928   3.505  0.8116 -0.2900  1.0119
 1326TIP3    H225394   6.515   3.079   3.501 -0.7041 -0.2476 -2.0636
 1327TIP3   OH225395   1.003   5.498   1.665  0.0970 -0.0218 -0.2260
 1327TIP3    H125396   0.944   5.522   1.593 -0.0676  0.2304 -0.0112
 1327TIP3    H225397   1.091   5.507   1.628  0.0417  0.9399 -0.1499
 1328TIP3   OH225398   2.611   3.999   3.859 -0.0663 -0.3058 -0.1720
 1328TIP3    H125399   2.630   4.087   3.891  2.2510 -1.1385  1.0357
 1328TIP3    H225400   2.688   3.975   3.808 -1.4432 -1.0023 -2.0027
 1329TIP3   OH225401   0.723   5.280  16.693 -0.0104 -0.2576  0.2461
 1329TIP3    H125402   0.714   5.308  16.784 -0.3403  1.1804 -0.2048
 1329TIP3    H225403   0.793   5.214  16.695  0.7553  0.5452  1.3802
 1330TIP3   OH225404   5.051   4.652   6.167  0.4265 -0.1465 -0.0282
 1330TIP3    H125405   4.958   4.645   6.148  0.2107  0.8505  0.5608
 1330TIP3    H225406   5.076   4.738   6.134  1.2137 -0.5254 -0.4524
 1331TIP3   OH225407   2.625   3.961  14.584 -0.2963  0.5594 -0.5940
 1331TIP3    H125408   2.640   3.877  14.540  0.9916  0.9724 -0.9864
 1331TIP3    H225409   2.692   4.019  14.549  0.5925  1.0023  1.6499
 1332TIP3   OH225410   0.094   2.429  12.870 -0.1216  0.4762 -0.0495
 1332TIP3    H125411   0.121   2.514  12.905  2.3951 -0.1561 -0.2849
 1332TIP3    H225412   0.065   2.448  12.781  0.4825  1.0891 -0.1183
 1333TIP3   OH225413   0.173   4.011   4.282 -0.1644 -0.0218  0.2068
 1333TIP3    H125414   0.150   4.063   4.205 -0.0573  0.2981  0.3863
 1333TIP3    H225415   0.252   4.054   4.316  2.4848 -2.6603 -1.9793
 1334TIP3   OH225416   2.283   0.865   3.026  0.1803 -0.0165  0.0574
 1334TIP3    H125417   2.320   0.815   2.953 -0.7406 -0.4923 -0.0943
 1334TIP3    H225418   2.213   0.916   2.987  0.0999  0.2087  0.4963
 1335TIP3   OH225419   5.617   0.863  16.821  0.5926 -0.0172 -0.1955
 1335TIP3    H125420   5.634   0.949  16.861  0.4942  0.6802 -1.5880
 1335TIP3    H225421   5.702   0.819  16.824  0.8643  0.4880 -0.3025
 1336TIP3   OH225422   3.548   2.108   5.428 -0.7068  0.2708  0.6771
 1336TIP3    H125423   3.554   2.050   5.504 -0.2877 -1.6591 -0.7344
 1336TIP3    H225424   3.637   2.144   5.419 -0.8211  0.7005  1.2279
 1337TIP3   OH225425   2.850   4.995  11.250  0.3455 -0.3332  0.1515
 1337TIP3    H125426   2.891   5.059  11.193 -0.8240 -0.0727 -0.4374
 1337TIP3    H225427   2.905   4.993  11.328  0.4108  1.4141  0.1890
 1338TIP3   OH225428   1.990   4.249   1.819  0.0394  0.4769  0.1570
 1338TIP3    H125429   2.076   4.276   1.851 -0.4839  2.0763  0.2831
 1338TIP3    H225430   1.932   4.321   1.842 -1.3222 -0.5031 -0.0677
 1339TIP3   OH225431   1.026   1.937   3.303 -0.2226 -0.0138 -0.1919
 1339TIP3    H125432   0.972   1.920   3.380 -2.1062  1.7892 -1.0142
 1339TIP3    H225433   0.973   1.907   3.230 -0.6407  2.7046 -1.1088
 1340TIP3   OH225434   1.346   5.140  10.954  0.0208 -0.1331  0.4196
 1340TIP3    H125435   1.296   5.058  10.958  0.0938 -0.1624  0.7933
 1340TIP3    H225436   1.438   5.111  10.948  0.2437 -0.1182  2.7914
 1341TIP3   OH225437   2.283   4.156   4.331  0.1865 -0.1652 -0.1412
 1341TIP3    H125438   2.297   4.178   4.239  1.0430  1.0457  0.2569
 1341TIP3    H225439   2.225   4.225   4.364  1.3058  0.4313  0.6442
 1342TIP3   OH225440   3.972   4.329   4.373  0.3731  0.2048  0.4164
 1342TIP3    H125441   4.067   4.316   4.363  0.3208  0.2121 -0.1423
 1342TIP3    H225442   3.942   4.353   4.285 -0.4653 -1.6742  0.1448
 1343TIP3   OH225443   3.437   4.585  13.794 -0.2695  0.1563  0.2972
 1343TIP3    H125444   3.366   4.521  13.792  0.6001 -0.8494  0.4672
 1343TIP3    H225445   3.511   4.537  13.833  0.8636  0.7779 -1.0160
 1344TIP3   OH225446   4.117   1.459  16.460 -0.3767  0.3364 -0.2683
 1344TIP3    H125447   4.039   1.474  16.513 -0.6563  0.9470 -0.8256
 1344TIP3    H225448   4.085   1.456  16.370  0.2376  0.6462 -0.5112
 1345TIP3   OH225449   1.149   5.716   3.151 -0.0355  0.4082  0.0635
 1345TIP3    H125450   1.081   5.693   3.213  0.1088 -0.4775 -0.0861
 1345TIP3    H225451   1.133   5.658   3.075  0.1037  1.0965 -0.4997
 1346TIP3   OH225452   2.131   2.426  13.366 -0.2568  0.1167  0.2447
 1346TIP3    H125453   2.217   2.461  13.345  0.6873 -2.4913 -0.6819
 1346TIP3    H225454   2.141   2.388  13.453 -0.3785 -0.3390  0.0679
 1347TIP3   OH225455   1.679   3.154   0.502 -0.8323 -0.2126 -0.0405
 1347TIP3    H125456   1.707   3.073   0.460 -0.1067  0.8543 -1.7216
 1347TIP3    H225457   1.623   3.126   0.574  0.6564 -2.2548  0.4044
 1348TIP3   OH225458   0.413   0.337  14.953  0.1672  0.1674  0.3447
 1348TIP3    H125459   0.431   0.268  14.889 -1.1333  0.3667 -0.2624
 1348TIP3    H225460   0.465   0.411  14.923 -0.2251  0.1755 -0.3391
 1349TIP3   OH225461   2.551   2.867  16.286 -0.4993  0.3727  0.6197
 1349TIP3    H125462   2.631   2.919  16.283 -0.1311 -0.1284  1.4838
 1349TIP3    H225463   2.494   2.914  16.346 -1.4573  1.5117 -1.0691
 1350TIP3   OH225464   6.138   3.889  10.187 -0.3683  0.7296 -0.0642
 1350TIP3    H125465   6.141   3.980  10.218 -3.0978  0.9973 -0.3272
 1350TIP3    H225466   6.064   3.851  10.235  1.1645 -1.5983  0.5676
 1351TIP3   OH225467   5.616   2.527  13.951 -0.1534 -0.4471 -0.0319
 1351TIP3    H125468   5.563   2.471  13.895 -0.8319  0.7409 -0.5919
 1351TIP3    H225469   5.561   2.545  14.027  0.7622 -2.0554  1.0949
 1352TIP3   OH225470   0.538   6.706  11.994 -0.2741 -0.0198 -0.8729
 1352TIP3    H125471   0.528   6.620  11.955  2.1546 -0.2615 -1.1206
 1352TIP3    H225472   0.477   6.762  11.945 -1.3908 -1.4417 -1.1555
 1353TIP3   OH225473   2.546   5.736   4.156 -0.4682 -0.3203  0.4974
 1353TIP3    H125474   2.495   5.815   4.177 -1.2199 -0.7299  0.2712
 1353TIP3    H225475   2.622   5.740   4.213  1.6541  2.6460 -2.1611
 1354TIP3   OH225476   5.883   1.597  15.370 -0.2808 -0.2668  0.2116
 1354TIP3    H125477   5.857   1.657  15.300 -1.0408 -1.9897 -1.0812
 1354TIP3    H225478   5.958   1.639  15.412  1.0116  0.3225 -2.4541
 1355TIP3   OH225479   2.803   1.891   1.731  0.1418  0.3029 -0.3951
 1355TIP3    H125480   2.809   1.797   1.711  0.3716  0.4325 -0.9556
 1355TIP3    H225481   2.894   1.919   1.741  0.0445  0.3134  0.5343
 1356TIP3   OH225482   4.712   3.966   1.177  0.4768  0.4371 -0.1486
 1356TIP3    H125483   4.690   4.026   1.248  0.2568 -0.3622  0.4832
 1356TIP3    H225484   4.727   3.882   1.221  0.7516  0.0202 -1.0092
 1357TIP3   OH225485   0.876   5.356   2.491  0.1379 -0.1649  0.4388
 1357TIP3    H125486   0.785   5.386   2.501 -0.0374 -1.0245  1.6502
 1357TIP3    H225487   0.875   5.304   2.411 -1.0381 -2.1605  1.6547
 1358TIP3   OH225488   2.272   0.102  11.657 -0.2555 -0.4378 -0.2276
 1358TIP3    H125489   2.198   0.112  11.717  1.5761  0.3681  2.0424
 1358TIP3    H225490   2.305   0.014  11.676  0.2633 -0.2210 -0.1113
 1359TIP3   OH225491   0.716   0.095   0.713  0.0897  0.5402  0.6460
 1359TIP3    H125492   0.667   0.155   0.770 -1.2582 -1.1086  1.3078
 1359TIP3    H225493   0.710   0.135   0.626 -2.5428  0.4048  0.6906
 1360TIP3   OH225494   6.642   4.558  16.310 -0.3186 -0.6067  0.4247
 1360TIP3    H125495   6.657   4.501  16.385 -1.3059  0.9503  1.9040
 1360TIP3    H225496   6.554   4.593  16.324  0.2537  1.2928 -0.3578
 1361TIP3   OH225497   4.685   5.633  15.634 -0.9383  0.1889 -0.0788
 1361TIP3    H125498   4.733   5.714  15.613  1.1171 -0.8635  0.3211
 1361TIP3    H225499   4.686   5.629  15.729 -1.2096 -0.2175 -0.0937
 1362TIP3   OH225500   5.733   5.850  13.203 -0.4251 -0.4631  0.6991
 1362TIP3    H125501   5.722   5.916  13.135 -0.7094 -0.0863  1.1034
 1362TIP3    H225502   5.800   5.791  13.169 -0.9583 -0.6009 -0.1510
 1363TIP3   OH225503   0.857   4.681  15.470  0.2682 -0.0184  0.5144
 1363TIP3    H125504   0.866   4.746  15.540 -0.8522  1.3290 -0.5297
 1363TIP3    H225505   0.763   4.677  15.454  0.3621 -1.5602  0.1984
 1364TIP3   OH225506   1.693   4.458   4.152 -0.1282  0.0562  0.3561
 1364TIP3    H125507   1.695   4.496   4.240 -1.0591 -0.1918  0.4927
 1364TIP3    H225508   1.612   4.407   4.150  0.4005 -0.7779 -0.3023
 1365TIP3   OH225509   4.708   5.458  12.400  0.3779 -0.4936  0.8790
 1365TIP3    H125510   4.707   5.538  12.348  1.3108 -0.0353  1.5411
 1365TIP3    H225511   4.704   5.387  12.335 -0.8072  0.0756  0.3026
 1366TIP3   OH225512   4.808   5.277   6.136 -0.3047  0.2996 -0.0436
 1366TIP3    H125513   4.777   5.187   6.138 -2.0740  0.8656  0.1266
 1366TIP3    H225514   4.872   5.282   6.208 -1.9558 -0.2495  1.5336
 1367TIP3   OH225515   5.063   5.829   2.570  0.8536 -0.4650  0.4200
 1367TIP3    H125516   5.003   5.877   2.513  1.8231  3.6927  2.4650
 1367TIP3    H225517   5.145   5.827   2.521  1.0496  0.9765  0.6239
 1368TIP3   OH225518   4.702   2.231  14.569  0.1448 -0.0019 -0.1793
 1368TIP3    H125519   4.637   2.162  14.550  1.1799 -0.6284 -1.6285
 1368TIP3    H225520   4.653   2.313  14.561 -0.8821 -0.5103  0.6054
 1369TIP3   OH225521   4.215   1.712  16.588  0.2760  0.2056 -0.1844
 1369TIP3    H125522   4.181   1.732  16.501 -1.0058  0.8423  0.4277
 1369TIP3    H225523   4.270   1.635  16.575 -2.5788 -1.8788 -1.0851
 1370TIP3   OH225524   3.644   3.707   0.599 -0.2424 -0.6509  0.2820
 1370TIP3    H125525   3.656   3.771   0.669  0.9175 -0.6181  0.0688
 1370TIP3    H225526   3.655   3.757   0.519  0.5232 -1.0788  0.1111
 1371TIP3   OH225527   5.646   1.851  12.508  0.0297 -0.0024 -0.3744
 1371TIP3    H125528   5.566   1.810  12.540  0.1587  0.1527  0.1622
 1371TIP3    H225529   5.716   1.812  12.561  0.2967 -0.0273 -0.7351
 1372TIP3   OH225530   0.283   5.957  17.012  0.1500  0.2064 -0.7272
 1372TIP3    H125531   0.223   5.888  16.986  0.5977 -0.4761  0.0242
 1372TIP3    H225532   0.243   5.997  17.088  0.0334  0.5927 -0.9884
 1373TIP3   OH225533   6.702   6.273   5.877 -0.0101  1.0130  0.3720
 1373TIP3    H125534   6.723   6.366   5.882 -0.6652  1.1721  0.1614
 1373TIP3    H225535   6.777   6.234   5.832  1.0519  1.1724  1.9206
 1374TIP3   OH225536   0.471   6.243  15.479 -0.5675  0.1870 -0.4593
 1374TIP3    H125537   0.556   6.286  15.483 -0.0539 -0.8797  0.6482
 1374TIP3    H225538   0.430   6.263  15.564 -0.0761 -1.9091  0.3379
 1375TIP3   OH225539   0.346   4.803  15.957  0.0859 -0.3193  0.5337
 1375TIP3    H125540   0.262   4.848  15.947 -0.7236 -2.2671 -4.2389
 1375TIP3    H225541   0.411   4.863  15.921 -0.1601 -0.7893 -0.7457
 1376TIP3   OH225542   3.854   2.373  11.818 -0.1427 -0.2511  0.0339
 1376TIP3    H125543   3.816   2.355  11.732 -1.7411 -0.7412  0.7960
 1376TIP3    H225544   3.876   2.466  11.816 -1.0185 -0.0413 -0.6153
 1377TIP3   OH225545   1.565   2.606  14.896 -0.3025  0.0990  0.2121
 1377TIP3    H125546   1.487   2.554  14.877 -1.2869  1.8139 -0.7062
 1377TIP3    H225547   1.579   2.658  14.816  1.8792 -0.2571  0.2972
 1378TIP3   OH225548   5.634   3.438   5.294 -0.3400  0.1373 -0.2142
 1378TIP3    H125549   5.560   3.389   5.330 -0.2965 -0.7220 -1.2384
 1378TIP3    H225550   5.632   3.418   5.200  1.3415 -0.1225 -0.2229
 1379TIP3   OH225551   1.407   5.385   3.278  0.8973  0.1254 -0.4019
 1379TIP3    H125552   1.498   5.361   3.265  1.1729  0.9142 -0.0425
 1379TIP3    H225553   1.404   5.479   3.256  0.2819  0.2202  0.0598
 1380TIP3   OH225554   4.779   0.251   2.780 -0.0842  0.2423  0.1437
 1380TIP3    H125555   4.869   0.233   2.752  0.0200  0.2089  0.4993
 1380TIP3    H225556   4.786   0.327   2.837 -0.3757  0.6925 -0.4087
 1381TIP3   OH225557   5.794   5.737  11.191  0.0624 -0.4170  0.4810
 1381TIP3    H125558   5.828   5.793  11.121  0.7082 -1.2361  0.1131
 1381TIP3    H225559   5.846   5.760  11.268  1.0541 -1.1907  0.0820
 1382TIP3   OH225560   4.080   0.387  12.037  0.2265  0.1223  0.0083
 1382TIP3    H125561   4.104   0.409  11.947  2.8196 -1.0789  0.3050
 1382TIP3    H225562   4.159   0.406  12.088 -0.2236 -1.8114  1.5533
 1383TIP3   OH225563   1.272   0.521   0.088 -0.4363  0.4815  0.0309
 1383TIP3    H125564   1.247   0.522   0.181 -0.8430 -0.5915 -0.0541
 1383TIP3    H225565   1.367   0.519   0.089 -0.3928  1.6272  0.3989
 1384TIP3   OH225566   5.182   6.547   2.206  0.5771 -0.2842 -0.2644
 1384TIP3    H125567   5.104   6.504   2.170 -0.7763  1.1237  0.8456
 1384TIP3    H225568   5.214   6.602   2.135  0.1794 -0.4041 -0.5382
 1385TIP3   OH225569   0.786   0.113   5.326  0.0016  0.5888 -0.2862
 1385TIP3    H125570   0.821   0.193   5.366  0.5946  0.7859 -1.1434
 1385TIP3    H225571   0.704   0.096   5.372  1.9679 -0.8700  3.0556
 1386TIP3   OH225572   3.643   5.337  12.801  0.1215  0.6219 -1.2148
 1386TIP3    H125573   3.579   5.272  12.831  1.5683 -0.3549 -0.0489
 1386TIP3    H225574   3.614   5.419  12.840 -0.5109  0.2354 -0.8413
 1387TIP3   OH225575   2.969   6.121   4.326  0.0373 -0.3210 -0.2761
 1387TIP3    H125576   2.982   6.030   4.352 -2.0527 -0.2161  1.4623
 1387TIP3    H225577   3.013   6.172   4.393  0.0720 -0.0378 -0.5097
 1388TIP3   OH225578   2.642   5.202  13.030  0.0473  0.0951  0.1540
 1388TIP3    H125579   2.549   5.187  13.009  0.6277 -1.1801 -1.8491
 1388TIP3    H225580   2.683   5.215  12.945  1.8474 -0.1664  0.9443
 1389TIP3   OH225581   3.273   6.027   1.122 -0.0553  0.5928 -0.4042
 1389TIP3    H125582   3.270   5.966   1.048 -0.7193 -1.4281  1.1706
 1389TIP3    H225583   3.365   6.031   1.147 -0.0833 -0.4458 -0.0577
 1390TIP3   OH225584   1.443   0.344   5.863 -0.0520  0.2763  0.1267
 1390TIP3    H125585   1.438   0.264   5.915 -0.5715  0.1617 -0.1000
 1390TIP3    H225586   1.361   0.389   5.881 -0.9862 -0.5283 -1.8505
 1391TIP3   OH225587   6.530   0.962   3.462  0.0461 -0.4906  0.5367
 1391TIP3    H125588   6.443   0.928   3.480  0.2517 -0.4203  1.8040
 1391TIP3    H225589   6.515   1.040   3.409 -0.7086 -0.1603  1.2107
 1392TIP3   OH225590   5.621   5.268   1.243  0.4785 -0.1313 -0.8825
 1392TIP3    H125591   5.687   5.237   1.304  0.4057  0.4473 -0.4957
 1392TIP3    H225592   5.549   5.205   1.250 -1.1644  1.7972  2.4378
 1393TIP3   OH225593   2.512   4.829  17.038 -0.5299  0.0638  0.4214
 1393TIP3    H125594   2.503   4.924  17.044 -0.3412 -0.0198  3.5600
 1393TIP3    H225595   2.456   4.795  17.108  0.7580 -2.0209  0.5146
 1394TIP3   OH225596   0.490   3.048   0.867  0.0198 -0.2444  0.3752
 1394TIP3    H125597   0.568   3.055   0.923  2.8080 -2.0308 -2.8722
 1394TIP3    H225598   0.501   3.117   0.802 -2.3137  0.7908  0.9826
 1395TIP3   OH225599   0.024   4.620   2.688  0.1739  0.1252 -0.0371
 1395TIP3    H125600   0.033   4.687   2.620  1.9145  0.0433  0.0588
 1395TIP3    H225601  -0.068   4.622   2.712 -0.6202 -0.1535 -2.7130
 1396TIP3   OH225602   5.844   2.921   0.717  0.1816 -0.7219  0.2495
 1396TIP3    H125603   5.755   2.889   0.730 -0.8378  0.9826 -1.9656
 1396TIP3    H225604   5.847   2.951   0.626  1.9824  2.2777  1.1288
 1397TIP3   OH225605   6.588   3.596  14.206  0.5548 -1.2060 -0.1257
 1397TIP3    H125606   6.641   3.536  14.154  1.2952 -0.7632  0.1120
 1397TIP3    H225607   6.601   3.567  14.296 -0.7512 -1.9927 -0.1565
 1398TIP3   OH225608   2.241   0.468   1.441  0.3198 -0.1097 -0.2044
 1398TIP3    H125609   2.225   0.440   1.351 -0.4889 -0.3484  0.0053
 1398TIP3    H225610   2.202   0.399   1.495  0.4320  0.2363  0.3263
 1399TIP3   OH225611   6.509   1.033   0.219  0.1769  0.4408 -0.3762
 1399TIP3    H125612   6.428   1.079   0.240 -1.3079 -2.3822  0.6228
 1399TIP3    H225613   6.500   0.948   0.263  2.3360 -1.1452 -2.7460
 1400TIP3   OH225614   4.826   3.791  16.765  0.4802 -0.2385  0.4893
 1400TIP3    H125615   4.840   3.865  16.824 -0.0714  0.0856  0.2246
 1400TIP3    H225616   4.773   3.729  16.815  0.2435 -0.0835  0.4343
 1401TIP3   OH225617   4.793   0.038   3.186  0.2790 -0.3450  0.4306
 1401TIP3    H125618   4.752   0.120   3.213  3.7589  1.2967  1.3820
 1401TIP3    H225619   4.833   0.004   3.266  0.7608 -1.7763 -0.3884
 1402TIP3   OH225620   5.937   2.565   2.780  0.0273 -0.0125  0.4272
 1402TIP3    H125621   5.933   2.647   2.828  1.8439 -0.8249  2.0848
 1402TIP3    H225622   5.868   2.511   2.818 -1.2967  0.7453 -0.7943
 1403TIP3   OH225623   6.610   2.807   2.279 -0.5355 -0.2547 -0.2947
 1403TIP3    H125624   6.586   2.885   2.328 -0.2899  0.7401 -1.6956
 1403TIP3    H225625   6.700   2.788   2.306 -1.1992 -1.1655  1.3995
 1404TIP3   OH225626   2.046   3.117  15.071 -0.6996  0.0055 -0.5149
 1404TIP3    H125627   1.964   3.165  15.080 -0.9414 -0.5156  0.1502
 1404TIP3    H225628   2.107   3.181  15.033 -1.6514  0.1153 -1.9133
 1405TIP3   OH225629   4.526   0.429   1.435  0.1738 -0.0763 -0.4214
 1405TIP3    H125630   4.576   0.440   1.354  0.2591  2.6156 -0.0989
 1405TIP3    H225631   4.504   0.518   1.462 -0.6537 -0.9309  2.0345
 1406TIP3   OH225632   6.004   4.581   0.144 -0.5616  0.4994 -0.2642
 1406TIP3    H125633   5.984   4.634   0.221  1.0090 -0.4021  0.8211
 1406TIP3    H225634   5.974   4.493   0.166  0.8590  0.0016 -0.2056
 1407TIP3   OH225635   4.285   1.675  15.733  0.1459  0.8353  0.2809
 1407TIP3    H125636   4.304   1.744  15.668 -0.0684 -0.5648 -1.3496
 1407TIP3    H225637   4.194   1.651  15.716  1.0127 -1.8393 -1.2663
 1408TIP3   OH225638   3.282   2.660   3.936 -0.5108  0.3118 -0.2541
 1408TIP3    H125639   3.195   2.663   3.977 -0.5567  3.4353 -0.3438
 1408TIP3    H225640   3.267   2.615   3.853 -1.8272 -0.1542  0.2060
 1409TIP3   OH225641   2.361   0.297   4.260 -0.0887 -0.1332  0.0625
 1409TIP3    H125642   2.332   0.384   4.289  1.4701  1.1124 -1.8245
 1409TIP3    H225643   2.412   0.263   4.334  3.0110  2.5390 -0.6166
 1410TIP3   OH225644   6.656   4.594  11.768  0.1548  0.2460  0.0713
 1410TIP3    H125645   6.645   4.683  11.802  3.8732  1.3336 -1.1458
 1410TIP3    H225646   6.621   4.598  11.680  1.7228  1.0644 -0.5632
 1411TIP3   OH225647   2.450   5.908   1.171 -0.5396 -0.6517  0.5354
 1411TIP3    H125648   2.443   5.997   1.205  0.0520  0.1751 -1.3998
 1411TIP3    H225649   2.359   5.879   1.163 -0.7520 -0.1055  0.8469
 1412TIP3   OH225650   3.553   5.061   5.045  0.2241  0.8559 -0.0887
 1412TIP3    H125651   3.549   4.981   4.994  0.2245  0.3918  0.6227
 1412TIP3    H225652   3.465   5.070   5.083 -0.4317  2.3184 -1.8096
 1413TIP3   OH225653   0.635   3.874   3.103  0.6064 -0.2591  0.1547
 1413TIP3    H125654   0.721   3.853   3.137  0.8262  1.7941  0.9844
 1413TIP3    H225655   0.643   3.861   3.008  0.9906 -2.6790  0.4628
 1414TIP3   OH225656   6.490   5.271  14.449 -0.1120 -0.3470 -0.3761
 1414TIP3    H125657   6.481   5.363  14.423  2.1208 -0.4419 -1.6580
 1414TIP3    H225658   6.401   5.235  14.440 -0.8173  1.4069 -0.8515
 1415TIP3   OH225659   6.110   3.596   5.072 -0.0714  0.1726  0.0128
 1415TIP3    H125660   6.083   3.568   5.160  1.2420  0.0921  0.4116
 1415TIP3    H225661   6.053   3.547   5.013 -1.2458  0.5178  0.8154
 1416TIP3   OH225662   1.000   5.736   3.963 -0.4179  0.0274  0.1632
 1416TIP3    H125663   0.916   5.705   3.929 -1.3980  0.7999  1.7462
 1416TIP3    H225664   1.019   5.814   3.911 -1.4539  0.7037  0.7629
 1417TIP3   OH225665   2.325   5.904   0.865 -0.2970 -0.3127  0.2535
 1417TIP3    H125666   2.368   5.819   0.859  0.2684 -0.1077  1.1803
 1417TIP3    H225667   2.254   5.890   0.929 -2.0476 -0.8019 -1.6800
 1418TIP3   OH225668   5.545   5.921   2.327 -0.0583 -0.2786 -0.4414
 1418TIP3    H125669   5.571   5.838   2.286  1.6795  0.3973 -0.8023
 1418TIP3    H225670   5.479   5.896   2.391  2.0335 -2.3027  1.0969
 1419TIP3   OH225671   1.723   6.461  12.591  0.0008 -0.4513 -0.8157
 1419TIP3    H125672   1.667   6.518  12.644 -0.2153 -0.2262 -1.2814
 1419TIP3    H225673   1.798   6.441  12.648 -0.7699 -1.1534 -0.0056
 1420TIP3   OH225674   6.093   1.223  12.171 -0.2120 -0.2189  0.2248
 1420TIP3    H125675   6.153   1.157  12.207  0.2403  0.6692  1.1457
 1420TIP3    H225676   6.046   1.256  12.247  0.8610  1.8154  0.0695
 1421TIP3   OH225677   6.656   2.602   6.353  0.0774 -0.0003 -0.2095
 1421TIP3    H125678   6.726   2.548   6.317  0.3986  0.5650 -0.4460
 1421TIP3    H225679   6.609   2.544   6.413  0.2312 -0.6216 -0.6829
 1422TIP3   OH225680   0.257   0.271   4.845 -0.3951 -0.1639  0.4285
 1422TIP3    H125681   0.229   0.184   4.873 -0.5898 -0.1847  0.1628
 1422TIP3    H225682   0.223   0.281   4.756  0.6066 -0.2828  0.0078
 1423TIP3   OH225683   3.896   1.012   6.412  0.8144 -0.4515  0.3064
 1423TIP3    H125684   3.813   1.028   6.457  0.3910  2.4112 -1.2595
 1423TIP3    H225685   3.872   0.984   6.324  1.4539  0.7648 -0.2837
 1424TIP3   OH225686   4.180   4.787   6.256 -0.3232 -0.0723 -0.6063
 1424TIP3    H125687   4.249   4.736   6.299 -0.9160 -0.9049 -0.6183
 1424TIP3    H225688   4.102   4.772   6.310 -0.7031  0.1448 -1.0852
 1425TIP3   OH225689   3.321   3.014  10.237 -0.2017  0.0519 -0.7813
 1425TIP3    H125690   3.255   3.081  10.255  0.6902  0.5533  0.7713
 1425TIP3    H225691   3.271   2.941  10.200 -1.3990  0.9834 -1.0939
 1426TIP3   OH225692   6.106   3.253  16.392  0.3970  0.3460  0.1220
 1426TIP3    H125693   6.058   3.252  16.309  1.3214 -0.2715 -0.4224
 1426TIP3    H225694   6.175   3.318  16.380  0.4794  0.3200  0.4371
 1427TIP3   OH225695   4.159   4.421   6.624  0.0449 -0.2867 -1.0510
 1427TIP3    H125696   4.230   4.370   6.585  0.4192  0.5793 -1.5370
 1427TIP3    H225697   4.148   4.495   6.564  0.1594  0.7061  0.1153
 1428TIP3   OH225698   1.304   5.814   4.838 -0.0949 -0.3086  1.0528
 1428TIP3    H125699   1.380   5.756   4.841  1.3062  1.3873  0.3887
 1428TIP3    H225700   1.300   5.853   4.925 -0.2879 -0.5106  1.1336
 1429TIP3   OH225701   3.658   3.947   5.664 -0.6668 -0.5890  0.1789
 1429TIP3    H125702   3.694   3.929   5.751 -0.6964  2.2710  0.8794
 1429TIP3    H225703   3.733   3.941   5.606 -0.4647 -1.6006  0.5186
 1430TIP3   OH225704   0.131   2.740  12.762  0.0187 -0.6905 -0.1368
 1430TIP3    H125705   0.123   2.774  12.852 -0.4981 -0.5260 -0.2382
 1430TIP3    H225706   0.043   2.751  12.725  0.5384  0.4701 -1.0983
 1431TIP3   OH225707   5.884   4.054   5.624  0.4325  0.0505  0.2507
 1431TIP3    H125708   5.844   4.131   5.665  0.8687  0.3647  0.1009
 1431TIP3    H225709   5.977   4.076   5.618  0.7429 -0.9192  1.1636
 1432TIP3   OH225710   5.046   3.841   6.517 -0.2036  0.0966 -0.2220
 1432TIP3    H125711   5.097   3.914   6.552 -0.4840 -0.3885  1.2537
 1432TIP3    H225712   5.110   3.788   6.470 -0.0697  1.4891 -1.7105
 1433TIP3   OH225713   2.577   5.181   1.273  0.2584 -0.2314  0.0727
 1433TIP3    H125714   2.653   5.154   1.220 -0.0177 -0.4170 -0.2312
 1433TIP3    H225715   2.577   5.119   1.346  1.5683  0.9825  1.1611
 1434TIP3   OH225716   3.257   4.268   3.588 -0.2952 -0.0148 -0.0983
 1434TIP3    H125717   3.251   4.174   3.572  0.4050 -0.0401 -0.2406
 1434TIP3    H225718   3.186   4.286   3.650  0.4876 -0.8944  1.1011
 1435TIP3   OH225719   3.739   2.567  15.375  0.5718  0.3532  0.1183
 1435TIP3    H125720   3.647   2.543  15.368  0.8641 -0.6260 -0.5691
 1435TIP3    H225721   3.753   2.633  15.307 -0.0637  1.9904  1.5254
 1436TIP3   OH225722   0.312   5.536   4.129  0.1513 -0.1236  0.3723
 1436TIP3    H125723   0.323   5.606   4.064  0.8495  0.1744  0.7932
 1436TIP3    H225724   0.275   5.581   4.205  0.3075 -0.2721  0.5358
 1437TIP3   OH225725   6.432   3.818  14.291  0.4671  0.0000  0.0133
 1437TIP3    H125726   6.346   3.792  14.260  0.5646  0.2389 -0.4635
 1437TIP3    H225727   6.493   3.757  14.249  0.5355 -0.1489  0.3244
 1438TIP3   OH225728   2.140   1.769   1.325  0.0594  0.1846 -0.4983
 1438TIP3    H125729   2.155   1.833   1.255  0.2705 -0.6280 -1.2214
 1438TIP3    H225730   2.103   1.820   1.397  0.9654  1.2462 -0.7624
 1439TIP3   OH225731   4.892   1.446   2.485  0.1977 -0.0659 -0.4251
 1439TIP3    H125732   4.819   1.399   2.445  0.3353 -2.2172  1.5906
 1439TIP3    H225733   4.959   1.378   2.499  0.6268  0.7661  2.1748
 1440TIP3   OH225734   3.470   5.629  12.596  0.3472  0.4931 -0.0384
 1440TIP3    H125735   3.455   5.581  12.514  0.1301  0.3461  0.0881
 1440TIP3    H225736   3.524   5.704  12.570 -4.8089  4.2769 -1.6487
 1441TIP3   OH225737   6.127   5.540  16.952 -0.1761  0.1781 -0.2098
 1441TIP3    H125738   6.178   5.610  16.993 -1.4880  0.9409  0.1845
 1441TIP3    H225739   6.077   5.501  17.024 -0.8925  0.1155 -0.7266
 1442TIP3   OH225740   6.424   2.817  15.949 -0.9558 -0.1013 -0.1859
 1442TIP3    H125741   6.470   2.844  15.870 -0.2708 -1.6590 -0.3550
 1442TIP3    H225742   6.429   2.893  16.007 -0.5809  0.7049 -1.2570
 1443TIP3   OH225743   0.732   1.040   0.254 -0.2971 -0.3289 -0.2494
 1443TIP3    H125744   0.736   1.063   0.161 -1.1540  1.8295  0.1726
 1443TIP3    H225745   0.663   0.974   0.259  0.6380 -1.4348 -1.2707
 1444TIP3   OH225746   6.796   4.650  16.845  0.1571 -0.1903 -0.2255
 1444TIP3    H125747   6.885   4.622  16.864 -0.1801 -1.7120 -0.7191
 1444TIP3    H225748   6.804   4.711  16.772  0.8585  0.4979  0.4049
 1445TIP3   OH225749   1.349   4.591   3.207  0.7375  0.3756  0.3220
 1445TIP3    H125750   1.328   4.664   3.149  0.6067 -0.3082 -0.5223
 1445TIP3    H225751   1.440   4.606   3.232  0.9347  0.4671 -0.4185
 1446TIP3   OH225752   5.390   5.982   5.027 -0.4313 -0.4150 -0.7111
 1446TIP3    H125753   5.311   6.036   5.020  0.6748  1.0901 -2.7686
 1446TIP3    H225754   5.395   5.959   5.120 -3.1499 -0.3954 -0.4910
 1447TIP3   OH225755   3.715   4.498  13.630  0.1964  0.0313 -0.8660
 1447TIP3    H125756   3.646   4.433  13.617  0.0088  0.3258 -1.3744
 1447TIP3    H225757   3.757   4.473  13.713 -0.2713 -0.3711 -0.7483
 1448TIP3   OH225758   2.369   5.712   5.932  0.1380 -0.5588  0.0263
 1448TIP3    H125759   2.349   5.797   5.971  1.1243 -0.0729 -0.4837
 1448TIP3    H225760   2.453   5.725   5.888 -0.1921 -1.5023 -0.9456
 1449TIP3   OH225761   0.982   6.401  15.044 -0.2925 -0.2768 -0.3479
 1449TIP3    H125762   1.047   6.463  15.010 -0.4209  1.7763  2.7398
 1449TIP3    H225763   0.903   6.454  15.056 -0.5704 -1.1118  1.9275
 1450TIP3   OH225764   2.981   6.000   0.170 -0.1522  0.0893 -0.1225
 1450TIP3    H125765   3.054   5.941   0.190 -0.3765  0.3594  1.6413
 1450TIP3    H225766   2.959   5.980   0.079  0.6995 -1.5402 -0.0222
 1451TIP3   OH225767   5.860   0.718  16.798 -0.1674  0.1452 -0.1133
 1451TIP3    H125768   5.861   0.623  16.809 -0.5667 -0.2939 -3.0271
 1451TIP3    H225769   5.950   0.741  16.776 -0.5339  0.0207 -1.8711
 1452TIP3   OH225770   6.340   1.098  13.848 -0.3851 -0.0818 -0.2314
 1452TIP3    H125771   6.411   1.108  13.784  0.2952 -2.9109 -0.0186
 1452TIP3    H225772   6.265   1.068  13.796  0.0999 -2.1503  0.2128
 1453TIP3   OH225773   5.464   0.563   0.988 -0.1150 -0.1132 -0.0396
 1453TIP3    H125774   5.422   0.636   1.033 -0.1122 -0.4566  0.5326
 1453TIP3    H225775   5.399   0.494   0.987  0.8416 -1.1454  2.1080
 1454TIP3   OH225776   6.187   2.579  16.583  0.5585  0.6186  0.1791
 1454TIP3    H125777   6.252   2.569  16.652 -0.3741  1.8298  1.2894
 1454TIP3    H225778   6.151   2.667  16.596  0.5533  0.9947 -2.0537
 1455TIP3   OH225779   1.146   3.200   2.865  0.2524 -0.1724 -0.1147
 1455TIP3    H125780   1.228   3.231   2.826  0.3214 -0.1788  0.0253
 1455TIP3    H225781   1.138   3.109   2.836 -0.9489  0.5206 -2.1852
 1456TIP3   OH225782   0.601   5.164  11.869  0.7952  0.0517 -0.1049
 1456TIP3    H125783   0.645   5.246  11.849 -0.1738  0.6314  0.1192
 1456TIP3    H225784   0.519   5.189  11.911  1.3903 -1.0483  1.8803
 1457TIP3   OH225785   6.449   4.235   3.322 -0.0284 -0.4655 -0.0844
 1457TIP3    H125786   6.428   4.311   3.376  0.7950 -0.6346  0.4853
 1457TIP3    H225787   6.366   4.214   3.278 -1.1770 -1.3058  2.3063
 1458TIP3   OH225788   3.979   4.681  12.603  1.0551  0.2623 -0.0777
 1458TIP3    H125789   4.071   4.666  12.581  0.7803 -2.0572  0.0757
 1458TIP3    H225790   3.932   4.613  12.556 -0.4332  0.5728  0.9059
 1459TIP3   OH225791   2.455   6.442  11.757  0.2806  0.5082  0.1064
 1459TIP3    H125792   2.541   6.426  11.718  0.5133  1.5247  0.1583
 1459TIP3    H225793   2.473   6.464  11.848  0.0220  1.2063  0.0007
 1460TIP3   OH225794   4.503   2.686  11.421 -0.4653  0.0663  0.0863
 1460TIP3    H125795   4.412   2.706  11.400 -0.0626  0.3943 -1.5098
 1460TIP3    H225796   4.546   2.680  11.335  0.9548 -0.3474  0.8017
 1461TIP3   OH225797   1.691   2.940   2.664 -0.4186 -0.1519  0.5517
 1461TIP3    H125798   1.692   2.845   2.669 -2.2853 -0.3385 -1.0866
 1461TIP3    H225799   1.768   2.962   2.611  0.6174 -0.6250  1.8096
 1462TIP3   OH225800   5.731   2.586  12.493  0.0262 -0.4439  0.3543
 1462TIP3    H125801   5.802   2.594  12.429 -1.7343 -1.7344 -1.9266
 1462TIP3    H225802   5.769   2.533  12.563  1.7798  0.2693  0.0045
 1463TIP3   OH225803   1.772   0.646  10.864 -0.2939  0.1659 -0.3103
 1463TIP3    H125804   1.852   0.597  10.848  0.2590  0.2768  1.7987
 1463TIP3    H225805   1.702   0.581  10.861  0.1691 -0.3640  0.2261
 1464TIP3   OH225806   0.906   4.062   0.546 -0.3751  0.2327 -0.4184
 1464TIP3    H125807   0.860   4.045   0.629 -0.8333 -1.1328 -0.9196
 1464TIP3    H225808   0.999   4.061   0.569 -0.5128  1.4904  0.3379
 1465TIP3   OH225809   5.318   6.377   5.630  0.0872 -0.1882 -0.3757
 1465TIP3    H125810   5.407   6.346   5.648 -0.1731 -1.1087 -0.5889
 1465TIP3    H225811   5.326   6.427   5.549  0.2685 -1.1154 -0.9572
 1466TIP3   OH225812   2.394   0.368  16.164  0.3798 -0.0203  0.5144
 1466TIP3    H125813   2.361   0.278  16.156  1.5641 -0.3260 -1.8236
 1466TIP3    H225814   2.423   0.375  16.255  1.5909 -2.5236  0.4061
 1467TIP3   OH225815   1.873   4.461   5.261  0.0792  0.2973  0.5234
 1467TIP3    H125816   1.945   4.467   5.324 -0.1348  0.2474  0.7745
 1467TIP3    H225817   1.796   4.488   5.310 -0.1555 -0.1318  0.3937
 1468TIP3   OH225818   2.323   6.589  14.447 -0.0194  0.2860 -0.1778
 1468TIP3    H125819   2.326   6.494  14.438  2.3789  0.2739  0.0462
 1468TIP3    H225820   2.248   6.605  14.505  0.7510 -1.6555  1.4960
 1469TIP3   OH225821   5.658   2.931  13.909 -0.2817  0.6395 -0.3417
 1469TIP3    H125822   5.598   2.931  13.834 -0.1785  1.2599 -0.4344
 1469TIP3    H225823   5.677   3.024  13.924 -0.3458  0.5280  0.4936
 1470TIP3   OH225824   4.377   1.062  14.129 -0.1610  0.1712  0.2817
 1470TIP3    H125825   4.463   1.103  14.122  0.8055 -1.9085 -0.8323
 1470TIP3    H225826   4.384   1.003  14.204 -0.1511 -1.0088 -0.6293
 1471TIP3   OH225827   1.668   3.610   3.918  0.1529 -0.0381  0.0228
 1471TIP3    H125828   1.576   3.636   3.921 -0.0059 -0.5763 -0.1120
 1471TIP3    H225829   1.672   3.534   3.976  0.0731 -1.3618 -1.6417
 1472TIP3   OH225830   5.607   4.556  12.477  0.0529 -0.6056  0.3938
 1472TIP3    H125831   5.613   4.638  12.428 -1.9575 -1.3363 -1.2326
 1472TIP3    H225832   5.596   4.584  12.568  0.5434  0.8884  0.0291
 1473TIP3   OH225833   5.327   4.944  16.245 -0.2238 -0.1996  0.0316
 1473TIP3    H125834   5.254   4.992  16.205  0.4650  0.7468 -0.1130
 1473TIP3    H225835   5.286   4.894  16.316 -0.8206  1.3531  0.8256
 1474TIP3   OH225836   5.132   3.278   2.010 -0.1481  0.2626  0.0025
 1474TIP3    H125837   5.099   3.198   1.968  0.2808 -0.6922  1.3992
 1474TIP3    H225838   5.089   3.279   2.095  1.3592  0.4423  0.7966
 1475TIP3   OH225839   2.898   1.074   3.438 -0.1262  0.3463  0.6191
 1475TIP3    H125840   2.808   1.088   3.407 -0.0886  1.7739  1.0882
 1475TIP3    H225841   2.928   0.997   3.390 -0.9444  0.9744 -0.9548
 1476TIP3   OH225842   2.528   2.398  11.480 -0.1709  0.1205  0.2133
 1476TIP3    H125843   2.555   2.420  11.391 -1.0573  0.4221  0.0024
 1476TIP3    H225844   2.554   2.306  11.491  0.6220  0.3074 -0.0783
 1477TIP3   OH225845   1.144   5.840  12.423 -0.1048 -0.2221  0.3393
 1477TIP3    H125846   1.068   5.800  12.465  0.2172  2.2312  3.6870
 1477TIP3    H225847   1.116   5.929  12.402  1.4532  0.3759  0.6418
 1478TIP3   OH225848   2.587   1.524  15.623  0.5607  0.0826  0.4071
 1478TIP3    H125849   2.654   1.498  15.686 -0.6523  0.2232  1.8259
 1478TIP3    H225850   2.567   1.444  15.574  0.2819 -0.4905  1.4310
 1479TIP3   OH225851   3.191   6.233   1.484  0.0185  0.1877 -0.1032
 1479TIP3    H125852   3.283   6.212   1.471 -0.0939 -0.1738 -0.3346
 1479TIP3    H225853   3.192   6.320   1.523  0.4832 -0.1985  0.7747
 1480TIP3   OH225854   1.898   4.105  13.242 -0.1946  0.0071 -0.4144
 1480TIP3    H125855   1.834   4.138  13.180  0.9687  0.8686 -1.2172
 1480TIP3    H225856   1.855   4.113  13.328 -1.8981 -1.4084 -1.0838
 1481TIP3   OH225857   2.786   3.935  14.021  0.4236  0.5093 -0.4272
 1481TIP3    H125858   2.771   4.019  14.066 -3.3561 -0.3649  0.2619
 1481TIP3    H225859   2.848   3.889  14.077 -0.1708  1.5012  1.1208
 1482TIP3   OH225860   1.651   1.061   6.102 -0.0929 -0.0783  0.4040
 1482TIP3    H125861   1.566   1.091   6.071  0.5631  0.6281 -0.7796
 1482TIP3    H225862   1.679   1.129   6.164 -0.7321 -0.7151  1.4006
 1483TIP3   OH225863   4.753   1.870  13.093 -0.1320  0.0422  0.8132
 1483TIP3    H125864   4.685   1.845  13.030  0.4928  1.0258 -0.2828
 1483TIP3    H225865   4.767   1.963  13.077  1.4372 -0.1284  1.0450
 1484TIP3   OH225866   3.284   5.432   2.895 -0.3787 -0.2985 -0.4636
 1484TIP3    H125867   3.244   5.506   2.849 -1.6039 -1.2386 -0.9515
 1484TIP3    H225868   3.375   5.458   2.906 -0.5287  0.8311 -1.5994
 1485TIP3   OH225869   0.715   1.605  15.507  0.2149 -0.4707  0.2372
 1485TIP3    H125870   0.789   1.550  15.534  2.1448 -1.0390 -5.0706
 1485TIP3    H225871   0.638   1.550  15.519  1.4045 -2.2062  0.2545
 1486TIP3   OH225872   0.838   4.977  11.398  0.9524  0.1223 -0.5183
 1486TIP3    H125873   0.782   5.050  11.426 -1.5715 -1.0275 -2.1200
 1486TIP3    H225874   0.927   5.007  11.415 -0.0708  2.4552  1.3976
 1487TIP3   OH225875   2.774   3.225   2.913 -0.0172 -0.2156  0.5033
 1487TIP3    H125876   2.822   3.207   2.832 -0.3175 -0.4913  0.3837
 1487TIP3    H225877   2.682   3.208   2.891  0.1025 -2.4549  1.4694
 1488TIP3   OH225878   2.481   3.715  10.414  0.0959 -0.3102 -0.3798
 1488TIP3    H125879   2.573   3.722  10.439  0.4070  1.4141 -1.7645
 1488TIP3    H225880   2.484   3.678  10.325 -0.6543 -1.3837  0.0159
 1489TIP3   OH225881   3.531   2.222  11.057  0.2488  0.2016  0.4908
 1489TIP3    H125882   3.541   2.138  11.103  0.9186  1.6311  3.2034
 1489TIP3    H225883   3.608   2.228  11.001 -1.1053 -2.0697 -1.7979
 1490TIP3   OH225884   3.991   2.886   1.891 -0.0918  0.3033  0.0109
 1490TIP3    H125885   4.046   2.833   1.948 -1.4049  1.3962  2.4303
 1490TIP3    H225886   3.964   2.826   1.821  1.3033 -1.1930  0.7002
 1491TIP3   OH225887   3.966   0.803  15.813 -0.4842  0.1002  0.3506
 1491TIP3    H125888   3.970   0.890  15.773 -0.4808 -0.3830 -0.7311
 1491TIP3    H225889   3.990   0.743  15.743 -0.0161 -0.7476  1.2125
 1492TIP3   OH225890   0.412   2.434   4.571  0.1141 -0.3333  0.4310
 1492TIP3    H125891   0.430   2.525   4.596  0.5993  0.3086 -1.9449
 1492TIP3    H225892   0.493   2.403   4.530 -0.3374 -1.5184  0.3855
 1493TIP3   OH225893   6.735   1.133  14.426 -0.4487  0.6269 -0.1427
 1493TIP3    H125894   6.780   1.163  14.505 -0.5648 -0.4698  0.3601
 1493TIP3    H225895   6.805   1.103  14.368 -0.4835 -2.4060  1.1897
 1494TIP3   OH225896   1.751   0.555  17.108  0.4393 -0.0001  0.1099
 1494TIP3    H125897   1.692   0.532  17.036  0.9840  0.7712 -0.5937
 1494TIP3    H225898   1.696   0.548  17.186 -0.5875  0.6550 -0.5320
 1495TIP3   OH225899   5.962   2.020   3.090  0.4878 -0.1882  0.3875
 1495TIP3    H125900   5.993   1.931   3.075 -0.1142 -0.1324 -1.5823
 1495TIP3    H225901   5.886   2.010   3.147 -0.5499 -1.1486 -1.0844
 1496TIP3   OH225902   0.352   1.946  16.384  0.2744 -0.1211 -0.3085
 1496TIP3    H125903   0.418   1.940  16.315  0.1877  0.5690 -0.4596
 1496TIP3    H225904   0.275   1.905  16.346  0.4499 -0.4180 -0.3438
 1497TIP3   OH225905   1.972   3.690   1.841  0.3128 -0.3089 -0.2557
 1497TIP3    H125906   1.987   3.638   1.762  1.7711  0.7247 -0.6908
 1497TIP3    H225907   2.057   3.729   1.861 -0.5186  1.1424  0.6026
 1498TIP3   OH225908   4.368   6.721   5.017  0.3671  0.1197 -0.1105
 1498TIP3    H125909   4.317   6.802   5.027 -0.1758 -0.3343  0.9548
 1498TIP3    H225910   4.373   6.685   5.105  1.7439 -0.3442 -0.3549
 1499TIP3   OH225911   5.548   2.320  13.795  0.4480 -0.1599 -0.1102
 1499TIP3    H125912   5.533   2.247  13.735 -1.5904  0.3704 -0.3104
 1499TIP3    H225913   5.631   2.357  13.766  1.2209 -1.9979 -0.3899
 1500TIP3   OH225914   1.466   1.810   5.555 -0.7772  0.5388 -0.7993
 1500TIP3    H125915   1.476   1.827   5.461  0.2609  0.5538 -0.6941
 1500TIP3    H225916   1.513   1.882   5.597 -2.6186  1.4679 -0.2195
 1501TIP3   OH225917   5.306   6.296  13.694  0.2219  0.0115 -0.0430
 1501TIP3    H125918   5.346   6.230  13.636 -0.9196  0.6668 -1.6521
 1501TIP3    H225919   5.321   6.262  13.782 -2.1903 -3.6297 -0.7994
 1502TIP3   OH225920   1.933   5.564   4.165  0.0958 -0.6310 -0.0384
 1502TIP3    H125921   1.945   5.496   4.099  0.9619 -0.7778  0.2664
 1502TIP3    H225922   1.964   5.644   4.122 -1.8891 -0.1928 -0.7774
 1503TIP3   OH225923   1.362   3.457   3.094  0.2954  0.1629 -0.1441
 1503TIP3    H125924   1.267   3.447   3.083  0.3736  0.5925 -1.2919
 1503TIP3    H225925   1.385   3.391   3.160 -0.4899 -1.3428 -1.3076
 1504TIP3   OH225926   5.132   6.231   2.319  0.1537 -0.2255  0.0618
 1504TIP3    H125927   5.183   6.309   2.295  0.5611 -0.4288  0.2518
 1504TIP3    H225928   5.168   6.161   2.264 -0.3668 -0.2302 -0.2737
 1505TIP3   OH225929   0.630   6.265  13.789 -0.9549  0.3788 -0.4513
 1505TIP3    H125930   0.596   6.346  13.751 -1.9591 -0.1249 -0.6327
 1505TIP3    H225931   0.629   6.281  13.883 -0.3465  0.8843 -0.5199
 1506TIP3   OH225932   1.658   2.671   2.682 -0.0421 -0.4704  0.3783
 1506TIP3    H125933   1.566   2.649   2.700 -0.2391 -2.1639 -2.2254
 1506TIP3    H225934   1.709   2.604   2.728 -0.3549 -2.1556 -1.5994
 1507TIP3   OH225935   2.593   2.337  16.047  0.0175  0.1124 -0.0418
 1507TIP3    H125936   2.576   2.320  16.140  0.6004 -1.8439 -0.2514
 1507TIP3    H225937   2.651   2.267  16.020 -1.3229 -0.2322 -2.2570
 1508TIP3   OH225938   3.309   5.431  15.137  0.0810 -0.0910 -0.3484
 1508TIP3    H125939   3.345   5.394  15.056  2.8346  0.3538  0.5623
 1508TIP3    H225940   3.281   5.355  15.188  1.1641 -0.6190 -0.5106
 1509TIP3   OH225941   3.853   0.401  15.015  0.3082 -0.0174 -0.1080
 1509TIP3    H125942   3.842   0.427  15.106  1.4284  4.5245 -1.0129
 1509TIP3    H225943   3.946   0.380  15.007  0.4494  0.6735 -0.3737
 1510TIP3   OH225944   6.347   1.554   2.844 -0.0111  0.1775 -0.3004
 1510TIP3    H125945   6.413   1.584   2.781 -0.0732  0.8075 -0.0730
 1510TIP3    H225946   6.368   1.462   2.859  0.3117  0.1569 -0.8606
 1511TIP3   OH225947   3.162   4.534   2.710 -0.0142  0.3141  0.1719
 1511TIP3    H125948   3.105   4.566   2.640  0.1497  0.1574 -0.0318
 1511TIP3    H225949   3.215   4.465   2.670 -0.1005  0.0429  0.5155
 1512TIP3   OH225950   4.035   6.570   1.504 -0.4033  0.3020 -0.3345
 1512TIP3    H125951   4.109   6.541   1.558  0.9340 -0.0604 -2.2388
 1512TIP3    H225952   3.972   6.499   1.509 -0.3605  0.3271  0.8144
 1513TIP3   OH225953   2.928   1.213  16.538 -0.4171  0.0071 -0.5386
 1513TIP3    H125954   2.939   1.308  16.533 -0.7783  0.0510 -0.5388
 1513TIP3    H225955   2.866   1.192  16.469  1.0574 -0.4758 -1.7721
 1514TIP3   OH225956   4.877   6.271  13.053 -0.0750  0.1189 -0.3273
 1514TIP3    H125957   4.954   6.277  13.108 -2.3636 -0.0163  3.1920
 1514TIP3    H225958   4.833   6.355  13.064 -2.3860 -1.1696  1.1034
 1515TIP3   OH225959   2.323   1.186  15.788  0.3951 -0.0845  0.2296
 1515TIP3    H125960   2.333   1.187  15.883 -1.1445  1.4100  0.4039
 1515TIP3    H225961   2.292   1.273  15.765 -1.5478 -1.1207 -1.3845
 1516TIP3   OH225962   4.702   1.966  15.872  0.0619 -0.1785 -0.4593
 1516TIP3    H125963   4.743   2.002  15.951 -1.0155 -0.8643  0.4371
 1516TIP3    H225964   4.635   2.030  15.849 -0.1049 -0.3287 -0.3923
 1517TIP3   OH225965   1.969   0.454   2.636  0.3484 -0.0854 -0.1810
 1517TIP3    H125966   2.035   0.399   2.596  0.1311 -0.4273 -0.0765
 1517TIP3    H225967   1.935   0.402   2.709 -0.9358 -0.4535 -1.0044
 1518TIP3   OH225968   6.573   4.927   3.622 -0.2585 -0.1709 -0.4188
 1518TIP3    H125969   6.650   4.972   3.587 -0.4040  0.7634  0.4094
 1518TIP3    H225970   6.546   4.868   3.552  0.9175 -0.1576 -0.9094
 1519TIP3   OH225971   6.686   3.717  14.976  0.4145 -0.6149  0.1624
 1519TIP3    H125972   6.644   3.726  14.891  0.9538 -1.3357 -0.1876
 1519TIP3    H225973   6.726   3.630  14.974  1.8756  0.0260  0.5066
 1520TIP3   OH225974   0.418   2.092  15.026  0.1894  0.2152 -0.5096
 1520TIP3    H125975   0.469   2.073  14.947  2.2554 -1.5415  1.1450
 1520TIP3    H225976   0.428   2.015  15.081  1.0034  2.3168  2.5957
 1521TIP3   OH225977   4.217   0.802  11.888  0.0708  0.3647  0.0226
 1521TIP3    H125978   4.229   0.783  11.981  0.1486  1.5960  0.2787
 1521TIP3    H225979   4.122   0.808  11.878  0.0718  0.4637  0.0713
 1522TIP3   OH225980   6.378   3.866   0.634 -0.0577 -0.2225  0.3109
 1522TIP3    H125981   6.370   3.802   0.563 -0.7045  0.5253 -0.3178
 1522TIP3    H225982   6.287   3.890   0.654  0.1664  0.3740  0.6370
 1523TIP3   OH225983   1.491   5.305   1.021 -0.1302 -0.0185 -0.3604
 1523TIP3    H125984   1.470   5.347   0.937  1.5462 -0.9613 -1.2874
 1523TIP3    H225985   1.462   5.215   1.010 -0.2800 -0.0412  0.2310
 1524TIP3   OH225986   0.157   6.741  11.589 -0.4613 -0.1865  0.1921
 1524TIP3    H125987   0.081   6.691  11.620 -0.8815  0.9197  1.0083
 1524TIP3    H225988   0.180   6.799  11.661  0.4948  0.2634 -0.4428
 1525TIP3   OH225989   1.365   3.919  10.955  0.4827 -0.3346 -0.1665
 1525TIP3    H125990   1.448   3.878  10.929  0.2691 -1.4601  0.8255
 1525TIP3    H225991   1.313   3.847  10.990  0.0516  0.7638  1.5658
 1526TIP3   OH225992   6.351   0.175  16.725 -0.1602 -0.5702 -0.1412
 1526TIP3    H125993   6.393   0.261  16.730  0.9653 -1.0637 -0.7001
 1526TIP3    H225994   6.370   0.134  16.810  0.1270 -0.6291 -0.2330
 1527TIP3   OH225995   4.288   1.421   4.556 -0.2929  0.0759  0.4556
 1527TIP3    H125996   4.330   1.468   4.484  0.0111  0.8476  1.1277
 1527TIP3    H225997   4.361   1.388   4.609 -0.4918 -1.3390 -0.0989
 1528TIP3   OH225998   3.219   1.450   1.094 -0.1967 -0.0673 -0.2956
 1528TIP3    H125999   3.228   1.376   1.154  0.9542 -0.5627 -1.0585
 1528TIP3    H226000   3.126   1.472   1.098 -0.2325 -0.4022  1.2842
 1529TIP3   OH226001   5.462   0.342  10.603  0.1498 -0.1380  0.1601
 1529TIP3    H126002   5.473   0.250  10.627  0.7885 -0.0183  0.3461
 1529TIP3    H226003   5.405   0.340  10.526 -0.3643 -0.6446  0.5471
 1530TIP3   OH226004   2.113   3.244   2.059  0.3887  0.2544 -0.1491
 1530TIP3    H126005   2.084   3.256   2.150  1.9816  1.1615  0.2723
 1530TIP3    H226006   2.104   3.330   2.020 -0.5712 -0.1982 -0.9734
 1531TIP3   OH226007   6.372   3.064  17.122  0.2740 -0.0973 -0.0869
 1531TIP3    H126008   6.304   3.131  17.113  0.8868  0.4381 -0.8505
 1531TIP3    H226009   6.442   3.093  17.064  1.4922 -0.2201  1.2472
 1532TIP3   OH226010   4.360   0.693   5.146 -0.1787 -0.0313  0.5835
 1532TIP3    H126011   4.399   0.630   5.207 -1.0668 -0.4818  0.6977
 1532TIP3    H226012   4.424   0.700   5.075 -0.2528 -1.4099  0.3464
 1533TIP3   OH226013   6.441   2.141   0.992 -0.4427 -0.6366 -0.2076
 1533TIP3    H126014   6.441   2.088   0.912 -0.2500 -1.6723  0.4510
 1533TIP3    H226015   6.426   2.077   1.063  2.2813 -0.2256  0.8727
 1534TIP3   OH226016   5.924   1.478  14.153 -0.0904 -0.2013  0.0972
 1534TIP3    H126017   5.918   1.515  14.065  1.4060  2.3808  0.9384
 1534TIP3    H226018   6.011   1.438  14.156  1.1808  2.3941  1.1805
 1535TIP3   OH226019   2.085   5.053   4.787  0.1767 -0.2225  0.2528
 1535TIP3    H126020   2.064   5.143   4.765 -0.9662 -0.7445 -0.9292
 1535TIP3    H226021   2.008   5.003   4.759  0.1713 -1.4000  2.1856
 1536TIP3   OH226022   1.171   4.208  15.434  0.2177  0.1302  0.3119
 1536TIP3    H126023   1.181   4.219  15.529  1.7751 -0.5707  0.2649
 1536TIP3    H226024   1.235   4.267  15.396  0.4085 -0.4282 -0.2586
 1537TIP3   OH226025   4.811   1.672   4.716 -0.8544 -0.0899 -0.2129
 1537TIP3    H126026   4.805   1.635   4.804  0.3399 -3.4865 -1.3976
 1537TIP3    H226027   4.722   1.667   4.681 -1.0055 -0.4100  0.2165
 1538TIP3   OH226028   1.484   5.387   6.002 -0.3543  0.5317 -0.1025
 1538TIP3    H126029   1.424   5.313   6.018 -2.4310  0.8117 -4.8765
 1538TIP3    H226030   1.567   5.346   5.979  0.1344 -0.0086  2.3588
 1539TIP3   OH226031   5.692   5.229   0.450  0.2299 -0.3864  0.1060
 1539TIP3    H126032   5.717   5.309   0.404  0.3601 -0.9388 -0.8113
 1539TIP3    H226033   5.597   5.236   0.460  0.2929  0.0676  0.3948
 1540TIP3   OH226034   4.105   0.028   4.481  0.3052  0.2765  0.1650
 1540TIP3    H126035   4.077   0.118   4.496 -0.3982  0.0338  0.3183
 1540TIP3    H226036   4.047  -0.004   4.412 -1.9874 -1.2585  2.6600
 1541TIP3   OH226037   6.285   2.575   6.497  0.2792 -0.0959 -0.0911
 1541TIP3    H126038   6.250   2.491   6.468 -0.9292 -0.1231  1.3295
 1541TIP3    H226039   6.219   2.639   6.469  1.3901  0.4697 -1.5324
 1542TIP3   OH226040   0.316   2.396   3.743 -0.3392  0.4869  0.1121
 1542TIP3    H126041   0.293   2.307   3.716  0.4528  0.6980 -1.3491
 1542TIP3    H226042   0.270   2.408   3.827 -0.4347 -1.2899  0.3585
 1543TIP3   OH226043   2.082   3.025  11.229 -0.4382 -0.2713  0.1779
 1543TIP3    H126044   2.055   2.999  11.140  2.0310  0.2429 -0.7997
 1543TIP3    H226045   2.062   3.119  11.233 -0.9228 -0.3776  0.3330
 1544TIP3   OH226046   3.468   0.009   1.857 -0.2581 -0.4445  0.3913
 1544TIP3    H126047   3.555   0.041   1.832  0.5800 -1.4560  1.9040
 1544TIP3    H226048   3.477  -0.086   1.861 -0.6814 -0.4415  3.0840
 1545TIP3   OH226049   3.997   1.015   4.798  0.0112 -0.0572 -0.3373
 1545TIP3    H126050   4.021   1.045   4.885 -1.4414  0.0533  0.0560
 1545TIP3    H226051   4.035   0.927   4.791  0.0029 -0.1328  0.4796
 1546TIP3   OH226052   5.435   4.640  13.095  0.0919 -0.2536 -0.2914
 1546TIP3    H126053   5.447   4.723  13.051 -1.0232 -0.0797 -0.3092
 1546TIP3    H226054   5.339   4.630  13.102  0.0599 -2.8575 -2.8120
 1547TIP3   OH226055   4.540   1.311  15.317  0.4163  0.0098 -0.4826
 1547TIP3    H126056   4.573   1.391  15.274 -0.3012  0.3134 -0.4779
 1547TIP3    H226057   4.592   1.304  15.397  0.6717  0.3261 -0.6171
 1548TIP3   OH226058   5.264   5.114   3.141  0.1169  0.1351 -0.6000
 1548TIP3    H126059   5.277   5.092   3.049  0.4613  0.9432 -0.7543
 1548TIP3    H226060   5.285   5.033   3.188 -2.7664 -1.1523 -1.3459
 1549TIP3   OH226061   5.206   6.207  15.835  0.0901 -0.3209  0.6055
 1549TIP3    H126062   5.143   6.216  15.764 -1.1788  1.2153  1.8597
 1549TIP3    H226063   5.200   6.115  15.862  0.6474 -0.9499 -1.2575
 1550TIP3   OH226064   0.609   5.874  11.475 -0.2185  0.2730  0.4875
 1550TIP3    H126065   0.557   5.938  11.524 -1.6791  0.1451 -0.7987
 1550TIP3    H226066   0.683   5.924  11.441  0.0154  0.6849  1.5644
 1551TIP3   OH226067   0.308   6.149  15.827  0.8845 -0.3157  0.4646
 1551TIP3    H126068   0.226   6.199  15.829  1.0471 -0.0652  1.4562
 1551TIP3    H226069   0.365   6.194  15.889  1.9698 -0.1842 -0.5736
 1552TIP3   OH226070   4.153   5.350   4.780  0.3163  0.4097 -0.0041
 1552TIP3    H126071   4.193   5.383   4.861  0.0176  0.4000  0.1490
 1552TIP3    H226072   4.064   5.384   4.783  0.4856  0.9276 -0.6350
 1553TIP3   OH226073   3.824   1.097   1.335  0.2571 -0.0580 -0.3247
 1553TIP3    H126074   3.908   1.137   1.359 -0.3177  0.6574  0.5674
 1553TIP3    H226075   3.833   1.077   1.241  0.4432  2.6001 -0.9539
 1554TIP3   OH226076   2.314   2.611  12.650 -0.0329  0.7346  0.5648
 1554TIP3    H126077   2.332   2.617  12.556  1.8713 -0.8179  0.7489
 1554TIP3    H226078   2.339   2.696  12.685 -1.0489  1.4300 -0.3634
 1555TIP3   OH226079   5.760   0.470  12.813  0.0983  0.0483 -0.3933
 1555TIP3    H126080   5.831   0.513  12.861 -0.5134  2.6521 -1.6583
 1555TIP3    H226081   5.713   0.420  12.880  1.3607  0.6764  1.0127
 1556TIP3   OH226082   0.706   2.094  11.763  0.8529 -0.0307  0.7336
 1556TIP3    H126083   0.620   2.064  11.732  0.7687  0.0039  0.9307
 1556TIP3    H226084   0.768   2.030  11.727  0.7240 -0.1659  0.7518
 1557TIP3   OH226085   6.775   6.196  13.099 -0.1186 -0.6544  0.0157
 1557TIP3    H126086   6.740   6.166  13.183  0.2657 -1.4433 -0.1012
 1557TIP3    H226087   6.864   6.223  13.118  0.6952 -2.7479 -0.4771
 1558TIP3   OH226088   3.867   4.089  12.656 -0.5649  0.1249  0.1342
 1558TIP3    H126089   3.848   4.068  12.747 -1.6942  0.3741 -0.0346
 1558TIP3    H226090   3.838   4.180  12.645 -0.2214  0.1765 -0.4115
 1559TIP3   OH226091   2.674   4.255   0.434  1.0643 -0.1852  0.1019
 1559TIP3    H126092   2.683   4.160   0.430 -0.6374 -0.3545 -0.5875
 1559TIP3    H226093   2.582   4.270   0.458  1.2152  1.2919 -0.1043
 1560TIP3   OH226094   2.735   5.790   4.440 -0.3269  0.2437 -0.2700
 1560TIP3    H126095   2.805   5.794   4.506 -2.1517 -0.1302  1.7671
 1560TIP3    H226096   2.782   5.774   4.357  1.8334 -2.3625  1.3092
 1561TIP3   OH226097   3.209   2.453   1.494  0.7647 -0.0432 -0.3612
 1561TIP3    H126098   3.248   2.539   1.479 -1.1156  0.9932  0.4010
 1561TIP3    H226099   3.205   2.413   1.406 -1.5757  2.1309 -1.3653
 1562TIP3   OH226100   3.796   1.891  13.930  0.0992 -0.0288 -0.4876
 1562TIP3    H126101   3.840   1.806  13.935  1.0070  0.4249 -0.4859
 1562TIP3    H226102   3.776   1.913  14.021  0.4416  0.0517 -0.4321
 1563TIP3   OH226103   5.287   1.938   5.239  0.0487  0.1504 -0.2548
 1563TIP3    H126104   5.244   1.946   5.324  1.5813 -0.2659  0.6050
 1563TIP3    H226105   5.365   1.884   5.257 -0.3303 -1.1505 -2.2011
 1564TIP3   OH226106   0.749   4.080   3.556 -0.0557 -0.2801  0.3218
 1564TIP3    H126107   0.764   4.111   3.467  1.0471 -0.8718  0.2749
 1564TIP3    H226108   0.693   4.146   3.596  0.9408  0.9616 -0.2505
 1565TIP3   OH226109   4.587   4.074  12.418  0.0334 -0.5651 -0.1697
 1565TIP3    H126110   4.651   4.002  12.421 -0.6814 -1.1880  1.0767
 1565TIP3    H226111   4.569   4.093  12.510 -0.3829  0.6976 -0.4951
 1566TIP3   OH226112   5.180   2.053  14.797 -0.1804 -0.1252 -0.4380
 1566TIP3    H126113   5.253   2.114  14.783 -1.8437  1.8407 -0.9143
 1566TIP3    H226114   5.155   2.025  14.709 -1.7160  1.3557 -0.5061
 1567TIP3   OH226115   3.326   1.986  14.989 -0.1960  0.3880  0.4543
 1567TIP3    H126116   3.271   2.029  15.055 -0.9667 -1.3727  1.0187
 1567TIP3    H226117   3.412   1.980  15.029 -0.6538 -0.6535  1.3361
 1568TIP3   OH226118   3.241   2.913   5.020 -0.1159 -0.1771 -0.0133
 1568TIP3    H126119   3.321   2.939   5.066 -1.1194  0.5538  1.3976
 1568TIP3    H226120   3.176   2.979   5.046 -0.8319  0.1146 -2.2897
 1569TIP3   OH226121   4.791   3.558  12.976 -0.4638  0.1949  0.6313
 1569TIP3    H126122   4.717   3.572  12.917  1.5782 -0.1940 -2.2384
 1569TIP3    H226123   4.810   3.464  12.968 -0.6433 -0.0418  2.6330
 1570TIP3   OH226124   0.267   4.943  10.745  0.3315 -0.7359  0.3312
 1570TIP3    H126125   0.273   5.026  10.791  1.5488 -0.4310 -0.3507
 1570TIP3    H226126   0.206   4.960  10.673  0.0955 -0.6222  0.5532
 1571TIP3   OH226127   3.782   1.401  13.813  0.1430 -0.0839 -0.0451
 1571TIP3    H126128   3.807   1.489  13.841  1.9767  0.4712 -2.9369
 1571TIP3    H226129   3.848   1.344  13.851  0.3993  0.1290 -0.1682
 1572TIP3   OH226130   4.484   5.890   5.472  0.3166 -0.1917  0.6751
 1572TIP3    H126131   4.542   5.825   5.433  0.4370  0.9112 -1.1225
 1572TIP3    H226132   4.492   5.967   5.415 -3.5025 -0.2487 -0.1940
 1573TIP3   OH226133   2.951   3.595  11.357  0.4046  0.1641 -0.1110
 1573TIP3    H126134   2.964   3.682  11.395 -1.8554  0.3386  0.3860
 1573TIP3    H226135   3.005   3.537  11.410  1.2751  1.1361  0.0929
 1574TIP3   OH226136   0.704   5.204   3.188  0.4438  0.4535 -0.2604
 1574TIP3    H126137   0.635   5.221   3.252  0.9104  0.8605  0.1389
 1574TIP3    H226138   0.675   5.125   3.142 -0.2662  0.5968 -0.0695
 1575TIP3   OH226139   3.300   5.286   2.547 -0.9598 -0.0553 -0.3364
 1575TIP3    H126140   3.302   5.342   2.470  0.7813  1.5675  0.8062
 1575TIP3    H226141   3.222   5.314   2.596  0.5651  2.4111  0.8662
 1576TIP3   OH226142   1.861   3.156  14.310  0.0275  0.1469  0.3871
 1576TIP3    H126143   1.907   3.073  14.326 -0.1258 -0.0477 -0.1800
 1576TIP3    H226144   1.791   3.134  14.248  1.0015  0.9962 -1.0782
 1577TIP3   OH226145   2.251   5.563   2.088 -0.0800 -0.0611 -0.4408
 1577TIP3    H126146   2.272   5.609   2.169  1.0642 -1.5576  0.1424
 1577TIP3    H226147   2.231   5.634   2.026  1.0917  1.2205  0.5672
 1578TIP3   OH226148   4.422   1.327  16.926  0.4312 -0.1186  0.4842
 1578TIP3    H126149   4.384   1.336  16.839  0.8233  1.1097  0.4174
 1578TIP3    H226150   4.356   1.279  16.976  0.1579 -0.7447 -0.4540
 1579TIP3   OH226151   4.751   3.392  13.593 -0.0712 -0.3919  0.5348
 1579TIP3    H126152   4.759   3.303  13.559 -1.0920 -0.0567 -0.6739
 1579TIP3    H226153   4.658   3.401  13.614 -0.6451  1.2980 -2.1848
 1580TIP3   OH226154   0.238   6.520  11.391 -0.4529 -0.0245 -0.4529
 1580TIP3    H126155   0.286   6.602  11.403  0.1518 -0.3993 -0.2581
 1580TIP3    H226156   0.202   6.526  11.302 -1.0547  0.7709 -0.1731
 1581TIP3   OH226157   3.394   3.958   1.935 -0.3581  0.5327 -0.1842
 1581TIP3    H126158   3.359   4.047   1.934 -0.9576  0.3016 -0.2230
 1581TIP3    H226159   3.488   3.969   1.921 -0.6270  1.0626 -1.8746
 1582TIP3   OH226160   4.474   4.160  15.221  0.1816 -0.2740 -0.4450
 1582TIP3    H126161   4.464   4.163  15.126 -1.0870 -0.0813 -0.3282
 1582TIP3    H226162   4.446   4.247  15.251  0.5166 -0.3527  0.1112
 1583TIP3   OH226163   3.824   0.925   6.138 -0.2466  0.0198  0.4852
 1583TIP3    H126164   3.875   0.967   6.069 -0.0490 -1.8204 -0.5658
 1583TIP3    H226165   3.734   0.953   6.122 -0.0002  0.8180  0.4461
 1584TIP3   OH226166   5.364   2.484  13.583 -0.1139 -0.3287  0.0087
 1584TIP3    H126167   5.318   2.443  13.509 -0.6517 -0.8243  0.6042
 1584TIP3    H226168   5.421   2.415  13.616 -0.6273 -0.4389  0.6812
 1585TIP3   OH226169   4.352   1.422   1.219 -0.0431 -0.5778  0.1324
 1585TIP3    H126170   4.447   1.420   1.228 -0.0548 -0.0384  0.4494
 1585TIP3    H226171   4.319   1.407   1.308 -0.2479 -0.6900  0.0364
 1586TIP3   OH226172   5.366   6.177   1.611 -0.9416  0.0708 -0.0080
 1586TIP3    H126173   5.364   6.258   1.559  0.9062 -0.2742 -0.6782
 1586TIP3    H226174   5.304   6.119   1.567  0.1272  0.0102 -1.4899
 1587TIP3   OH226175   1.154   0.098   4.172  0.1647  0.5321 -0.0687
 1587TIP3    H126176   1.140   0.102   4.267 -0.3755  1.4818 -0.1806
 1587TIP3    H226177   1.082   0.044   4.140  0.9113 -0.6364  0.1558
 1588TIP3   OH226178   1.192   6.429   2.286 -0.0058  0.1993  0.6325
 1588TIP3    H126179   1.222   6.354   2.336 -0.6955  0.5561  1.6281
 1588TIP3    H226180   1.128   6.394   2.224  2.2286 -0.5403 -1.3952
 1589TIP3   OH226181   3.045   4.431   4.477  0.0502 -0.1016 -0.0723
 1589TIP3    H126182   3.070   4.473   4.395 -0.7737  1.7265  0.5661
 1589TIP3    H226183   3.095   4.477   4.544 -1.7809  0.7389  0.7765
 1590TIP3   OH226184   0.784   0.144   4.353 -0.3954  0.3200 -0.2670
 1590TIP3    H126185   0.877   0.140   4.374 -0.4902 -0.3508  0.0423
 1590TIP3    H226186   0.781   0.146   4.258 -0.0832 -0.3168 -0.2925
 1591TIP3   OH226187   3.011   5.953  11.812 -0.4508  0.4892 -0.2314
 1591TIP3    H126188   2.936   5.928  11.758 -0.8000  0.5708  0.2154
 1591TIP3    H226189   2.988   6.038  11.848 -0.4744  0.1805  0.5094
 1592TIP3   OH226190   1.132   2.953  14.688  0.4019  0.3384  0.3261
 1592TIP3    H126191   1.206   3.002  14.724  1.0010 -0.5629  0.3413
 1592TIP3    H226192   1.131   2.871  14.736  1.0247 -0.7585 -1.4344
 1593TIP3   OH226193   6.362   6.796   5.466  0.5450 -0.3880  0.2647
 1593TIP3    H126194   6.452   6.811   5.493  0.8247 -2.2221  0.4868
 1593TIP3    H226195   6.363   6.708   5.428 -0.8290  0.1808 -1.2128
 1594TIP3   OH226196   3.223   4.459  14.347  0.0170 -0.5126  0.3978
 1594TIP3    H126197   3.267   4.481  14.265  1.1811  1.5954  1.5314
 1594TIP3    H226198   3.221   4.363  14.347  1.0347 -0.5879 -1.5464
 1595TIP3   OH226199   3.497   4.932  11.403 -0.0748 -0.5511 -0.0307
 1595TIP3    H126200   3.561   4.931  11.333 -0.0216 -3.9587 -0.0908
 1595TIP3    H226201   3.534   4.990  11.470  2.2269 -1.0675 -0.7935
 1596TIP3   OH226202   0.875   3.837  16.477 -0.1455 -0.0740  0.5290
 1596TIP3    H126203   0.864   3.782  16.400 -2.9229  1.3230 -0.1876
 1596TIP3    H226204   0.923   3.913  16.446  0.8988 -0.6033  0.7946
 1597TIP3   OH226205   2.794   0.384   3.475 -0.5483  0.4168 -0.5963
 1597TIP3    H126206   2.754   0.297   3.466 -1.5693  0.7569  0.4975
 1597TIP3    H226207   2.841   0.380   3.558 -1.4300  1.2122 -0.0459
 1598TIP3   OH226208   2.615   2.428  11.763  0.1662 -0.2531  0.3729
 1598TIP3    H126209   2.667   2.350  11.785 -0.0514 -0.0238  1.7844
 1598TIP3    H226210   2.596   2.418  11.670  0.8975 -1.4446  0.3271
 1599TIP3   OH226211   1.035   0.920   5.008 -0.7588 -0.4318 -0.0295
 1599TIP3    H126212   1.080   0.880   4.935 -0.8200  2.8665 -2.0744
 1599TIP3    H226213   1.084   1.001   5.025 -1.1231 -0.7586  3.2268
 1600TIP3   OH226214   2.614   2.416   2.888 -0.4918  0.6655 -0.2508
 1600TIP3    H126215   2.630   2.381   2.975 -0.7667 -1.4467 -0.9973
 1600TIP3    H226216   2.554   2.489   2.902 -0.6595  0.2608  1.2999
 1601TIP3   OH226217   1.458   4.186  15.325  0.3110  0.2638 -0.1434
 1601TIP3    H126218   1.549   4.163  15.343  0.4478  0.2189 -0.8673
 1601TIP3    H226219   1.459   4.281  15.313  0.1652  0.3361  0.3612
 1602TIP3   OH226220   0.076   3.824   5.687 -0.2581  0.3084 -0.1454
 1602TIP3    H126221   0.040   3.735   5.683 -0.2115  0.3146 -0.8748
 1602TIP3    H226222   0.010   3.875   5.734 -1.4092  0.4056 -1.7761
 1603TIP3   OH226223   5.643   1.926  15.771  0.1665  0.1511  0.1042
 1603TIP3    H126224   5.596   1.892  15.695  1.6925 -2.1771  0.1013
 1603TIP3    H226225   5.588   1.901  15.846  0.8078 -1.6534  0.0288
 1604TIP3   OH226226   6.500   3.055   2.368  0.2857  0.0694  0.4990
 1604TIP3    H126227   6.530   3.146   2.373  1.6219 -0.2518 -0.9823
 1604TIP3    H226228   6.507   3.023   2.458 -1.5675  1.8059  1.3264
 1605TIP3   OH226229   4.439   5.389  11.616 -0.3701 -0.6030 -0.0657
 1605TIP3    H126230   4.359   5.421  11.658 -0.1008 -0.2279  0.1758
 1605TIP3    H226231   4.432   5.416  11.525 -0.4387 -0.4124 -0.0036
 1606TIP3   OH226232   0.986   2.459   4.664 -0.1570  0.3705 -0.3942
 1606TIP3    H126233   0.971   2.490   4.753 -0.1640  1.0376 -0.6224
 1606TIP3    H226234   1.079   2.474   4.648 -0.1125  0.0685 -0.4344
 1607TIP3   OH226235   5.424   5.061   1.210 -0.8148  0.0935  0.1554
 1607TIP3    H126236   5.367   5.038   1.283 -0.0054  1.3816  1.2351
 1607TIP3    H226237   5.475   4.981   1.192 -2.8895 -1.0806 -0.8417
 1608TIP3   OH226238   2.917   4.064  15.720  0.0169  0.9768 -0.2147
 1608TIP3    H126239   2.931   4.123  15.793  1.7022 -0.4753  0.7304
 1608TIP3    H226240   2.870   3.990  15.758 -0.5460  0.9320 -0.9809
 1609TIP3   OH226241   0.522   2.984   5.021  0.0278 -0.3459  0.2027
 1609TIP3    H126242   0.428   3.001   5.016  0.0644 -0.5636 -2.4688
 1609TIP3    H226243   0.563   3.070   5.008  0.1944 -0.4836 -0.1916
 1610TIP3   OH226244   1.407   0.730  10.939  0.2274  0.1998  0.9117
 1610TIP3    H126245   1.449   0.799  10.888  1.3653  0.1810  1.7770
 1610TIP3    H226246   1.332   0.773  10.980 -0.5837  0.2585 -0.5895
 1611TIP3   OH226247   3.694   5.853  12.933 -0.3243 -0.2760  0.0761
 1611TIP3    H126248   3.645   5.927  12.968  1.2882  0.0043  1.9072
 1611TIP3    H226249   3.781   5.888  12.915 -0.6089 -0.8134 -2.8729
 1612TIP3   OH226250   2.653   2.338  12.182  0.4802 -0.0832 -0.0303
 1612TIP3    H126251   2.706   2.312  12.107  1.2895 -0.0170  0.5117
 1612TIP3    H226252   2.574   2.375  12.144  0.3354 -1.1680 -0.8462
 1613TIP3   OH226253   4.845   1.730   2.446  0.0633  0.6495 -0.2073
 1613TIP3    H126254   4.758   1.767   2.435  0.1556  0.3898 -2.0663
 1613TIP3    H226255   4.830   1.635   2.453  0.0822  0.7298  1.4035
 1614TIP3   OH226256   5.121   5.522  12.756 -0.6234  0.2052  0.1374
 1614TIP3    H126257   5.195   5.480  12.800  0.8471  0.0566 -2.2969
 1614TIP3    H226258   5.116   5.478  12.671 -2.1191  1.7090 -0.6054
 1615TIP3   OH226259   1.835   5.233  15.850 -1.0250 -0.1116 -0.2607
 1615TIP3    H126260   1.818   5.319  15.813 -0.4463  0.0319 -0.1884
 1615TIP3    H226261   1.878   5.250  15.934 -0.0576 -0.4839 -0.6732
 1616TIP3   OH226262   0.131   2.959  11.126  0.3403 -0.2589 -0.0251
 1616TIP3    H126263   0.203   3.022  11.132  2.1777 -2.2884  1.0054
 1616TIP3    H226264   0.131   2.931  11.034 -0.3144  0.9897 -0.4261
 1617TIP3   OH226265   6.227   0.641   4.673  0.1059 -0.0439 -0.3485
 1617TIP3    H126266   6.257   0.727   4.703  1.0833 -0.0375 -1.2596
 1617TIP3    H226267   6.138   0.632   4.709  1.0084  0.1225  2.1074
 1618TIP3   OH226268   2.579   1.651   2.281  0.2484 -0.0986  0.3009
 1618TIP3    H126269   2.648   1.668   2.345  0.1448  0.5655  0.2438
 1618TIP3    H226270   2.533   1.735   2.273 -0.2646 -0.4079 -0.0145
 1619TIP3   OH226271   0.064   5.572  14.451  0.4560 -0.2710  0.2548
 1619TIP3    H126272   0.106   5.590  14.535 -1.7272 -0.1842  1.4229
 1619TIP3    H226273   0.048   5.478  14.452 -1.2117 -0.0138  0.8191
 1620TIP3   OH226274   5.121   3.815   2.120  0.5351  0.3468  0.0220
 1620TIP3    H126275   5.081   3.761   2.051  0.1230  1.0756 -0.3190
 1620TIP3    H226276   5.212   3.826   2.090  0.7865 -0.6383  0.3925
 1621TIP3   OH226277   3.800   5.825  16.107  0.4767  0.0493 -0.3694
 1621TIP3    H126278   3.812   5.731  16.091  1.5284 -0.3188  2.1702
 1621TIP3    H226279   3.709   5.832  16.137  0.1944 -0.0435 -1.1854
 1622TIP3   OH226280   4.264   2.941   1.066 -0.0778 -0.2100 -0.0706
 1622TIP3    H126281   4.301   3.029   1.062 -2.9357  1.0534 -1.0902
 1622TIP3    H226282   4.332   2.885   1.029  2.4732  1.2326  2.0760
 1623TIP3   OH226283   5.223   4.001  12.661  0.3243  0.1813  0.7570
 1623TIP3    H126284   5.257   3.915  12.636 -0.2999 -0.4493  1.9766
 1623TIP3    H226285   5.297   4.045  12.703  1.3732  1.2389 -2.0141
 1624TIP3   OH226286   0.762   3.467  12.978  0.3874 -0.6785  0.3582
 1624TIP3    H126287   0.671   3.477  13.005  0.5299  1.4612  0.1893
 1624TIP3    H226288   0.757   3.437  12.887 -0.1121 -1.9611  0.7893
 1625TIP3   OH226289   2.411   1.881  13.326  0.1923 -0.3409 -0.3435
 1625TIP3    H126290   2.481   1.861  13.264  1.2822 -1.0174  1.0436
 1625TIP3    H226291   2.381   1.795  13.356 -1.0774 -0.0543 -0.7013
 1626TIP3   OH226292   4.911   6.278   2.528 -0.0787  0.3035  0.0552
 1626TIP3    H126293   4.939   6.267   2.437 -0.0307 -1.2697  0.2464
 1626TIP3    H226294   4.818   6.257   2.527  0.4201 -2.2894  0.7620
 1627TIP3   OH226295   0.290   6.787  11.931  0.8246  0.7950  0.2185
 1627TIP3    H126296   0.200   6.811  11.907  0.0800 -2.0869 -0.2379
 1627TIP3    H226297   0.304   6.827  12.016 -0.8536  1.4037  0.2334
 1628TIP3   OH226298   2.288   1.232  14.392  0.3198  0.0905 -0.5036
 1628TIP3    H126299   2.230   1.284  14.336 -0.1484 -1.2461 -1.2825
 1628TIP3    H226300   2.351   1.296  14.426 -1.4028  1.5464  0.1499
 1629TIP3   OH226301   1.502   2.217   4.449 -0.5329 -0.1674 -0.1488
 1629TIP3    H126302   1.459   2.280   4.391 -0.0733  0.4123  0.1225
 1629TIP3    H226303   1.594   2.220   4.423 -0.6838 -1.6298 -0.9344
 1630TIP3   OH226304   6.302   6.438   0.978 -0.8724  0.0738 -0.2866
 1630TIP3    H126305   6.326   6.488   0.899 -0.0623  0.4785  0.1990
 1630TIP3    H226306   6.296   6.505   1.047 -0.9688 -0.3541  0.1212
 1631TIP3   OH226307   0.581   6.358   5.827  0.7158  0.2549  0.5338
 1631TIP3    H126308   0.554   6.436   5.875 -0.5102  0.7894 -0.9458
 1631TIP3    H226309   0.659   6.385   5.779 -0.3616  0.9573 -0.8759
 1632TIP3   OH226310   3.745   6.635   1.954 -0.6354 -0.4868  1.4084
 1632TIP3    H126311   3.726   6.549   1.915  0.7172 -0.1801  0.0107
 1632TIP3    H226312   3.723   6.624   2.047 -0.7718 -2.2467  1.2014
 1633TIP3   OH226313   1.234   4.243  14.998 -0.8175 -0.4356  0.0341
 1633TIP3    H126314   1.305   4.256  15.061 -1.1092 -1.1888  0.5290
 1633TIP3    H226315   1.176   4.181  15.040 -0.4490 -1.8332 -1.4186
 1634TIP3   OH226316   6.723   0.511  12.758 -0.7564  0.4420 -0.2384
 1634TIP3    H126317   6.699   0.604  12.755 -0.3891  0.5132 -1.0852
 1634TIP3    H226318   6.679   0.478  12.836 -1.6984  1.1059 -0.4683
 1635TIP3   OH226319   0.563   6.325  11.352  0.2230  0.7638 -0.5727
 1635TIP3    H126320   0.480   6.368  11.330  0.0194  0.4953 -0.3286
 1635TIP3    H226321   0.557   6.239  11.312  1.1132  1.3561 -2.0678
 1636TIP3   OH226322   3.945   0.859  16.084  0.0720  0.2259  0.3989
 1636TIP3    H126323   3.958   0.952  16.069  2.2658 -0.0034  0.5719
 1636TIP3    H226324   3.958   0.819  15.998 -3.5840  0.2010 -0.3208
 1637TIP3   OH226325   0.460   3.670   0.852 -0.1207 -0.4577  0.0746
 1637TIP3    H126326   0.480   3.705   0.766 -1.2129  0.2444  0.0809
 1637TIP3    H226327   0.540   3.681   0.903 -0.7709  3.5204  0.5559
 1638TIP3   OH226328   3.577   1.690  12.163 -0.4428  0.0869  0.6020
 1638TIP3    H126329   3.621   1.705  12.080 -1.4782 -1.3466 -0.2666
 1638TIP3    H226330   3.545   1.776  12.190  2.8089  1.2195  1.3255
 1639TIP3   OH226331   6.139   5.128  11.646  0.3536  0.4997  0.1342
 1639TIP3    H126332   6.226   5.090  11.659  0.8559  1.5726  0.1019
 1639TIP3    H226333   6.092   5.064  11.593  1.3143  0.1383 -0.3098
 1640TIP3   OH226334   1.143   1.076  12.845 -0.5394 -0.5673 -0.4077
 1640TIP3    H126335   1.185   0.993  12.824  1.3955  0.1453  0.4002
 1640TIP3    H226336   1.209   1.124  12.895 -1.6848  1.3602 -0.6444
 1641TIP3   OH226337   3.791   0.556  13.062  0.1428 -0.4107  0.0820
 1641TIP3    H126338   3.722   0.601  13.014  0.2799 -0.3748 -0.0800
 1641TIP3    H226339   3.872   0.598  13.033  0.3154 -1.1060 -0.4570
 1642TIP3   OH226340   1.758   5.182   6.296 -0.5322 -0.0532 -0.3233
 1642TIP3    H126341   1.669   5.215   6.298 -0.8239 -0.6183 -2.0023
 1642TIP3    H226342   1.754   5.107   6.236  1.1404  0.1776 -0.7717
 1643TIP3   OH226343   5.960   3.534   0.906  0.1062  0.2945  0.3172
 1643TIP3    H126344   5.929   3.456   0.953  3.5604 -0.1890  2.1704
 1643TIP3    H226345   6.010   3.499   0.832  0.3639  0.8265  0.2366
 1644TIP3   OH226346   6.019   0.947   4.962 -0.4231  0.1838  0.4368
 1644TIP3    H126347   6.062   1.022   4.921  1.5025 -1.7342 -1.3961
 1644TIP3    H226348   5.926   0.969   4.962  0.0188  2.3527 -0.4346
 1645TIP3   OH226349   5.713   3.932   5.436  0.1867 -0.1277 -0.3509
 1645TIP3    H126350   5.640   3.992   5.420 -0.2473 -1.1761 -2.9287
 1645TIP3    H226351   5.785   3.987   5.466 -1.5844  0.9402  2.2322
 1646TIP3   OH226352   3.920   6.479  11.169  0.2183 -0.6349 -0.5040
 1646TIP3    H126353   3.982   6.538  11.127  1.1322 -1.9276 -1.0265
 1646TIP3    H226354   3.974   6.416  11.216 -0.7489 -0.7893  0.4421
 1647TIP3   OH226355   1.147   5.823   2.760 -0.6010 -0.4469 -0.4409
 1647TIP3    H126356   1.211   5.816   2.689 -2.0211  0.0583 -1.8341
 1647TIP3    H226357   1.166   5.906   2.803  0.3666 -0.8299 -0.1049
 1648TIP3   OH226358   0.617   0.763  11.834 -0.2512  0.2975  0.1307
 1648TIP3    H126359   0.629   0.710  11.756  0.7091 -1.4539  1.3816
 1648TIP3    H226360   0.602   0.699  11.904  3.1481  1.4038  2.1316
 1649TIP3   OH226361   1.764   1.398   2.637  0.0808  0.5748  0.0195
 1649TIP3    H126362   1.690   1.372   2.583  0.7338  0.1445 -0.6840
 1649TIP3    H226363   1.744   1.488   2.665 -0.4137  0.6752 -0.6518
 1650TIP3   OH226364   1.356   5.060   0.956 -0.2661 -0.3030  0.2197
 1650TIP3    H126365   1.263   5.039   0.943 -0.4845 -0.2230  1.4677
 1650TIP3    H226366   1.387   4.994   1.018  0.2356  0.2864  0.6085
 1651TIP3   OH226367   4.088   6.588  14.861  0.1192 -0.2681 -0.1155
 1651TIP3    H126368   3.996   6.605  14.882  0.5558 -1.6767  3.6704
 1651TIP3    H226369   4.136   6.616  14.939  2.6541 -1.9658 -0.9406
 1652TIP3   OH226370   1.289   4.270  14.730 -0.6298 -0.3589 -0.6258
 1652TIP3    H126371   1.383   4.270  14.712 -0.3298  1.6993  0.6741
 1652TIP3    H226372   1.282   4.248  14.823 -1.0118  3.9115  0.5384
 1653TIP3   OH226373   6.475   5.924  15.021  0.1881 -0.1848  0.3718
 1653TIP3    H126374   6.512   5.839  15.046 -0.7514 -0.6389  0.3001
 1653TIP3    H226375   6.423   5.904  14.943 -0.7214  0.2820  0.8467
 1654TIP3   OH226376   0.234   2.750   4.887 -0.2363  0.0573  0.1820
 1654TIP3    H126377   0.139   2.759   4.888 -0.4119 -1.4204 -0.3423
 1654TIP3    H226378   0.254   2.720   4.798  0.7676  0.7827  0.1526
 1655TIP3   OH226379   3.560   4.971  11.712  0.4194 -0.3239  0.2749
 1655TIP3    H126380   3.627   4.960  11.780  1.3976  0.6335 -0.5069
 1655TIP3    H226381   3.526   4.882  11.699  0.4479 -0.5883  1.7524
 1656TIP3   OH226382   3.070   5.012  11.740 -0.1532 -0.2794 -0.3758
 1656TIP3    H126383   3.005   5.022  11.810 -2.3404 -0.9222 -2.1924
 1656TIP3    H226384   3.107   4.925  11.753 -0.1546 -0.1841  0.2807
 1657TIP3   OH226385   5.657   1.479   0.824  0.0483  0.4219  0.1147
 1657TIP3    H126386   5.620   1.433   0.749  2.1353  1.6388 -1.7913
 1657TIP3    H226387   5.642   1.572   0.806 -0.2493  0.7073  1.7005
 1658TIP3   OH226388   6.105   6.717  13.226 -0.7832 -0.1461  0.1856
 1658TIP3    H126389   6.082   6.729  13.134 -0.7729  0.8903  0.3145
 1658TIP3    H226390   6.031   6.754  13.275  0.6619  2.4288  0.6047
 1659TIP3   OH226391   3.032   4.516  12.415 -0.0041 -0.3032 -0.6493
 1659TIP3    H126392   2.939   4.528  12.433  0.3444  1.3588  0.2306
 1659TIP3    H226393   3.043   4.546  12.325 -0.1827  0.3677 -0.4547
 1660TIP3   OH226394   4.836   5.805   5.767 -0.5701  0.0284  1.2471
 1660TIP3    H126395   4.857   5.794   5.860 -0.5833 -1.6665  1.0903
 1660TIP3    H226396   4.889   5.739   5.723 -0.8347  0.5762  0.0850
 1661TIP3   OH226397   4.244   1.605   1.019  0.3636 -0.3826 -0.1926
 1661TIP3    H126398   4.209   1.541   1.082  0.5433  0.1104  0.4240
 1661TIP3    H226399   4.333   1.623   1.051  0.7608 -0.7518 -1.0750
 1662TIP3   OH226400   3.803   1.059   1.062  0.2581  0.4125 -0.0482
 1662TIP3    H126401   3.709   1.051   1.048  0.4896 -1.3603 -0.7661
 1662TIP3    H226402   3.835   1.108   0.986 -0.0656  1.0655  0.2234
 1663TIP3   OH226403   2.873   3.276   1.065 -0.6486 -0.0206 -0.1975
 1663TIP3    H126404   2.880   3.193   1.019 -1.0731  0.3865 -1.0279
 1663TIP3    H226405   2.850   3.340   0.997 -1.7988  0.5130  0.6393
 1664TIP3   OH226406   0.880   2.606  14.022  0.6571 -0.8460  1.1778
 1664TIP3    H126407   0.905   2.515  14.039 -2.3279 -1.8470  0.8356
 1664TIP3    H226408   0.867   2.610  13.927 -0.4634 -0.4381  1.3396
 1665TIP3   OH226409   1.536   4.436   3.859  0.3795 -0.5833  0.1381
 1665TIP3    H126410   1.527   4.399   3.947  1.5793 -0.9624  0.1150
 1665TIP3    H226411   1.606   4.385   3.818 -0.7984 -1.0331 -1.3938
 1666TIP3   OH226412   4.601   2.631  15.805 -0.0381 -0.1129 -0.5982
 1666TIP3    H126413   4.564   2.703  15.856 -0.3079 -0.8431  0.2562
 1666TIP3    H226414   4.558   2.637  15.720  0.4834  1.1744 -0.8037
 1667TIP3   OH226415   4.750   6.195  11.058 -0.5919 -0.4873  0.3866
 1667TIP3    H126416   4.718   6.108  11.034  2.0052 -2.3627  3.1339
 1667TIP3    H226417   4.845   6.188  11.051 -0.2198  1.5227  2.5414
 1668TIP3   OH226418   1.641   1.367   4.392 -0.1774  0.1363  0.2865
 1668TIP3    H126419   1.668   1.370   4.484  0.4814 -1.1688  0.1618
 1668TIP3    H226420   1.621   1.275   4.376 -0.6998  0.4228 -0.7702
 1669TIP3   OH226421   5.747   2.824   4.004 -0.6776 -0.3790 -0.0215
 1669TIP3    H126422   5.722   2.858   3.918  0.9373 -0.7041 -0.6693
 1669TIP3    H226423   5.718   2.732   4.002  0.9481 -0.9342 -1.0110
 1670TIP3   OH226424   4.910   4.357  15.910  0.2684 -0.0344 -0.5741
 1670TIP3    H126425   4.996   4.338  15.946  0.7346 -0.3621 -1.8187
 1670TIP3    H226426   4.927   4.411  15.833 -0.7117  0.7393 -0.2826
 1671TIP3   OH226427   6.502   0.347   1.890 -0.2596  0.8627 -0.2461
 1671TIP3    H126428   6.561   0.396   1.833 -0.4519  0.3901 -0.8603
 1671TIP3    H226429   6.484   0.266   1.842 -2.5350  1.5795 -0.7555
 1672TIP3   OH226430   5.707   6.006   0.009  0.4820  0.1393 -0.0363
 1672TIP3    H126431   5.699   5.963   0.094  1.2345 -1.1191 -0.5741
 1672TIP3    H226432   5.634   6.068   0.006 -0.1880 -0.5741  1.0753
 1673TIP3   OH226433   1.501   2.010   3.868 -0.0349  0.2373  0.0457
 1673TIP3    H126434   1.464   2.073   3.929  0.5646  0.9590 -0.3143
 1673TIP3    H226435   1.455   1.928   3.886  0.5784  0.2536  1.8942
 1674TIP3   OH226436   5.312   5.565   5.607  0.2746  0.1805  0.2259
 1674TIP3    H126437   5.264   5.579   5.688 -0.0818  1.1107 -0.1399
 1674TIP3    H226438   5.304   5.647   5.559 -0.4485 -0.6959 -1.2372
 1675TIP3   OH226439   4.472   0.218  10.658 -0.5148 -0.2202 -0.3267
 1675TIP3    H126440   4.536   0.174  10.602  0.4370 -1.2051  1.4489
 1675TIP3    H226441   4.502   0.309  10.663  0.2712 -0.4855 -0.1767
 1676TIP3   OH226442   4.510   5.418   2.536  0.5969 -0.1641  0.7787
 1676TIP3    H126443   4.457   5.473   2.595  0.9683 -0.6554  1.5927
 1676TIP3    H226444   4.461   5.336   2.530  0.2701  0.0843 -0.0773
 1677TIP3   OH226445   6.303   2.989  14.034  0.4047  0.1412 -0.3411
 1677TIP3    H126446   6.221   2.953  13.999 -0.1011  1.0379 -0.0991
 1677TIP3    H226447   6.329   2.926  14.101 -0.8321  0.5511  0.5503
 1678TIP3   OH226448   4.178   3.969  12.692 -0.6116 -0.1009  0.2056
 1678TIP3    H126449   4.143   4.031  12.627  1.2594  1.3928  0.5262
 1678TIP3    H226450   4.261   3.939  12.655 -0.2162 -0.3524  1.2533
 1679TIP3   OH226451   5.212   5.653   0.049  0.0645 -0.3808  0.2078
 1679TIP3    H126452   5.204   5.610  -0.036 -0.9226 -1.6501  0.8994
 1679TIP3    H226453   5.305   5.668   0.060  0.2534 -0.6763 -0.8723
 1680TIP3   OH226454   2.039   4.419  16.780  0.4409  0.3945  0.0488
 1680TIP3    H126455   2.007   4.411  16.690  2.1081 -1.4394 -0.4503
 1680TIP3    H226456   2.096   4.496  16.779  0.0291  0.6972 -0.3168
 1681TIP3   OH226457   5.181   0.126  15.822 -0.3660  0.1429 -0.1348
 1681TIP3    H126458   5.219   0.120  15.909  2.4885 -1.0828 -1.3602
 1681TIP3    H226459   5.205   0.213  15.791  1.4536 -0.5672 -0.8411
 1682TIP3   OH226460   5.068   3.357  13.122  0.2699  0.1864 -0.2464
 1682TIP3    H126461   5.110   3.404  13.194  0.4038  1.8404 -1.3317
 1682TIP3    H226462   4.975   3.355  13.145  0.4821 -0.5418  0.6022
 1683TIP3   OH226463   2.309   5.259   4.022  0.0362 -0.1532 -0.0053
 1683TIP3    H126464   2.369   5.308   4.078  0.4742 -1.3897  0.6454
 1683TIP3    H226465   2.239   5.230   4.081  0.2299 -1.0310 -0.1986
 1684TIP3   OH226466   2.414   3.789   2.395  0.0226  0.2318  0.2374
 1684TIP3    H126467   2.468   3.823   2.466  1.2284 -0.5944 -0.2373
 1684TIP3    H226468   2.427   3.851   2.323  0.5157 -0.0626  0.0642
 1685TIP3   OH226469   3.074   2.992   1.809 -0.1778 -0.5180 -0.6890
 1685TIP3    H126470   3.108   2.903   1.820 -0.7607 -0.6865 -0.2271
 1685TIP3    H226471   3.005   3.000   1.875 -1.0565 -0.1952 -1.6138
 1686TIP3   OH226472   3.949   0.301   1.076 -0.0649  0.6098 -0.2228
 1686TIP3    H126473   3.920   0.359   1.146 -2.5165 -0.4745 -0.2008
 1686TIP3    H226474   3.871   0.290   1.021  0.4123 -2.2327 -0.4810
 1687TIP3   OH226475   5.908   3.702   3.816  0.0438  0.0157 -0.3196
 1687TIP3    H126476   5.948   3.765   3.876 -0.4575  2.2976 -2.2351
 1687TIP3    H226477   5.974   3.633   3.806  1.6503  1.4624 -0.0193
 1688TIP3   OH226478   2.438   0.779  14.599 -0.5444  0.2918 -0.6870
 1688TIP3    H126479   2.479   0.809  14.680  0.7049 -0.9082 -0.8239
 1688TIP3    H226480   2.426   0.858  14.547  1.9939  0.7209 -0.7699
 1689TIP3   OH226481   1.213   3.221  16.703  0.8423  0.4429 -0.3053
 1689TIP3    H126482   1.261   3.191  16.626  0.4303  2.0080 -1.1979
 1689TIP3    H226483   1.221   3.316  16.701 -0.2936  0.5813  0.8564
 1690TIP3   OH226484   0.550   5.196   2.688  0.2364  0.2054 -0.6940
 1690TIP3    H126485   0.562   5.129   2.621 -1.6370 -2.4104  1.3593
 1690TIP3    H226486   0.602   5.165   2.762 -0.5022  1.1244  0.2411
 1691TIP3   OH226487   2.163   1.696   6.087  0.0372 -0.4559  0.0971
 1691TIP3    H126488   2.114   1.673   6.166  1.8537 -2.5139  0.7195
 1691TIP3    H226489   2.211   1.617   6.064  0.5750  0.4834 -2.3572
 1692TIP3   OH226490   1.792   6.727   2.065  0.4420 -0.0768  0.5930
 1692TIP3    H126491   1.868   6.732   2.122 -0.0905 -2.2696  1.5986
 1692TIP3    H226492   1.728   6.786   2.105  0.8901  0.1950  0.9191
 1693TIP3   OH226493   5.291   3.302  13.719  0.3554 -0.4235  0.5444
 1693TIP3    H126494   5.226   3.373  13.728 -0.6533 -1.3637  0.9166
 1693TIP3    H226495   5.276   3.246  13.795 -0.5768 -2.3842 -0.9813
 1694TIP3   OH226496   1.328   2.941  15.757  0.0151 -0.0642 -0.0684
 1694TIP3    H126497   1.356   3.029  15.731 -1.0458  0.0457 -0.8774
 1694TIP3    H226498   1.376   2.882  15.699 -0.6206  0.0756 -0.7484
 1695TIP3   OH226499   5.134   5.487   4.488 -0.2150 -0.3297 -0.4524
 1695TIP3    H126500   5.146   5.525   4.575  0.2691 -2.0696  0.2681
 1695TIP3    H226501   5.049   5.442   4.493  0.4969 -1.7082 -0.3702
 1696TIP3   OH226502   3.393   3.087  14.645 -0.7103 -0.2787  0.1376
 1696TIP3    H126503   3.472   3.071  14.696 -0.7157 -0.3630  0.1194
 1696TIP3    H226504   3.355   3.000  14.632 -0.6018 -0.2814 -0.1829
 1697TIP3   OH226505   3.804   4.860  13.363  0.7676 -0.1673 -0.1437
 1697TIP3    H126506   3.794   4.866  13.458  4.1735 -0.9249  0.3976
 1697TIP3    H226507   3.854   4.939  13.339  1.1053 -0.6519 -1.0900
 1698TIP3   OH226508   2.686   5.448   3.712 -0.7688  0.1122 -0.0919
 1698TIP3    H126509   2.621   5.487   3.654  0.5176  0.6217 -1.2404
 1698TIP3    H226510   2.747   5.402   3.654 -1.0035 -1.7917  1.0713
 1699TIP3   OH226511   4.160   0.493   0.961 -0.1489 -0.5717 -0.0646
 1699TIP3    H126512   4.154   0.502   1.056  0.8455 -2.1305  0.1797
 1699TIP3    H226513   4.243   0.447   0.947  0.2201  0.5327 -1.7531
 1700TIP3   OH226514   2.457   4.652  15.430  0.1030 -0.0126  0.0488
 1700TIP3    H126515   2.490   4.664  15.340 -1.3030 -0.2863 -0.5266
 1700TIP3    H226516   2.519   4.700  15.484  1.0694  0.0351 -1.0583
 1701TIP3   OH226517   5.368   1.753   1.420  0.4090  0.4533  0.1249
 1701TIP3    H126518   5.419   1.710   1.351  1.2008  1.0074  0.3555
 1701TIP3    H226519   5.386   1.846   1.409  0.7383  0.5318  1.2250
 1702TIP3   OH226520   2.639   2.134   1.377  0.2403  0.5376 -0.0745
 1702TIP3    H126521   2.562   2.183   1.407 -0.7056  1.1818 -3.1727
 1702TIP3    H226522   2.713   2.191   1.396 -0.1434  0.5320  1.6407
 1703TIP3   OH226523   2.658   4.811   5.712 -0.0787  0.1875  0.4079
 1703TIP3    H126524   2.584   4.799   5.771  0.4902  1.0407  1.3262
 1703TIP3    H226525   2.688   4.722   5.692 -1.8569 -0.2212 -0.6799
 1704TIP3   OH226526   4.229   6.737  12.888 -0.1664 -0.2547  0.1779
 1704TIP3    H126527   4.305   6.684  12.862 -1.2277 -1.8431  0.2063
 1704TIP3    H226528   4.241   6.751  12.982 -0.7467 -1.9802  0.5374
 1705TIP3   OH226529   1.018   2.254   4.253 -0.0739  0.0411  0.4112
 1705TIP3    H126530   1.055   2.263   4.165  1.9028 -3.0380  0.7837
 1705TIP3    H226531   0.962   2.177   4.248 -0.3429  0.1297  1.7309
 1706TIP3   OH226532   5.441   0.350  12.212  0.5651 -0.5257  0.2243
 1706TIP3    H126533   5.497   0.353  12.289 -0.8096 -0.0118  1.2433
 1706TIP3    H226534   5.396   0.435  12.211  0.0085 -0.8126 -0.7129
 1707TIP3   OH226535   5.820   2.054   0.799  0.5821  0.1845 -0.0316
 1707TIP3    H126536   5.863   1.989   0.854  0.4678  1.0701  1.1449
 1707TIP3    H226537   5.726   2.040   0.815  0.5294  0.1352 -0.3755
 1708TIP3   OH226538   0.247   6.630  15.014  0.7027 -0.1795 -0.4382
 1708TIP3    H126539   0.195   6.697  14.971  0.8344 -0.3567 -0.8807
 1708TIP3    H226540   0.325   6.676  15.045 -0.6696  0.5734  2.2104
 1709TIP3   OH226541   0.519   5.967  16.045 -0.2441  1.0770  0.3797
 1709TIP3    H126542   0.540   6.038  15.986  0.8671  1.3601  1.0769
 1709TIP3    H226543   0.510   6.008  16.131  1.8050  0.2735  1.0612
 1710TIP3   OH226544   3.714   1.442   0.604 -0.0092  0.6283 -0.4853
 1710TIP3    H126545   3.754   1.403   0.526 -0.8008 -0.8976 -0.1617
 1710TIP3    H226546   3.651   1.377   0.634 -0.6693  1.7554  0.6795
 1711TIP3   OH226547   4.735   3.872  13.442  0.5509  0.3783 -0.2576
 1711TIP3    H126548   4.706   3.950  13.394  2.9501  0.3110 -2.0109
 1711TIP3    H226549   4.705   3.799  13.389  1.9314  0.2689 -0.9441
 1712TIP3   OH226550   3.001   5.020   6.287 -0.3302 -1.6748  0.0422
 1712TIP3    H126551   3.000   5.021   6.191  0.7874  1.3597 -0.0589
 1712TIP3    H226552   3.093   5.011   6.310  0.0730  2.2413  0.5897
 1713TIP3   OH226553   6.052   3.481  15.073  0.8197 -0.2184  0.3690
 1713TIP3    H126554   6.101   3.540  15.130 -0.6385  0.9098  0.5322
 1713TIP3    H226555   5.985   3.536  15.034  0.7770 -1.3234 -1.2161
 1714TIP3   OH226556   1.846   1.233  15.004 -0.1836  0.3961  0.4506
 1714TIP3    H126557   1.774   1.170  14.999 -0.0397  0.3086 -2.1473
 1714TIP3    H226558   1.920   1.182  15.037 -0.3173 -0.5786 -0.6935
 1715TIP3   OH226559   0.666   4.900  12.663  0.3886  0.4202  0.0378
 1715TIP3    H126560   0.753   4.930  12.633 -0.1724  1.6398 -0.4561
 1715TIP3    H226561   0.645   4.826  12.605  0.6505  0.8005 -0.5594
 1716TIP3   OH226562   3.841   5.600   2.081 -0.1792 -0.3248  0.1709
 1716TIP3    H126563   3.803   5.536   2.141 -0.6756  1.3480  1.7388
 1716TIP3    H226564   3.935   5.579   2.081 -0.2984 -0.9148  0.8453
 1717TIP3   OH226565   4.354   1.978   4.304  0.2192  0.2651  1.0560
 1717TIP3    H126566   4.337   2.061   4.259  0.5741 -0.0914  0.2498
 1717TIP3    H226567   4.270   1.934   4.305  0.7766 -1.2060 -2.3331
 1718TIP3   OH226568   3.682   3.904   1.995 -0.1471 -0.6212 -0.1914
 1718TIP3    H126569   3.700   3.812   2.016  1.4723 -0.4184 -0.5032
 1718TIP3    H226570   3.769   3.943   1.982 -0.8403  0.3538 -2.5919
 1719TIP3   OH226571   3.700   3.007  15.989  0.3834 -0.0866 -0.4735
 1719TIP3    H126572   3.674   3.001  15.897  1.7037  1.2528 -0.9776
 1719TIP3    H226573   3.794   2.990  15.989  0.4201  0.0297  0.6102
 1720TIP3   OH226574   1.458   2.681  15.128 -0.0042  0.3106 -0.2697
 1720TIP3    H126575   1.442   2.590  15.154  1.2467 -0.2222 -1.2788
 1720TIP3    H226576   1.516   2.675  15.053 -1.5959  1.8652 -1.7251
 1721TIP3   OH226577   5.629   6.231  12.581 -0.3236  0.7425  0.0963
 1721TIP3    H126578   5.681   6.299  12.539  0.4181  0.5296  0.6459
 1721TIP3    H226579   5.549   6.226  12.528 -0.5800  2.3157  0.2760
 1722TIP3   OH226580   5.764   5.924  14.383 -0.2279  0.4304  0.7929
 1722TIP3    H126581   5.758   5.828  14.379  3.3112  0.0120  1.4550
 1722TIP3    H226582   5.737   5.953  14.296 -1.4133 -1.1549  0.5831
 1723TIP3   OH226583   0.962   1.703  14.042 -0.0516 -0.7264 -0.2814
 1723TIP3    H126584   1.024   1.715  13.971 -0.0680 -2.4191 -0.6278
 1723TIP3    H226585   0.998   1.632  14.095 -0.4628 -0.0678  0.9404
 1724TIP3   OH226586   5.407   2.900   1.253  0.1750 -0.4371 -0.2035
 1724TIP3    H126587   5.502   2.885   1.251  0.4638  1.1185  0.6723
 1724TIP3    H226588   5.381   2.899   1.161  0.8941 -1.6465 -0.4190
 1725TIP3   OH226589   6.409   3.220  14.727 -0.0950 -0.1476  0.1895
 1725TIP3    H126590   6.492   3.236  14.683 -0.5913 -1.4921 -1.3272
 1725TIP3    H226591   6.362   3.303  14.721  0.5637  0.2024 -0.2261
 1726TIP3   OH226592   6.334   5.813  16.190 -0.4568 -0.7926 -0.2670
 1726TIP3    H126593   6.338   5.859  16.274 -0.2084 -1.4829  0.1157
 1726TIP3    H226594   6.354   5.879  16.125 -3.1769  0.3808 -0.0322
 1727TIP3   OH226595   6.066   6.169   2.830 -0.1037 -0.0013 -0.1184
 1727TIP3    H126596   6.056   6.078   2.802 -0.2642 -0.1194  0.3104
 1727TIP3    H226597   6.125   6.208   2.765 -0.4450 -0.2702 -0.6017
 1728TIP3   OH226598   3.032   2.016  15.175  0.2890  0.1928  0.2939
 1728TIP3    H126599   2.989   2.083  15.122  0.6251  0.0775 -0.1285
 1728TIP3    H226600   3.023   1.936  15.123  1.7926  0.3374 -0.2195
 1729TIP3   OH226601   5.245   6.754   1.167  0.6138 -0.2598  0.0161
 1729TIP3    H126602   5.295   6.683   1.207  1.6076  0.6644  0.4217
 1729TIP3    H226603   5.236   6.820   1.235 -2.3535 -0.9361  0.4139
 1730TIP3   OH226604   6.068   4.877  15.727 -0.1878  0.2810 -0.5250
 1730TIP3    H126605   6.147   4.930  15.733 -0.9163  1.2633  0.8918
 1730TIP3    H226606   6.100   4.789  15.708  1.3512  0.4357  1.0630
 1731TIP3   OH226607   4.332   5.264   0.453  0.1141  0.4875  0.0539
 1731TIP3    H126608   4.400   5.207   0.489  0.5439  0.8922 -0.1078
 1731TIP3    H226609   4.370   5.297   0.372 -0.8484 -0.4227 -0.7962
 1732TIP3   OH226610   4.861   0.177   3.842 -0.0068 -0.4631 -0.6694
 1732TIP3    H126611   4.910   0.156   3.763 -0.5407 -1.0154 -0.8658
 1732TIP3    H226612   4.896   0.261   3.871  0.9536 -0.7909 -0.8728
 1733TIP3   OH226613   5.651   6.665   5.682 -0.3543  0.2057  0.1582
 1733TIP3    H126614   5.701   6.708   5.612  0.5951 -0.7886  0.2090
 1733TIP3    H226615   5.560   6.689   5.664 -0.1734 -0.2729 -1.6058
 1734TIP3   OH226616   6.604   0.551  16.205 -0.2582  0.0701  0.2556
 1734TIP3    H126617   6.522   0.600  16.207 -0.6510 -0.2161 -3.2168
 1734TIP3    H226618   6.672   0.619  16.198  0.0616  0.3542  3.8648
 1735TIP3   OH226619   3.650   2.060   3.215 -0.4768  0.8511  0.4503
 1735TIP3    H126620   3.620   2.046   3.305 -0.6828  0.5735  0.3402
 1735TIP3    H226621   3.696   1.979   3.193 -2.4145 -0.0746 -0.4933
 1736TIP3   OH226622   3.150   1.901   3.209 -0.3987 -0.1877 -0.1921
 1736TIP3    H126623   3.075   1.885   3.266 -0.3325 -2.9312 -0.7069
 1736TIP3    H226624   3.220   1.848   3.246  0.9278  1.2942 -0.4759
 1737TIP3   OH226625   5.047   1.726   3.534  0.2684  0.9125 -0.8342
 1737TIP3    H126626   5.132   1.762   3.509  0.1421  2.8745  1.2197
 1737TIP3    H226627   4.984   1.792   3.508 -0.2378  1.0890  0.7110
 1738TIP3   OH226628   0.622   2.285   4.116  0.4886  0.1970 -0.6035
 1738TIP3    H126629   0.607   2.196   4.083  0.3194  0.0743 -0.2020
 1738TIP3    H226630   0.547   2.302   4.173  0.8403  0.3542 -0.1795
 1739TIP3   OH226631   6.706   5.756   1.839  0.0927 -0.1675  0.5771
 1739TIP3    H126632   6.670   5.800   1.762 -0.4301 -2.3261 -0.4910
 1739TIP3    H226633   6.651   5.679   1.850  1.0231 -0.6288  2.3022
 1740TIP3   OH226634   0.936   6.587   0.375  0.1874 -0.1977 -0.3266
 1740TIP3    H126635   0.892   6.512   0.415  1.7700  0.3654  2.7474
 1740TIP3    H226636   0.871   6.657   0.377 -0.1610 -0.5257  0.0417
 1741TIP3   OH226637   4.956   0.377  13.785  0.5811  0.0693 -0.1465
 1741TIP3    H126638   5.038   0.330  13.765 -0.3682 -1.7850  0.1273
 1741TIP3    H226639   4.935   0.351  13.875 -0.5297  0.1714 -0.3651
 1742TIP3   OH226640   6.591   3.797  13.948  0.6045 -0.3841 -0.3236
 1742TIP3    H126641   6.596   3.718  14.002 -1.8638 -0.8512 -0.6707
 1742TIP3    H226642   6.605   3.766  13.859 -0.6229 -0.5213 -0.4891
 1743TIP3   OH226643   0.439   5.477   4.916 -0.5705 -0.0900 -0.0620
 1743TIP3    H126644   0.511   5.510   4.862 -1.4499  1.0354 -0.5883
 1743TIP3    H226645   0.480   5.447   4.997  0.6795 -1.0497 -1.0158
 1744TIP3   OH226646   2.375   5.229  10.687  0.5268  0.0631  0.0451
 1744TIP3    H126647   2.307   5.204  10.624  0.5445 -0.8179  0.3557
 1744TIP3    H226648   2.418   5.146  10.709  1.1309  0.4959  0.5073
 1745TIP3   OH226649   0.407   3.722  10.989  0.0752  0.5409  0.1923
 1745TIP3    H126650   0.437   3.812  10.980 -1.6853  1.1490 -0.0036
 1745TIP3    H226651   0.345   3.710  10.917 -2.1332  0.2680  1.9927
 1746TIP3   OH226652   3.978   2.735  15.907  0.0286  0.2391 -0.3389
 1746TIP3    H126653   4.013   2.812  15.951  1.3179 -0.9643  0.8548
 1746TIP3    H226654   4.018   2.737  15.820  0.5400  0.5963 -0.1031
 1747TIP3   OH226655   4.769   3.010  12.801 -0.2452 -0.4016  0.1618
 1747TIP3    H126656   4.743   2.971  12.717 -2.6663  0.0959  0.6177
 1747TIP3    H226657   4.851   3.054  12.782  0.2955 -1.9570 -1.4503
 1748TIP3   OH226658   0.237   4.731   4.072  0.7632 -0.4070 -0.0799
 1748TIP3    H126659   0.302   4.799   4.091 -0.9256  1.2214  0.2103
 1748TIP3    H226660   0.251   4.709   3.980  0.4148  1.4753 -0.6281
 1749TIP3   OH226661   3.309   2.325   0.830  0.2597 -0.0598  0.2227
 1749TIP3    H126662   3.283   2.417   0.822 -0.5041 -0.1921  1.0494
 1749TIP3    H226663   3.241   2.285   0.884  1.7233 -0.6207  1.7598
 1750TIP3   OH226664   0.292   4.065  16.729 -0.3198 -0.8849 -0.1119
 1750TIP3    H126665   0.243   4.060  16.811  0.2971 -2.3731  0.2041
 1750TIP3    H226666   0.384   4.053  16.756  0.0698  0.3435 -0.8429
 1751TIP3   OH226667   3.024   1.806  16.858 -0.8276  0.0822  0.2871
 1751TIP3    H126668   3.065   1.841  16.937  0.9451 -0.6054 -0.2832
 1751TIP3    H226669   3.005   1.884  16.805  0.5713  0.4007  0.2092
 1752TIP3   OH226670   0.118   0.355   1.053 -0.0667  0.0184  0.6187
 1752TIP3    H126671   0.136   0.270   1.092  1.7956 -0.3547 -0.9060
 1752TIP3    H226672   0.024   0.354   1.034  0.1221 -2.2111 -0.5030
 1753TIP3   OH226673   2.290   1.660   0.367  0.8221 -0.0533 -0.2892
 1753TIP3    H126674   2.223   1.698   0.424 -0.2425 -0.1986 -1.3887
 1753TIP3    H226675   2.250   1.580   0.333  1.9882 -0.7246 -0.1408
 1754TIP3   OH226676   3.075   5.648  17.158 -0.1273 -0.3188 -0.7090
 1754TIP3    H126677   3.155   5.699  17.176 -0.5240  0.1285 -0.1664
 1754TIP3    H226678   3.039   5.630  17.245 -0.2788 -1.0822 -0.9191
 1755TIP3   OH226679   4.007   6.399   2.738 -0.4877  0.6683  0.3362
 1755TIP3    H126680   4.056   6.400   2.655  1.2055  3.1759  1.2671
 1755TIP3    H226681   4.033   6.317   2.780  0.6205  0.5703 -0.4967
 1756TIP3   OH226682   3.820   4.330  14.453 -0.0733  0.6661 -0.1698
 1756TIP3    H126683   3.889   4.323  14.387 -1.1241  0.4089 -1.2871
 1756TIP3    H226684   3.790   4.420  14.447 -0.9719  0.3329 -0.9062
 1757TIP3   OH226685   3.681   5.348   5.598 -0.2489 -0.3986 -0.3163
 1757TIP3    H126686   3.765   5.304   5.595  0.2942  0.4678  1.2602
 1757TIP3    H226687   3.639   5.316   5.678 -1.5056 -0.9297 -1.1463
 1758TIP3   OH226688   5.516   4.236  15.721 -0.1295  0.0741 -0.0615
 1758TIP3    H126689   5.564   4.221  15.802  0.1665  1.5430  0.0718
 1758TIP3    H226690   5.533   4.158  15.668 -0.7816 -1.1436  1.4819
 1759TIP3   OH226691   2.683   0.236   6.000  0.2650  0.5282 -0.4933
 1759TIP3    H126692   2.778   0.246   5.996  0.3455  0.2908  0.5528
 1759TIP3    H226693   2.669   0.142   5.990  0.1948  0.4653  0.1987
 1760TIP3   OH226694   5.386   5.863  14.634  0.1765  0.4121 -0.7713
 1760TIP3    H126695   5.373   5.946  14.680 -0.4341  0.4126 -0.9448
 1760TIP3    H226696   5.321   5.804  14.672  0.7159 -0.0373 -0.5315
 1761TIP3   OH226697   4.808   0.507   1.674  0.1621  0.4311 -0.2602
 1761TIP3    H126698   4.826   0.449   1.748  2.2290  1.3141 -0.0096
 1761TIP3    H226699   4.713   0.507   1.666  0.0249 -1.5896  0.8428
 1762TIP3   OH226700   1.107   2.301   5.884 -0.1743  0.5438 -0.8736
 1762TIP3    H126701   1.157   2.348   5.951 -0.4604  0.9010 -0.9108
 1762TIP3    H226702   1.049   2.244   5.934  0.6955 -0.3350 -0.8316
 1763TIP3   OH226703   3.348   3.995  11.075 -0.2296  0.1041  0.0765
 1763TIP3    H126704   3.412   4.067  11.071  1.5648 -1.4682 -0.8779
 1763TIP3    H226705   3.340   3.965  10.985 -2.6659  0.4516  0.0935
 1764TIP3   OH226706   0.844   5.623   1.484 -0.2638  0.8082  0.3124
 1764TIP3    H126707   0.767   5.580   1.522 -0.9976 -0.0256 -1.9283
 1764TIP3    H226708   0.855   5.581   1.398  2.5571  1.0999  0.4449
 1765TIP3   OH226709   1.947   2.325  10.984  0.3731 -0.4029 -0.5400
 1765TIP3    H126710   1.933   2.350  10.892 -1.0865 -3.6968 -1.3444
 1765TIP3    H226711   2.024   2.268  10.982 -0.6335 -1.8360 -0.0666
 1766TIP3   OH226712   1.975   0.085   4.019 -0.3265  0.0917  0.1542
 1766TIP3    H126713   2.058   0.084   4.067 -0.2260 -2.5126  0.0700
 1766TIP3    H226714   1.909   0.065   4.085 -0.9371  1.9637  0.1802
 1767TIP3   OH226715   3.736   3.209   2.268  0.0984 -0.3388  0.3891
 1767TIP3    H126716   3.664   3.193   2.207 -1.1648  2.5032  0.9935
 1767TIP3    H226717   3.777   3.289   2.237  2.0345 -1.0166  1.0287
 1768TIP3   OH226718   1.094   1.556  14.773  0.6223  0.4363 -0.5242
 1768TIP3    H126719   1.167   1.614  14.790 -0.9664  1.6502  3.0015
 1768TIP3    H226720   1.103   1.485  14.836 -1.2387  0.6811  0.0981
 1769TIP3   OH226721   2.869   4.474   1.367  0.0471  0.4772  0.1302
 1769TIP3    H126722   2.852   4.444   1.457  2.4695  0.4919  0.6480
 1769TIP3    H226723   2.958   4.446   1.348 -0.3911  0.5184 -2.2997
 1770TIP3   OH226724   5.076   0.228  12.356 -0.4193  0.4337  0.0627
 1770TIP3    H126725   5.115   0.239  12.269 -1.5053 -1.3658 -0.7216
 1770TIP3    H226726   4.989   0.267  12.347 -1.5398 -2.0091 -0.5415
 1771TIP3   OH226727   1.427   5.309  11.276  0.4512  0.7724  0.1172
 1771TIP3    H126728   1.506   5.254  11.273 -0.5441 -0.6768 -0.5129
 1771TIP3    H226729   1.395   5.310  11.186 -1.9515 -1.2897  0.8278
 1772TIP3   OH226730   1.528   1.326   3.766 -0.1934  0.1572  0.1808
 1772TIP3    H126731   1.489   1.253   3.717 -2.6314  0.0446  2.0819
 1772TIP3    H226732   1.579   1.374   3.701 -0.4221 -1.9046 -1.6477
 1773TIP3   OH226733   4.136   4.872  15.887 -0.3512  0.3140 -0.0801
 1773TIP3    H126734   4.212   4.854  15.832 -0.2171 -0.0652  0.2217
 1773TIP3    H226735   4.085   4.936  15.838  0.2726  0.7372 -0.1881
 1774TIP3   OH226736   5.958   6.465  12.259 -0.5496 -0.6327 -0.1866
 1774TIP3    H126737   6.014   6.541  12.245  0.1543 -0.9936  0.6034
 1774TIP3    H226738   5.913   6.483  12.341 -0.0688 -1.2439  0.2206
 1775TIP3   OH226739   2.890   2.088  11.185  0.1046 -0.2857 -0.8603
 1775TIP3    H126740   2.972   2.052  11.219 -0.2237 -0.3606 -0.1436
 1775TIP3    H226741   2.914   2.172  11.146  0.2506  0.4820  0.8337
 1776TIP3   OH226742   3.223   6.188  10.845  0.9637  0.1673  0.3600
 1776TIP3    H126743   3.173   6.127  10.900  0.1132  0.9080  0.4319
 1776TIP3    H226744   3.282   6.132  10.796 -0.8313 -0.9178 -0.6898
 1777TIP3   OH226745   2.969   4.326   5.590  0.4382 -0.3514  0.2093
 1777TIP3    H126746   3.056   4.288   5.581  0.4219 -0.5898  0.9484
 1777TIP3    H226747   2.960   4.343   5.684  0.1439  0.7699 -0.0050
 1778TIP3   OH226748   4.499   2.060   2.454 -0.4254  0.2398 -0.2335
 1778TIP3    H126749   4.543   2.143   2.477 -1.0710  0.8889 -1.2662
 1778TIP3    H226750   4.528   1.999   2.521  0.0130  1.3244  0.6086
 1779TIP3   OH226751   3.499   0.825   5.926 -0.0180 -0.0636 -0.2519
 1779TIP3    H126752   3.495   0.878   5.846  0.8910  0.6369  0.1580
 1779TIP3    H226753   3.510   0.888   5.997 -0.9385 -0.6682  0.4588
 1780TIP3   OH226754   0.692   0.241  12.149  0.1793  0.3778 -0.3531
 1780TIP3    H126755   0.620   0.184  12.177  0.3474 -0.9728 -2.4373
 1780TIP3    H226756   0.665   0.275  12.064  1.5769  0.6303 -0.7277
 1781TIP3   OH226757   3.301   6.733   3.034  0.1093  0.3245  0.1560
 1781TIP3    H126758   3.240   6.751   3.106 -0.7931  0.5516 -0.6433
 1781TIP3    H226759   3.274   6.793   2.964 -0.2842 -1.2307 -1.0750
 1782TIP3   OH226760   5.385   6.272   2.487  0.1189  0.1104 -0.5786
 1782TIP3    H126761   5.404   6.340   2.552  2.1113 -2.0627  1.3127
 1782TIP3    H226762   5.306   6.228   2.520 -0.7357  0.9733 -1.4054
 1783TIP3   OH226763   2.800   3.829   3.487  0.4488 -0.1715 -0.2613
 1783TIP3    H126764   2.724   3.774   3.509  1.5120 -0.7037  2.4517
 1783TIP3    H226765   2.871   3.766   3.473  0.4419  0.3055 -3.0849
 1784TIP3   OH226766   4.851   0.496   5.251  0.4590 -0.2697 -0.0980
 1784TIP3    H126767   4.763   0.461   5.239  0.9910 -1.3939 -0.9355
 1784TIP3    H226768   4.863   0.499   5.346 -0.5687  0.1805  0.0360
 1785TIP3   OH226769   5.525   3.222  14.020 -0.3467 -0.3703  0.3292
 1785TIP3    H126770   5.604   3.222  13.966 -0.2713  1.8642  0.3208
 1785TIP3    H226771   5.554   3.189  14.105  0.2322 -1.0655 -0.1291
 1786TIP3   OH226772   4.119   0.332  12.841  0.2615 -0.5098  0.8939
 1786TIP3    H126773   4.061   0.355  12.768 -0.5018  0.6762  1.8360
 1786TIP3    H226774   4.202   0.375  12.819 -0.0771  0.1589  0.8919
 1787TIP3   OH226775   0.245   6.447  12.612 -0.8570  0.1744  0.2062
 1787TIP3    H126776   0.339   6.431  12.614 -1.0293 -1.5729 -1.8153
 1787TIP3    H226777   0.237   6.539  12.586  0.2117  1.0899  2.7985
 1788TIP3   OH226778   1.460   0.648  13.313 -0.7649 -0.2025  0.1843
 1788TIP3    H126779   1.469   0.553  13.319  1.4825  0.0342  2.9934
 1788TIP3    H226780   1.372   0.663  13.280 -0.6863 -3.2250 -1.7239
 1789TIP3   OH226781   2.569   1.997  14.438  0.4563 -0.6185  0.3426
 1789TIP3    H126782   2.637   1.930  14.433 -0.0992 -1.3049  1.5099
 1789TIP3    H226783   2.497   1.955  14.486 -0.6860  0.1824 -0.6004
 1790TIP3   OH226784   4.817   0.908   4.414 -0.8471 -0.0817  0.2312
 1790TIP3    H126785   4.833   0.959   4.335 -2.2522 -2.8438 -2.0336
 1790TIP3    H226786   4.859   0.824   4.398 -0.3235 -0.4367  2.9152
 1791TIP3   OH226787   4.804   6.191   4.166 -0.0898  0.2404  0.5707
 1791TIP3    H126788   4.865   6.260   4.192 -0.6112  0.8590  0.1743
 1791TIP3    H226789   4.775   6.217   4.078 -0.2673 -0.5020  0.4053
 1792TIP3   OH226790   5.414   0.294   2.221  0.0743  0.2244 -0.0720
 1792TIP3    H126791   5.352   0.304   2.149  1.4795 -1.5648 -1.6127
 1792TIP3    H226792   5.401   0.204   2.251  1.5215  0.0176 -0.0385
 1793TIP3   OH226793   1.127   4.602   5.452  0.3326 -0.3286 -0.2595
 1793TIP3    H126794   1.148   4.548   5.529  0.7560 -0.7227 -0.6457
 1793TIP3    H226795   1.045   4.565   5.419  0.3486 -0.4053 -0.2152
 1794TIP3   OH226796   4.904   0.602  13.954 -0.2470 -0.0835 -0.0585
 1794TIP3    H126797   4.909   0.648  14.037  0.1107  0.6116 -0.4548
 1794TIP3    H226798   4.930   0.512  13.975 -3.0295 -0.7083  1.1319
 1795TIP3   OH226799   0.063   0.997   1.569  0.4089  0.0932  0.0729
 1795TIP3    H126800   0.131   1.010   1.635  0.3818  0.1910  0.0806
 1795TIP3    H226801   0.059   0.902   1.559 -0.6320 -0.0208  1.3179
 1796TIP3   OH226802   1.228   0.969  15.920 -0.3523  0.4310 -0.7086
 1796TIP3    H126803   1.229   0.928  16.006  2.5965  1.3865 -0.1533
 1796TIP3    H226804   1.224   0.896  15.858  2.1073 -0.6509  0.2730
 1797TIP3   OH226805   3.847   3.038   6.485  0.5214  0.1639 -0.3053
 1797TIP3    H126806   3.763   3.035   6.531  0.7969  1.1054  0.2804
 1797TIP3    H226807   3.844   3.120   6.435  1.5044  0.7301  0.5409
 1798TIP3   OH226808   0.508   2.145   2.247 -0.3775 -0.3750 -0.2276
 1798TIP3    H126809   0.490   2.239   2.241  1.9643  0.1723  0.1113
 1798TIP3    H226810   0.430   2.108   2.288 -1.2661  1.4517 -0.1603
 1799TIP3   OH226811   3.615   2.625   5.070  0.4111 -0.3810  0.0619
 1799TIP3    H126812   3.707   2.597   5.066  0.2217 -0.8804 -1.3523
 1799TIP3    H226813   3.566   2.546   5.048 -0.3328  0.0543  0.1510
 1800TIP3   OH226814   5.800   2.213  16.557  0.4881  0.2174 -1.0129
 1800TIP3    H126815   5.742   2.271  16.507  0.2462  1.5906  0.7847
 1800TIP3    H226816   5.886   2.255  16.552  0.1426  1.2599  0.9999
 1801TIP3   OH226817   4.110   1.749  11.264  0.0544  0.4952  0.1679
 1801TIP3    H126818   4.179   1.787  11.211 -0.7597  1.3204 -0.3348
 1801TIP3    H226819   4.136   1.765  11.354  1.8948 -1.6923  0.1228
 1802TIP3   OH226820   6.387   1.547  13.127  0.0638  0.0946 -0.2407
 1802TIP3    H126821   6.479   1.573  13.132 -0.1886  1.0415 -0.1747
 1802TIP3    H226822   6.347   1.612  13.068 -1.1305  1.4533  1.9205
 1803TIP3   OH226823   5.922   3.900   5.195 -0.3567  0.6642  0.2032
 1803TIP3    H126824   5.982   3.863   5.260 -0.1911 -0.2649 -0.4554
 1803TIP3    H226825   5.834   3.880   5.228 -0.3235  2.0625  1.1894
 1804TIP3   OH226826   6.703   2.852  13.601  0.2522 -0.1007 -0.0120
 1804TIP3    H126827   6.635   2.859  13.668  0.5127 -1.9966  0.5018
 1804TIP3    H226828   6.676   2.914  13.533 -1.2870  0.1399  0.7698
 1805TIP3   OH226829   2.790   5.555  15.873  0.0704  0.1525 -0.2227
 1805TIP3    H126830   2.762   5.464  15.868  1.0124 -0.1296 -0.5306
 1805TIP3    H226831   2.711   5.603  15.895 -0.8227 -0.5385 -1.7581
 1806TIP3   OH226832   5.960   0.868   0.507  0.0891  0.0300  0.1766
 1806TIP3    H126833   6.032   0.838   0.562 -0.0003  0.7637  0.7006
 1806TIP3    H226834   5.974   0.962   0.496  0.1116 -0.1024 -1.0777
 1807TIP3   OH226835   2.472   5.227  16.812  0.2709 -0.6155 -0.5120
 1807TIP3    H126836   2.522   5.271  16.881  2.1298 -1.8587 -0.9679
 1807TIP3    H226837   2.426   5.157  16.857 -0.6717  0.2106 -0.1631
 1808TIP3   OH226838   2.576   1.533  12.150 -0.4177 -0.0058 -0.0684
 1808TIP3    H126839   2.514   1.464  12.127 -0.5107 -0.3377  1.0976
 1808TIP3    H226840   2.539   1.575  12.227  1.6501 -1.4842  1.8868
 1809TIP3   OH226841   0.875   5.846  12.515  0.1320  0.8558  0.1935
 1809TIP3    H126842   0.905   5.929  12.551 -1.1042  0.7091  1.6747
 1809TIP3    H226843   0.781   5.859  12.501  0.4968  0.8600 -2.9798
 1810TIP3   OH226844   6.350   2.538  11.904  0.0429 -0.0779 -0.3448
 1810TIP3    H126845   6.348   2.584  11.821  0.2087 -0.1909 -0.4125
 1810TIP3    H226846   6.266   2.558  11.945  0.4543  0.9732  0.0084
 1811TIP3   OH226847   2.172   5.376   2.685 -0.3101 -0.7037 -0.5327
 1811TIP3    H126848   2.127   5.459   2.702  0.8658 -0.0091 -0.7290
 1811TIP3    H226849   2.173   5.331   2.770 -1.5020 -0.8194 -0.5610
 1812TIP3   OH226850   4.469   1.358  11.962  0.0337  0.4088 -0.0341
 1812TIP3    H126851   4.564   1.362  11.971  0.1735  0.0425 -1.1282
 1812TIP3    H226852   4.442   1.283  12.015  0.5242 -0.3002 -0.7607
 1813TIP3   OH226853   0.103   6.237  16.497  0.3295  0.0054 -0.2606
 1813TIP3    H126854   0.139   6.223  16.410 -1.5483 -1.3178 -0.8725
 1813TIP3    H226855   0.127   6.158  16.546  1.7398  0.9195  0.6063
 1814TIP3   OH226856   1.259   4.109  12.067 -0.0597 -0.3311 -0.0470
 1814TIP3    H126857   1.319   4.166  12.115 -0.5522  0.2638 -0.1234
 1814TIP3    H226858   1.316   4.049  12.019  0.4580 -0.1405  0.3181
 1815TIP3   OH226859   4.116   2.255  11.565  0.1921 -0.3609 -0.1586
 1815TIP3    H126860   4.197   2.305  11.558  1.2431 -1.7134  1.6895
 1815TIP3    H226861   4.131   2.176  11.514 -0.2328 -0.3254 -0.3506
 1816TIP3   OH226862   4.935   4.458   0.234 -0.4720  0.0545 -0.4781
 1816TIP3    H126863   4.937   4.416   0.148  0.6030  1.2512 -1.0629
 1816TIP3    H226864   5.026   4.459   0.263 -0.8635 -0.6782  0.8652
 1817TIP3   OH226865   1.198   6.752  14.143  0.1176  0.2302 -0.6061
 1817TIP3    H126866   1.260   6.790  14.206 -1.9584  1.2897  0.9330
 1817TIP3    H226867   1.206   6.808  14.066  1.2645  0.1635 -0.5596
 1818TIP3   OH226868   0.334   2.841  11.336 -0.1042  0.2355 -0.2608
 1818TIP3    H126869   0.278   2.917  11.353  2.6339  2.1146  1.1068
 1818TIP3    H226870   0.325   2.825  11.242 -2.6318  0.5889 -0.1651
 1819TIP3   OH226871   3.735   5.613   1.707 -0.6031  0.1760 -0.2783
 1819TIP3    H126872   3.658   5.624   1.653 -1.0992  1.8600  0.6777
 1819TIP3    H226873   3.773   5.701   1.713  1.0472 -0.4944 -0.2214
 1820TIP3   OH226874   6.317   5.715   0.128 -0.0075  0.1161  0.2283
 1820TIP3    H126875   6.315   5.805   0.160 -1.0695  0.5556 -0.9643
 1820TIP3    H226876   6.379   5.670   0.185  0.3973  1.5536  0.9660
 1821TIP3   OH226877   0.952   1.893  12.670 -0.7293  0.0157 -0.2697
 1821TIP3    H126878   0.904   1.955  12.615 -2.7456  0.9661  2.3732
 1821TIP3    H226879   0.932   1.807  12.632 -3.2134  0.5214 -0.2786
 1822TIP3   OH226880   0.621   2.885  14.305  0.5688 -0.4002  0.0852
 1822TIP3    H126881   0.702   2.837  14.320  0.9372  0.2005  0.0679
 1822TIP3    H226882   0.576   2.884  14.390  0.9960 -0.0107  0.3168
 1823TIP3   OH226883   5.648   4.683   6.696 -0.2186  0.2279 -0.8373
 1823TIP3    H126884   5.672   4.776   6.686 -0.4113  0.4230  0.3600
 1823TIP3    H226885   5.728   4.636   6.671  0.5278  0.7886  0.3726
 1824TIP3   OH226886   3.621   2.561  10.711  0.0064 -0.1004 -0.5285
 1824TIP3    H126887   3.599   2.637  10.765 -1.6288  0.5761 -2.0434
 1824TIP3    H226888   3.681   2.509  10.765  1.6186  2.5142  0.3505
 1825TIP3   OH226889   2.458   4.418  11.572  0.3345  0.1910 -0.2858
 1825TIP3    H126890   2.396   4.415  11.645  0.3865  2.1130 -0.1097
 1825TIP3    H226891   2.500   4.333  11.573 -1.2089 -0.6099  0.5564
 1826TIP3   OH226892   1.816   4.830   2.726 -0.2466  0.1848  1.0482
 1826TIP3    H126893   1.822   4.908   2.782 -0.2169  0.1471  1.0985
 1826TIP3    H226894   1.853   4.760   2.780 -1.7046 -0.1843  1.6072
 1827TIP3   OH226895   4.554   4.989   5.905 -0.0218 -0.1769 -0.1450
 1827TIP3    H126896   4.596   5.040   5.836  2.1222 -0.8696  0.5846
 1827TIP3    H226897   4.538   4.903   5.865 -1.1564  0.1881 -0.5291
 1828TIP3   OH226898   2.259   0.131  12.009 -0.5625 -0.2766  0.6234
 1828TIP3    H126899   2.277   0.100  12.098  1.2863 -1.2100 -0.0184
 1828TIP3    H226900   2.212   0.059  11.968  1.0454 -1.0466  0.0488
 1829TIP3   OH226901   4.374   2.316  15.189  0.4442 -0.8572  0.1592
 1829TIP3    H126902   4.380   2.273  15.103 -0.2208 -1.7709  0.5506
 1829TIP3    H226903   4.411   2.252  15.250  0.3918 -0.4425  0.6288
 1830TIP3   OH226904   3.664   5.150  13.106  0.7705 -0.5113  0.2889
 1830TIP3    H126905   3.592   5.144  13.043  0.7825 -3.1325  0.4068
 1830TIP3    H226906   3.636   5.219  13.167 -1.0070 -0.5059 -0.4558
 1831TIP3   OH226907   4.829   1.573  13.484 -0.9078 -0.0385  0.6110
 1831TIP3    H126908   4.741   1.550  13.454 -1.1429  1.9753 -0.4273
 1831TIP3    H226909   4.875   1.603  13.406  0.3822 -0.0609  1.3130
 1832TIP3   OH226910   5.728   3.705   3.085 -0.1774  0.2224  0.7311
 1832TIP3    H126911   5.725   3.701   3.180 -1.0073 -2.4032  0.6829
 1832TIP3    H226912   5.821   3.697   3.063  0.0287  0.9799  1.2935
 1833TIP3   OH226913   2.066   0.144   0.665  0.0472  0.0164 -0.4346
 1833TIP3    H126914   2.075   0.089   0.743 -2.3088 -1.4341 -1.0661
 1833TIP3    H226915   2.143   0.200   0.666  0.4046 -0.3410  2.6081
 1834TIP3   OH226916   4.440   2.614  14.063 -1.1032 -0.3313  0.4693
 1834TIP3    H126917   4.497   2.574  13.997 -1.3890 -0.1994  0.1372
 1834TIP3    H226918   4.383   2.543  14.092 -1.5834 -0.1876 -0.0910
 1835TIP3   OH226919   3.670   3.493   4.304 -0.0205  0.2809 -0.5027
 1835TIP3    H126920   3.654   3.462   4.393  1.9292  1.8849  0.4911
 1835TIP3    H226921   3.584   3.512   4.268 -0.8449 -0.5093  0.9802
 1836TIP3   OH226922   0.790   3.248  16.112 -0.4209 -0.4201 -0.5650
 1836TIP3    H126923   0.820   3.283  16.196  0.3565 -2.3576  0.0123
 1836TIP3    H226924   0.870   3.228  16.064 -0.8567  0.2829 -1.6456
 1837TIP3   OH226925   6.019   0.793  12.659  0.3543  0.1993  0.0098
 1837TIP3    H126926   6.020   0.837  12.574 -0.5042  0.7426  0.2750
 1837TIP3    H226927   6.111   0.789  12.685  0.7913 -1.1058 -1.5123
 1838TIP3   OH226928   3.490   6.588   3.442  0.4806 -0.2609 -0.6937
 1838TIP3    H126929   3.509   6.553   3.529  1.9853  0.2353 -0.7996
 1838TIP3    H226930   3.409   6.638   3.453 -0.6075 -2.0499 -0.1001
 1839TIP3   OH226931   0.515   5.027   3.305 -0.0586 -0.1665 -0.2356
 1839TIP3    H126932   0.560   4.971   3.240 -0.1532  1.3640 -1.6849
 1839TIP3    H226933   0.425   4.995   3.305 -0.0172 -0.2933 -0.7247
 1840TIP3   OH226934   1.894   5.441   1.853  0.1635  0.2624 -0.0946
 1840TIP3    H126935   1.907   5.493   1.774  0.0736  0.1951 -0.1531
 1840TIP3    H226936   1.968   5.381   1.855 -1.6949 -2.2912 -2.0966
 1841TIP3   OH226937   1.374   0.300  15.772  0.2745 -0.0382 -0.2114
 1841TIP3    H126938   1.356   0.229  15.710 -1.3924  1.7382 -1.9144
 1841TIP3    H226939   1.322   0.278  15.849  1.1974 -1.5279  0.0362
 1842TIP3   OH226940   3.628   0.274  11.897 -0.2983 -0.3217  0.2960
 1842TIP3    H126941   3.622   0.256  11.803  0.9780 -0.1085  0.1546
 1842TIP3    H226942   3.539   0.299  11.922 -0.7025 -0.5684 -0.8087
 1843TIP3   OH226943   4.015   0.050  13.547  0.0771 -0.2293 -0.2224
 1843TIP3    H126944   3.990   0.040  13.455  0.5133  0.2614 -0.4022
 1843TIP3    H226945   3.933   0.054  13.595 -0.2286 -3.6646 -0.1946
 1844TIP3   OH226946   1.523   0.323   4.209 -0.1423 -0.5178 -0.1696
 1844TIP3    H126947   1.549   0.407   4.249 -1.7071 -0.5948  1.1271
 1844TIP3    H226948   1.599   0.296   4.158  0.4696  1.6195 -0.5099
 1845TIP3   OH226949   2.364   4.682   4.327  0.3329 -0.6779 -0.0506
 1845TIP3    H126950   2.441   4.727   4.291 -0.1018  0.7746  0.7537
 1845TIP3    H226951   2.390   4.656   4.415  0.4255 -1.6172 -0.3493
 1846TIP3   OH226952   6.643   2.117  17.050  0.2208  0.2111  0.0255
 1846TIP3    H126953   6.646   2.152  16.961 -0.4548  0.8166  0.2414
 1846TIP3    H226954   6.557   2.075  17.056  0.7981 -1.0255 -0.0479
 1847TIP3   OH226955   1.254   3.227   4.014 -0.4229 -0.2420  0.3798
 1847TIP3    H126956   1.256   3.254   3.922 -0.6469 -0.5662  0.2819
 1847TIP3    H226957   1.209   3.143   4.014 -1.5683  0.3529  0.9400
 1848TIP3   OH226958   3.863   5.533   2.582 -0.4773 -0.1497  0.0525
 1848TIP3    H126959   3.826   5.515   2.668 -0.2155  1.0186  0.4339
 1848TIP3    H226960   3.794   5.511   2.520 -0.9008 -0.3783  0.6006
 1849TIP3   OH226961   4.475   6.618  12.787 -0.1425  0.7259 -0.1118
 1849TIP3    H126962   4.559   6.587  12.754  0.7089  2.1286  0.6109
 1849TIP3    H226963   4.412   6.592  12.721  1.2979  2.3865 -2.3268
 1850TIP3   OH226964   3.983   5.469   1.803 -0.4987 -0.3651 -0.3643
 1850TIP3    H126965   4.004   5.479   1.897  1.2337 -0.7286 -0.6662
 1850TIP3    H226966   3.891   5.491   1.797 -0.8139 -0.9152  1.5306
 1851TIP3   OH226967   3.720   3.991  16.640  0.1503 -0.0809 -0.0695
 1851TIP3    H126968   3.700   3.976  16.733 -1.0848  0.2457 -0.2606
 1851TIP3    H226969   3.693   4.081  16.624  0.1524 -0.2042 -0.7979
 1852TIP3   OH226970   3.067   5.636   3.030  0.0453 -0.2703 -0.7656
 1852TIP3    H126971   3.076   5.549   2.990 -0.6196 -0.8692  0.3353
 1852TIP3    H226972   2.982   5.633   3.074  1.0202  0.0775  1.2854
 1853TIP3   OH226973   0.921   0.624   5.827 -0.1529  0.1392  0.0553
 1853TIP3    H126974   0.880   0.710   5.835  0.0961  0.3159 -0.4972
 1853TIP3    H226975   0.990   0.625   5.893  0.2732  0.6176 -0.3894
 1854TIP3   OH226976   0.448   1.687  12.332 -0.0795 -0.1103 -0.3912
 1854TIP3    H126977   0.521   1.736  12.293  0.3762 -0.8805 -0.5235
 1854TIP3    H226978   0.383   1.754  12.352  0.7909  0.6359  0.0199
 1855TIP3   OH226979   3.379   2.802  16.314 -0.1791 -0.1094 -0.2244
 1855TIP3    H126980   3.319   2.850  16.258 -0.0470 -1.2261 -1.3715
 1855TIP3    H226981   3.428   2.744  16.255  0.6746 -0.6177  0.9111
 1856TIP3   OH226982   1.998   6.306  16.906 -0.4235  0.1341 -0.3316
 1856TIP3    H126983   2.046   6.290  16.987  0.9458  0.4566 -1.0422
 1856TIP3    H226984   2.009   6.227  16.854 -2.9939 -0.9014  0.5311
 1857TIP3   OH226985   2.613   4.760   0.137 -0.0128 -0.3828  0.1366
 1857TIP3    H126986   2.625   4.847   0.098 -0.8012 -0.1891  0.3087
 1857TIP3    H226987   2.699   4.738   0.174 -0.1662  0.9405  1.3645
 1858TIP3   OH226988   5.576   6.294   1.087 -0.1728  0.1187  0.2208
 1858TIP3    H126989   5.668   6.320   1.090  0.0392 -0.7010  1.5783
 1858TIP3    H226990   5.569   6.224   1.152 -1.4149 -0.9249 -0.9748
 1859TIP3   OH226991   6.025   6.027   2.375  0.2608 -0.5671  0.5924
 1859TIP3    H126992   5.942   6.071   2.392  0.1906 -0.0424 -0.9269
 1859TIP3    H226993   6.092   6.094   2.392  0.1920 -0.0519 -0.9254
 1860TIP3   OH226994   0.948   0.076   2.484  0.3622 -0.2290 -0.2509
 1860TIP3    H126995   1.040   0.054   2.500  0.0221 -0.1822  2.1042
 1860TIP3    H226996   0.943   0.170   2.504 -0.6273 -0.7194  2.1038
 1861TIP3   OH226997   0.537   4.004  11.204 -0.3959 -0.2718 -0.1227
 1861TIP3    H126998   0.510   4.065  11.135  0.1470 -0.1179 -0.2078
 1861TIP3    H226999   0.632   3.997  11.194 -0.5669 -2.0130 -0.8166
 1862TIP3   OH227000   1.761   3.322  15.768  0.2306 -0.0585 -0.6589
 1862TIP3    H127001   1.779   3.412  15.741  1.1140 -0.2793 -0.8421
 1862TIP3    H227002   1.668   3.310  15.750  0.6277 -0.0370 -3.2262
 1863TIP3   OH227003   0.768   6.488   1.367  0.8768  0.3378  0.3948
 1863TIP3    H127004   0.682   6.462   1.399  0.9422 -1.4532 -0.7214
 1863TIP3    H227005   0.758   6.490   1.272  2.5409 -2.1199  0.0565
 1864TIP3   OH227006   6.577   2.542   1.632  0.6164 -0.8345  0.1480
 1864TIP3    H127007   6.625   2.567   1.711  0.9532 -1.0973  0.0288
 1864TIP3    H227008   6.640   2.551   1.561 -0.1575  1.0877 -0.3534
 1865TIP3   OH227009   4.302   3.590   3.579  0.2739  0.1558 -0.5261
 1865TIP3    H127010   4.209   3.588   3.599  0.5327  1.0340  1.0080
 1865TIP3    H227011   4.320   3.506   3.537 -0.9916 -0.5002  0.1826
 1866TIP3   OH227012   5.475   0.040   4.970 -0.7308 -0.6251  0.7105
 1866TIP3    H127013   5.494  -0.018   5.044 -3.5438 -0.2518  1.8171
 1866TIP3    H227014   5.430  -0.016   4.907 -0.5888 -0.3665  0.3775
 1867TIP3   OH227015   3.735   5.995  13.226 -0.2350 -0.2656 -0.0058
 1867TIP3    H127016   3.753   6.080  13.265 -1.1670  0.4728 -1.1144
 1867TIP3    H227017   3.812   5.975  13.173 -0.2553  0.1781 -0.2046
 1868TIP3   OH227018   1.617   1.536   5.288 -0.0454 -0.6864 -0.4136
 1868TIP3    H127019   1.619   1.615   5.234  0.7669 -0.5050 -0.1367
 1868TIP3    H227020   1.553   1.479   5.246 -1.0576  0.3363 -0.3070
 1869TIP3   OH227021   3.401   4.949  13.532  0.0187 -0.4830  0.5635
 1869TIP3    H127022   3.443   4.869  13.501  1.7076  0.9650 -1.2484
 1869TIP3    H227023   3.307   4.933  13.524  0.3374 -2.0352 -0.4041
 1870TIP3   OH227024   0.048   5.770  16.896  0.2704 -0.0369  0.1337
 1870TIP3    H127025   0.102   5.751  16.819  0.6736  1.4955  0.0191
 1870TIP3    H227026  -0.029   5.713  16.884 -0.3594  1.1457 -2.1726
 1871TIP3   OH227027   0.819   6.182   3.604  0.1227  0.9120 -0.1444
 1871TIP3    H127028   0.867   6.105   3.636 -0.2989  1.8062  3.0631
 1871TIP3    H227029   0.886   6.242   3.573  0.4542 -0.6433 -2.7273
 1872TIP3   OH227030   2.559   0.508  15.478  0.0865 -0.4310  0.1770
 1872TIP3    H127031   2.465   0.509  15.496 -0.1307 -0.6137 -0.8630
 1872TIP3    H227032   2.587   0.419  15.500  0.1235 -0.2247  0.9787
 1873TIP3   OH227033   2.916   5.560   0.223 -0.2096  0.1913  0.1746
 1873TIP3    H127034   2.868   5.550   0.140 -0.8712  0.5551  0.4999
 1873TIP3    H227035   2.847   5.579   0.287 -0.0063 -2.4437  1.2765
 1874TIP3   OH227036   3.890   3.916   5.500  0.2626 -0.2116 -0.2891
 1874TIP3    H127037   3.850   3.830   5.487  1.7810 -0.6646 -2.5989
 1874TIP3    H227038   3.964   3.900   5.558  1.8783 -1.0088 -2.4109
 1875TIP3   OH227039   0.629   4.928   4.438 -0.5268 -0.6225 -0.5472
 1875TIP3    H127040   0.629   4.935   4.533 -1.1682 -4.5170 -0.0780
 1875TIP3    H227041   0.562   4.989   4.408  1.0736  2.2142  1.1827
 1876TIP3   OH227042   4.154   2.717  15.701 -0.2238  0.3814 -0.0714
 1876TIP3    H127043   4.152   2.684  15.611 -0.3554 -0.2358  0.1554
 1876TIP3    H227044   4.170   2.811  15.692 -1.4508  0.5391 -0.7921
 1877TIP3   OH227045   5.906   4.482  16.987 -0.5869  0.7301  0.3418
 1877TIP3    H127046   5.895   4.571  17.019 -0.1545  1.6269 -1.8523
 1877TIP3    H227047   5.969   4.489  16.916 -0.5126 -1.3513  0.1270
 1878TIP3   OH227048   4.484   1.264  16.246  0.1531 -0.3525  0.2002
 1878TIP3    H127049   4.400   1.218  16.246 -0.2173  0.2945 -1.1674
 1878TIP3    H227050   4.550   1.194  16.242 -0.3380 -0.8234  0.2732
 1879TIP3   OH227051   6.297   1.081   0.510  0.2918  0.1021 -0.2522
 1879TIP3    H127052   6.283   1.176   0.508  0.9761  0.2383  0.7522
 1879TIP3    H227053   6.365   1.069   0.576 -0.5046 -1.1797  0.3552
 1880TIP3   OH227054   1.082   5.917   4.587 -0.3280  0.3191 -0.1869
 1880TIP3    H127055   0.998   5.962   4.592 -0.2940  0.3414  0.2305
 1880TIP3    H227056   1.059   5.824   4.581 -0.3765  0.2336  1.0636
 1881TIP3   OH227057   5.038   4.356   6.250  0.2962 -0.1109  0.0578
 1881TIP3    H127058   5.099   4.331   6.180 -0.4954 -1.6499 -0.1017
 1881TIP3    H227059   5.055   4.450   6.262  2.1317 -0.3096 -0.5319
 1882TIP3   OH227060   1.164   6.478   6.508  0.1540 -0.0220 -0.6125
 1882TIP3    H127061   1.127   6.435   6.431  0.1334 -0.4236 -0.3803
 1882TIP3    H227062   1.124   6.433   6.583 -0.7628  1.1603 -0.3526
 1883TIP3   OH227063   5.821   2.397  13.746  0.0615  0.1186  0.2936
 1883TIP3    H127064   5.859   2.439  13.668  0.2956 -0.0371  0.3244
 1883TIP3    H227065   5.855   2.448  13.819 -0.3905  0.4461  0.2808
 1884TIP3   OH227066   2.247   4.181  17.051  0.8446  0.3305 -0.3655
 1884TIP3    H127067   2.253   4.118  17.123  0.7951  0.7105 -0.0231
 1884TIP3    H227068   2.309   4.251  17.075 -0.0094  1.0184 -0.1183
 1885TIP3   OH227069   5.693   5.309  10.766 -0.1210  0.3587  0.2230
 1885TIP3    H127070   5.699   5.244  10.836  0.3854 -0.6743 -0.7454
 1885TIP3    H227071   5.633   5.270  10.702  3.4016 -1.2764 -2.4314
 1886TIP3   OH227072   2.147   3.215   4.631  0.4922 -0.2065 -0.8182
 1886TIP3    H127073   2.127   3.149   4.565  1.9674 -1.0781 -0.4278
 1886TIP3    H227074   2.185   3.288   4.581  0.6776 -0.4572 -1.0488
 1887TIP3   OH227075   0.040   2.935  12.516  0.2080 -0.1501 -0.2773
 1887TIP3    H127076   0.117   2.992  12.522  0.9228 -1.1356  0.3096
 1887TIP3    H227077   0.075   2.850  12.488 -0.9432 -0.1199 -1.9182
 1888TIP3   OH227078   5.910   3.786  15.715  0.0458  0.1210  0.2675
 1888TIP3    H127079   5.911   3.876  15.748  1.1759  0.5693 -0.9137
 1888TIP3    H227080   5.866   3.736  15.784 -2.8094  1.9363 -0.0705
 1889TIP3   OH227081   5.840   4.038   1.691 -0.1420  0.1527  0.0789
 1889TIP3    H127082   5.820   4.013   1.781  1.4426 -0.0464  0.3927
 1889TIP3    H227083   5.760   4.082   1.660 -0.0725  1.8606  2.1574
 1890TIP3   OH227084   6.690   0.080  16.916  0.4538 -0.0171  0.3135
 1890TIP3    H127085   6.700   0.024  16.993  0.3649  0.4258  0.6453
 1890TIP3    H227086   6.764   0.139  16.919  0.9399 -0.5692 -0.4292
 1891TIP3   OH227087   5.593   4.909  15.523 -0.0481 -0.0257  0.0910
 1891TIP3    H127088   5.624   4.989  15.478  0.9889 -1.0060 -1.0140
 1891TIP3    H227089   5.673   4.865  15.550 -0.3308 -2.5856 -2.7326
 1892TIP3   OH227090   5.312   1.313  16.142  0.4949 -0.2784  0.6245
 1892TIP3    H127091   5.332   1.324  16.049 -2.6747 -2.5581 -0.5139
 1892TIP3    H227092   5.369   1.243  16.172  2.3565  1.2454  0.8101
 1893TIP3   OH227093   0.289   1.385  16.110  0.0130 -0.9302 -0.3755
 1893TIP3    H127094   0.261   1.393  16.201  2.2447 -1.7208  0.4478
 1893TIP3    H227095   0.285   1.474  16.075  0.0730 -0.4551  0.7919
 1894TIP3   OH227096   3.947   4.450   1.503 -0.0555 -0.0309 -0.0713
 1894TIP3    H127097   4.039   4.460   1.477  0.4927  0.1573  1.8210
 1894TIP3    H227098   3.940   4.360   1.533 -0.6011 -0.1575 -0.5674
 1895TIP3   OH227099   0.904   5.221  14.182  0.0570  0.0028  0.4377
 1895TIP3    H127100   0.878   5.230  14.274 -0.3997 -0.6333  0.3737
 1895TIP3    H227101   0.897   5.310  14.147 -0.4453  0.1278  0.8440
 1896TIP3   OH227102   3.690   2.392   4.063  0.3845 -0.0791  0.2548
 1896TIP3    H127103   3.621   2.444   4.022  2.4129  3.3177  0.7975
 1896TIP3    H227104   3.679   2.408   4.157  1.7735  0.4068  0.3587
 1897TIP3   OH227105   3.753   6.370   2.598 -0.3547  0.3322 -0.0297
 1897TIP3    H127106   3.825   6.384   2.660 -0.0480  0.4479 -0.4061
 1897TIP3    H227107   3.795   6.374   2.512 -0.9399  1.1322 -0.2835
 1898TIP3   OH227108   3.886   0.024   5.583 -0.5714 -0.2986 -0.3951
 1898TIP3    H127109   3.841   0.108   5.594  0.4311  0.0878  1.0983
 1898TIP3    H227110   3.874  -0.021   5.667  2.6829  0.3121  0.5671
 1899TIP3   OH227111   3.004   1.515   1.812  0.3224 -0.4576 -0.6337
 1899TIP3    H127112   3.049   1.508   1.728  0.7668 -0.9603 -0.3674
 1899TIP3    H227113   3.048   1.449   1.867 -0.6855 -0.9017 -0.3424
 1900TIP3   OH227114   5.664   4.236   0.161  0.7527  0.1418  0.2014
 1900TIP3    H127115   5.726   4.295   0.118 -0.1305  0.2827 -0.9441
 1900TIP3    H227116   5.686   4.149   0.129  1.9133 -0.1491  1.7188
 1901TIP3   OH227117   0.458   0.023   0.398  0.1507  0.2400 -0.1314
 1901TIP3    H127118   0.407   0.055   0.324  0.3921 -0.2071 -0.4960
 1901TIP3    H227119   0.467   0.099   0.456 -2.1085  0.0003  0.6469
 1902TIP3   OH227120   6.742   4.516  11.360  0.4431 -0.3493 -0.0805
 1902TIP3    H127121   6.698   4.458  11.298  0.0264  0.0159 -0.1308
 1902TIP3    H227122   6.807   4.563  11.307 -0.6361  0.7436 -0.4787
 1903TIP3   OH227123   1.186   2.915   3.197 -0.3316 -0.2648  0.2371
 1903TIP3    H127124   1.188   3.009   3.218  0.8248 -0.4600  1.0995
 1903TIP3    H227125   1.127   2.909   3.121 -1.3596  0.9960  0.8951
 1904TIP3   OH227126   6.046   1.890   0.080 -0.1508  0.3202 -0.0421
 1904TIP3    H127127   5.978   1.869   0.144  1.0340  0.5133  1.3244
 1904TIP3    H227128   6.030   1.982   0.057 -1.3377 -0.1032 -1.0216
 1905TIP3   OH227129   6.669   3.633   5.680  0.7247 -0.2773  0.0044
 1905TIP3    H127130   6.592   3.590   5.716  1.1620 -0.2259  1.0611
 1905TIP3    H227131   6.646   3.654   5.590  0.0689 -1.6537 -0.1721
 1906TIP3   OH227132   1.158   2.746   4.599  0.2973  0.1720  0.3048
 1906TIP3    H127133   1.069   2.764   4.567  0.3249  0.0211  0.1391
 1906TIP3    H227134   1.212   2.814   4.560  0.3237  0.0139  0.0661
 1907TIP3   OH227135   6.306   3.171   6.142 -0.1277 -0.2186  0.2858
 1907TIP3    H127136   6.254   3.092   6.129 -0.6194 -0.0917  1.3455
 1907TIP3    H227137   6.333   3.167   6.234  2.1881 -0.5451 -0.3394
 1908TIP3   OH227138   4.220   0.135   5.527  0.7421  0.2138 -0.1023
 1908TIP3    H127139   4.182   0.060   5.574 -0.0999  0.5100 -0.2898
 1908TIP3    H227140   4.303   0.102   5.492  1.1639 -0.1588  1.1752
 1909TIP3   OH227141   1.917   3.704  11.888  0.0397  0.3088  0.0213
 1909TIP3    H127142   1.851   3.654  11.841 -1.5402 -0.4078  2.7913
 1909TIP3    H227143   1.967   3.638  11.936  1.0719  1.0570  0.0131
 1910TIP3   OH227144   1.532   6.690  16.079  0.0901  0.1273  0.1366
 1910TIP3    H127145   1.487   6.609  16.053  0.0784  0.4437 -0.8629
 1910TIP3    H227146   1.623   6.664  16.092 -0.0988 -0.2378  0.8096
 1911TIP3   OH227147   2.961   4.559   3.787  0.6067  0.3442 -0.3012
 1911TIP3    H127148   2.876   4.533   3.823  0.9002 -0.3322 -0.0883
 1911TIP3    H227149   2.946   4.646   3.750 -0.5598 -0.4230 -1.6796
 1912TIP3   OH227150   1.314   5.814   5.794 -0.2573  0.3186 -0.2645
 1912TIP3    H127151   1.260   5.890   5.817 -1.9166 -0.5837 -0.9617
 1912TIP3    H227152   1.362   5.793   5.874  0.1786  2.0242 -0.0331
 1913TIP3   OH227153   0.548   6.776  12.250  0.3055 -0.2940  0.1085
 1913TIP3    H127154   0.623   6.734  12.292  2.1038  1.3819 -1.2770
 1913TIP3    H227155   0.557   6.753  12.158 -0.0060  1.1989 -0.3085
 1914TIP3   OH227156   5.010   0.512  14.815  0.3986  0.1426 -0.6671
 1914TIP3    H127157   4.924   0.481  14.841 -0.2714  0.3877 -2.4577
 1914TIP3    H227158   5.015   0.601  14.850  1.4149 -1.0274  2.5021
 1915TIP3   OH227159   2.050   1.936   4.936 -0.0077  0.0858 -0.4360
 1915TIP3    H127160   2.112   1.888   4.882 -0.1061  0.9791 -1.3801
 1915TIP3    H227161   1.967   1.929   4.888 -0.2122  0.4590 -0.1411
 1916TIP3   OH227162   1.646   5.984  14.064 -0.1137  0.4735  0.5391
 1916TIP3    H127163   1.741   5.975  14.076  0.0431 -0.9943 -1.3519
 1916TIP3    H227164   1.616   6.024  14.146  1.6105 -2.7081  2.9768
 1917TIP3   OH227165   2.606   1.070   0.276 -0.3759 -0.5631  0.0837
 1917TIP3    H127166   2.623   1.111   0.192 -0.7165 -0.8638 -0.1334
 1917TIP3    H227167   2.693   1.058   0.315 -0.3572  2.6947  1.3095
 1918TIP3   OH227168   6.104   0.029  16.704 -0.0581 -0.1643  0.0401
 1918TIP3    H127169   6.196   0.056  16.695  0.0143 -0.8813 -1.8297
 1918TIP3    H227170   6.088  -0.027  16.628 -2.0826  0.0192  0.2722
 1919TIP3   OH227171   3.865   1.256   5.565 -0.4663 -1.2448  0.6512
 1919TIP3    H127172   3.789   1.202   5.586 -0.3465 -1.6524  0.0683
 1919TIP3    H227173   3.904   1.213   5.489 -0.5005 -0.2151  0.0385
 1920TIP3   OH227174   0.764   1.800  17.044 -0.7174 -0.4718 -0.5945
 1920TIP3    H127175   0.695   1.867  17.047  0.0500  0.3219 -0.2067
 1920TIP3    H227176   0.835   1.836  17.097  0.7073 -0.4647 -2.3795
 1921TIP3   OH227177   5.981   3.532  13.443 -0.7196  0.2703 -0.0782
 1921TIP3    H127178   5.974   3.492  13.356 -1.4944  1.5550 -0.6524
 1921TIP3    H227179   6.056   3.489  13.484 -0.7909 -0.8810 -1.0971
 1922TIP3   OH227180   3.553   0.098  16.191 -0.0202  0.3977 -0.6704
 1922TIP3    H127181   3.609   0.135  16.123  1.0125  0.2240  0.0646
 1922TIP3    H227182   3.556   0.003  16.176 -0.1802  0.3916 -0.6712
 1923TIP3   OH227183   1.699   0.694  13.475 -0.1297 -0.3433 -0.1564
 1923TIP3    H127184   1.641   0.717  13.547  0.8954  2.7275 -0.1512
 1923TIP3    H227185   1.647   0.711  13.396  0.4431  1.7553 -0.1405
 1924TIP3   OH227186   1.772   4.615   0.780 -0.0715  0.1792  0.1424
 1924TIP3    H127187   1.841   4.582   0.724  0.6431  0.4363  0.8544
 1924TIP3    H227188   1.767   4.708   0.760 -0.6424  0.0508 -0.3475
 1925TIP3   OH227189   6.721   5.694  10.683 -0.3397 -0.0341  0.0814
 1925TIP3    H127190   6.760   5.668  10.600 -3.3956 -0.3146 -1.4147
 1925TIP3    H227191   6.743   5.786  10.693 -2.3364  0.8711 -2.6669
 1926TIP3   OH227192   4.898   1.170  12.591  1.1800  0.3434 -0.1556
 1926TIP3    H127193   4.848   1.189  12.512 -0.0544 -0.3620  0.4153
 1926TIP3    H227194   4.987   1.155  12.560  0.9315  1.0449 -1.2837
 1927TIP3   OH227195   6.041   2.383   3.519  0.2199 -0.0442 -0.1629
 1927TIP3    H127196   6.089   2.391   3.437 -0.0978 -2.5997 -0.6789
 1927TIP3    H227197   5.958   2.342   3.495 -0.0712 -0.4150  1.3830
 1928TIP3   OH227198   2.848   1.333   4.762 -0.1690 -0.0965  0.2730
 1928TIP3    H127199   2.801   1.352   4.681 -0.4947 -0.7966  0.2883
 1928TIP3    H227200   2.926   1.286   4.734 -0.4650 -0.6637  0.3849
 1929TIP3   OH227201   0.663   3.045   2.191  0.3309 -0.3338 -0.1030
 1929TIP3    H127202   0.645   2.979   2.124  0.5570  0.5644 -1.0862
 1929TIP3    H227203   0.729   3.102   2.151  1.0929 -0.2600  1.2249
 1930TIP3   OH227204   5.608   2.120  16.152 -0.6680  0.6397 -0.1517
 1930TIP3    H127205   5.576   2.210  16.146 -1.7249  0.2173 -2.0027
 1930TIP3    H227206   5.554   2.072  16.089  0.5954 -1.0809  0.0025
 1931TIP3   OH227207   1.902   6.302  15.942 -0.7769  0.0292 -0.1312
 1931TIP3    H127208   1.951   6.357  16.003 -0.5890  0.6209 -0.8071
 1931TIP3    H227209   1.818   6.289  15.985 -0.4037 -0.1403  0.5710
 1932TIP3   OH227210   4.206   2.441   2.089  0.0267 -0.5884 -0.1108
 1932TIP3    H127211   4.242   2.379   2.152  0.6286  0.4586  0.6013
 1932TIP3    H227212   4.115   2.412   2.076 -0.4263 -0.2555  2.0182
 1933TIP3   OH227213   4.403   5.839   4.846  0.0751  0.7262 -0.1666
 1933TIP3    H127214   4.456   5.831   4.766  0.4758 -0.3792  0.1880
 1933TIP3    H227215   4.456   5.893   4.905  1.6549 -1.7058  0.8049
 1934TIP3   OH227216   4.790   3.714  10.566  0.4085  0.0282  0.3674
 1934TIP3    H127217   4.763   3.623  10.574  1.6118 -0.4404 -0.5568
 1934TIP3    H227218   4.717   3.764  10.604 -1.1925 -1.2068 -0.9064
 1935TIP3   OH227219   5.591   0.915   3.504 -0.8285  0.6985  0.4597
 1935TIP3    H127220   5.681   0.948   3.507 -0.8512  0.9379 -0.9341
 1935TIP3    H227221   5.566   0.907   3.596  1.2204 -1.0497  0.9721
 1936TIP3   OH227222   1.279   4.377  12.306  0.0774  0.3651  0.1675
 1936TIP3    H127223   1.193   4.380  12.347  0.3357 -0.2128  0.7684
 1936TIP3    H227224   1.267   4.422  12.222 -1.2569 -1.2513 -0.5768
 1937TIP3   OH227225   4.490   5.078   3.896  0.3782 -0.2816 -0.0408
 1937TIP3    H127226   4.521   5.012   3.834 -0.1268 -0.4554 -0.1121
 1937TIP3    H227227   4.424   5.033   3.949 -0.7812  0.4421 -0.8098
 1938TIP3   OH227228   0.914   1.639  16.694  0.1376  0.0229 -0.6719
 1938TIP3    H127229   0.882   1.724  16.724 -0.4764 -0.4016 -0.0751
 1938TIP3    H227230   1.009   1.649  16.687  0.2343  0.3367  0.7973
 1939TIP3   OH227231   2.854   0.794   2.568  0.5916  0.1582  0.1885
 1939TIP3    H127232   2.839   0.817   2.660 -2.9451  0.5203 -0.3264
 1939TIP3    H227233   2.824   0.703   2.561  2.0947 -0.3208 -0.3862
 1940TIP3   OH227234   6.711   2.067  13.203  0.2009  0.0705 -0.2587
 1940TIP3    H127235   6.750   2.094  13.120  0.5769  0.2895 -0.0141
 1940TIP3    H227236   6.754   2.123  13.269 -0.6961  0.4925 -0.0111
 1941TIP3   OH227237   4.016   4.952  16.336  0.5310 -0.7085 -0.1792
 1941TIP3    H127238   4.068   4.913  16.265  0.9158  0.3990 -0.5225
 1941TIP3    H227239   3.980   5.032  16.298 -0.8501 -1.0830  0.2898
 1942TIP3   OH227240   4.725   0.142   1.226 -0.5726  0.0863  0.2530
 1942TIP3    H127241   4.695   0.149   1.316  1.9624  1.3365  1.0988
 1942TIP3    H227242   4.818   0.120   1.233 -0.5794 -1.0934 -2.1088
 1943TIP3   OH227243   6.331   3.255  14.131 -0.6678  0.4980 -0.0920
 1943TIP3    H127244   6.293   3.230  14.216 -1.1104  0.1189 -0.3913
 1943TIP3    H227245   6.354   3.171  14.090  0.8244  0.7279  0.2154
 1944TIP3   OH227246   3.698   1.811   4.530 -0.2975 -0.3123 -0.4995
 1944TIP3    H127247   3.755   1.744   4.493  2.7917  1.0892  1.2828
 1944TIP3    H227248   3.627   1.820   4.466  0.5558 -3.3508 -2.0720
 1945TIP3   OH227249   0.985   5.365  15.149  0.0093  0.5244 -0.5016
 1945TIP3    H127250   0.911   5.412  15.187  0.0984  0.7387 -0.5954
 1945TIP3    H227251   0.957   5.344  15.060  0.3330  1.2117 -0.7631
 1946TIP3   OH227252   3.395   1.632  14.497 -0.1792 -0.4162 -0.0398
 1946TIP3    H127253   3.449   1.555  14.515  0.3056 -0.3707 -1.2167
 1946TIP3    H227254   3.450   1.706  14.525  0.5380 -0.3507 -1.5253
 1947TIP3   OH227255   3.585   2.149  11.419  0.4687  0.1382 -0.0757
 1947TIP3    H127256   3.536   2.102  11.486 -0.8204  1.9703  0.3497
 1947TIP3    H227257   3.663   2.096  11.405 -0.3056 -1.4559  1.2306
 1948TIP3   OH227258   1.073   0.054   4.420  0.1540  0.5393 -0.2174
 1948TIP3    H127259   1.113  -0.012   4.477 -1.0198  1.0366  1.2391
 1948TIP3    H227260   1.024   0.110   4.479 -0.7860  1.3317 -1.6924
 1949TIP3   OH227261   1.468   3.637   3.306 -0.3365  0.2441  0.3607
 1949TIP3    H127262   1.382   3.678   3.297  0.4987  1.7249 -1.7071
 1949TIP3    H227263   1.470   3.571   3.236  0.5726  0.9603 -0.3063
 1950TIP3   OH227264   6.153   1.166  15.383 -0.1824 -0.1026  0.0372
 1950TIP3    H127265   6.243   1.191  15.360 -0.3032  1.7340  1.2939
 1950TIP3    H227266   6.100   1.196  15.310  0.2791 -1.9847 -1.1202
 1951TIP3   OH227267   6.633   0.697   5.358  0.0561  0.4070 -0.6494
 1951TIP3    H127268   6.639   0.786   5.392 -1.0839  0.0772  0.4823
 1951TIP3    H227269   6.712   0.686   5.305  0.4574  1.9095 -0.3942
 1952TIP3   OH227270   2.143   4.614   3.458 -0.1829 -0.1622 -0.3577
 1952TIP3    H127271   2.119   4.579   3.543  0.4655 -0.7161 -0.3969
 1952TIP3    H227272   2.237   4.628   3.463 -0.5144  2.4438 -0.0402
 1953TIP3   OH227273   1.896   5.226  14.816 -0.2654 -0.1069  0.0437
 1953TIP3    H127274   1.880   5.141  14.859  1.4948  0.1377  1.2851
 1953TIP3    H227275   1.899   5.289  14.888 -1.9550  1.1290 -0.9014
 1954TIP3   OH227276   4.084   4.141  11.379  0.3912 -0.3556 -1.0963
 1954TIP3    H127277   4.029   4.165  11.453  2.4087  2.2037 -0.2733
 1954TIP3    H227278   4.111   4.051  11.397 -0.8037 -0.4812  0.1907
 1955TIP3   OH227279   6.266   5.347   2.085  0.1943  0.1309 -0.0658
 1955TIP3    H127280   6.247   5.300   2.004  1.4261 -2.4599  1.0260
 1955TIP3    H227281   6.182   5.351   2.131  0.0729 -1.1963 -0.1386
 1956TIP3   OH227282   5.291   0.834   4.359  0.2324 -0.2862 -0.4330
 1956TIP3    H127283   5.307   0.928   4.370  0.3727 -0.5059  1.7941
 1956TIP3    H227284   5.346   0.792   4.426 -2.8382 -1.6422  1.4785
 1957TIP3   OH227285   1.207   0.118  16.195  0.1011  0.3075 -0.8549
 1957TIP3    H127286   1.191   0.193  16.137 -2.3105  0.1780 -0.4278
 1957TIP3    H227287   1.218   0.044  16.137  5.1225  1.1562 -1.4891
 1958TIP3   OH227288   1.586   5.541  11.196 -0.0136 -0.2771  0.1216
 1958TIP3    H127289   1.530   5.469  11.168  0.1242 -0.3840  0.1201
 1958TIP3    H227290   1.581   5.604  11.124  1.9645 -1.4441 -1.1286
 1959TIP3   OH227291   1.007   2.749   0.869  0.0841  0.5215  0.2726
 1959TIP3    H127292   0.963   2.666   0.851  1.6714  0.1651 -2.3015
 1959TIP3    H227293   0.945   2.816   0.838 -0.4067  0.2640  0.6612
 1960TIP3   OH227294   1.950   4.312  16.088  0.4431  0.2163 -0.0772
 1960TIP3    H127295   1.998   4.279  16.164 -0.8861 -2.2846 -0.2156
 1960TIP3    H227296   2.005   4.290  16.013  1.2247  1.6641  0.0352
 1961TIP3   OH227297   5.894   5.136   1.842  0.4697 -0.2759  0.2224
 1961TIP3    H127298   5.807   5.096   1.841  0.3062  0.0704  0.5521
 1961TIP3    H227299   5.903   5.176   1.756  0.5433 -0.8247 -0.0300
 1962TIP3   OH227300   1.702   0.377  15.743 -0.2700  0.1330 -0.1144
 1962TIP3    H127301   1.745   0.455  15.778 -0.6923  0.3335 -0.0440
 1962TIP3    H227302   1.759   0.349  15.671 -1.1689  1.7241 -1.5406
 1963TIP3   OH227303   4.669   5.835   4.660 -0.0835 -0.5509  0.5482
 1963TIP3    H127304   4.730   5.777   4.613 -1.0453 -2.2800  1.3568
 1963TIP3    H227305   4.590   5.836   4.606  0.3313  1.0346 -0.0810
 1964TIP3   OH227306   1.280   1.667  14.548  0.3622  0.2572 -0.3716
 1964TIP3    H127307   1.341   1.711  14.607  0.1148 -0.4909  0.4758
 1964TIP3    H227308   1.294   1.574  14.565 -0.4226  0.0568 -0.7746
 1965TIP3   OH227309   3.519   2.429  12.537 -0.0721  1.2228  0.2532
 1965TIP3    H127310   3.438   2.430  12.588 -1.0650  0.9660 -1.2667
 1965TIP3    H227311   3.533   2.520  12.512 -0.3176  1.1601 -0.1214
 1966TIP3   OH227312   6.597   5.239  13.125 -0.3249 -0.2161 -0.0270
 1966TIP3    H127313   6.543   5.163  13.107  0.1887 -0.6116  0.0835
 1966TIP3    H227314   6.605   5.284  13.041 -1.6607  0.4109  0.1548
 1967TIP3   OH227315   4.484   3.235  16.166 -1.0907 -0.3473 -0.1112
 1967TIP3    H127316   4.513   3.298  16.232 -1.6205 -2.6747  2.5026
 1967TIP3    H227317   4.394   3.260  16.145 -0.2287  1.6960 -1.7014
 1968TIP3   OH227318   5.701   0.903   5.336  0.2377  0.2991  0.9319
 1968TIP3    H127319   5.768   0.839   5.311  0.0735  0.2781  0.5391
 1968TIP3    H227320   5.683   0.951   5.255  0.6153  1.0784  1.3061
 1969TIP3   OH227321   2.144   1.177   0.532  0.2964  0.5595 -0.2267
 1969TIP3    H127322   2.190   1.121   0.594  1.8794 -1.3148 -2.8538
 1969TIP3    H227323   2.051   1.161   0.550  0.6582  1.0236  2.3528
 1970TIP3   OH227324   2.242   0.681  11.528 -0.0988 -0.2467 -0.1774
 1970TIP3    H127325   2.255   0.593  11.566  0.3875 -1.0904 -2.1729
 1970TIP3    H227326   2.270   0.672  11.437 -0.1449  1.9821 -0.4608
 1971TIP3   OH227327   3.107   2.925  12.617 -0.2916  0.1312 -0.0519
 1971TIP3    H127328   3.193   2.928  12.575  0.0383 -0.5229  0.5450
 1971TIP3    H227329   3.062   3.003  12.586  0.2396  0.0896 -0.9668
 1972TIP3   OH227330   3.501   5.850   1.794  0.0619  0.0077  0.0951
 1972TIP3    H127331   3.550   5.855   1.876 -0.7481  1.4333  0.5206
 1972TIP3    H227332   3.432   5.916   1.803 -0.9858 -0.8631 -1.1155
 1973TIP3   OH227333   3.411   0.364  15.189  0.0179  0.3110  0.0531
 1973TIP3    H127334   3.395   0.394  15.099  2.9375  0.9279 -0.3724
 1973TIP3    H227335   3.392   0.441  15.243  0.6323  0.7153 -0.2997
 1974TIP3   OH227336   4.433   4.636  16.152 -0.3118 -0.3309  0.0192
 1974TIP3    H127337   4.433   4.594  16.238 -1.4841 -0.5902 -0.0795
 1974TIP3    H227338   4.471   4.722  16.168  0.0136 -0.5851  0.6856
 1975TIP3   OH227339   0.103   4.718  11.996 -0.4133 -0.3640  0.3307
 1975TIP3    H127340   0.151   4.781  11.942 -0.4621  0.9827  1.7856
 1975TIP3    H227341   0.170   4.682  12.054  0.2341 -3.8697 -2.2655
 1976TIP3   OH227342   2.664   4.999  12.544 -0.0142 -0.2901 -0.1196
 1976TIP3    H127343   2.746   5.048  12.546 -0.9760  1.5049 -1.4572
 1976TIP3    H227344   2.642   4.987  12.636 -0.1672  2.7055  0.3539
 1977TIP3   OH227345   6.750   4.137  16.673  0.0258  0.0656 -0.6196
 1977TIP3    H127346   6.666   4.151  16.629 -0.5862  0.3448  0.5910
 1977TIP3    H227347   6.745   4.048  16.707  0.2298  0.0793 -0.5543
 1978TIP3   OH227348   1.745   3.672   1.998 -0.0252 -0.0556  0.0558
 1978TIP3    H127349   1.744   3.577   2.010  0.1580 -0.0184  0.3960
 1978TIP3    H227350   1.826   3.688   1.950  0.0192 -0.0582  0.1293
 1979TIP3   OH227351   0.430   0.226  10.596  0.4012 -0.4137 -0.0534
 1979TIP3    H127352   0.421   0.216  10.501  0.8039 -1.5563  0.0096
 1979TIP3    H227353   0.361   0.287  10.620 -1.7055 -2.4410 -0.6820
 1980TIP3   OH227354   3.268   0.768  15.876  0.0356 -0.3068 -0.4663
 1980TIP3    H127355   3.244   0.732  15.791  1.1652 -1.5373 -0.3021
 1980TIP3    H227356   3.220   0.851  15.882 -1.1944 -0.8900 -1.6676
 1981TIP3   OH227357   1.232   2.741  12.935  0.0230 -0.0016  0.1317
 1981TIP3    H127358   1.306   2.734  12.874 -0.5218  0.7823 -0.6422
 1981TIP3    H227359   1.172   2.672  12.906 -0.5998  0.8870 -0.7649
 1982TIP3   OH227360   5.533   2.707   0.343  0.3551 -0.6893 -0.0635
 1982TIP3    H127361   5.540   2.615   0.368  0.5183 -0.4461  0.8344
 1982TIP3    H227362   5.445   2.715   0.307 -0.7659 -0.6379  2.4604
 1983TIP3   OH227363   5.441   3.536   2.438 -0.2361  0.5181  0.2068
 1983TIP3    H127364   5.497   3.553   2.515 -3.0335 -0.5562  2.6752
 1983TIP3    H227365   5.479   3.459   2.397  2.6985  2.4596 -1.0591
 1984TIP3   OH227366   6.207   0.288   0.751  0.2949 -0.4248 -0.7660
 1984TIP3    H127367   6.223   0.208   0.701 -0.0220 -1.8369  1.2773
 1984TIP3    H227368   6.132   0.267   0.808 -0.1686  1.5205 -0.5600
 1985TIP3   OH227369   1.130   6.485   2.683 -0.2097 -0.1429 -0.8094
 1985TIP3    H127370   1.128   6.393   2.658 -0.5752 -0.1354 -0.8121
 1985TIP3    H227371   1.057   6.524   2.635  0.8479  0.4522 -1.9822
 1986TIP3   OH227372   0.043   3.410   4.961 -0.3425  0.0114 -0.0217
 1986TIP3    H127373   0.093   3.429   5.040 -0.9951  2.7151 -0.1453
 1986TIP3    H227374   0.099   3.442   4.890 -1.3542  1.2140 -0.3064
 1987TIP3   OH227375   6.637   3.742  13.379  0.0262 -0.4935 -0.0149
 1987TIP3    H127376   6.685   3.695  13.311 -0.0088 -3.9472  2.1198
 1987TIP3    H227377   6.703   3.798  13.420  1.1811 -1.7895 -0.0188
 1988TIP3   OH227378   4.438   4.395  15.055 -0.1539 -0.1030  0.5823
 1988TIP3    H127379   4.375   4.456  15.015  0.2549 -0.1015 -0.0663
 1988TIP3    H227380   4.504   4.452  15.095  0.2504 -0.1088 -0.0591
 1989TIP3   OH227381   3.901   5.543  14.852  0.5244 -0.2927 -0.0323
 1989TIP3    H127382   3.863   5.630  14.855 -1.4318 -1.0666 -0.5706
 1989TIP3    H227383   3.891   5.509  14.941  1.9571  0.2552  0.3678
 1990TIP3   OH227384   2.244   4.028   3.098  0.2172 -0.1376  0.4671
 1990TIP3    H127385   2.320   4.086   3.101 -0.3855  0.7042 -0.0201
 1990TIP3    H227386   2.262   3.968   3.026 -0.9146  2.0545 -1.8059
 1991TIP3   OH227387   2.811   3.852  15.836  0.6322 -0.0493  0.0153
 1991TIP3    H127388   2.718   3.871  15.822  0.0490 -1.5242  1.5160
 1991TIP3    H227389   2.830   3.783  15.773  0.2246 -0.9348  0.8370
 1992TIP3   OH227390   4.754   6.103   1.854  0.2918  0.7100 -0.1550
 1992TIP3    H127391   4.720   6.100   1.765  1.1679 -1.0658 -0.4625
 1992TIP3    H227392   4.677   6.089   1.909 -0.0777  0.6465 -0.6804
 1993TIP3   OH227393   2.126   3.426   5.026  0.1942 -0.6976 -0.6484
 1993TIP3    H127394   2.151   3.511   4.991 -0.8919 -1.0478 -2.3704
 1993TIP3    H227395   2.206   3.394   5.070  0.1277  1.9177  1.6656
 1994TIP3   OH227396   4.740   3.746   4.795 -0.4151  0.5839 -0.2747
 1994TIP3    H127397   4.826   3.738   4.837  0.0574  0.5339 -1.2098
 1994TIP3    H227398   4.715   3.656   4.774 -1.3435  0.4696  1.2091
 1995TIP3   OH227399   4.929   4.796  10.689  0.1551 -0.7673  0.4314
 1995TIP3    H127400   4.931   4.856  10.763  2.3949  2.5134 -2.0065
 1995TIP3    H227401   5.003   4.737  10.703  1.3835  0.6774  0.2653
 1996TIP3   OH227402   1.149   3.421   0.599 -0.1729 -0.1098 -0.0100
 1996TIP3    H127403   1.245   3.414   0.595 -0.2385 -0.8127 -0.7786
 1996TIP3    H227404   1.121   3.409   0.508 -0.9243  1.4722 -0.0193
 1997TIP3   OH227405   6.505   2.568   4.537 -0.6500  0.1427  0.5163
 1997TIP3    H127406   6.535   2.626   4.467 -0.7885 -1.4254 -0.9235
 1997TIP3    H227407   6.429   2.523   4.500  0.0235 -1.6470  1.1735
 1998TIP3   OH227408   1.325   0.924   1.642  0.1034  0.0220  0.1101
 1998TIP3    H127409   1.306   0.926   1.736  1.0674 -0.9120  0.3340
 1998TIP3    H227410   1.285   0.843   1.610  2.1781 -1.1436  0.2871
 1999TIP3   OH227411   2.142   5.278   0.076 -0.3979  0.1584 -0.1012
 1999TIP3    H127412   2.093   5.272  -0.006  0.6588 -2.5349 -0.6092
 1999TIP3    H227413   2.225   5.319   0.052  0.3768 -1.6599 -0.6673
 2000TIP3   OH227414   3.413   3.735   5.135 -0.2283  0.4359  1.1951
 2000TIP3    H127415   3.427   3.774   5.221  0.9131 -2.3018  2.3579
 2000TIP3    H227416   3.343   3.672   5.148 -1.4786  1.3978 -0.4382
 2001TIP3   OH227417   5.364   1.549   4.644  0.1565 -1.1207 -0.2016
 2001TIP3    H127418   5.333   1.468   4.685  0.4756 -1.2103 -0.1345
 2001TIP3    H227419   5.374   1.609   4.717 -1.7026 -0.4666 -0.4167
 2002TIP3   OH227420   2.376   2.448   1.404 -0.2953 -0.1186 -0.2285
 2002TIP3    H127421   2.356   2.524   1.351 -0.6630 -1.4662 -2.1261
 2002TIP3    H227422   2.315   2.381   1.374 -0.6964 -0.8946  2.1120
 2003TIP3   OH227423   5.775   3.110  14.370  0.3051 -0.9037  0.0707
 2003TIP3    H127424   5.836   3.050  14.328 -0.1563 -1.0588 -0.3750
 2003TIP3    H227425   5.832   3.174  14.414  0.7893 -1.0952 -0.2676
 2004TIP3   OH227426   6.686   0.014  12.686  0.3666 -0.3508 -0.1248
 2004TIP3    H127427   6.759   0.076  12.684 -0.8876  1.2346  0.3761
 2004TIP3    H227428   6.663   0.000  12.595  0.7110 -0.1139 -0.2487
 2005TIP3   OH227429   3.674   5.101  14.767  0.9773 -0.2268  0.0496
 2005TIP3    H127430   3.757   5.097  14.814  0.4127  1.6111  1.3107
 2005TIP3    H227431   3.662   5.194  14.747 -0.8893 -0.4031  0.1420
 2006TIP3   OH227432   5.311   0.082   0.759  0.0621  0.2211  0.2626
 2006TIP3    H127433   5.231   0.031   0.747 -0.2559  0.7613  0.0491
 2006TIP3    H227434   5.373   0.021   0.797 -0.7204  0.0126  1.2426
 2007TIP3   OH227435   6.774   0.179  15.599 -0.1727 -0.3504 -0.3520
 2007TIP3    H127436   6.741   0.250  15.654 -1.7611 -0.1701 -1.4593
 2007TIP3    H227437   6.746   0.099  15.645 -0.3097 -0.2251 -0.2155
 2008TIP3   OH227438   1.152   3.959   4.471 -0.6366 -0.4797 -0.1601
 2008TIP3    H127439   1.075   3.910   4.442 -0.1924 -2.3227  1.5730
 2008TIP3    H227440   1.222   3.932   4.412 -0.9008 -0.1360 -0.6410
 2009TIP3   OH227441   2.716   3.455  14.958 -0.3436  0.3085 -0.1150
 2009TIP3    H127442   2.711   3.367  14.920  0.5404 -0.3824  1.2423
 2009TIP3    H227443   2.705   3.440  15.052 -0.4398  1.6910  0.1101
 2010TIP3   OH227444   4.537   0.364  12.877  0.3543 -0.4300  0.2733
 2010TIP3    H127445   4.488   0.436  12.916  1.6693  0.2680  0.6960
 2010TIP3    H227446   4.544   0.298  12.947 -0.0923 -0.6075  0.1588
 2011TIP3   OH227447   3.249   6.314  11.438 -0.0927  0.1724 -0.6080
 2011TIP3    H127448   3.229   6.270  11.355  0.5596 -0.1210 -0.6173
 2011TIP3    H227449   3.166   6.315  11.486 -0.8714  1.7362 -1.8901
 2012TIP3   OH227450   2.055   0.181  16.307  0.0944 -0.4496 -0.7535
 2012TIP3    H127451   1.985   0.181  16.241  0.7416  0.8851 -1.4689
 2012TIP3    H227452   2.128   0.136  16.264 -0.2471 -1.7299 -0.0511
 2013TIP3   OH227453   1.546   5.986  16.505 -0.1167  0.1092 -0.0211
 2013TIP3    H127454   1.552   5.986  16.601  0.1994  0.1559 -0.0419
 2013TIP3    H227455   1.503   6.069  16.484  2.4970  1.5327 -0.0849
 2014TIP3   OH227456   1.648   0.554   2.292  0.0377 -0.0641 -0.4988
 2014TIP3    H127457   1.653   0.510   2.377  0.6535 -0.6150 -0.8134
 2014TIP3    H227458   1.621   0.644   2.313 -1.3073 -0.5928  0.1426
 2015TIP3   OH227459   0.005   0.860  16.779 -0.5504 -0.5995 -0.1500
 2015TIP3    H127460  -0.086   0.848  16.755 -0.4309  0.2110 -1.0425
 2015TIP3    H227461   0.021   0.793  16.846 -1.5494 -1.3197 -0.6104
 2016TIP3   OH227462   3.460   0.393  16.196  0.5307  0.0575  0.3885
 2016TIP3    H127463   3.410   0.411  16.116  0.3285  0.9449  0.7028
 2016TIP3    H227464   3.479   0.300  16.192 -0.1536 -0.0621 -0.3110
 2017TIP3   OH227465   2.653   5.705  12.946  0.8475  0.3295 -0.2294
 2017TIP3    H127466   2.587   5.774  12.937  0.6536  0.2057  0.2354
 2017TIP3    H227467   2.648   5.657  12.863  0.0649  0.0680 -0.0395
 2018TIP3   OH227468   2.372   2.555   4.285  0.3163  0.3652  0.0399
 2018TIP3    H127469   2.373   2.614   4.360  0.6254  1.2716 -0.6504
 2018TIP3    H227470   2.448   2.581   4.233 -2.0094  2.5676 -2.6296
 2019TIP3   OH227471   4.793   1.723   0.165  0.1005  0.0371  0.3214
 2019TIP3    H127472   4.888   1.734   0.155 -0.1977  0.9254 -2.0887
 2019TIP3    H227473   4.771   1.650   0.107 -0.8304  0.4988  0.0778
 2020TIP3   OH227474   3.567   5.723   1.133  0.0900 -0.0430 -0.4084
 2020TIP3    H127475   3.639   5.663   1.153 -0.2041  0.0949  1.1608
 2020TIP3    H227476   3.489   5.667   1.133  0.0326  0.0305 -0.8313
 2021TIP3   OH227477   0.814   0.410   6.127 -0.0792  0.1337 -0.2352
 2021TIP3    H127478   0.793   0.366   6.209  3.0094  0.1001  0.6398
 2021TIP3    H227479   0.844   0.497   6.154  1.2545  0.0163 -1.2711
 2022TIP3   OH227480   0.989   6.363  15.332 -0.0084  0.3481 -0.2311
 2022TIP3    H127481   1.037   6.416  15.268 -1.6201 -0.6734 -2.4080
 2022TIP3    H227482   1.018   6.273  15.315 -0.5834  0.0389  0.3700
 2023TIP3   OH227483   3.368   0.333   4.624  0.0130  0.3324 -0.5222
 2023TIP3    H127484   3.336   0.243   4.635 -0.1371  0.4042 -0.3594
 2023TIP3    H227485   3.310   0.371   4.558 -0.0853  0.3866 -0.4059
 2024TIP3   OH227486   2.310   3.197   3.318  0.3035  0.2334  0.5086
 2024TIP3    H127487   2.363   3.190   3.239  0.1466 -0.9547  0.4813
 2024TIP3    H227488   2.228   3.153   3.295 -0.8555  2.3085  0.4414
 2025TIP3   OH227489   4.102   0.844   2.603  0.0781  0.1281  0.1003
 2025TIP3    H127490   4.183   0.812   2.644 -0.2899  1.5782  2.1117
 2025TIP3    H227491   4.042   0.858   2.676 -2.1879 -1.2827 -1.3791
 2026TIP3   OH227492   5.410   5.136  15.165  0.2138 -0.1893  0.3746
 2026TIP3    H127493   5.375   5.218  15.200 -2.3545 -0.9404 -0.2887
 2026TIP3    H227494   5.376   5.131  15.076  0.0678 -2.1373  0.5057
 2027TIP3   OH227495   6.351   2.311  13.152  0.6278 -0.4511 -0.2658
 2027TIP3    H127496   6.417   2.335  13.088  2.6960 -2.1564  1.0885
 2027TIP3    H227497   6.385   2.344  13.236  0.8882 -3.1831  0.7885
 2028TIP3   OH227498   3.473   2.693  13.247  0.0987 -0.1764 -0.0706
 2028TIP3    H127499   3.453   2.746  13.170 -1.4951 -0.2988  0.2313
 2028TIP3    H227500   3.566   2.670  13.237  0.3390  1.1469 -1.1163
 2029TIP3   OH227501   5.424   2.358  15.699 -0.0398 -0.0357  0.0966
 2029TIP3    H127502   5.445   2.352  15.606 -0.3533  0.6095 -0.0190
 2029TIP3    H227503   5.400   2.268  15.723  0.1631 -0.2339 -0.4112
 2030TIP3   OH227504   4.854   2.748  16.241 -0.3741  0.0249  0.3742
 2030TIP3    H127505   4.884   2.716  16.327 -0.2940  0.5741  0.5524
 2030TIP3    H227506   4.770   2.703  16.228  0.3484 -1.2720  0.0130
 2031TIP3   OH227507   1.547   6.217  12.673 -0.5986 -0.7755  0.5701
 2031TIP3    H127508   1.553   6.311  12.653 -1.6147 -0.9812 -0.7892
 2031TIP3    H227509   1.455   6.195  12.657 -0.2869 -2.1011  0.5159
 2032TIP3   OH227510   1.251   3.813   1.305 -0.6415  0.0823 -0.4079
 2032TIP3    H127511   1.262   3.798   1.399  2.8181 -1.8651 -0.9651
 2032TIP3    H227512   1.211   3.900   1.300 -0.8209  0.3358  2.8483
 2033TIP3   OH227513   3.100   6.486   3.110  0.4171 -0.1042 -0.5859
 2033TIP3    H127514   3.012   6.449   3.108  0.7060 -0.7905 -0.9732
 2033TIP3    H227515   3.087   6.577   3.137 -0.0494 -1.2429  3.6649
 2034TIP3   OH227516   4.832   2.699   1.586 -0.0271 -0.4617  0.5898
 2034TIP3    H127517   4.792   2.637   1.647 -3.4468 -0.6297 -1.5850
 2034TIP3    H227518   4.877   2.644   1.522 -1.8850 -0.7170 -0.5560
 2035TIP3   OH227519   0.821   3.308  12.269 -0.3579 -0.5709 -0.2521
 2035TIP3    H127520   0.731   3.281  12.250 -1.0334  1.6758 -0.5271
 2035TIP3    H227521   0.820   3.335  12.360  0.1279 -0.7679 -0.1826
 2036TIP3   OH227522   2.160   1.913  13.929 -0.1373  0.4687 -0.3877
 2036TIP3    H127523   2.150   1.927  14.023  1.2156  0.9986 -0.3140
 2036TIP3    H227524   2.141   1.998  13.889 -3.3108 -0.3087 -0.8680
 2037TIP3   OH227525   4.777   2.587   1.868 -0.0684 -0.0974  0.1367
 2037TIP3    H127526   4.695   2.577   1.917  0.1684  0.5398  0.6848
 2037TIP3    H227527   4.808   2.498   1.855 -0.2403 -0.2933  0.9884
 2038TIP3   OH227528   6.777   5.824   6.238 -0.7043 -0.7693  0.2449
 2038TIP3    H127529   6.782   5.731   6.259  0.9182 -0.5516  1.0070
 2038TIP3    H227530   6.731   5.863   6.313  0.5209 -0.7015  1.0010
 2039TIP3   OH227531   1.601   1.867   1.961 -0.4681 -0.2746 -0.4810
 2039TIP3    H127532   1.665   1.916   2.013  0.6858  1.0631 -2.9895
 2039TIP3    H227533   1.550   1.819   2.026  1.6283  0.3339  1.7851
 2040TIP3   OH227534   0.965   2.404  14.267 -0.4001  0.2154  0.5142
 2040TIP3    H127535   1.004   2.336  14.211  3.1328  2.9486 -0.6811
 2040TIP3    H227536   0.871   2.399  14.249 -0.1339 -3.2761 -0.6246
 2041TIP3   OH227537   0.600   3.884   1.641 -0.1855 -0.3211 -0.5637
 2041TIP3    H127538   0.548   3.853   1.567  0.1726 -0.1599 -0.8874
 2041TIP3    H227539   0.634   3.805   1.682  2.1621 -0.3829 -2.4148
 2042TIP3   OH227540   6.126   4.582  16.346 -0.1196 -0.1549 -0.4711
 2042TIP3    H127541   6.146   4.666  16.305  0.4811 -0.3349 -0.5638
 2042TIP3    H227542   6.032   4.571  16.336 -0.4591  1.1832  0.8095
 2043TIP3   OH227543   0.664   1.967   3.127 -0.5684 -0.1457 -0.0923
 2043TIP3    H127544   0.638   1.935   3.213 -2.2437  0.4877 -0.3221
 2043TIP3    H227545   0.582   1.991   3.084  0.1474 -1.1320 -2.1656
 2044TIP3   OH227546   6.628   2.631   1.138 -0.4135  0.7016 -0.0807
 2044TIP3    H127547   6.567   2.652   1.067 -0.4437  1.4225  0.1518
 2044TIP3    H227548   6.714   2.650   1.103 -0.1511 -1.7419 -0.9375
 2045TIP3   OH227549   0.190   1.127   5.160  0.4329  0.3491  0.1104
 2045TIP3    H127550   0.178   1.052   5.101  0.1805  1.1854 -0.9237
 2045TIP3    H227551   0.283   1.147   5.155  0.4362  0.3319  0.1047
 2046TIP3   OH227552   5.955   6.111  15.054 -0.3068 -1.0050 -0.4810
 2046TIP3    H127553   5.936   6.070  14.969 -1.1052 -0.0645 -0.7684
 2046TIP3    H227554   6.038   6.156  15.041 -0.1998 -1.2421 -0.6282
 2047TIP3   OH227555   3.851   1.607   4.410  0.0982 -0.1170  0.1441
 2047TIP3    H127556   3.936   1.620   4.453 -0.0425 -0.7202  0.6313
 2047TIP3    H227557   3.825   1.518   4.436 -1.0149  0.3208  0.5866
 2048TIP3   OH227558   0.110   6.017   2.542  0.4413  1.0086  0.8329
 2048TIP3    H127559   0.063   6.008   2.625  0.8646  1.6040  1.1413
 2048TIP3    H227560   0.128   6.111   2.534  0.3129  0.9739  0.0159
 2049TIP3   OH227561   2.430   2.398  11.978  0.2404 -0.5387 -0.0161
 2049TIP3    H127562   2.407   2.490  11.987  0.7970 -0.3881 -0.0867
 2049TIP3    H227563   2.487   2.394  11.902  1.0242 -0.7809  0.5634
 2050TIP3   OH227564   5.866   5.932  11.011 -0.3713  0.0853  0.3422
 2050TIP3    H127565   5.948   5.974  11.037  0.8445 -1.7465 -0.3598
 2050TIP3    H227566   5.833   5.987  10.939  0.7282  0.3518  0.0204
 2051TIP3   OH227567   0.496   1.524  12.535 -0.1317 -0.1837  0.2007
 2051TIP3    H127568   0.575   1.573  12.557 -1.0906  0.6734  1.9335
 2051TIP3    H227569   0.458   1.571  12.461  0.3364  0.1315  0.1553
 2052TIP3   OH227570   5.583   5.145   1.836 -0.9108  0.3574 -0.5661
 2052TIP3    H127571   5.492   5.163   1.811 -0.2829  2.1833 -1.7983
 2052TIP3    H227572   5.634   5.212   1.790  0.9529  0.1892  1.1023
 2053TIP3   OH227573   6.212   6.340  14.552  0.5173 -0.0917  0.3829
 2053TIP3    H127574   6.171   6.411  14.601  1.8794  0.9106  0.1226
 2053TIP3    H227575   6.193   6.262  14.604  1.5877  0.8772  2.3499
 2054TIP3   OH227576   0.989   5.089  11.900 -0.3487  0.0446 -0.0060
 2054TIP3    H127577   1.004   5.151  11.828  0.8462  0.1018  0.2714
 2054TIP3    H227578   1.043   5.013  11.877 -0.0961 -0.0090  0.7428
 2055TIP3   OH227579   0.684   6.781   2.396  0.0801  0.0200  0.0421
 2055TIP3    H127580   0.647   6.869   2.402 -0.4898 -0.1691 -0.6184
 2055TIP3    H227581   0.769   6.788   2.441  0.9745  1.4367 -1.7327
 2056TIP3   OH227582   6.682   3.024   2.625 -0.2150 -0.1803 -0.2194
 2056TIP3    H127583   6.741   2.950   2.635 -0.4481 -0.3437 -0.0365
 2056TIP3    H227584   6.738   3.101   2.633  0.0349 -0.3368 -0.4588
 2057TIP3   OH227585   5.795   5.516   3.410 -0.2581 -0.0970 -0.2059
 2057TIP3    H127586   5.870   5.485   3.462 -0.8718 -0.8905  0.2266
 2057TIP3    H227587   5.806   5.611   3.407  0.5049 -0.1605  0.2657
 2058TIP3   OH227588   0.467   0.892   2.356 -0.3294 -0.3980 -0.6643
 2058TIP3    H127589   0.522   0.821   2.323 -0.7085 -1.2946  0.5807
 2058TIP3    H227590   0.505   0.971   2.317  2.1717 -0.9130  0.5233
 2059TIP3   OH227591   6.197   2.306  11.363  0.6166 -0.5083 -0.4394
 2059TIP3    H127592   6.271   2.361  11.387  0.4970 -1.0419  1.3150
 2059TIP3    H227593   6.219   2.273  11.275  2.1684 -0.1844 -0.2060
 2060TIP3   OH227594   5.264   4.518  14.446  0.2334 -0.1897  0.5251
 2060TIP3    H127595   5.299   4.523  14.535  0.0782  1.3682  0.5275
 2060TIP3    H227596   5.332   4.474  14.396  0.8932  0.0980  1.1425
 2061TIP3   OH227597   0.826   1.995   4.229  0.5604  0.3521  0.2557
 2061TIP3    H127598   0.850   1.904   4.211  0.5259  0.4532 -0.3191
 2061TIP3    H227599   0.786   2.025   4.148  1.0835  1.0491  0.2519
 2062TIP3   OH227600   0.666   5.303  14.737  0.3521  0.2087 -0.1409
 2062TIP3    H127601   0.643   5.212  14.756  2.9559 -0.1392  2.0415
 2062TIP3    H227602   0.667   5.308  14.642 -0.4963 -1.8620 -0.3098
 2063TIP3   OH227603   3.484   1.477   3.268  0.3752  0.0276  0.0438
 2063TIP3    H127604   3.572   1.446   3.293  0.1574  0.4589  1.4376
 2063TIP3    H227605   3.491   1.496   3.174  1.9456  0.6145  0.2493
 2064TIP3   OH227606   6.620   5.687   0.802 -0.0426 -0.4029  0.1060
 2064TIP3    H127607   6.550   5.726   0.855 -0.5549  0.8064 -1.4175
 2064TIP3    H227608   6.606   5.593   0.811  0.6582 -0.3258  3.1135
 2065TIP3   OH227609   0.017   5.093   4.138  0.4969 -0.3243  0.3258
 2065TIP3    H127610   0.106   5.124   4.155  0.4132  0.4660 -0.5770
 2065TIP3    H227611   0.012   5.009   4.183  0.8958  0.7341  2.4615
 2066TIP3   OH227612   5.153   3.667  15.020  0.5348 -0.0369 -0.0227
 2066TIP3    H127613   5.246   3.650  15.001  1.0008  2.2539 -0.1178
 2066TIP3    H227614   5.110   3.666  14.935  0.8609  0.7929 -0.2106
 2067TIP3   OH227615   4.232   4.507   1.473 -0.2796 -0.0716 -0.5540
 2067TIP3    H127616   4.247   4.594   1.434  0.4344  0.0827  0.0559
 2067TIP3    H227617   4.302   4.452   1.438 -0.9025 -0.5006 -1.1740
 2068TIP3   OH227618   3.965   3.315  16.578 -0.2183  0.2894 -0.4296
 2068TIP3    H127619   3.879   3.329  16.538 -1.1737 -3.3365 -0.0234
 2068TIP3    H227620   4.027   3.317  16.505 -0.7991  1.6571 -0.9084
 2069TIP3   OH227621   0.137   1.608   4.077 -0.2073 -0.0796 -0.2332
 2069TIP3    H127622   0.051   1.574   4.103 -1.2795  1.8674 -1.0138
 2069TIP3    H227623   0.144   1.588   3.984  0.1405 -0.0767 -0.2113
 2070TIP3   OH227624   0.633   4.554  14.357 -0.5623  0.5026 -0.2232
 2070TIP3    H127625   0.729   4.548  14.356 -0.6267 -1.3156 -1.8141
 2070TIP3    H227626   0.605   4.478  14.409 -1.1563  1.2731  0.6124
 2071TIP3   OH227627   2.366   4.690   0.064  0.2101 -0.8900  0.1120
 2071TIP3    H127628   2.312   4.731   0.131  0.4695 -2.1553  1.1420
 2071TIP3    H227629   2.447   4.666   0.109  1.2480  0.0614 -1.1639
 2072TIP3   OH227630   6.354   0.266  10.473  0.4661 -0.1414  0.8457
 2072TIP3    H127631   6.362   0.288  10.566  1.9996  1.4010  0.4109
 2072TIP3    H227632   6.372   0.348  10.428  0.1454 -0.9568 -0.8394
 2073TIP3   OH227633   0.163   2.516  10.937  0.0403  0.1700  0.4235
 2073TIP3    H127634   0.147   2.521  11.031  0.5325 -0.1780  0.5310
 2073TIP3    H227635   0.080   2.541  10.897 -0.3728 -0.3239  0.9518
 2074TIP3   OH227636   4.540   6.542   0.675  0.1952  0.2517 -0.5522
 2074TIP3    H127637   4.541   6.617   0.616 -0.0185  1.2445  0.6453
 2074TIP3    H227638   4.628   6.538   0.711  0.1912 -0.0392 -0.5710
 2075TIP3   OH227639   2.511   4.924  14.599 -0.9549 -0.6372  0.4289
 2075TIP3    H127640   2.518   4.949  14.691  0.3824  0.9577 -0.0734
 2075TIP3    H227641   2.553   4.838  14.594  0.8581  0.1721  0.9904
 2076TIP3   OH227642   4.989   0.465   3.815  0.5468 -0.6599  0.1727
 2076TIP3    H127643   5.058   0.498   3.757 -1.0454 -0.5774 -1.7448
 2076TIP3    H227644   4.973   0.538   3.876 -0.4467  0.8192 -1.7648
 2077TIP3   OH227645   6.679   6.745  16.659 -0.6164 -0.2438  0.2453
 2077TIP3    H127646   6.588   6.741  16.628 -1.1331  0.4390  1.5874
 2077TIP3    H227647   6.676   6.806  16.732  1.1634  0.7078 -0.4344
 2078TIP3   OH227648   3.118   2.259  16.685  0.2332  0.6536 -0.0993
 2078TIP3    H127649   3.111   2.205  16.606 -0.4786  0.1621  0.2887
 2078TIP3    H227650   3.172   2.208  16.745 -3.0325 -1.2604  1.5200
 2079TIP3   OH227651   6.255   4.916  12.512  0.1932  0.2680 -0.3130
 2079TIP3    H127652   6.219   4.890  12.597  0.5048 -0.2373 -0.3293
 2079TIP3    H227653   6.212   4.999  12.492 -0.4110  0.0426  0.0104
 2080TIP3   OH227654   1.416   0.925  14.388  0.1314 -0.5108 -0.4517
 2080TIP3    H127655   1.444   0.835  14.403 -2.0709 -0.9320  1.8377
 2080TIP3    H227656   1.388   0.956  14.474 -2.4485  1.1322 -1.7455
 2081TIP3   OH227657   1.970   5.191   2.654  0.1877 -0.1896 -0.0314
 2081TIP3    H127658   1.966   5.161   2.745  2.9705 -0.5531  0.0715
 2081TIP3    H227659   2.048   5.247   2.651 -1.3996  2.0807 -1.6267
 2082TIP3   OH227660   5.699   3.715   3.362  0.1951  0.0711  0.3988
 2082TIP3    H127661   5.700   3.806   3.393 -0.0763  0.2636 -0.1400
 2082TIP3    H227662   5.775   3.675   3.403  0.7941  0.7641 -0.0126
 2083TIP3   OH227663   3.982   1.180   4.592 -0.1639  0.3997  0.2199
 2083TIP3    H127664   4.059   1.174   4.535 -0.7256  0.1061 -0.5301
 2083TIP3    H227665   4.002   1.122   4.665  0.0791 -0.1641 -0.2817
 2084TIP3   OH227666   4.395   6.560  10.917  0.5809 -0.1119 -0.2010
 2084TIP3    H127667   4.327   6.597  10.859  1.2071  0.3563 -0.6505
 2084TIP3    H227668   4.409   6.471  10.884  0.9484  0.1592 -0.7945
 2085TIP3   OH227669   5.112   5.135   1.085  0.2615  0.3183  0.2311
 2085TIP3    H127670   5.112   5.183   1.168  0.8710  0.6799  0.0313
 2085TIP3    H227671   5.145   5.048   1.108  2.1785  0.9592  0.0932
 2086TIP3   OH227672   1.031   4.815  14.500 -0.3994  0.5770  0.0050
 2086TIP3    H127673   1.021   4.906  14.529  1.1504  0.5842  0.6206
 2086TIP3    H227674   1.125   4.805  14.485 -0.7460 -0.4561 -1.6935
 2087TIP3   OH227675   4.386   6.684  13.875 -0.6066 -0.5957  0.0223
 2087TIP3    H127676   4.320   6.676  13.943  1.2715 -2.0949  1.7842
 2087TIP3    H227677   4.346   6.743  13.810 -3.2505 -0.6940  1.4070
 2088TIP3   OH227678   4.484   2.618   0.712 -0.1935 -0.3759  0.4681
 2088TIP3    H127679   4.501   2.535   0.756  0.1185 -0.9893 -0.7516
 2088TIP3    H227680   4.554   2.625   0.647  0.3236  1.2971  1.1537
 2089TIP3   OH227681   5.508   0.584  15.062  0.7043 -0.6050  0.1110
 2089TIP3    H127682   5.502   0.492  15.037 -0.7230 -0.1028 -1.6205
 2089TIP3    H227683   5.447   0.593  15.135  2.5809 -1.4489  1.8868
 2090TIP3   OH227684   3.396   4.154   2.341 -0.0466  0.1407 -0.1431
 2090TIP3    H127685   3.418   4.066   2.310  0.1341 -0.3922  1.3853
 2090TIP3    H227686   3.474   4.182   2.389 -0.2321  0.9956 -0.3288
 2091TIP3   OH227687   3.151   5.627   5.268 -0.3088  0.7491  0.1323
 2091TIP3    H127688   3.234   5.604   5.227 -1.1995  0.5474 -1.6489
 2091TIP3    H227689   3.149   5.723   5.266 -0.1230  0.7546  0.2013
 2092TIP3   OH227690   2.530   1.182  15.124  0.5777  0.1199  0.4013
 2092TIP3    H127691   2.502   1.103  15.170 -0.0083 -0.2323 -0.5232
 2092TIP3    H227692   2.625   1.172  15.116  0.7544  0.3922  1.8723
 2093TIP3   OH227693   4.132   2.239   0.396 -0.4967 -0.1147  0.1257
 2093TIP3    H127694   4.156   2.311   0.338  1.0063  1.0278  2.0224
 2093TIP3    H227695   4.194   2.169   0.373 -0.3188  0.1013 -0.0622
 2094TIP3   OH227696   3.602   5.698  15.771  0.1156 -0.4183 -0.1848
 2094TIP3    H127697   3.537   5.736  15.830  0.9880 -0.3370  0.7521
 2094TIP3    H227698   3.602   5.605  15.792  1.2922 -0.2103  0.8310
 2095TIP3   OH227699   4.851   2.634  13.832 -0.1184 -0.5396 -0.1634
 2095TIP3    H127700   4.825   2.696  13.900 -1.2847 -0.7173 -0.4325
 2095TIP3    H227701   4.867   2.689  13.755 -0.8675 -0.5321 -0.3208
 2096TIP3   OH227702   4.640   4.667   3.401 -0.2600 -0.2808 -0.5536
 2096TIP3    H127703   4.556   4.662   3.447 -0.7911 -0.8860 -1.5507
 2096TIP3    H227704   4.640   4.754   3.360  0.3571  0.3944  0.7971
 2097TIP3   OH227705   4.942   4.124   1.205  0.3177 -0.7781 -0.4799
 2097TIP3    H127706   4.954   4.057   1.272  0.6060  0.0995  0.3523
 2097TIP3    H227707   4.855   4.107   1.170 -0.2127 -0.6771  0.7555
 2098TIP3   OH227708   3.757   3.662  10.492 -0.5262  0.6251  0.1967
 2098TIP3    H127709   3.663   3.680  10.498 -0.8765 -1.1329  0.5111
 2098TIP3    H227710   3.777   3.610  10.569  0.3203 -0.5175 -0.7493
 2099TIP3   OH227711   3.041   2.194  15.394  0.2593 -0.4497  0.2663
 2099TIP3    H127712   3.117   2.221  15.343  1.3123 -0.9111  1.5419
 2099TIP3    H227713   3.014   2.111  15.354  1.3588 -1.0437  0.7072
 2100TIP3   OH227714   1.434   5.037   5.155  0.2001 -0.1000  0.1251
 2100TIP3    H127715   1.399   5.009   5.071 -1.9124  0.6789  0.6861
 2100TIP3    H227716   1.461   4.956   5.198 -2.3923 -0.9929  0.2486
 2101TIP3   OH227717   3.176   3.924  14.382 -0.4035  0.0355  0.4103
 2101TIP3    H127718   3.262   3.964  14.389  0.2943 -1.0745 -1.1605
 2101TIP3    H227719   3.193   3.830  14.378 -1.3276 -0.1418 -3.0020
 2102TIP3   OH227720   6.426   4.965   5.504 -0.0423  0.3956 -0.3660
 2102TIP3    H127721   6.489   4.969   5.432  1.5833 -0.2365  0.9428
 2102TIP3    H227722   6.451   4.886   5.553 -0.8494  1.0096  1.0977
 2103TIP3   OH227723   3.931   2.035   1.447  0.1271 -0.4747  0.7042
 2103TIP3    H127724   3.950   1.982   1.524  1.1409 -0.8984  0.1695
 2103TIP3    H227725   3.901   1.973   1.381  1.5356 -0.4569  0.0015
 2104TIP3   OH227726   6.526   1.267   4.794 -0.2170 -0.0807  0.2297
 2104TIP3    H127727   6.457   1.242   4.733 -0.5971  0.6049  0.3758
 2104TIP3    H227728   6.604   1.222   4.762 -0.9566 -1.7714  0.7090
 2105TIP3   OH227729   4.759   4.841   4.149 -0.4400 -0.2225  0.6137
 2105TIP3    H127730   4.727   4.752   4.164 -1.4985  0.4412  2.7415
 2105TIP3    H227731   4.730   4.862   4.060 -1.5741 -1.4410  0.6543
 2106TIP3   OH227732   5.726   6.631  13.068  0.1756  0.2698  0.4043
 2106TIP3    H127733   5.788   6.635  12.995  1.8931 -1.6544  1.6506
 2106TIP3    H227734   5.683   6.546  13.058 -0.8391  0.7482  0.6584
 2107TIP3   OH227735   3.799   5.513  13.525 -0.0808 -0.4118  0.2799
 2107TIP3    H127736   3.719   5.541  13.480  0.6846 -0.6707 -1.3085
 2107TIP3    H227737   3.786   5.420  13.543  0.9468 -1.2116 -2.5965
 2108TIP3   OH227738   6.730   0.746   3.404  0.3608  0.3396  0.1296
 2108TIP3    H127739   6.664   0.814   3.419  1.4001  1.4228 -0.1215
 2108TIP3    H227740   6.777   0.739   3.486  0.1684 -0.1916  0.1987
 2109TIP3   OH227741   2.310   4.502   4.834 -0.2271  0.1921 -0.1788
 2109TIP3    H127742   2.325   4.543   4.920 -0.6130 -0.1558  0.0596
 2109TIP3    H227743   2.344   4.413   4.844  1.8693  0.8029 -1.1107
 2110TIP3   OH227744   1.243   2.194   2.452  0.8975 -0.0248  0.2312
 2110TIP3    H127745   1.295   2.269   2.425  1.1647 -0.1497  0.3974
 2110TIP3    H227746   1.181   2.229   2.516  0.8946  0.0898  0.1655
 2111TIP3   OH227747   6.723   3.209  11.287  0.2621  0.5143 -0.3356
 2111TIP3    H127748   6.755   3.274  11.350 -2.4534  2.1925 -0.5434
 2111TIP3    H227749   6.629   3.202  11.306 -0.3380 -0.0920 -3.1630
 2112TIP3   OH227750   2.806   1.522  13.673 -0.2363  0.0484 -0.2279
 2112TIP3    H127751   2.738   1.518  13.606  0.8079  2.4444 -1.5712
 2112TIP3    H227752   2.760   1.507  13.755 -2.0687 -0.0595 -1.2189
 2113TIP3   OH227753   1.459   0.712   3.856 -0.1876 -0.4783  0.2249
 2113TIP3    H127754   1.424   0.711   3.945 -1.1675  0.5952 -0.1107
 2113TIP3    H227755   1.392   0.668   3.804  0.0056 -0.4028 -0.0874
 2114TIP3   OH227756   2.784   0.572   2.988 -0.1526 -0.2943  0.1457
 2114TIP3    H127757   2.771   0.545   2.897 -0.3982  0.0288  0.0819
 2114TIP3    H227758   2.705   0.622   3.010 -0.9003 -1.7971  1.0878
 2115TIP3   OH227759   1.204   5.043  16.106  0.6091 -0.0060  0.0580
 2115TIP3    H127760   1.163   5.046  16.020  0.4046  1.2896  0.1919
 2115TIP3    H227761   1.275   5.107  16.102 -1.4527  2.5827  1.8598
 2116TIP3   OH227762   5.853   0.718   5.626  0.3234  0.1642  0.2989
 2116TIP3    H127763   5.764   0.753   5.626  0.1187 -0.0623  3.2249
 2116TIP3    H227764   5.884   0.733   5.716  1.6045 -3.6582  0.6618
 2117TIP3   OH227765   5.422   3.841   3.894  0.5602 -0.2923  0.3695
 2117TIP3    H127766   5.513   3.858   3.916  0.5690 -1.3801  1.2347
 2117TIP3    H227767   5.426   3.767   3.833  0.2095 -1.0684  1.2682
 2118TIP3   OH227768   6.309   6.225  15.497  0.0924 -0.3841 -0.6179
 2118TIP3    H127769   6.266   6.300  15.538  1.7188 -0.2650  0.9935
 2118TIP3    H227770   6.237   6.169  15.468 -1.1388  0.7659  0.1045
 2119TIP3   OH227771   5.729   0.774  12.556 -0.0482  0.4494 -0.5535
 2119TIP3    H127772   5.764   0.685  12.556 -3.4498 -1.0493 -1.8189
 2119TIP3    H227773   5.781   0.821  12.490  2.8999  0.0611  1.2763
 2120TIP3   OH227774   3.269   3.275   3.541  0.2702 -0.1041 -0.6177
 2120TIP3    H127775   3.226   3.194   3.567  1.7174 -1.1837 -1.4839
 2120TIP3    H227776   3.355   3.271   3.581  0.1259  1.3421 -0.1098
 2121TIP3   OH227777   5.978   4.613  16.700 -0.0543 -0.1424 -0.0732
 2121TIP3    H127778   5.889   4.581  16.687 -0.4584  1.7594 -2.7663
 2121TIP3    H227779   6.033   4.537  16.682 -1.0605 -0.7469 -0.7177
 2122TIP3   OH227780   6.062   3.161   2.974 -0.3741 -0.2122  0.6057
 2122TIP3    H127781   6.041   3.235   2.918 -1.2455 -0.3666  0.7156
 2122TIP3    H227782   6.092   3.200   3.056  1.6863  0.0278 -0.1924
 2123TIP3   OH227783   5.343   0.754  11.453 -0.2559 -0.3327  0.3378
 2123TIP3    H127784   5.314   0.759  11.544 -0.9872 -0.0587  0.0945
 2123TIP3    H227785   5.306   0.831  11.412 -0.2733 -0.6707 -0.2869
 2124TIP3   OH227786   5.808   1.571  10.969 -0.4188 -0.3798  0.2482
 2124TIP3    H127787   5.753   1.507  10.923 -1.6578  0.3991  0.6150
 2124TIP3    H227788   5.765   1.655  10.954  1.6182  0.5491 -0.9316
 2125TIP3   OH227789   4.946   3.483  15.498 -0.2287  0.7093 -0.3086
 2125TIP3    H127790   4.918   3.474  15.589 -0.5307  0.0484 -0.4618
 2125TIP3    H227791   4.901   3.413  15.452  2.1312 -0.8211 -0.4605
 2126TIP3   OH227792   6.052   3.480   4.796 -0.1470  0.2390 -0.1785
 2126TIP3    H127793   6.104   3.411   4.754  2.7816  1.1213  1.6975
 2126TIP3    H227794   5.965   3.469   4.759  0.1582 -4.3452 -0.1390
 2127TIP3   OH227795   2.759   2.780   3.611 -0.0681 -0.3311 -0.1440
 2127TIP3    H127796   2.745   2.699   3.660 -1.4341  0.3535  0.6752
 2127TIP3    H227797   2.773   2.752   3.521 -2.1114 -1.4348 -0.1779
 2128TIP3   OH227798   2.110   2.090   5.719  0.1697  0.0486 -0.6696
 2128TIP3    H127799   2.060   2.068   5.797 -0.1880  0.2710 -0.8329
 2128TIP3    H227800   2.085   2.180   5.699  1.2166  0.4382 -0.3076
 2129TIP3   OH227801   5.794   2.263   0.174  0.1723  0.5223 -0.5401
 2129TIP3    H127802   5.790   2.357   0.194 -0.8607  0.3145  0.3080
 2129TIP3    H227803   5.704   2.232   0.184  0.1307 -0.2333 -2.5797
 2130TIP3   OH227804   6.332   0.156  13.593 -0.0246  0.2815  0.1667
 2130TIP3    H127805   6.254   0.183  13.544  1.0883 -1.3856 -2.7412
 2130TIP3    H227806   6.321   0.062  13.605  1.4508  0.0514 -0.1291
 2131TIP3   OH227807   2.326   4.060   2.262  0.1342 -0.5807  0.0446
 2131TIP3    H127808   2.245   4.013   2.282 -0.8158  1.5596  1.6253
 2131TIP3    H227809   2.299   4.149   2.243  2.0753  0.0125 -0.2038
 2132TIP3   OH227810   6.193   2.467  15.446  0.2732  0.7061  0.7533
 2132TIP3    H127811   6.178   2.377  15.474  0.1877  0.5538  0.2341
 2132TIP3    H227812   6.202   2.461  15.351  1.3501  1.0991  0.8200
 2133TIP3   OH227813   1.621   4.339   2.124  0.1279  0.1902  0.3254
 2133TIP3    H127814   1.642   4.247   2.111  0.0471  0.2670 -0.3987
 2133TIP3    H227815   1.530   4.347   2.097  0.3074  0.5911 -0.1730
 2134TIP3   OH227816   5.587   6.338  16.735  0.1103 -0.6495 -0.1038
 2134TIP3    H127817   5.539   6.416  16.706  1.2691 -0.6504 -2.2936
 2134TIP3    H227818   5.597   6.285  16.655  0.4335 -2.4663  1.0724
 2135TIP3   OH227819   3.148   6.711   2.494  0.7959 -0.1245 -0.0097
 2135TIP3    H127820   3.116   6.794   2.528 -0.0723 -1.0823  1.6120
 2135TIP3    H227821   3.085   6.646   2.525  1.2598 -1.3613 -1.5351
 2136TIP3   OH227822   1.514   6.328  10.995  0.1107  0.1786 -0.0963
 2136TIP3    H127823   1.441   6.267  11.005  0.4223 -0.0523  0.9492
 2136TIP3    H227824   1.574   6.284  10.935  0.4454 -0.6673  0.8446
 2137TIP3   OH227825   3.017   1.781   5.010  0.5706 -0.5096 -0.4046
 2137TIP3    H127826   3.057   1.795   4.924  0.8616  0.0401 -0.1880
 2137TIP3    H227827   3.056   1.849   5.065 -1.6094  0.9039 -0.4729
 2138TIP3   OH227828   3.080   1.948  16.079 -0.4666 -0.2601 -0.5100
 2138TIP3    H127829   2.997   1.995  16.086 -0.5818 -0.4555 -0.5568
 2138TIP3    H227830   3.057   1.856  16.093 -0.0038 -0.1373  1.2727
 2139TIP3   OH227831   4.996   3.442  12.723 -0.0912 -0.5178 -0.3379
 2139TIP3    H127832   5.052   3.519  12.732 -0.2729 -0.4998  0.8355
 2139TIP3    H227833   4.910   3.477  12.700  0.2613 -0.5142 -1.6967
 2140TIP3   OH227834   1.533   1.328   4.725  0.8449  0.8092 -0.3885
 2140TIP3    H127835   1.458   1.342   4.667  0.9050  0.2692 -0.5939
 2140TIP3    H227836   1.501   1.356   4.811  0.0423 -0.4356 -0.2513
 2141TIP3   OH227837   3.688   6.305  12.150 -0.2060  0.0378  0.1431
 2141TIP3    H127838   3.739   6.385  12.162  0.3413 -0.2855  0.0007
 2141TIP3    H227839   3.744   6.249  12.097  0.6689 -1.5450  2.5551
 2142TIP3   OH227840   6.777   5.304   0.932  0.2661  0.0581  0.0090
 2142TIP3    H127841   6.816   5.263   1.009 -0.6681 -1.3820 -0.2227
 2142TIP3    H227842   6.841   5.368   0.902  1.3968 -0.6019  0.9629
 2143TIP3   OH227843   0.126   3.082   5.568 -0.1854 -0.2133  0.2017
 2143TIP3    H127844   0.144   3.155   5.509  0.1576 -1.2276 -0.9853
 2143TIP3    H227845   0.212   3.056   5.602 -0.5671  1.9154  3.1552
 2144TIP3   OH227846   2.338   2.664   2.422  0.0129  0.8869 -0.1448
 2144TIP3    H127847   2.318   2.594   2.360 -0.9622  2.0284 -1.1845
 2144TIP3    H227848   2.345   2.620   2.507 -4.2074 -0.1387 -0.0910
 2145TIP3   OH227849   1.942   3.588   5.459 -0.5701 -0.0322  0.3316
 2145TIP3    H127850   2.030   3.587   5.497 -0.6113  0.0876  0.4333
 2145TIP3    H227851   1.952   3.549   5.373 -0.0520  1.6952 -0.4458
 2146TIP3   OH227852   1.918   3.450  12.324  0.2261 -0.7047  0.3256
 2146TIP3    H127853   1.869   3.394  12.265  0.3429  0.9759 -1.4719
 2146TIP3    H227854   2.007   3.414  12.323 -0.2293 -1.9254  1.1818
 2147TIP3   OH227855   5.415   3.724  13.537  0.6647  0.1877  0.5121
 2147TIP3    H127856   5.391   3.667  13.610  0.8590  1.3280  1.4946
 2147TIP3    H227857   5.368   3.688  13.462 -1.0873  0.0988  1.5928
 2148TIP3   OH227858   4.873   4.776   1.372 -0.7555  0.2743  0.5302
 2148TIP3    H127859   4.838   4.689   1.394 -0.2765  0.2745  1.3419
 2148TIP3    H227860   4.796   4.832   1.366 -1.3820 -0.7131 -2.7380
 2149TIP3   OH227861   5.352   4.947   4.979 -0.1106 -0.1872 -0.5705
 2149TIP3    H127862   5.419   4.900   5.029  0.3584 -1.8124 -2.5754
 2149TIP3    H227863   5.399   5.023   4.942 -0.2036  0.4305  0.5367
 2150TIP3   OH227864   5.651   3.441   1.382  0.5717 -0.1758  0.6691
 2150TIP3    H127865   5.730   3.446   1.328  0.1742 -0.2022  0.0772
 2150TIP3    H227866   5.684   3.428   1.471  1.2158 -1.1154  0.3132
 2151TIP3   OH227867   1.387   1.869  16.837  0.2587 -0.1648  0.7070
 2151TIP3    H127868   1.326   1.797  16.826  0.9304 -0.4283 -2.0112
 2151TIP3    H227869   1.412   1.893  16.748  0.1636  3.3732  1.4895
 2152TIP3   OH227870   1.616   0.810   3.656 -0.3971  0.4274  0.2602
 2152TIP3    H127871   1.561   0.790   3.732  2.1597 -3.2645  1.3730
 2152TIP3    H227872   1.650   0.726   3.628  2.4567  2.1935 -2.1434
 2153TIP3   OH227873   3.291   5.350   2.254 -0.1043  0.3259  0.0022
 2153TIP3    H127874   3.282   5.406   2.177 -0.7374  1.2416  0.7217
 2153TIP3    H227875   3.269   5.262   2.223 -0.4133  0.6936 -0.8432
 2154TIP3   OH227876   1.711   3.674   2.764  0.2068 -0.3021  0.4732
 2154TIP3    H127877   1.746   3.645   2.680  0.8712  0.5191  0.4554
 2154TIP3    H227878   1.622   3.704   2.744  0.0043 -1.0221  0.2525
 2155TIP3   OH227879   6.751   5.798   1.375  0.1550  0.3089  0.6146
 2155TIP3    H127880   6.714   5.769   1.292 -1.0781 -0.6130  1.4432
 2155TIP3    H227881   6.838   5.758   1.379  0.6571  1.1981 -0.6549
 2156TIP3   OH227882   2.484   6.144   5.264 -0.0805  0.5439  0.1103
 2156TIP3    H127883   2.403   6.126   5.216  0.3076  0.0299 -0.3717
 2156TIP3    H227884   2.465   6.223   5.314 -1.0019  0.2317  0.2917
 2157TIP3   OH227885   0.889   0.064  15.518  0.1839  0.4953  0.3125
 2157TIP3    H127886   0.877   0.081  15.612  1.4465  0.3679  0.5032
 2157TIP3    H227887   0.851   0.141  15.475  0.3128  0.9291  0.9554
 2158TIP3   OH227888   1.625   1.665   5.796 -0.3831  0.3368  0.1679
 2158TIP3    H127889   1.652   1.574   5.781  1.7988  0.6971  1.4757
 2158TIP3    H227890   1.554   1.679   5.733 -1.0302 -2.3548  0.1498
 2159TIP3   OH227891   4.599   1.376  12.741  0.3090  0.6112  0.1265
 2159TIP3    H127892   4.510   1.354  12.768  0.1816 -0.5420 -1.1074
 2159TIP3    H227893   4.595   1.381  12.645  1.6224  0.2643  0.0233
 2160TIP3   OH227894   6.074   5.033   5.317 -0.1061  0.7864 -0.6204
 2160TIP3    H127895   6.127   5.100   5.272 -0.0859  0.2295 -1.4469
 2160TIP3    H227896   6.080   4.957   5.260 -0.3982  0.1788  0.1552
 2161TIP3   OH227897   6.488   1.552  15.539 -0.3355  0.2179  0.4576
 2161TIP3    H127898   6.561   1.605  15.572 -1.5364  1.6374  0.8884
 2161TIP3    H227899   6.512   1.462  15.563  0.8050  0.7672  1.4706
 2162TIP3   OH227900   4.623   6.318   6.051 -0.3865 -0.1142  0.3326
 2162TIP3    H127901   4.699   6.283   6.004  1.8292  2.3762  1.8026
 2162TIP3    H227902   4.578   6.240   6.085  1.9592 -1.6844  0.1025
 2163TIP3   OH227903   1.930   6.033  16.200  0.2485 -1.1862  0.2426
 2163TIP3    H127904   1.950   5.962  16.261  1.1257 -0.1786  1.1782
 2163TIP3    H227905   1.835   6.042  16.203 -0.0702 -3.3701 -1.1517
 2164TIP3   OH227906   2.113   2.643  15.204 -0.3475 -0.0802  0.0816
 2164TIP3    H127907   2.033   2.626  15.154 -0.9189  0.5737  0.7437
 2164TIP3    H227908   2.132   2.735  15.188  0.4300 -0.2967 -0.2750
 2165TIP3   OH227909   4.015   1.736   1.384  0.0842  0.0169  0.3965
 2165TIP3    H127910   3.948   1.761   1.321  1.0536  0.3831 -0.5110
 2165TIP3    H227911   4.032   1.644   1.366 -0.5834 -0.2331  1.0187
 2166TIP3   OH227912   0.232   1.611   1.443  0.3107 -0.4680  0.5813
 2166TIP3    H127913   0.245   1.683   1.505 -0.4773  1.0891 -0.9543
 2166TIP3    H227914   0.168   1.554   1.484  0.5264  0.0116  1.5953
 2167TIP3   OH227915   4.683   4.924   5.325 -0.2959 -0.7052 -0.3116
 2167TIP3    H127916   4.684   5.014   5.357  1.2966 -1.1527  1.0746
 2167TIP3    H227917   4.598   4.890   5.350  0.4055 -0.6449  2.4991
 2168TIP3   OH227918   5.135   5.929  15.133 -0.8668  0.1680  0.0465
 2168TIP3    H127919   5.164   5.840  15.154  0.1027  0.3362 -0.4964
 2168TIP3    H227920   5.045   5.933  15.165 -0.7017 -0.7897  0.6789
 2169TIP3   OH227921   6.451   1.692   4.773 -0.3126  0.0041 -0.0788
 2169TIP3    H127922   6.466   1.741   4.692  0.2560  0.5820  0.3684
 2169TIP3    H227923   6.387   1.745   4.822  0.0810  0.1541  0.2772
 2170TIP3   OH227924   4.815   2.174  14.071  0.4777  0.1789 -0.4091
 2170TIP3    H127925   4.731   2.215  14.094 -1.7382 -2.6018 -2.8258
 2170TIP3    H227926   4.850   2.230  14.002  0.0029  0.6996 -0.2375
 2171TIP3   OH227927   0.998   2.809   2.997  0.6280  0.5453  0.5840
 2171TIP3    H127928   1.008   2.844   2.908  0.6461 -1.8841 -0.4341
 2171TIP3    H227929   0.904   2.811   3.013  0.5461  0.2011  0.1623
 2172TIP3   OH227930   1.224   4.929  11.894  0.4693 -0.2786  0.5775
 2172TIP3    H127931   1.281   4.913  11.818 -1.0770  1.8615 -1.1736
 2172TIP3    H227932   1.253   5.012  11.929  0.3234 -0.6271  1.5428
 2173TIP3   OH227933   3.048   2.093   4.054 -0.1662  0.5992 -0.0495
 2173TIP3    H127934   3.038   2.036   3.978  2.8078  0.8432 -0.7510
 2173TIP3    H227935   3.096   2.040   4.117 -1.7464  0.7356  1.3567
 2174TIP3   OH227936   1.077   4.558  13.789  0.4875 -0.0255 -0.1813
 2174TIP3    H127937   1.028   4.484  13.825 -0.8757  1.3620  0.9386
 2174TIP3    H227938   1.023   4.589  13.716  0.3325  0.7415  0.2557
 2175TIP3   OH227939   3.494   6.404  16.453 -0.1470 -0.0184  0.0621
 2175TIP3    H127940   3.529   6.371  16.536 -3.2227  0.8783  1.9006
 2175TIP3    H227941   3.418   6.349  16.437 -0.7383  1.0996 -1.0958
 2176TIP3   OH227942   4.372   3.730  10.600  0.0691  0.8504  0.5813
 2176TIP3    H127943   4.430   3.764  10.668 -0.9619  1.3569  1.2437
 2176TIP3    H227944   4.377   3.635  10.608 -2.4644  0.7978  3.6276
 2177TIP3   OH227945   1.622   5.929   5.057 -0.1388 -0.5738  0.3691
 2177TIP3    H127946   1.573   5.930   5.139  1.1262  2.0540  1.2176
 2177TIP3    H227947   1.705   5.886   5.080 -0.9043 -2.5434 -0.3641
 2178TIP3   OH227948   4.767   1.649   1.297 -0.2571 -0.6076 -0.2109
 2178TIP3    H127949   4.757   1.596   1.376  0.9942  1.6171  1.5721
 2178TIP3    H227950   4.858   1.635   1.270  0.2702  0.9167  0.6127
 2179TIP3   OH227951   1.730   1.546  13.047 -0.2521 -0.3691  0.1726
 2179TIP3    H127952   1.734   1.633  13.088 -0.6747 -0.2031 -0.1344
 2179TIP3    H227953   1.770   1.559  12.960 -3.1579  0.2893 -1.1800
 2180TIP3   OH227954   4.739   6.179  13.366  0.6742  0.5945 -0.3500
 2180TIP3    H127955   4.818   6.217  13.327 -0.5331  3.4223 -0.2948
 2180TIP3    H227956   4.739   6.212  13.456 -0.3405  0.3110 -0.2342
 2181TIP3   OH227957   2.354   4.110  12.757 -0.5027  0.3384  0.4244
 2181TIP3    H127958   2.337   4.146  12.670 -0.3643  0.1174  0.3054
 2181TIP3    H227959   2.319   4.175  12.818  0.7519  1.2112  0.2490
 2182TIP3   OH227960   2.468   4.728  11.714  0.6519 -0.6240 -0.7015
 2182TIP3    H127961   2.515   4.752  11.634 -1.0302  0.6683 -1.3493
 2182TIP3    H227962   2.376   4.743  11.694 -0.0460 -2.5373  0.7267
 2183TIP3   OH227963   0.717   3.693  15.296  0.6181 -1.1660 -0.9742
 2183TIP3    H127964   0.626   3.666  15.302  0.6278 -1.6280 -2.5399
 2183TIP3    H227965   0.735   3.735  15.380 -1.5224  0.4808 -1.2519
 2184TIP3   OH227966   4.305   4.780   0.228  0.3441 -0.2265 -0.6901
 2184TIP3    H127967   4.320   4.844   0.298  0.0316 -0.9531  0.0560
 2184TIP3    H227968   4.214   4.794   0.203  0.6844  0.5866 -1.5388
 2185TIP3   OH227969   0.513   0.760   4.326 -0.0322 -0.1175 -0.8507
 2185TIP3    H127970   0.470   0.751   4.241 -1.3711 -0.7036 -0.1583
 2185TIP3    H227971   0.445   0.735   4.389  1.0918 -0.2188  0.3606
 2186TIP3   OH227972   6.108   3.255  11.531  0.1225 -0.9013 -0.0694
 2186TIP3    H127973   6.147   3.213  11.608 -1.2246  0.9689  1.7708
 2186TIP3    H227974   6.024   3.211  11.520  0.0793 -0.8023 -0.1331
 2187TIP3   OH227975   4.426   0.915  12.870 -0.2106 -0.2340  0.5744
 2187TIP3    H127976   4.518   0.895  12.888  0.3113  1.1492 -0.3339
 2187TIP3    H227977   4.408   0.994  12.921 -0.6420 -0.0442  0.1399
 2188TIP3   OH227978   4.484   6.441   0.260  0.2531 -0.1069  0.4764
 2188TIP3    H127979   4.577   6.465   0.254  0.6005 -1.5636 -0.4854
 2188TIP3    H227980   4.441   6.496   0.194  0.0513  2.0332  2.2683
 2189TIP3   OH227981   6.475   5.926  13.773 -0.4781  0.5185 -0.9161
 2189TIP3    H127982   6.411   5.885  13.716 -1.0775 -1.8432  1.2679
 2189TIP3    H227983   6.552   5.869  13.769  1.0222  2.4855 -2.3183
 2190TIP3   OH227984   2.831   0.135  11.839  0.7680  0.0941  0.8246
 2190TIP3    H127985   2.809   0.048  11.805  0.5129  0.4179  0.1253
 2190TIP3    H227986   2.752   0.186  11.824  0.4090  0.0910  2.5565
 2191TIP3   OH227987   5.354   6.632   5.785  0.3449 -0.2174 -0.0422
 2191TIP3    H127988   5.358   6.536   5.785 -2.0397 -0.3819  0.2368
 2191TIP3    H227989   5.362   6.656   5.878 -1.9832 -0.3925  0.2486
 2192TIP3   OH227990   5.958   4.466  11.578 -0.4410 -0.0029 -0.2522
 2192TIP3    H127991   5.995   4.485  11.664  1.2324 -0.8817 -0.7374
 2192TIP3    H227992   5.972   4.547  11.528  0.4548 -0.1930 -0.3088
 2193TIP3   OH227993   3.994   3.863  15.265  0.4716  0.0643 -0.1472
 2193TIP3    H127994   3.912   3.890  15.307 -0.3583  1.6013 -2.5890
 2193TIP3    H227995   3.967   3.803  15.196  1.4958  0.0332 -0.5352
 2194TIP3   OH227996   5.771   3.229  16.715 -0.0352  0.1229  0.0515
 2194TIP3    H127997   5.756   3.239  16.809 -1.1935 -0.7053 -0.0330
 2194TIP3    H227998   5.778   3.319  16.683  1.0283  0.4105  1.0118
 2195TIP3   OH227999   4.983   4.001   2.630  0.1137  0.4195  0.7440
 2195TIP3    H128000   5.070   4.039   2.642  0.0207  0.7885  0.2787
 2195TIP3    H228001   4.994   3.936   2.560  0.6212 -1.6064  2.6207
 2196TIP3   OH228002   0.829   2.790   4.658  0.1816  0.1949 -0.1547
 2196TIP3    H128003   0.799   2.877   4.685 -2.4742 -0.9234  0.7938
 2196TIP3    H228004   0.879   2.758   4.733  1.9100  1.1791 -0.8396
 2197TIP3   OH228005   1.607   0.853  16.985  0.2878  0.0693  0.3914
 2197TIP3    H128006   1.617   0.779  17.045 -0.2489  0.4320  0.9472
 2197TIP3    H228007   1.696   0.886  16.973  0.7770 -1.6813 -1.2163
 2198TIP3   OH228008   2.069   2.079   6.564 -0.7189 -0.0418 -0.3547
 2198TIP3    H128009   2.029   2.115   6.485 -0.4143  0.6158 -0.2212
 2198TIP3    H228010   2.135   2.145   6.589  1.5927 -1.7758 -1.4780
 2199TIP3   OH228011   2.804   5.547   2.631  0.2371  0.0752  0.3788
 2199TIP3    H128012   2.824   5.640   2.642  1.4173 -0.1655  0.4034
 2199TIP3    H228013   2.867   5.517   2.565 -1.1148 -0.3856 -0.7716
 2200TIP3   OH228014   2.630   1.031   3.395  0.2348 -0.0371 -0.1461
 2200TIP3    H128015   2.543   1.043   3.434 -0.0900 -0.7871 -0.6262
 2200TIP3    H228016   2.624   0.949   3.347  0.4398  1.1411 -2.2810
 2201TIP3   OH228017   4.390   2.312  13.505  0.3060  0.5366  0.0835
 2201TIP3    H128018   4.325   2.293  13.438 -0.5598  1.7008  0.5560
 2201TIP3    H228019   4.463   2.253  13.486 -1.2818 -1.5406  0.1496
 2202TIP3   OH228020   0.882   2.465   2.411 -0.3957  0.1870  1.2234
 2202TIP3    H128021   0.939   2.541   2.400  0.5389 -0.6524 -0.0490
 2202TIP3    H228022   0.821   2.490   2.480  0.2259  1.8821  1.1966
 2203TIP3   OH228023   5.980   2.516  16.913  0.5672  0.2044 -0.2638
 2203TIP3    H128024   5.955   2.541  16.824  0.7008  0.7629 -0.1449
 2203TIP3    H228025   6.035   2.438  16.901  1.1853  0.7007 -0.7223
 2204TIP3   OH228026   1.426   6.649   3.937  0.5633  0.3843 -0.0995
 2204TIP3    H128027   1.421   6.728   3.991  0.7102  0.3567 -0.0443
 2204TIP3    H228028   1.516   6.650   3.902  0.4069  0.5057 -0.5005
 2205TIP3   OH228029   4.957   6.024  13.691  0.2437 -0.1396  0.3353
 2205TIP3    H128030   4.925   6.114  13.684  0.3230  0.0800  2.3773
 2205TIP3    H228031   4.878   5.973  13.709  0.0796 -0.6460 -1.5497
 2206TIP3   OH228032   1.966   6.353  13.716  0.1549  0.2806  0.5053
 2206TIP3    H128033   1.984   6.277  13.771  0.5465  0.1812  0.2402
 2206TIP3    H228034   1.885   6.330  13.670  1.2916 -0.8245 -1.0572
 2207TIP3   OH228035   5.401   5.366  16.241 -0.2041  0.0074  0.3941
 2207TIP3    H128036   5.309   5.374  16.216 -0.5651 -1.8873  0.9736
 2207TIP3    H228037   5.398   5.333  16.331  1.0599  0.4105  0.5992
 2208TIP3   OH228038   2.451   3.279  15.034 -0.2500 -0.8782 -0.4705
 2208TIP3    H128039   2.454   3.375  15.026 -0.6036 -0.9222 -1.2853
 2208TIP3    H228040   2.505   3.248  14.962 -2.4590 -1.3190 -2.0477
 2209TIP3   OH228041   5.103   6.574  10.985 -0.1763  0.9077  0.0215
 2209TIP3    H128042   5.063   6.611  10.906 -2.6186 -1.3945  0.0233
 2209TIP3    H228043   5.131   6.487  10.959  0.3536  0.6653  1.3268
 2210TIP3   OH228044   2.116   1.343   5.754 -0.1633  0.3290 -0.2132
 2210TIP3    H128045   2.210   1.326   5.758  0.0929  1.6072  3.5170
 2210TIP3    H228046   2.106   1.411   5.688  1.4405 -0.1587 -0.9941
 2211TIP3   OH228047   5.499   1.221  17.091 -0.4020  0.1203  0.1327
 2211TIP3    H128048   5.505   1.126  17.087 -0.2261  0.0229  1.9398
 2211TIP3    H228049   5.411   1.239  17.122 -0.4049  0.5469 -0.1135
 2212TIP3   OH228050   5.952   0.272  17.065  0.0799  0.3453 -0.0573
 2212TIP3    H128051   5.928   0.206  17.000  1.3174  0.6480 -0.8552
 2212TIP3    H228052   5.868   0.303  17.099 -0.5488 -2.8241  1.6257
 2213TIP3   OH228053   1.238   1.803   5.254 -0.2900 -0.7502  0.1570
 2213TIP3    H128054   1.227   1.761   5.339 -2.6827 -0.2827  0.1535
 2213TIP3    H228055   1.179   1.755   5.196  2.3155 -1.9633 -1.6610
 2214TIP3   OH228056   1.653   0.207  12.713 -0.1616 -0.4659 -0.3481
 2214TIP3    H128057   1.694   0.271  12.654 -0.2286  0.2995  0.4127
 2214TIP3    H228058   1.645   0.127  12.660  0.3783  0.0035 -1.1632
 2215TIP3   OH228059   1.728   1.144  14.507 -0.0535 -0.2036  0.2821
 2215TIP3    H128060   1.712   1.050  14.511  0.9538 -0.4514 -0.7821
 2215TIP3    H228061   1.814   1.152  14.466  0.5954  1.1559  1.8023
 2216TIP3   OH228062   3.078   2.369  13.706  0.3668 -0.1420 -0.3551
 2216TIP3    H128063   3.168   2.401  13.698  0.5574 -0.7166 -0.4892
 2216TIP3    H228064   3.076   2.288  13.657 -0.6269  0.6289 -1.6535
 2217TIP3   OH228065   0.423   1.323   1.224  0.1120 -0.2518  0.6664
 2217TIP3    H128066   0.492   1.261   1.200  1.5181  1.3504  0.3669
 2217TIP3    H228067   0.409   1.308   1.318  2.5899  0.9053  1.3098
 2218TIP3   OH228068   3.583   3.327  11.942 -0.2962 -0.2975 -0.2381
 2218TIP3    H128069   3.527   3.306  12.017 -0.0540  3.9332  1.3878
 2218TIP3    H228070   3.665   3.358  11.981  0.4791  0.4884 -2.3367
 2219TIP3   OH228071   4.351   1.219   1.869  0.0200  0.4262  0.1884
 2219TIP3    H128072   4.299   1.142   1.849  0.0232  0.2893  0.6887
 2219TIP3    H228073   4.356   1.221   1.965  0.8622  0.4803  0.1532
 2220TIP3   OH228074   2.398   2.858   3.187  0.4300 -0.3586  0.1748
 2220TIP3    H128075   2.395   2.824   3.276  0.4061  1.8928  1.0929
 2220TIP3    H228076   2.476   2.913   3.185 -1.7174  2.9392  0.1602
 2221TIP3   OH228077   6.193   0.291  15.327  0.1976  0.2882 -0.2853
 2221TIP3    H128078   6.146   0.360  15.376 -2.0042 -1.5857  0.4467
 2221TIP3    H228079   6.237   0.240  15.394  0.8968  0.3170 -0.7169
 2222TIP3   OH228080   1.626   2.718   0.106  0.5977  0.2639  0.0325
 2222TIP3    H128081   1.560   2.654   0.133  1.5799 -1.9325 -2.3474
 2222TIP3    H228082   1.645   2.695   0.015  3.3140  1.9794  0.0620
 2223TIP3   OH228083   0.055   0.127  11.378  0.1109 -0.1732 -0.0564
 2223TIP3    H128084   0.081   0.075  11.455  0.2931 -0.8353 -0.5496
 2223TIP3    H228085  -0.040   0.126  11.379  0.1078 -0.7886 -0.2234
 2224TIP3   OH228086   0.683   4.178   4.909  0.1739 -0.0864  0.0183
 2224TIP3    H128087   0.690   4.256   4.854  0.3159 -1.8646 -2.6471
 2224TIP3    H228088   0.768   4.135   4.900 -0.7172 -1.7874 -0.5776
 2225TIP3   OH228089   5.385   6.499  13.525  0.1386 -0.2171 -0.1205
 2225TIP3    H128090   5.390   6.418  13.575  3.4240 -0.3550 -0.4610
 2225TIP3    H228091   5.436   6.483  13.446  0.5467  2.0354 -0.3925
 2226TIP3   OH228092   3.528   0.835  11.470 -0.1439 -0.0792 -0.5586
 2226TIP3    H128093   3.549   0.889  11.394 -0.9379 -0.5012 -1.0927
 2226TIP3    H228094   3.502   0.897  11.537  0.2235  0.2804 -0.7453
 2227TIP3   OH228095   6.603   2.233  16.062  0.7467 -0.2503  0.2685
 2227TIP3    H128096   6.681   2.289  16.068  0.3442  0.7373 -2.2765
 2227TIP3    H228097   6.535   2.282  16.108  0.8140  0.5961 -0.5036
 2228TIP3   OH228098   0.135   0.663  13.287  0.5162 -0.5507  0.1143
 2228TIP3    H128099   0.110   0.605  13.359  0.1664  1.3977  1.6646
 2228TIP3    H228100   0.070   0.734  13.290  2.9079  1.7873  0.6948
 2229TIP3   OH228101   1.923   4.202   2.278  0.4983  0.3905 -0.2966
 2229TIP3    H128102   1.838   4.199   2.233  0.0453  0.3288  0.5416
 2229TIP3    H228103   1.944   4.295   2.285  1.0509  0.3833 -1.4793
 2230TIP3   OH228104   6.448   4.749  11.300 -0.0233 -0.0574  0.2432
 2230TIP3    H128105   6.385   4.705  11.243  0.0012  0.0061  0.1669
 2230TIP3    H228106   6.515   4.782  11.240 -0.6181  1.0687  0.1711
 2231TIP3   OH228107   5.483   3.238   0.961  0.4845 -0.0137  0.0974
 2231TIP3    H128108   5.412   3.295   0.990 -0.7272 -0.9371 -0.9697
 2231TIP3    H228109   5.544   3.297   0.915 -1.0296  0.4039 -1.4862
 2232TIP3   OH228110   6.176   1.819  12.075 -0.3866  0.3805 -0.4827
 2232TIP3    H128111   6.177   1.860  11.988  0.9520  2.1802  0.2972
 2232TIP3    H228112   6.085   1.793  12.089 -0.8318  1.0177 -1.9930
 2233TIP3   OH228113   4.836   1.867  12.298 -0.3875  0.3368 -0.0298
 2233TIP3    H128114   4.927   1.878  12.328  0.1155 -0.0505 -1.3660
 2233TIP3    H228115   4.799   1.955  12.302  0.2760  0.6294 -0.1640
 2234TIP3   OH228116   1.219   4.757  12.334  0.1689  0.2230 -0.3058
 2234TIP3    H128117   1.194   4.823  12.270  0.0510  2.0083  1.4907
 2234TIP3    H228118   1.138   4.738  12.382  0.5389 -0.0332  0.2278
 2235TIP3   OH228119   4.245   5.283   2.684 -0.0623 -0.1432  0.1829
 2235TIP3    H128120   4.337   5.273   2.712 -0.3250  0.1777  1.2262
 2235TIP3    H228121   4.206   5.197   2.701  0.2499 -0.5564 -1.1207
 2236TIP3   OH228122   0.482   4.216  12.458 -0.1709  0.4290 -0.8609
 2236TIP3    H128123   0.429   4.207  12.379  0.0359 -0.6932 -0.8879
 2236TIP3    H228124   0.537   4.138  12.459 -0.7419  0.0106  0.8193
 2237TIP3   OH228125   5.805   6.244   1.346  0.2978  0.0769 -0.2135
 2237TIP3    H128126   5.873   6.262   1.410  1.3933 -0.5875 -1.1390
 2237TIP3    H228127   5.825   6.157   1.313 -0.9566 -0.0988 -0.5796
 2238TIP3   OH228128   0.873   1.169   2.298  0.2989  0.2641  0.5080
 2238TIP3    H128129   0.887   1.215   2.381 -0.3178 -1.0865  1.3910
 2238TIP3    H228130   0.782   1.187   2.275  0.1200 -0.3103  0.7446
 2239TIP3   OH228131   0.562   3.780  11.340  0.5302 -0.2124  0.1451
 2239TIP3    H128132   0.558   3.859  11.286  3.0993 -0.5808 -0.7288
 2239TIP3    H228133   0.601   3.714  11.282 -1.0187 -1.9985  1.0333
 2240TIP3   OH228134   6.289   1.792   2.015 -0.8203  0.3964 -0.0757
 2240TIP3    H128135   6.257   1.776   1.926  0.7159  1.6096 -0.9142
 2240TIP3    H228136   6.238   1.734   2.070 -0.4541 -1.9195 -1.9918
 2241TIP3   OH228137   4.580   6.759   0.439 -0.2669 -0.4905 -0.1832
 2241TIP3    H128138   4.534   6.751   0.355  0.0611 -0.3514 -0.3790
 2241TIP3    H228139   4.661   6.709   0.426  0.2918  0.4353 -0.3157
 2242TIP3   OH228140   2.524   3.923   4.949 -0.0284 -0.2542  0.2717
 2242TIP3    H128141   2.503   3.832   4.929  1.3888 -0.5864  0.2112
 2242TIP3    H228142   2.594   3.946   4.888  0.6050  0.4306  1.2238
 2243TIP3   OH228143   1.059   0.538   1.738  0.9306  0.6217  0.6724
 2243TIP3    H128144   1.011   0.457   1.724  1.2050  0.1392  2.3524
 2243TIP3    H228145   1.029   0.570   1.823  0.4210  2.5890 -0.1828
 2244TIP3   OH228146   5.728   1.757   3.379  0.3042 -0.1076 -0.2510
 2244TIP3    H128147   5.788   1.684   3.365 -0.4212 -0.3704 -2.3328
 2244TIP3    H228148   5.649   1.733   3.330 -0.8136  1.0482  0.9147
 2245TIP3   OH228149   5.052   1.793  11.603  0.0227 -0.0958 -0.4538
 2245TIP3    H128150   5.098   1.808  11.521  0.4902 -0.7045 -0.3072
 2245TIP3    H228151   4.977   1.739  11.579 -0.6440  0.9022 -0.6940
 2246TIP3   OH228152   1.221   1.373  16.791  0.0587 -0.4696 -0.1259
 2246TIP3    H128153   1.245   1.294  16.743 -0.3670 -1.2334  0.8779
 2246TIP3    H228154   1.157   1.343  16.856  1.5408  0.2619  1.7877
 2247TIP3   OH228155   5.684   5.199   4.855  0.0655 -0.1248 -0.0243
 2247TIP3    H128156   5.739   5.186   4.931  0.8954 -0.5476 -0.6886
 2247TIP3    H228157   5.711   5.284   4.820  0.5000 -0.4509 -0.5018
 2248TIP3   OH228158   5.913   1.768  12.158 -0.2904 -0.2817  0.1481
 2248TIP3    H128159   5.952   1.714  12.227  1.4917 -1.1120 -1.4272
 2248TIP3    H228160   5.902   1.854  12.199  1.7499 -0.4503  1.2038
 2249TIP3   OH228161   6.784   1.117   0.307  0.7564  0.2723  0.3352
 2249TIP3    H128162   6.692   1.112   0.281  0.6300  2.1794  0.3102
 2249TIP3    H228163   6.791   1.055   0.380 -0.4086 -0.2984 -0.0032
 2250TIP3   OH228164   5.105   1.079   2.154  0.4354  0.1572  0.0129
 2250TIP3    H128165   5.155   1.100   2.075  2.0201 -0.6908  0.7442
 2250TIP3    H228166   5.163   1.105   2.226 -0.9616  0.8761  0.9123
 2251TIP3   OH228167   5.805   4.955  15.784  0.4035  0.3433  0.4019
 2251TIP3    H128168   5.878   4.938  15.725 -0.0505 -1.7043  0.3479
 2251TIP3    H228169   5.804   5.050  15.795  0.6314  0.8126 -2.7393
 2252TIP3   OH228170   2.198   4.801   5.354 -0.0071  0.3920 -0.0147
 2252TIP3    H128171   2.273   4.833   5.406  0.7946  0.5362 -1.2233
 2252TIP3    H228172   2.149   4.880   5.334  0.5598  0.5538 -0.8100
 2253TIP3   OH228173   1.676   1.791  15.818  0.6812 -0.1792 -0.2820
 2253TIP3    H128174   1.623   1.813  15.741 -0.9553  0.9792  1.0923
 2253TIP3    H228175   1.631   1.716  15.857  0.2653  0.5569  0.6776
 2254TIP3   OH228176   2.696   6.144  16.585 -0.4137 -0.2376 -0.2255
 2254TIP3    H128177   2.648   6.169  16.664 -0.2603 -1.3384  0.2203
 2254TIP3    H228178   2.631   6.153  16.515 -0.4577  1.0638 -0.0481
 2255TIP3   OH228179   2.053   0.401  16.686 -0.0246 -0.1607  0.1623
 2255TIP3    H128180   2.061   0.326  16.627  0.8480  0.6026 -0.7234
 2255TIP3    H228181   1.977   0.380  16.741 -1.3083 -0.5807 -1.6842
 2256TIP3   OH228182   0.529   6.371  16.887  0.0229 -0.0961  0.2463
 2256TIP3    H128183   0.534   6.465  16.871 -0.5344  0.0869  1.1055
 2256TIP3    H228184   0.456   6.341  16.834  0.4423 -0.1211 -0.3282
 2257TIP3   OH228185   0.464   4.225  11.022 -0.1071  0.9261 -0.0450
 2257TIP3    H128186   0.381   4.249  11.063 -0.4767  0.1512 -0.3166
 2257TIP3    H228187   0.492   4.304  10.976 -0.2518  1.4598  0.7560
 2258TIP3   OH228188   4.912   5.712  12.642  0.6802 -0.1077 -0.2379
 2258TIP3    H128189   4.884   5.684  12.729 -2.1053  0.9122 -0.7146
 2258TIP3    H228190   4.995   5.665  12.628  0.4081 -1.5548  2.2671
 2259TIP3   OH228191   2.761   2.304   5.296  0.1709 -0.2673  0.4402
 2259TIP3    H128192   2.732   2.372   5.235  1.4110  1.0717  1.2933
 2259TIP3    H228193   2.853   2.324   5.314 -0.0713 -0.7819  2.5415
 2260TIP3   OH228194   1.435   1.380  15.288  0.2648 -0.5301 -0.1211
 2260TIP3    H128195   1.396   1.295  15.268 -1.0735  0.3944 -1.6935
 2260TIP3    H228196   1.368   1.427  15.338 -0.3659  0.7268 -2.0214
 2261TIP3   OH228197   1.698   2.338  14.354  0.5032 -0.3586 -0.0203
 2261TIP3    H128198   1.670   2.270  14.293  0.2621 -0.0427 -0.2643
 2261TIP3    H228199   1.746   2.400  14.300 -0.6170  0.4685 -0.1034
 2262TIP3   OH228200   3.900   4.680  15.478 -0.1179  0.2103 -0.3557
 2262TIP3    H128201   3.951   4.758  15.501  0.4063 -0.4721  0.8762
 2262TIP3    H228202   3.943   4.608  15.523  0.0435 -1.0105 -2.3223
 2263TIP3   OH228203   4.253   2.840   4.552  0.0827  0.7806  0.2125
 2263TIP3    H128204   4.347   2.847   4.541 -0.1948  2.9738 -1.3588
 2263TIP3    H228205   4.240   2.837   4.647  1.6632  3.2860  0.5994
 2264TIP3   OH228206   3.719   5.961  14.700  0.3075  0.1422 -0.4113
 2264TIP3    H128207   3.725   5.919  14.614  1.8097  0.2496 -0.3935
 2264TIP3    H228208   3.782   6.034  14.695  0.4650  0.1059  0.7952
 2265TIP3   OH228209   3.914   6.603  15.832  0.3070  0.2737 -0.0611
 2265TIP3    H128210   3.873   6.612  15.746  2.8028  0.0002 -1.3508
 2265TIP3    H228211   3.988   6.663  15.831  1.7234 -1.3483  1.0218
 2266TIP3   OH228212   1.603   1.521   2.317 -0.4395  0.3952  0.3533
 2266TIP3    H128213   1.597   1.440   2.268 -0.7296  1.0023 -0.6341
 2266TIP3    H228214   1.540   1.510   2.389 -0.7608 -0.0886 -0.0012
 2267TIP3   OH228215   1.149   2.231   1.008 -0.6511 -0.6553 -0.2814
 2267TIP3    H128216   1.223   2.218   1.068 -0.9975  1.0248  0.5656
 2267TIP3    H228217   1.094   2.154   1.022 -0.8861 -0.1646  1.8391
 2268TIP3   OH228218   0.442   3.484  15.016  0.0539 -0.3605 -0.2398
 2268TIP3    H128219   0.486   3.408  15.053 -0.7542 -0.2459  1.0331
 2268TIP3    H228220   0.362   3.448  14.976 -0.0443 -0.2528 -0.1415
 2269TIP3   OH228221   1.936   5.892  14.991 -0.3903  0.1396 -0.1310
 2269TIP3    H128222   2.010   5.920  15.045  0.2050 -0.4724 -0.6311
 2269TIP3    H228223   1.866   5.955  15.014  0.0903  0.3760  0.7575
 2270TIP3   OH228224   3.935   5.550   3.491  0.2883 -0.0114 -0.1359
 2270TIP3    H128225   4.020   5.539   3.534  0.7812  1.0198 -0.7948
 2270TIP3    H228226   3.872   5.552   3.563  0.7093 -1.5927  0.3134
 2271TIP3   OH228227   2.506   4.010  16.264  0.4197 -0.2324 -0.6963
 2271TIP3    H128228   2.540   3.971  16.184  2.8710  0.1623  0.0794
 2271TIP3    H228229   2.571   3.988  16.331  0.4602  2.7645  0.3693
 2272TIP3   OH228230   2.152   4.639  15.152  0.0988 -0.7789 -0.4653
 2272TIP3    H128231   2.239   4.636  15.192 -0.5919 -1.0233  1.0923
 2272TIP3    H228232   2.124   4.730  15.161 -0.6195 -1.1061  0.9414
 2273TIP3   OH228233   5.884   0.904   1.738 -0.3094 -0.2254 -0.3169
 2273TIP3    H128234   5.939   0.862   1.804 -0.1668 -0.1229 -0.3701
 2273TIP3    H228235   5.857   0.987   1.778 -1.8670 -1.0404  0.4123
 2274TIP3   OH228236   3.945   2.850   0.304 -0.3407  1.2481  0.3064
 2274TIP3    H128237   3.918   2.865   0.395  0.5362  1.2929  0.5692
 2274TIP3    H228238   4.016   2.914   0.290  1.1613 -0.3300  0.3610
 2275TIP3   OH228239   0.903   5.678  11.539 -0.2607  0.2070  0.1402
 2275TIP3    H128240   0.849   5.667  11.617 -0.5620 -0.7268 -0.1876
 2275TIP3    H228241   0.841   5.697  11.469 -0.1810 -0.8764 -0.2378
 2276TIP3   OH228242   0.900   1.819   3.552 -0.1917  0.3750  0.1404
 2276TIP3    H128243   0.872   1.746   3.497 -0.6543  0.0769  0.7419
 2276TIP3    H228244   0.965   1.781   3.611  0.6959  0.8167 -0.5446
 2277TIP3   OH228245   2.027   4.015   2.015  0.1400 -0.2313 -0.4561
 2277TIP3    H128246   1.991   3.958   2.082 -1.1872  0.0632 -0.8888
 2277TIP3    H228247   1.951   4.058   1.976  1.0923  1.7371 -0.2461
 2278TIP3   OH228248   4.981   3.975   0.393  0.4329  0.1562 -0.1234
 2278TIP3    H128249   4.913   3.949   0.455  1.6488 -0.4436  1.0085
 2278TIP3    H228250   5.023   4.050   0.434 -2.6015  3.8310 -3.0391
 2279TIP3   OH228251   3.447   4.730  15.049  0.0377 -0.2530 -0.1862
 2279TIP3    H128252   3.396   4.651  15.028 -0.8968  0.3538 -0.2696
 2279TIP3    H228253   3.500   4.746  14.971 -0.0429 -0.5844 -0.3117
 2280TIP3   OH228254   2.013   1.860  13.612  0.1179  0.0869 -0.7498
 2280TIP3    H128255   2.075   1.788  13.602  0.0259 -0.0761 -0.1803
 2280TIP3    H228256   2.013   1.904  13.526  0.5997 -0.2424 -0.9224
 2281TIP3   OH228257   0.120   1.128  14.642 -0.4273 -0.1970  0.4477
 2281TIP3    H128258   0.115   1.108  14.735 -1.2229  1.9266  0.9178
 2281TIP3    H228259   0.173   1.208  14.637 -0.8120  0.0072 -0.8690
 2282TIP3   OH228260   2.862   4.753  13.409 -0.1290  0.3341  0.1307
 2282TIP3    H128261   2.891   4.672  13.367  2.7094  0.8179  0.9101
 2282TIP3    H228262   2.875   4.820  13.343  1.7039  0.6926  0.7743
 2283TIP3   OH228263   4.532   1.947  12.456 -0.4895  0.4277  0.0669
 2283TIP3    H128264   4.495   2.003  12.524 -1.1514 -0.1695  0.2060
 2283TIP3    H228265   4.588   1.886  12.503 -0.0093  0.7658 -0.0547
 2284TIP3   OH228266   2.890   1.944  14.418 -0.1411 -0.2409  0.1174
 2284TIP3    H128267   2.870   1.854  14.444  1.0958 -0.8910 -1.0560
 2284TIP3    H228268   2.945   1.979  14.488  0.1326 -0.7151  0.1392
 2285TIP3   OH228269   5.271   5.923   2.823 -0.3910 -0.9596  0.3675
 2285TIP3    H128270   5.348   5.870   2.804 -0.5069 -1.2380  0.6655
 2285TIP3    H228271   5.227   5.935   2.739  0.0832 -0.6296  0.1624
 2286TIP3   OH228272   1.360   1.083   4.106  0.0276  0.1170 -0.3427
 2286TIP3    H128273   1.322   1.171   4.108 -0.6511 -0.1665  1.4756
 2286TIP3    H228274   1.289   1.027   4.074  0.6339  0.2792 -2.0335
 2287TIP3   OH228275   2.007   5.176  14.541 -0.1750 -0.1353  0.1788
 2287TIP3    H128276   1.953   5.198  14.618  0.4874 -0.8193  0.8534
 2287TIP3    H228277   2.095   5.206  14.564 -0.3613  1.6415 -1.2081
 2288TIP3   OH228278   4.865   0.759  14.631  0.7538  0.5155 -0.0123
 2288TIP3    H128279   4.782   0.711  14.629  0.8490  0.3142 -2.6852
 2288TIP3    H228280   4.842   0.844  14.667 -0.4633  0.1758  0.0756
 2289TIP3   OH228281   4.059   1.616  14.510 -0.1688 -0.7378 -0.7577
 2289TIP3    H128282   4.115   1.670  14.566 -1.2517  0.4567 -0.7696
 2289TIP3    H228283   4.120   1.569  14.453  0.8751 -0.8323  0.4142
 2290TIP3   OH228284   1.522   2.059  15.076 -0.6412 -0.3902  0.4757
 2290TIP3    H128285   1.529   1.964  15.081  1.2330 -0.2783  0.5561
 2290TIP3    H228286   1.515   2.079  14.983 -0.9041 -0.5931  0.4520
 2291TIP3   OH228287   3.357   0.463  13.898 -0.1882 -0.0323  0.2153
 2291TIP3    H128288   3.342   0.446  13.805  2.4206  0.8776 -0.4821
 2291TIP3    H228289   3.270   0.480  13.934 -1.1786  0.8003 -2.3169
 2292TIP3   OH228290   4.020   5.936   5.084  0.2631 -0.3038 -0.2262
 2292TIP3    H128291   4.055   5.900   5.166  0.3375 -0.4330 -0.3143
 2292TIP3    H228292   3.936   5.974   5.108 -0.0577 -1.0025 -0.2357
 2293TIP3   OH228293   0.880   3.852  15.512  0.6774 -0.2524 -0.1902
 2293TIP3    H128294   0.952   3.794  15.489 -0.2433 -1.6587  0.3465
 2293TIP3    H228295   0.855   3.825  15.601 -0.1342  0.5903 -0.1439
 2294TIP3   OH228296   0.408   0.358  11.821  0.0706 -0.2306 -0.1860
 2294TIP3    H128297   0.394   0.443  11.863  0.2967 -0.0460 -0.4804
 2294TIP3    H228298   0.492   0.328  11.856  0.3705  0.0290 -0.6765
 2295TIP3   OH228299   1.568   2.000   4.626  0.1155 -0.2536 -0.0337
 2295TIP3    H128300   1.600   2.069   4.568 -1.5168  0.3707 -0.2461
 2295TIP3    H228301   1.616   1.921   4.599  0.7229  0.4216 -0.9714
 2296TIP3   OH228302   5.758   2.808  11.862  0.2682 -0.0571 -0.0790
 2296TIP3    H128303   5.823   2.764  11.917 -1.4634 -0.3843  1.8061
 2296TIP3    H228304   5.687   2.830  11.922 -1.2857  0.4700 -2.0346
 2297TIP3   OH228305   5.328   2.869  15.482  0.1880  0.5909 -0.5961
 2297TIP3    H128306   5.350   2.960  15.501  0.3955  0.8688 -2.0886
 2297TIP3    H228307   5.317   2.865  15.387  1.9267 -1.3034 -0.7915
 2298TIP3   OH228308   3.853   2.579  12.715 -0.2205  0.0003 -0.1641
 2298TIP3    H128309   3.849   2.491  12.678 -0.3447 -1.3518  2.7362
 2298TIP3    H228310   3.773   2.587  12.766  1.0537  0.6100  1.8826
 2299TIP3   OH228311   4.196   0.344  11.268 -0.3581  0.0833  0.2473
 2299TIP3    H128312   4.138   0.270  11.250 -1.3309  0.8663  0.0093
 2299TIP3    H228313   4.279   0.305  11.293 -1.0770 -1.0972  0.8964
 2300TIP3   OH228314   2.445   4.575   3.466  0.4236  0.5128 -0.0858
 2300TIP3    H128315   2.474   4.531   3.545 -1.2052  0.2695  0.4206
 2300TIP3    H228316   2.436   4.505   3.401 -0.4134  0.3456  0.1934
 2301TIP3   OH228317   4.708   6.043  13.105 -0.1090 -0.4699  0.1411
 2301TIP3    H128318   4.798   6.053  13.074 -0.8929  0.7610 -1.9995
 2301TIP3    H228319   4.700   6.104  13.177  0.3141  0.7833 -0.8366
 2302TIP3   OH228320   5.533   1.842   4.293 -0.0096  0.5999  0.5032
 2302TIP3    H128321   5.586   1.887   4.359  1.6566  0.6046 -0.7587
 2302TIP3    H228322   5.540   1.749   4.317 -0.1249  0.6667  0.8064
 2303TIP3   OH228323   4.771   5.525  15.921  0.6156 -0.0696  0.1977
 2303TIP3    H128324   4.788   5.435  15.892 -1.4430 -0.7657  0.9578
 2303TIP3    H228325   4.677   5.537  15.906  0.7425  1.7541  0.7057
 2304TIP3   OH228326   2.879   5.158   5.665  0.1915  0.3647  0.6114
 2304TIP3    H128327   2.857   5.248   5.690 -2.1251  0.2278 -0.6747
 2304TIP3    H228328   2.871   5.108   5.746  0.2199  1.1057  1.0809
 2305TIP3   OH228329   4.930   4.596   3.141  0.3160  0.3332 -0.1531
 2305TIP3    H128330   4.919   4.680   3.185 -1.8171 -0.5682  1.1373
 2305TIP3    H228331   4.905   4.613   3.050 -5.2893  0.1982  1.0124
 2306TIP3   OH228332   1.979   3.811  14.751  0.0040  0.1636 -0.8519
 2306TIP3    H128333   1.885   3.820  14.765 -0.2888 -0.4619 -2.2694
 2306TIP3    H228334   1.987   3.739  14.688  1.4932 -0.5121  0.0589
 2307TIP3   OH228335   4.211   2.688  12.078 -0.8015  0.5178  0.4067
 2307TIP3    H128336   4.163   2.624  12.026  2.0043 -0.4322 -1.2546
 2307TIP3    H228337   4.226   2.761  12.019 -1.7102  1.5982  1.4729
 2308TIP3   OH228338   0.502   6.413   1.425  0.0841  0.5796 -0.1072
 2308TIP3    H128339   0.454   6.330   1.430 -0.5927  1.0200  1.8619
 2308TIP3    H228340   0.449   6.473   1.478  0.7591  2.1793 -1.1982
 2309TIP3   OH228341   5.878   2.480   4.668 -0.6588 -0.1793  0.3444
 2309TIP3    H128342   5.818   2.405   4.670  0.3093 -0.9651  1.0580
 2309TIP3    H228343   5.965   2.441   4.662 -0.1903  0.9403 -0.6283
 2310TIP3   OH228344   4.206   3.882   4.343  0.0386  0.0738 -0.1283
 2310TIP3    H128345   4.138   3.930   4.297 -0.7679 -0.9779 -0.0604
 2310TIP3    H228346   4.264   3.849   4.274 -0.1698 -0.0027 -0.2662
 2311TIP3   OH228347   2.026   2.454   2.158  0.1438 -0.3076 -0.2693
 2311TIP3    H128348   2.022   2.400   2.079  0.0587  1.9871 -1.9289
 2311TIP3    H228349   2.044   2.542   2.126 -1.3471  0.9944  2.1853
 2312TIP3   OH228350   0.221   4.310  15.224 -0.2732  0.2924  0.0800
 2312TIP3    H128351   0.281   4.257  15.171 -1.4952 -0.7702 -0.3030
 2312TIP3    H228352   0.137   4.266  15.215 -1.0063  1.4479  1.0275
 2313TIP3   OH228353   1.265   1.865   3.708 -0.0733  0.1913  0.1604
 2313TIP3    H128354   1.259   1.828   3.797  0.3733  0.7383  0.4247
 2313TIP3    H228355   1.260   1.960   3.722 -1.6837  0.2481 -0.5427
 2314TIP3   OH228356   4.766   0.160  15.719 -0.3199  0.6313 -0.3876
 2314TIP3    H128357   4.847   0.171  15.668 -0.2791  1.3998 -0.1674
 2314TIP3    H228358   4.697   0.192  15.660 -0.9185 -2.8018 -1.8010
 2315TIP3   OH228359   0.597   0.933   2.998 -0.1438  0.0011 -0.0408
 2315TIP3    H128360   0.574   0.985   2.921 -1.3053 -1.2753 -0.6030
 2315TIP3    H228361   0.586   0.993   3.072 -0.2939  0.8786 -0.7551
 2316TIP3   OH228362   5.560   6.292  11.713  0.5289 -0.3921  0.6761
 2316TIP3    H128363   5.528   6.206  11.740  0.2912 -0.3732  0.4498
 2316TIP3    H228364   5.514   6.353  11.770  0.5589 -0.3996  0.7087
 2317TIP3   OH228365   4.530   3.868   4.919  0.5483  0.5679  0.3472
 2317TIP3    H128366   4.488   3.809   4.981 -1.1771  2.5887  1.2304
 2317TIP3    H228367   4.602   3.816   4.882 -0.4746 -1.8380  1.4791
 2318TIP3   OH228368   5.427   2.680   1.012 -0.3761 -0.0822 -0.3486
 2318TIP3    H128369   5.461   2.720   1.093  0.4858 -2.7380  0.7215
 2318TIP3    H228370   5.334   2.702   1.012  0.2851  3.3560 -0.8458
 2319TIP3   OH228371   5.758   4.299   4.290 -0.4623 -0.8247 -0.3080
 2319TIP3    H128372   5.688   4.281   4.353 -0.2012  0.7428  0.4727
 2319TIP3    H228373   5.721   4.272   4.206 -2.3322  0.5941 -0.0228
 2320TIP3   OH228374   5.415   4.719   2.005  0.3044 -0.5925 -0.1535
 2320TIP3    H128375   5.471   4.797   2.009  1.2493 -1.2507 -0.0858
 2320TIP3    H228376   5.473   4.647   2.032 -0.7639 -1.2102  0.5746
 2321TIP3   OH228377   4.058   3.013  13.133 -0.2452 -0.3595 -0.0142
 2321TIP3    H128378   3.981   3.014  13.077  0.2289  0.1752 -0.6805
 2321TIP3    H228379   4.085   2.922  13.135 -0.2499 -0.3791 -0.6903
 2322TIP3   OH228380   4.222   4.390   5.521 -0.4433 -0.1097 -0.1734
 2322TIP3    H128381   4.139   4.421   5.484 -1.0715 -1.0978  0.3782
 2322TIP3    H228382   4.236   4.305   5.479  0.0587 -0.1590  0.0892
 2323TIP3   OH228383   4.441   6.739   2.669  0.2894  0.2358 -0.2146
 2323TIP3    H128384   4.481   6.690   2.740 -0.3780 -2.0405 -1.3106
 2323TIP3    H228385   4.386   6.805   2.712 -2.3606 -2.8537  1.5447
 2324TIP3   OH228386   1.318   4.038  15.767 -0.1338 -0.1459 -0.3916
 2324TIP3    H128387   1.317   3.987  15.686 -3.7013  0.4280 -0.9007
 2324TIP3    H228388   1.316   4.129  15.737 -2.1373  0.0657  0.2209
 2325TIP3   OH228389   5.914   0.180   3.623 -0.3834  0.6073  0.2122
 2325TIP3    H128390   5.987   0.184   3.562  0.6792  2.7856  1.5202
 2325TIP3    H228391   5.954   0.166   3.709 -1.4664  1.7158  0.9440
 2326TIP3   OH228392   1.603   1.025   2.486 -0.1077 -0.1179  0.0993
 2326TIP3    H128393   1.646   1.049   2.568 -1.6398 -0.1833  0.9620
 2326TIP3    H228394   1.528   1.084   2.480 -0.8046 -1.0369 -0.5410
 2327TIP3   OH228395   2.457   0.370  14.816 -0.2712  0.0073  0.4494
 2327TIP3    H128396   2.387   0.420  14.773 -0.7383 -1.1895 -0.2463
 2327TIP3    H228397   2.478   0.301  14.753  2.3284  0.9668  0.1433
 2328TIP3   OH228398   6.751   1.601  15.418  0.4945 -0.9439  0.1974
 2328TIP3    H128399   6.732   1.680  15.468  0.6630 -1.4454  1.0813
 2328TIP3    H228400   6.668   1.578  15.375  0.2383 -0.7276  0.5760
 2329TIP3   OH228401   1.450   5.837   2.866  0.3585  0.2593 -0.3155
 2329TIP3    H128402   1.455   5.848   2.961  0.6322  0.7888 -0.3911
 2329TIP3    H228403   1.430   5.744   2.854  1.0751  0.0278  0.2351
 2330TIP3   OH228404   5.148   0.592  12.927  0.3741  0.2922 -0.2881
 2330TIP3    H128405   5.089   0.572  12.999 -0.7558 -0.1291 -1.2901
 2330TIP3    H228406   5.211   0.520  12.926  0.0631  0.0154 -0.0560
 2331TIP3   OH228407   4.101   4.228   1.961  0.4823  0.4390 -0.7945
 2331TIP3    H128408   4.088   4.321   1.979 -0.5268  0.4547 -1.5085
 2331TIP3    H228409   4.196   4.217   1.961  0.5956  1.1854  0.6300
 2332TIP3   OH228410   1.367   6.431   3.770  0.4953 -0.2749 -0.5535
 2332TIP3    H128411   1.382   6.499   3.836  0.6163 -0.7883 -0.0439
 2332TIP3    H228412   1.284   6.390   3.795  1.3305 -1.5554  0.2576
 2333TIP3   OH228413   2.193   3.254  14.898  0.2427  0.4179  0.4671
 2333TIP3    H128414   2.282   3.253  14.932 -0.3014  0.0776  1.9858
 2333TIP3    H228415   2.201   3.289  14.809  2.2283 -2.1052 -0.4930
 2334TIP3   OH228416   2.424   1.666  12.362  0.3102  0.8690 -0.2359
 2334TIP3    H128417   2.441   1.760  12.357  2.0660  0.5312 -1.2651
 2334TIP3    H228418   2.455   1.641  12.449 -0.8170  1.3191  0.3272
 2335TIP3   OH228419   1.636   4.948  12.644 -0.2254 -0.8659 -0.4313
 2335TIP3    H128420   1.558   4.908  12.683 -0.9567 -0.8364 -1.7976
 2335TIP3    H228421   1.626   4.933  12.550  0.5240  0.7053 -0.7913
 2336TIP3   OH228422   2.673   6.199   3.886  0.4831  0.3674 -0.5032
 2336TIP3    H128423   2.747   6.213   3.827  1.0295 -1.2738 -0.2707
 2336TIP3    H228424   2.712   6.193   3.973 -0.0921  0.8244 -0.2051
 2337TIP3   OH228425   3.112   6.113   1.819 -0.1541  0.6406  0.0712
 2337TIP3    H128426   3.205   6.114   1.798 -0.4307  0.4100 -1.3105
 2337TIP3    H228427   3.083   6.025   1.793 -0.5245  0.2649  1.6579
 2338TIP3   OH228428   5.657   0.826  15.480 -0.2982 -0.2172 -0.1437
 2338TIP3    H128429   5.577   0.829  15.428  0.0976  2.9704 -0.8123
 2338TIP3    H228430   5.665   0.914  15.516  1.1953 -1.3887  2.6934
 2339TIP3   OH228431   2.021   5.478   2.415 -0.1772 -0.1155 -0.6712
 2339TIP3    H128432   2.087   5.539   2.384  0.5073  0.0092  0.9360
 2339TIP3    H228433   2.071   5.402   2.446 -0.6706  0.2881  1.2684
 2340TIP3   OH228434   0.112   0.387  11.530 -0.5098  0.3017  0.3136
 2340TIP3    H128435   0.097   0.298  11.497  3.1655 -0.8495  1.3230
 2340TIP3    H228436   0.148   0.435  11.456 -0.5897  0.3610  0.3123
 2341TIP3   OH228437   2.855   2.709  15.061 -0.1821 -0.2869  0.0463
 2341TIP3    H128438   2.910   2.780  15.095  0.6709 -0.0550 -1.7052
 2341TIP3    H228439   2.767   2.731  15.090  0.2117  0.9845  0.3414
 2342TIP3   OH228440   0.891   2.714   5.138 -0.1702  0.3639  0.2846
 2342TIP3    H128441   0.818   2.697   5.197  0.6605  1.0521  1.5597
 2342TIP3    H228442   0.964   2.736   5.196  1.0680 -0.3334 -0.9437
 2343TIP3   OH228443   0.958   4.594   2.670 -0.1868  1.0468 -0.9076
 2343TIP3    H128444   0.893   4.652   2.709 -0.4418 -1.0268  2.0902
 2343TIP3    H228445   0.912   4.511   2.657  0.5004  1.0261 -3.8567
 2344TIP3   OH228446   0.038   5.769   0.686 -0.3181 -0.0250  0.3429
 2344TIP3    H128447   0.032   5.791   0.593 -0.3125 -2.6377 -0.3539
 2344TIP3    H228448  -0.051   5.744   0.711 -0.0297 -0.8261  0.6093
 2345TIP3   OH228449   4.433   4.817  17.147 -0.2954  0.2632  0.1558
 2345TIP3    H128450   4.408   4.906  17.172 -2.0699 -0.3042  0.5343
 2345TIP3    H228451   4.398   4.762  17.217 -1.0746 -0.9199 -1.1420
 2346TIP3   OH228452   6.683   5.340   2.942 -0.4450  0.6294 -0.0486
 2346TIP3    H128453   6.727   5.288   2.875 -2.7169  0.0222 -1.1634
 2346TIP3    H228454   6.601   5.369   2.900 -0.7499  2.3976  1.6249
 2347TIP3   OH228455   0.412   1.940  10.959 -0.3037  0.3975  0.0800
 2347TIP3    H128456   0.478   2.007  10.979 -0.5496  0.6207  0.1497
 2347TIP3    H228457   0.463   1.863  10.935 -0.0072  0.4007  0.6693
 2348TIP3   OH228458   0.658   0.130  16.686  0.1108  0.0556  0.4367
 2348TIP3    H128459   0.729   0.114  16.748  0.9887  2.3963  0.1634
 2348TIP3    H228460   0.702   0.147  16.603 -1.0404 -2.7599 -0.8645
 2349TIP3   OH228461   4.996   4.362   3.718  0.0953 -0.2755  0.0878
 2349TIP3    H128462   5.011   4.273   3.751  0.2368 -0.4287 -0.3807
 2349TIP3    H228463   4.973   4.413   3.796 -0.3056 -0.7927  0.3152
 2350TIP3   OH228464   4.491   1.776  16.845 -0.6542  0.2669 -0.7915
 2350TIP3    H128465   4.418   1.732  16.888 -0.5072  0.6248 -0.1749
 2350TIP3    H228466   4.543   1.705  16.808 -1.0924 -0.0107 -0.8808
 2351TIP3   OH228467   3.594   1.037   4.712  0.3382 -0.1673  0.2451
 2351TIP3    H128468   3.633   1.037   4.624  1.1120 -2.5473  0.5087
 2351TIP3    H228469   3.503   1.012   4.698  0.4358 -0.4450  0.0925
 2352TIP3   OH228470   1.377   0.687  11.997  0.4307  0.0929 -0.3388
 2352TIP3    H128471   1.405   0.651  11.913  0.9432 -1.1669  0.3304
 2352TIP3    H228472   1.446   0.748  12.022 -0.2818  1.3394 -1.3401
 2353TIP3   OH228473   5.984   0.110   0.701 -0.6952  0.4008 -0.1244
 2353TIP3    H128474   5.971   0.194   0.744 -0.1421  0.9649 -1.0155
 2353TIP3    H228475   6.011   0.050   0.771  1.7172  1.6485  0.1135
 2354TIP3   OH228476   1.113   3.566  15.027 -0.0158  0.5458 -0.8593
 2354TIP3    H128477   1.104   3.487  15.081  2.6742  0.9294  0.3091
 2354TIP3    H228478   1.112   3.638  15.090 -0.5170  1.3317 -1.7385
 2355TIP3   OH228479   5.504   0.863  11.774  0.3487 -0.3346 -0.3892
 2355TIP3    H128480   5.534   0.787  11.724  0.1636 -0.1331 -0.8066
 2355TIP3    H228481   5.484   0.929  11.708 -1.7757 -0.7078 -0.1946
 2356TIP3   OH228482   6.113   0.819  16.701 -0.8363  0.2208 -0.2567
 2356TIP3    H128483   6.152   0.795  16.616 -2.6886 -0.7267 -0.9020
 2356TIP3    H228484   6.179   0.792  16.765 -0.2346 -0.9467 -1.3036
 2357TIP3   OH228485   5.582   3.316   4.497  0.0202  0.0775  0.1543
 2357TIP3    H128486   5.604   3.231   4.536 -0.0093 -0.1501 -0.3076
 2357TIP3    H228487   5.600   3.380   4.565 -2.0236 -0.4752  1.3041
 2358TIP3   OH228488   2.604   1.634   4.721  0.2523  0.0084  0.4354
 2358TIP3    H128489   2.635   1.655   4.809 -0.3068 -0.7699  0.8383
 2358TIP3    H228490   2.587   1.540   4.724 -0.1104  0.0407 -0.3971
 2359TIP3   OH228491   2.279   0.572   2.055 -0.5424  0.6110 -0.1284
 2359TIP3    H128492   2.326   0.494   2.085 -2.2392  0.2168  1.7087
 2359TIP3    H228493   2.331   0.604   1.981 -0.3903 -2.8869 -1.7346
 2360TIP3   OH228494   2.856   3.793   0.930  0.2456 -0.5846 -0.2002
 2360TIP3    H128495   2.812   3.877   0.920 -0.3298 -0.8887 -0.2789
 2360TIP3    H228496   2.910   3.785   0.852  1.7019  0.5212  0.6571
 2361TIP3   OH228497   6.158   4.833   4.966  0.1682  0.4602 -0.6896
 2361TIP3    H128498   6.153   4.812   4.873  3.2540  3.0899 -1.6178
 2361TIP3    H228499   6.076   4.878   4.985 -0.3659  0.1781 -2.2049
 2362TIP3   OH228500   4.811   6.332   3.124  0.1172  0.2232 -0.1382
 2362TIP3    H128501   4.804   6.334   3.220 -1.0271  1.9366 -0.2159
 2362TIP3    H228502   4.812   6.424   3.098  0.4861 -0.2117 -1.7854
 2363TIP3   OH228503   4.010   0.638   4.550 -0.4028  0.3439 -0.0377
 2363TIP3    H128504   3.925   0.599   4.532  1.2143 -2.3787 -2.6954
 2363TIP3    H228505   3.998   0.731   4.529 -2.7047  0.0846 -0.1721
 2364TIP3   OH228506   5.123   1.916  12.411  0.3205 -0.0312  0.7082
 2364TIP3    H128507   5.145   1.937  12.320 -0.1160 -0.0962  0.5833
 2364TIP3    H228508   5.135   1.821  12.418 -1.7606 -0.3866  0.0933
 2365TIP3   OH228509   3.977   6.193   5.292  0.2558  0.1254  1.0056
 2365TIP3    H128510   3.951   6.109   5.253 -0.8433 -0.0116  1.9736
 2365TIP3    H228511   4.071   6.185   5.304  0.1893 -0.9351  0.9584
 2366TIP3   OH228512   0.065   4.660   4.622  0.0967  1.0223 -0.3220
 2366TIP3    H128513   0.073   4.566   4.601 -0.4839  0.7932  0.4506
 2366TIP3    H228514   0.049   4.662   4.716  0.4436  1.9230 -0.2731
 2367TIP3   OH228515   0.683   4.545   2.421 -0.2090 -0.5440  0.1397
 2367TIP3    H128516   0.752   4.490   2.458  0.4248 -2.1650 -3.1066
 2367TIP3    H228517   0.604   4.492   2.427 -0.2460 -0.5221 -0.1250
 2368TIP3   OH228518   5.708   1.235  14.021 -0.1884  0.8765  0.5505
 2368TIP3    H128519   5.803   1.238  14.021 -0.1119  0.1606 -1.3799
 2368TIP3    H228520   5.681   1.313  13.972 -0.5142  0.3832 -0.0797
 2369TIP3   OH228521   1.286   3.210  15.982 -0.5135 -0.3388  0.3785
 2369TIP3    H128522   1.338   3.290  15.990  0.5845 -1.1727  2.4286
 2369TIP3    H228523   1.347   3.145  15.947 -1.3874 -0.3342 -1.2426
 2370TIP3   OH228524   4.015   4.895  14.643  0.3383 -0.2893  0.6492
 2370TIP3    H128525   3.970   4.910  14.726  2.7279 -1.9247  2.3909
 2370TIP3    H228526   4.024   4.799  14.638  1.0865 -0.1630 -1.0275
 2371TIP3   OH228527   5.116   1.309   0.193  0.6348  0.2887  0.4311
 2371TIP3    H128528   5.086   1.282   0.279  0.1342 -0.9669 -0.1312
 2371TIP3    H228529   5.037   1.336   0.147  1.0988  2.8272  0.9645
 2372TIP3   OH228530   5.844   3.444   5.602 -0.2636 -0.2345  0.2318
 2372TIP3    H128531   5.805   3.506   5.542 -0.2999  0.6261  1.1213
 2372TIP3    H228532   5.856   3.493   5.684 -1.9936 -1.8802  1.5535
 2373TIP3   OH228533   3.315   3.260  14.457 -0.2366 -0.0699 -0.5923
 2373TIP3    H128534   3.345   3.206  14.530 -2.2198 -1.1987 -0.5282
 2373TIP3    H228535   3.220   3.265  14.468 -0.1928  3.3075 -0.7554
 2374TIP3   OH228536   4.883   5.376   5.282  0.1735  0.5370 -0.3965
 2374TIP3    H128537   4.977   5.380   5.301  0.5065 -1.1782 -1.4658
 2374TIP3    H228538   4.865   5.458   5.236  0.5040  2.1745  2.1919
 2375TIP3   OH228539   4.983   0.871   3.677 -0.4977  0.1222 -0.0598
 2375TIP3    H128540   4.953   0.939   3.737  0.3490 -0.0620  0.5957
 2375TIP3    H228541   5.079   0.880   3.677 -0.5073  0.7483 -2.1256
 2376TIP3   OH228542   6.369   3.807  16.198 -0.2089  0.1406  0.5309
 2376TIP3    H128543   6.419   3.725  16.204 -1.5198 -0.8290 -1.0533
 2376TIP3    H228544   6.277   3.780  16.202 -0.6734  1.7020  1.4818
 2377TIP3   OH228545   0.456   6.455  13.699  0.5821  0.5767 -0.7907
 2377TIP3    H128546   0.494   6.496  13.621  0.6562 -0.0430 -1.0844
 2377TIP3    H228547   0.366   6.433  13.673  0.1901  1.5072 -0.2880
 2378TIP3   OH228548   1.584   2.983   0.969  0.1042 -0.1442  0.1583
 2378TIP3    H128549   1.565   2.953   0.880  0.3009 -0.6663  0.2913
 2378TIP3    H228550   1.516   2.943   1.023 -0.6265  0.9827  0.1124
 2379TIP3   OH228551   0.583   0.793   5.149 -0.4349 -0.2601 -0.0681
 2379TIP3    H128552   0.527   0.821   5.076  0.7238 -1.5564 -1.5199
 2379TIP3    H228553   0.663   0.843   5.138  0.5738 -1.9936 -1.0266
 2380TIP3   OH228554   6.607   3.675   1.781  0.6140 -0.3377 -0.2994
 2380TIP3    H128555   6.672   3.679   1.711  0.3383  0.3885 -0.5260
 2380TIP3    H228556   6.561   3.592   1.767  1.0767 -0.5602 -0.5092
 2381TIP3   OH228557   2.562   6.326  13.050 -0.1913  0.1924 -0.4477
 2381TIP3    H128558   2.634   6.325  12.987 -0.1041 -1.6558 -0.3708
 2381TIP3    H228559   2.484   6.346  12.998  0.0957  0.2148 -0.8739
 2382TIP3   OH228560   4.716   0.338  11.392 -0.5841  0.0223 -0.2670
 2382TIP3    H128561   4.800   0.312  11.429 -1.5249 -1.7887  0.7045
 2382TIP3    H228562   4.732   0.343  11.297  0.7565  0.3850 -0.0426
 2383TIP3   OH228563   1.745   3.989  12.961  0.1198 -0.2857 -0.3547
 2383TIP3    H128564   1.782   3.905  12.988  0.9940 -0.0080 -0.6689
 2383TIP3    H228565   1.817   4.034  12.916 -0.5475  0.3313 -0.8318
 2384TIP3   OH228566   5.815   2.166  15.253  0.3132  0.1883  0.1873
 2384TIP3    H128567   5.859   2.098  15.304 -0.1035  0.4007  0.8469
 2384TIP3    H228568   5.793   2.234  15.318  0.0741  0.6173 -0.3343
 2385TIP3   OH228569   4.701   0.012   5.067  0.6579 -0.1504  0.4681
 2385TIP3    H128570   4.716  -0.021   5.156  1.2774  1.2369  0.8979
 2385TIP3    H228571   4.618   0.059   5.072 -0.4983 -2.0031 -0.2731
 2386TIP3   OH228572   2.075   3.392  13.366 -0.2118 -0.1368 -0.4319
 2386TIP3    H128573   2.158   3.346  13.373  1.0378  1.9212 -1.1111
 2386TIP3    H228574   2.081   3.442  13.285 -2.7260 -1.0165 -1.2939
 2387TIP3   OH228575   4.856   2.126  16.145  0.3215  0.0826 -0.5724
 2387TIP3    H128576   4.788   2.115  16.212  0.1482  1.6059 -0.4701
 2387TIP3    H228577   4.880   2.218  16.149  2.7812 -0.4748 -0.2518
 2388TIP3   OH228578   0.692   5.698   2.493 -0.0329  0.1099 -0.1766
 2388TIP3    H128579   0.766   5.736   2.447  2.2337 -1.7476  1.6540
 2388TIP3    H228580   0.688   5.607   2.461 -1.6593  0.1961 -0.3292
 2389TIP3   OH228581   4.663   0.198  13.590 -0.5091 -0.7750 -0.3418
 2389TIP3    H128582   4.616   0.116  13.597 -0.8413 -0.5539  0.0430
 2389TIP3    H228583   4.596   0.266  13.599 -0.2741 -0.4614 -0.9033
 2390TIP3   OH228584   6.272   3.684  15.886 -0.1705 -0.3715 -0.2864
 2390TIP3    H128585   6.196   3.658  15.938  0.3097  0.7119  1.0327
 2390TIP3    H228586   6.239   3.692  15.797 -1.8654  0.9751  0.3948
 2391TIP3   OH228587   6.366   6.092  11.555  0.0059 -0.3183  0.8344
 2391TIP3    H128588   6.391   6.169  11.505  0.4109 -1.8997 -1.5690
 2391TIP3    H228589   6.447   6.041  11.563 -0.8573 -2.0216 -0.5594
 2392TIP3   OH228590   1.633   4.730   5.051  0.7141 -0.6040  0.0709
 2392TIP3    H128591   1.615   4.642   5.085  1.0713 -1.0836 -0.9249
 2392TIP3    H228592   1.552   4.755   5.007  0.4529 -0.2302  0.7512
 2393TIP3   OH228593   5.413   6.307  14.483 -0.6208  0.7274 -0.0591
 2393TIP3    H128594   5.335   6.331  14.434  0.8999  1.5586 -2.2263
 2393TIP3    H228595   5.457   6.242  14.429  0.4207  0.6146  0.8747
 2394TIP3   OH228596   4.690   1.644   1.848 -0.2606  0.0047  0.0104
 2394TIP3    H128597   4.734   1.697   1.781  0.1125 -1.5031 -0.9770
 2394TIP3    H228598   4.751   1.573   1.867 -1.6212 -1.2991 -0.3005
 2395TIP3   OH228599   2.787   2.169  14.623  0.6042  0.3546  0.5368
 2395TIP3    H128600   2.777   2.098  14.559  1.0529  1.8821 -1.3272
 2395TIP3    H228601   2.857   2.224  14.587  0.5251  1.5528  2.1142
 2396TIP3   OH228602   3.620   3.058  10.821 -0.0868  0.0976  0.6151
 2396TIP3    H128603   3.682   2.986  10.816 -1.4974 -1.0973 -0.4927
 2396TIP3    H228604   3.674   3.137  10.812  1.4459 -0.7870  1.5729
 2397TIP3   OH228605   5.267   2.310   3.160  0.4512 -0.1016 -0.2799
 2397TIP3    H128606   5.239   2.312   3.252 -0.4658 -0.4022 -0.5444
 2397TIP3    H228607   5.300   2.398   3.143  2.0912 -0.4654  0.7615
 2398TIP3   OH228608   5.604   0.793   2.323 -0.1290  0.5680 -0.1224
 2398TIP3    H128609   5.548   0.750   2.387 -1.8172 -0.7518 -2.3639
 2398TIP3    H228610   5.580   0.885   2.327 -1.9999  0.1360 -0.5135
 2399TIP3   OH228611   1.077   4.663  14.038 -0.1064  0.3475 -0.2455
 2399TIP3    H128612   1.104   4.648  13.948  0.3081 -0.4323  0.0009
 2399TIP3    H228613   1.004   4.603  14.052 -2.3046  2.6670 -1.0059
 2400TIP3   OH228614   3.991   5.706   0.209  0.0589  0.2753 -0.1549
 2400TIP3    H128615   3.932   5.700   0.284  1.5235 -2.5863  0.9431
 2400TIP3    H228616   4.076   5.730   0.248  0.1483  2.2559 -1.4258
 2401TIP3   OH228617   2.128   2.603  14.050  0.3879 -0.2844 -0.0024
 2401TIP3    H128618   2.107   2.603  13.956 -3.4228 -0.7044  0.7007
 2401TIP3    H228619   2.184   2.526  14.062 -0.9564 -1.5790 -1.6141
 2402TIP3   OH228620   4.043   4.645   5.759 -0.2403 -0.3821 -0.3993
 2402TIP3    H128621   4.042   4.701   5.836 -0.6528 -2.9323  1.5973
 2402TIP3    H228622   4.117   4.585   5.774 -0.9746 -1.6002 -1.4382
 2403TIP3   OH228623   4.201   3.588  14.699 -0.1011  0.5983 -0.0703
 2403TIP3    H128624   4.171   3.499  14.680  1.0022  0.1495  0.2062
 2403TIP3    H228625   4.164   3.641  14.628  0.3952 -0.3325 -1.0590
 2404TIP3   OH228626   3.408   4.624   1.088  0.3968  0.2139 -0.1246
 2404TIP3    H128627   3.364   4.622   1.003 -1.0765 -0.9253  0.5961
 2404TIP3    H228628   3.496   4.655   1.070 -0.0235  0.4037 -1.9973
 2405TIP3   OH228629   2.341   4.502  13.522 -0.1092  0.2950  0.0936
 2405TIP3    H128630   2.297   4.460  13.596 -0.3267  1.9334  0.9418
 2405TIP3    H228631   2.410   4.555  13.562 -1.2605  2.5032 -0.6683
 2406TIP3   OH228632   5.655   0.035   4.726  0.3708  0.3234  0.4258
 2406TIP3    H128633   5.609   0.038   4.810 -0.0561  2.7884  0.1909
 2406TIP3    H228634   5.651   0.125   4.694  1.1185 -0.4181 -1.9348
 2407TIP3   OH228635   0.940   4.481   4.958  0.0150 -0.1643  0.1320
 2407TIP3    H128636   0.953   4.573   4.934 -0.0722 -1.0685 -4.1510
 2407TIP3    H228637   1.025   4.452   4.990 -0.3482  1.6767  3.0987
 2408TIP3   OH228638   2.831   4.789   5.926  0.2474  0.3114 -0.0512
 2408TIP3    H128639   2.787   4.784   5.841 -1.0508 -1.2150  0.6611
 2408TIP3    H228640   2.850   4.698   5.949 -0.2952  0.6036  1.7058
 2409TIP3   OH228641   4.919   1.787   0.840 -0.3276 -0.0077  0.2296
 2409TIP3    H128642   4.842   1.754   0.887 -0.9659 -0.9073 -1.3551
 2409TIP3    H228643   4.955   1.855   0.897 -0.8845 -1.2171  2.1211
 2410TIP3   OH228644   5.978   4.845  16.235  0.4150 -0.1296 -0.7194
 2410TIP3    H128645   5.958   4.925  16.186 -3.2508 -0.7757 -0.5888
 2410TIP3    H228646   5.930   4.855  16.317 -0.3765 -2.4769 -0.8134
 2411TIP3   OH228647   1.932   6.164   0.638  0.3449  0.4574  0.0944
 2411TIP3    H128648   1.989   6.240   0.651 -0.6404  1.2339  0.0210
 2411TIP3    H228649   1.861   6.197   0.583  0.8295 -0.9955 -1.4792
 2412TIP3   OH228650   1.078   0.502   3.154 -0.5301  0.1818 -0.2537
 2412TIP3    H128651   1.034   0.509   3.239 -0.8578  2.3264 -0.5603
 2412TIP3    H228652   1.011   0.464   3.096 -1.2624  1.3454 -0.1929
 2413TIP3   OH228653   3.707   3.671  14.208  0.2233  0.0845  0.3729
 2413TIP3    H128654   3.622   3.705  14.181  0.2817 -0.1990 -0.1830
 2413TIP3    H228655   3.701   3.577  14.195  0.1998 -0.0904  1.5411
 2414TIP3   OH228656   3.518   2.410   2.803  0.4890  0.2194  0.4935
 2414TIP3    H128657   3.576   2.383   2.875 -1.6985  0.1388  2.3345
 2414TIP3    H228658   3.490   2.329   2.763 -0.5938  0.0696  1.5026
 2415TIP3   OH228659   1.691   4.946   4.151 -0.3855 -0.4033 -0.2835
 2415TIP3    H128660   1.723   4.856   4.155  0.3019 -0.1529  0.0067
 2415TIP3    H228661   1.618   4.943   4.090 -2.2285 -1.7234  1.8260
 2416TIP3   OH228662   0.425   5.178  12.997  0.6521 -0.4228  0.1874
 2416TIP3    H128663   0.388   5.131  12.923 -1.1519 -1.9801  1.9560
 2416TIP3    H228664   0.426   5.270  12.969 -1.9747 -0.6774 -1.0366
 2417TIP3   OH228665   2.369   3.317   2.493 -0.0636  0.0264  0.2870
 2417TIP3    H128666   2.397   3.398   2.449 -0.6611  0.3618  0.5042
 2417TIP3    H228667   2.449   3.265   2.501  0.1570  0.1904 -0.7011
 2418TIP3   OH228668   0.752   0.917   5.675 -0.3139  0.4769  0.2901
 2418TIP3    H128669   0.744   0.894   5.768  3.6529 -0.8408  0.5050
 2418TIP3    H228670   0.679   0.871   5.634 -1.5280  0.1493  2.6004
 2419TIP3   OH228671   6.168   2.439  12.939 -0.2558  0.1475 -0.0755
 2419TIP3    H128672   6.091   2.383  12.951 -0.6531  0.9673  1.6556
 2419TIP3    H228673   6.224   2.420  13.014  1.3622 -0.5575 -1.3979
 2420TIP3   OH228674   0.600   4.535  12.750 -0.0956  0.6625 -0.7675
 2420TIP3    H128675   0.693   4.535  12.775 -0.1006  0.2410 -0.7515
 2420TIP3    H228676   0.597   4.591  12.672  0.1431  0.8179 -0.6681
 2421TIP3   OH228677   2.568   2.193   5.860 -0.3034 -0.1520  0.1299
 2421TIP3    H128678   2.548   2.144   5.781 -0.9426 -1.7164  1.2154
 2421TIP3    H228679   2.498   2.258   5.867  0.1023  0.4089 -0.8931
 2422TIP3   OH228680   1.005   4.513  16.134  0.4741  0.0229 -0.5624
 2422TIP3    H128681   1.038   4.600  16.113  0.5913  0.3510  0.8786
 2422TIP3    H228682   1.050   4.489  16.216 -0.2873 -0.9776 -0.4146
 2423TIP3   OH228683   3.784   4.248  16.851 -0.3546 -0.0633 -0.0136
 2423TIP3    H128684   3.856   4.307  16.831 -0.7941  0.6326  0.3993
 2423TIP3    H228685   3.733   4.244  16.769  0.5897 -1.2282 -0.5731
 2424TIP3   OH228686   5.197   0.564  17.144 -0.1332  0.0259 -0.3752
 2424TIP3    H128687   5.187   0.552  17.049 -3.2480 -0.7651 -0.0269
 2424TIP3    H228688   5.176   0.656  17.159 -0.4298 -0.0392 -0.3816
 2425TIP3   OH228689   0.576   4.711  15.415 -0.3558  0.4277  1.1193
 2425TIP3    H128690   0.534   4.732  15.332 -0.4467 -1.2175  0.7267
 2425TIP3    H228691   0.544   4.624  15.437 -0.2329  0.7899  2.8263
 2426TIP3   OH228692   6.442   6.511  13.986  0.6207  0.5571 -0.1243
 2426TIP3    H128693   6.355   6.547  14.004  0.0630 -0.1446 -1.3081
 2426TIP3    H228694   6.446   6.430  14.037 -0.1948 -0.4149 -1.5561
 2427TIP3   OH228695   0.109   1.166   1.275  0.3002  0.2499  0.1391
 2427TIP3    H128696   0.121   1.140   1.366  0.4653 -1.0724 -0.2379
 2427TIP3    H228697   0.032   1.223   1.276  0.1028 -0.0161  1.0507
 2428TIP3   OH228698   2.174   5.125  15.629  0.4092 -0.0642  0.4294
 2428TIP3    H128699   2.134   5.039  15.646 -0.5870  0.3621  0.3436
 2428TIP3    H228700   2.184   5.128  15.534 -2.2648  1.0046  0.0724
 2429TIP3   OH228701   0.463   5.767  13.088 -0.1188  0.0208  0.0673
 2429TIP3    H128702   0.547   5.810  13.077  0.9314 -1.6490  1.1386
 2429TIP3    H228703   0.470   5.721  13.171 -1.5633 -1.3042 -0.4907
 2430TIP3   OH228704   3.566   1.477  14.294 -0.4798 -0.0358 -0.0827
 2430TIP3    H128705   3.533   1.567  14.295 -0.6297 -0.0945  0.5727
 2430TIP3    H228706   3.589   1.458  14.385 -1.7423 -1.1233  0.0379
 2431TIP3   OH228707   2.564   0.739   6.199 -0.7812  0.1849  0.2575
 2431TIP3    H128708   2.569   0.643   6.204 -0.3790  0.1756 -0.2293
 2431TIP3    H228709   2.541   0.767   6.288  1.3403 -0.2303  0.9830
 2432TIP3   OH228710   4.296   3.720   2.796 -0.2838  0.0693  0.2481
 2432TIP3    H128711   4.260   3.658   2.859 -0.5443 -0.5143 -0.4643
 2432TIP3    H228712   4.221   3.746   2.743 -0.1108  0.7427  0.3254
 2433TIP3   OH228713   1.796   1.791  14.220  0.5998  0.7897 -0.2405
 2433TIP3    H128714   1.852   1.726  14.178  0.7287  0.2010  0.8143
 2433TIP3    H228715   1.790   1.862  14.156  2.5140  0.8565 -0.4055
 2434TIP3   OH228716   1.889   4.382  10.360 -0.0707 -0.0436 -0.0391
 2434TIP3    H128717   1.984   4.374  10.366 -0.0238  1.3280  2.4653
 2434TIP3    H228718   1.856   4.327  10.431 -1.1243  0.0229 -0.4540
 2435TIP3   OH228719   0.831   3.119  14.764 -0.0112 -0.2220  0.2827
 2435TIP3    H128720   0.819   3.211  14.787  0.7501 -0.1544  0.4291
 2435TIP3    H228721   0.904   3.090  14.819 -1.0075 -1.2328  1.1217
 2436TIP3   OH228722   4.155   0.946   3.397  0.0488 -0.7369 -0.3607
 2436TIP3    H128723   4.223   1.005   3.363 -0.3068  0.7937  1.4842
 2436TIP3    H228724   4.193   0.858   3.386  1.6134 -0.0292 -0.9162
 2437TIP3   OH228725   1.476   1.747  12.647 -0.4659  0.6110 -0.4519
 2437TIP3    H128726   1.390   1.781  12.623 -0.6544 -0.5283 -1.4570
 2437TIP3    H228727   1.469   1.652  12.638  1.2257  0.5503 -1.7895
 2438TIP3   OH228728   0.049   0.558   2.999 -0.1528 -0.3489 -0.3327
 2438TIP3    H128729  -0.045   0.570   2.988 -0.6437 -2.4266  0.9063
 2438TIP3    H228730   0.072   0.489   2.937  0.5048 -0.0681 -0.4131
 2439TIP3   OH228731   4.078   4.973   2.021  0.0396 -0.1219  0.3643
 2439TIP3    H128732   4.161   4.928   2.037  0.2378  0.5150  1.1772
 2439TIP3    H228733   4.069   4.972   1.926  0.4182 -1.1933  0.3276
 2440TIP3   OH228734   2.968   4.493  12.968 -0.1902 -0.2809  0.2975
 2440TIP3    H128735   2.943   4.498  12.876  0.7512 -1.9716 -0.0770
 2440TIP3    H228736   3.038   4.558  12.978 -0.1660 -0.2257 -0.2189
 2441TIP3   OH228737   3.381   4.502  11.981  0.2699 -0.5310 -0.7230
 2441TIP3    H128738   3.450   4.436  11.990 -0.5552 -1.1494  2.4565
 2441TIP3    H228739   3.414   4.578  12.030 -0.6956 -0.2935 -0.4234
 2442TIP3   OH228740   5.018   1.598   3.085  0.2743  0.3107 -0.1141
 2442TIP3    H128741   4.930   1.562   3.079 -0.5739  1.7810  2.2529
 2442TIP3    H228742   5.054   1.587   2.997 -2.0514 -0.8340 -1.0066
 2443TIP3   OH228743   4.544   4.387  14.554  0.7182 -0.5445  0.2624
 2443TIP3    H128744   4.480   4.324  14.520 -0.0463  0.4392 -0.1801
 2443TIP3    H228745   4.559   4.359  14.644 -1.7459  0.2127  1.0012
 2444TIP3   OH228746   0.482   0.047   4.340 -0.4331 -0.3560  0.6424
 2444TIP3    H128747   0.576   0.054   4.353 -0.2077 -0.5004 -0.8327
 2444TIP3    H228748   0.470  -0.031   4.286 -1.2291  0.7469 -0.8288
 2445TIP3   OH228749   3.905   2.440   4.443  0.3140  0.7910  0.2927
 2445TIP3    H128750   3.947   2.523   4.422  0.0611  0.9989  0.5979
 2445TIP3    H228751   3.957   2.404   4.515 -0.3875  1.3384  1.0798
 2446TIP3   OH228752   2.024   6.708   5.304  0.2138  0.1264 -0.0942
 2446TIP3    H128753   2.102   6.655   5.291 -0.4063 -0.2816 -2.4812
 2446TIP3    H228754   1.958   6.669   5.247 -0.7099  2.5251 -0.7947
 2447TIP3   OH228755   2.316   3.770   0.647  0.0737  0.5727  0.2574
 2447TIP3    H128756   2.254   3.703   0.677  1.2070 -0.2735  0.7688
 2447TIP3    H228757   2.399   3.747   0.690  1.4661  0.0723 -2.5024
 2448TIP3   OH228758   5.609   5.865  12.271  0.8585  0.1524  0.0767
 2448TIP3    H128759   5.701   5.838  12.276  0.6392 -1.2938 -2.2385
 2448TIP3    H228760   5.608   5.932  12.203  0.1958  0.2042  0.1302
 2449TIP3   OH228761   0.403   0.761  12.185 -0.1637 -0.6727 -0.3284
 2449TIP3    H128762   0.481   0.813  12.167 -0.4024 -0.4846 -0.8619
 2449TIP3    H228763   0.355   0.812  12.251  0.7923 -1.4390  0.9890
 2450TIP3   OH228764   1.446   0.242   2.435  0.3866 -0.3008 -0.1028
 2450TIP3    H128765   1.507   0.296   2.485  1.0813 -1.1377 -0.0095
 2450TIP3    H228766   1.466   0.152   2.463 -0.9936 -0.5867  0.0373
 2451TIP3   OH228767   4.092   3.063   3.091  0.1533  0.5043 -0.6625
 2451TIP3    H128768   4.114   2.970   3.085 -0.7189  0.1418  1.1215
 2451TIP3    H228769   4.117   3.099   3.005  2.2390 -0.9737 -0.7566
 2452TIP3   OH228770   3.198   2.669   6.023  0.4528  0.9087  0.4349
 2452TIP3    H128771   3.190   2.742   5.962 -1.6005  1.0772  0.8270
 2452TIP3    H228772   3.219   2.709   6.107  0.2370  0.9525  0.4667
 2453TIP3   OH228773   3.204   3.299   6.124  0.0446 -0.3173 -0.3312
 2453TIP3    H128774   3.243   3.355   6.192  0.7454  0.0802 -1.0507
 2453TIP3    H228775   3.142   3.244   6.172 -1.1804  1.5286  0.3156
 2454TIP3   OH228776   2.119   6.025   3.594  0.1672  0.1202  0.0501
 2454TIP3    H128777   2.175   5.984   3.661  1.1888  0.5970 -0.4923
 2454TIP3    H228778   2.180   6.055   3.527 -0.7778  0.3833 -0.7145
 2455TIP3   OH228779   1.851   1.954   3.535 -0.2155  0.1453  0.8357
 2455TIP3    H128780   1.757   1.949   3.522  0.1361 -0.7282 -1.9514
 2455TIP3    H228781   1.888   1.958   3.447  2.3687  0.5213  1.8375
 2456TIP3   OH228782   6.552   0.954   1.900 -0.0396 -0.0278  0.0556
 2456TIP3    H128783   6.606   0.923   1.827 -0.4710  0.5224 -0.5033
 2456TIP3    H228784   6.579   1.045   1.912 -0.4297  0.0740  0.1608
 2457TIP3   OH228785   3.556   5.372   2.904  0.2715 -0.2993  0.2549
 2457TIP3    H128786   3.539   5.278   2.896  0.1008 -0.3059  0.6395
 2457TIP3    H228787   3.544   5.390   2.998 -0.6968  0.2993  0.0281
 2458TIP3   OH228788   1.206   2.743  15.237  0.2176 -0.0693  0.0275
 2458TIP3    H128789   1.291   2.757  15.196  0.4686  1.1427  0.8835
 2458TIP3    H228790   1.165   2.674  15.186  1.0837  0.4043 -1.3598
 2459TIP3   OH228791   0.990   2.175   2.953 -0.1269  0.3625  0.1059
 2459TIP3    H128792   0.964   2.259   2.992 -0.8984 -0.3417  1.1765
 2459TIP3    H228793   1.081   2.188   2.928 -0.0962  1.3832  0.6712
 2460TIP3   OH228794   5.742   6.603   4.311 -0.3214  0.1833 -0.8345
 2460TIP3    H128795   5.790   6.556   4.242  1.1323  1.4777 -0.7472
 2460TIP3    H228796   5.809   6.633   4.371 -1.5419 -0.5732  0.9932
 2461TIP3   OH228797   4.152   1.204  13.180 -0.0053 -0.0852  0.6130
 2461TIP3    H128798   4.062   1.234  13.173 -0.3892 -0.7324  2.3510
 2461TIP3    H228799   4.145   1.109  13.188  0.8500 -0.1697  0.4345
 2462TIP3   OH228800   4.065   4.924  11.856 -0.2793  0.8971 -0.1800
 2462TIP3    H128801   4.101   4.911  11.944  2.7060  1.9707 -1.1056
 2462TIP3    H228802   4.117   4.995  11.820 -2.6917  1.7668 -2.2061
 2463TIP3   OH228803   4.639   0.548  13.902 -0.3427 -0.0121  0.1488
 2463TIP3    H128804   4.722   0.595  13.886 -0.7424  0.4315 -0.7269
 2463TIP3    H228805   4.665   0.457  13.911  0.1471 -0.0802 -1.4552
 2464TIP3   OH228806   3.644   6.234  16.231  0.7128  0.7034 -0.1681
 2464TIP3    H128807   3.597   6.292  16.291  1.4540  1.2098 -0.0538
 2464TIP3    H228808   3.600   6.247  16.147 -1.6459 -1.5202  0.5962
 2465TIP3   OH228809   3.068   2.534  14.160  0.3928 -0.2229 -0.4616
 2465TIP3    H128810   3.043   2.509  14.071  0.8935  0.0477 -0.6834
 2465TIP3    H228811   2.999   2.496  14.216  0.3188 -0.7850 -0.9184
 2466TIP3   OH228812   5.445   0.929   1.849 -0.0711 -0.1289 -0.5317
 2466TIP3    H128813   5.351   0.941   1.839 -0.0684 -0.5170 -1.0073
 2466TIP3    H228814   5.481   0.948   1.763  0.4751  1.8483  0.0803
 2467TIP3   OH228815   1.345   1.940   2.307  0.3164  0.7762  0.5245
 2467TIP3    H128816   1.335   1.846   2.322  0.1859  0.5143 -1.0146
 2467TIP3    H228817   1.276   1.981   2.359  0.4128  0.0352  1.2515
 2468TIP3   OH228818   1.701   6.310  13.623 -0.6547  0.0941 -0.0447
 2468TIP3    H128819   1.663   6.301  13.711  0.8910 -1.7937  0.5008
 2468TIP3    H228820   1.702   6.404  13.607 -2.7339  0.3804  1.1311
 2469TIP3   OH228821   3.746   2.620   3.283 -0.6112 -0.1020 -0.4996
 2469TIP3    H128822   3.665   2.639   3.331  0.6234  0.4616  1.5078
 2469TIP3    H228823   3.719   2.613   3.192 -2.9233  0.0087  0.1093
 2470TIP3   OH228824   3.559   2.011  13.355  0.5066 -0.0651  0.6569
 2470TIP3    H128825   3.614   2.033  13.430  1.9131 -1.4357  0.0726
 2470TIP3    H228826   3.613   2.030  13.279 -1.0320  1.6715 -0.1037
 2471TIP3   OH228827   6.493   5.113   1.670  0.3951 -0.1744  0.3181
 2471TIP3    H128828   6.409   5.070   1.682 -0.1295  1.0605  1.4048
 2471TIP3    H228829   6.506   5.118   1.576 -0.6482 -0.5649  0.1496
 2472TIP3   OH228830   2.409   4.823  12.831 -0.1278  0.2496 -0.4555
 2472TIP3    H128831   2.490   4.874  12.835  0.0663 -0.0600 -0.4311
 2472TIP3    H228832   2.395   4.792  12.920  0.2958 -0.5758 -0.6676
 2473TIP3   OH228833   2.346   6.015   1.485 -0.3054 -0.0177  0.0935
 2473TIP3    H128834   2.410   5.967   1.538  0.5003 -1.0388 -1.6785
 2473TIP3    H228835   2.263   6.002   1.530  0.4332 -0.2799  1.4350
 2474TIP3   OH228836   4.558   0.107   2.402 -0.0197 -0.5575 -0.4296
 2474TIP3    H128837   4.571   0.013   2.396 -0.3750 -0.5444 -1.7968
 2474TIP3    H228838   4.642   0.142   2.432  0.4357 -1.2187 -0.9286
 2475TIP3   OH228839   0.256   0.343  13.912 -0.1016  0.1239  0.3704
 2475TIP3    H128840   0.282   0.284  13.983 -0.5026 -2.1395 -1.2688
 2475TIP3    H228841   0.168   0.372  13.935 -1.2381 -2.5473 -0.3030
 2476TIP3   OH228842   2.270   3.118   4.930 -0.2180 -0.0496 -0.6610
 2476TIP3    H128843   2.331   3.049   4.906  1.6318  0.8494  1.1582
 2476TIP3    H228844   2.298   3.194   4.878 -2.3003 -0.5860 -2.7302
 2477TIP3   OH228845   2.958   2.858  12.102  0.5496  0.9420  0.3038
 2477TIP3    H128846   2.937   2.844  12.194  0.5240  1.2752  0.3512
 2477TIP3    H228847   3.015   2.785  12.078  0.3715  0.7331  0.5229
 2478TIP3   OH228848   0.251   4.926   3.332  0.2619  0.2011 -0.8593
 2478TIP3    H128849   0.234   4.873   3.410  0.5983 -1.2769 -1.7446
 2478TIP3    H228850   0.227   4.868   3.259  1.9309  0.7873 -1.9113
 2479TIP3   OH228851   2.980   0.092   3.712  0.1526 -0.2083  0.2981
 2479TIP3    H128852   3.032   0.172   3.714  1.5121 -0.9929 -1.3745
 2479TIP3    H228853   3.045   0.021   3.709 -0.9932 -1.2567 -0.8328
 2480TIP3   OH228854   3.595   3.675   4.656 -0.3477  0.2761 -0.2213
 2480TIP3    H128855   3.609   3.745   4.720  1.0744 -0.3650  0.2072
 2480TIP3    H228856   3.513   3.699   4.612 -1.6561  0.4646  2.1694
 2481TIP3   OH228857   2.674   0.790  14.842  0.4929 -0.4924  1.0715
 2481TIP3    H128858   2.712   0.830  14.921 -1.5944  0.2134  1.8069
 2481TIP3    H228859   2.674   0.696  14.860  0.2447 -0.3545  1.8412
 2482TIP3   OH228860   4.286   2.301   2.760 -0.1167  0.1550 -0.9273
 2482TIP3    H128861   4.375   2.336   2.773 -0.9187  1.8066  0.5151
 2482TIP3    H228862   4.260   2.268   2.846 -1.1074  0.2117 -1.1920
 2483TIP3   OH228863   6.652   1.419   3.760 -0.2169  0.4133 -0.1210
 2483TIP3    H128864   6.589   1.416   3.688  1.0125  0.1288 -1.2225
 2483TIP3    H228865   6.696   1.504   3.748 -0.4462  0.6506  0.6941
 2484TIP3   OH228866   4.803   5.431   4.790  0.0579 -0.3599  0.5775
 2484TIP3    H128867   4.798   5.371   4.716  1.0417  0.8757 -0.5272
 2484TIP3    H228868   4.874   5.397   4.844  0.8226 -0.0473 -0.2047
 2485TIP3   OH228869   5.182   5.446  15.631  0.3025 -0.3466  0.0900
 2485TIP3    H128870   5.095   5.423  15.600  0.6087 -0.8467 -0.4092
 2485TIP3    H228871   5.177   5.437  15.726  0.4604 -2.7119 -0.0692
 2486TIP3   OH228872   4.942   5.351   2.929  0.1773 -0.2149 -0.4343
 2486TIP3    H128873   4.865   5.386   2.974 -0.2391 -0.8180 -0.6669
 2486TIP3    H228874   4.987   5.428   2.895 -1.0189  0.0780 -1.4061
 2487TIP3   OH228875   2.024   6.253  11.729 -0.1811  0.1597 -0.5157
 2487TIP3    H128876   2.003   6.319  11.663 -0.6021  1.6633  1.0351
 2487TIP3    H228877   1.940   6.237  11.773  0.4979  0.9511  1.1460
 2488TIP3   OH228878   4.920   5.794  13.218 -0.2957  0.3902 -0.0828
 2488TIP3    H128879   5.003   5.782  13.265  0.0834  0.3192 -0.7522
 2488TIP3    H228880   4.858   5.822  13.285  0.0304 -0.5137  0.6053
 2489TIP3   OH228881   4.149   6.792   6.575  0.4833 -0.3121 -0.3697
 2489TIP3    H128882   4.187   6.779   6.488 -0.1160 -0.4926 -0.6035
 2489TIP3    H228883   4.109   6.708   6.597 -0.4938  0.1092 -0.4784
 2490TIP3   OH228884   4.590   3.746   0.679 -0.3616 -0.0805  0.2800
 2490TIP3    H128885   4.670   3.782   0.640  0.1254  0.3578  1.6160
 2490TIP3    H228886   4.542   3.708   0.605 -1.3748  4.0286 -1.4396
 2491TIP3   OH228887   0.410   6.639   2.538 -0.3026  0.1999  0.1862
 2491TIP3    H128888   0.415   6.584   2.616  1.9639  0.9956  0.6816
 2491TIP3    H228889   0.494   6.685   2.536 -0.9040  1.3259 -1.9076
 2492TIP3   OH228890   6.180   6.230   4.815 -0.0789 -0.3480  0.3871
 2492TIP3    H128891   6.162   6.221   4.908 -2.3269 -0.5942 -0.0146
 2492TIP3    H228892   6.153   6.319   4.794 -0.0441 -0.4551 -0.1166
 2493TIP3   OH228893   4.109   1.256  12.748  0.3557  0.6249  0.0012
 2493TIP3    H128894   4.064   1.255  12.664 -1.4692  0.4609  0.9221
 2493TIP3    H228895   4.139   1.167  12.761  0.3967  0.5865 -0.3617
 2494TIP3   OH228896   2.740   1.911   4.219  0.0284 -0.3397  0.4364
 2494TIP3    H128897   2.684   1.834   4.230 -0.6050  0.3964  2.9450
 2494TIP3    H228898   2.684   1.975   4.175  0.4903 -1.1637 -1.4593
 2495TIP3   OH228899   5.550   4.543  16.380 -0.2531 -0.1652  0.0584
 2495TIP3    H128900   5.561   4.489  16.458 -1.0741  0.5798  0.6959
 2495TIP3    H228901   5.499   4.488  16.320  1.2191 -1.1250 -0.3792
 2496TIP3   OH228902   0.289   5.626   0.469 -0.4610  0.0719 -0.0530
 2496TIP3    H128903   0.210   5.580   0.443 -1.3709  0.8524  1.2085
 2496TIP3    H228904   0.308   5.592   0.557  0.6365 -0.1257 -0.3460
 2497TIP3   OH228905   3.302   3.184  12.586 -0.4823  0.6384 -0.8077
 2497TIP3    H128906   3.251   3.209  12.663 -0.9669  2.0557 -1.5412
 2497TIP3    H228907   3.330   3.267  12.548  0.3569 -0.0557 -1.7730
 2498TIP3   OH228908   4.851   3.489   4.075  0.2193 -0.2227 -0.4905
 2498TIP3    H128909   4.884   3.578   4.090  1.0755 -0.3324 -1.6660
 2498TIP3    H228910   4.774   3.483   4.131  0.1458  1.2710 -0.3976
 2499TIP3   OH228911   2.007   4.823  14.039 -0.3379  0.0686  0.1290
 2499TIP3    H128912   1.935   4.839  13.977  1.2023  0.4279 -1.6439
 2499TIP3    H228913   1.980   4.744  14.086 -3.3064  1.8455  1.7686
 2500TIP3   OH228914   3.028   4.482  16.551  0.0639 -0.5179 -0.2202
 2500TIP3    H128915   3.091   4.550  16.576  0.2360 -1.0091  0.7311
 2500TIP3    H228916   3.021   4.426  16.629  1.0644 -2.4827 -1.4519
 2501TIP3   OH228917   0.728   4.429  11.232 -0.3217  0.2865  0.6763
 2501TIP3    H128918   0.634   4.439  11.217  0.0284 -0.7574 -3.2051
 2501TIP3    H228919   0.737   4.345  11.276 -1.1465 -0.8990 -1.3079
 2502TIP3   OH228920   4.650   4.649  13.387  0.6695 -0.0614 -0.5961
 2502TIP3    H128921   4.668   4.614  13.475  1.2028 -0.2021 -0.7605
 2502TIP3    H228922   4.670   4.576  13.328  2.8762  0.8466 -1.0379
 2503TIP3   OH228923   0.997   3.327   1.003  0.5638  0.1966  0.0769
 2503TIP3    H128924   0.997   3.253   1.064  0.2600  0.9866  1.0636
 2503TIP3    H228925   0.921   3.379   1.028  1.2220  1.2632 -0.0725
 2504TIP3   OH228926   5.401   1.499  17.077  0.1914  0.3757  0.2622
 2504TIP3    H128927   5.471   1.435  17.088  0.5398  0.1899 -2.4803
 2504TIP3    H228928   5.348   1.466  17.005 -1.4722  1.6432  0.8200
 2505TIP3   OH228929   2.391   4.900   5.545  0.2773 -0.5855  0.5587
 2505TIP3    H128930   2.428   4.961   5.481  1.1099 -2.4678 -0.8596
 2505TIP3    H228931   2.467   4.861   5.588 -0.2698  0.1706  2.3015
 2506TIP3   OH228932   6.538   6.609   1.397  0.3619  0.1618  0.7950
 2506TIP3    H128933   6.616   6.556   1.382  0.8669  0.7287  1.3677
 2506TIP3    H228934   6.477   6.551   1.443  0.9340  0.0958  1.4761
 2507TIP3   OH228935   3.102   5.307  14.453  0.1926 -0.1092  0.6126
 2507TIP3    H128936   3.038   5.241  14.425  0.1471 -0.1363  0.7837
 2507TIP3    H228937   3.116   5.290  14.545  0.1468  0.1476  0.6688
 2508TIP3   OH228938   4.273   6.653  15.059  1.0025  0.3701  0.1370
 2508TIP3    H128939   4.333   6.653  14.984  1.4766 -1.1250  0.4619
 2508TIP3    H228940   4.325   6.614  15.130 -0.5601 -1.6957  0.2247
 2509TIP3   OH228941   4.443   1.946  11.409 -0.0695  0.0743  0.1281
 2509TIP3    H128942   4.412   1.883  11.475 -0.8851 -0.1978 -0.5056
 2509TIP3    H228943   4.527   1.910  11.380 -0.4213 -0.6041 -0.0609
 2510TIP3   OH228944   6.497   3.322  10.739 -0.4894  0.7551 -0.1009
 2510TIP3    H128945   6.524   3.268  10.666 -0.6084 -2.2474  1.8884
 2510TIP3    H228946   6.565   3.389  10.747  0.5509 -0.0729 -1.6895
 2511TIP3   OH228947   0.131   0.025   2.996 -0.0600  0.2730  0.5314
 2511TIP3    H128948   0.122  -0.061   3.037 -2.4529  0.8213  1.3492
 2511TIP3    H228949   0.157   0.083   3.067 -0.2207  0.5288  0.3824
 2512TIP3   OH228950   3.613   3.157   3.259 -0.2255 -0.1627 -0.1998
 2512TIP3    H128951   3.648   3.234   3.304  2.3122 -1.2805 -0.1187
 2512TIP3    H228952   3.685   3.126   3.205 -1.5808 -1.8215 -1.1506
 2513TIP3   OH228953   4.240   2.109   2.514 -0.1716  0.3103  0.1442
 2513TIP3    H128954   4.220   2.057   2.592  1.8023  1.1132  1.2383
 2513TIP3    H228955   4.331   2.089   2.494 -0.1348  1.4306 -0.9347
 2514TIP3   OH228956   6.192   3.135   0.576  0.0894 -0.0724 -0.0043
 2514TIP3    H128957   6.131   3.119   0.504 -0.7274  3.2049 -0.2008
 2514TIP3    H228958   6.269   3.174   0.535 -0.1391  1.2551  0.7543
 2515TIP3   OH228959   0.506   4.043   0.385  0.0134  0.2042  0.2595
 2515TIP3    H128960   0.585   3.988   0.389 -0.8638 -1.1662 -0.6442
 2515TIP3    H228961   0.537   4.126   0.349  0.8283 -0.7786 -1.4351
 2516TIP3   OH228962   6.353   0.676  16.829  0.2197 -0.3856  0.4468
 2516TIP3    H128963   6.396   0.591  16.835 -1.7782 -1.5812 -0.8459
 2516TIP3    H228964   6.405   0.734  16.885  1.8865 -2.3415  1.0253
 2517TIP3   OH228965   5.909   0.786  14.366  0.3121  0.4451  0.7575
 2517TIP3    H128966   5.923   0.876  14.335 -1.0555  0.5601  0.4348
 2517TIP3    H228967   5.820   0.764  14.338  0.3499 -0.7418  1.5039
 2518TIP3   OH228968   4.685   5.742   2.219  0.2657 -0.3679  0.2739
 2518TIP3    H128969   4.699   5.676   2.151 -2.5322 -1.5131  0.6989
 2518TIP3    H228970   4.699   5.696   2.301 -0.7387 -0.2129  0.5469
 2519TIP3   OH228971   1.769   5.760  16.029  0.1551 -0.1680  0.3193
 2519TIP3    H128972   1.728   5.728  16.109 -0.1959 -3.3841 -0.9776
 2519TIP3    H228973   1.843   5.701  16.014  1.0231  1.1751 -1.0379
 2520TIP3   OH228974   3.968   0.912   0.837 -0.4305  0.4018  0.0870
 2520TIP3    H128975   3.997   0.991   0.882  0.4537  0.7652 -1.0573
 2520TIP3    H228976   4.008   0.840   0.886  1.0792  0.8201 -0.4546
 2521TIP3   OH228977   5.716   0.706   1.146  0.2456  0.0740  0.0416
 2521TIP3    H128978   5.655   0.712   1.073 -0.5093 -0.1502  0.6361
 2521TIP3    H228979   5.659   0.704   1.224  1.0039 -0.3451  0.5913
 2522TIP3   OH228980   1.120   6.751  15.485  0.2105  0.5330  0.4006
 2522TIP3    H128981   1.040   6.803  15.492 -1.5909 -2.0621  0.8649
 2522TIP3    H228982   1.186   6.801  15.533 -1.4842  2.1340  1.2064
 2523TIP3   OH228983   0.623   4.471   3.331 -0.1557 -0.6636 -0.4506
 2523TIP3    H128984   0.638   4.566   3.330  0.9437 -0.7574  1.7574
 2523TIP3    H228985   0.662   4.440   3.249  0.5581  0.6408 -0.6378
 2524TIP3   OH228986   4.796   4.246   1.990 -0.6105  0.2818  0.1842
 2524TIP3    H128987   4.784   4.174   1.929 -0.8201  1.3007 -1.0288
 2524TIP3    H228988   4.827   4.205   2.071  0.6300 -1.0174 -0.9017
 2525TIP3   OH228989   3.764   1.554  15.413 -0.0240  0.5886 -0.7728
 2525TIP3    H128990   3.753   1.503  15.493 -0.9992 -1.5702 -2.1932
 2525TIP3    H228991   3.675   1.575  15.386  0.2665  0.9000 -1.5191
 2526TIP3   OH228992   0.865   3.602   5.825 -0.5303  0.7202  0.1597
 2526TIP3    H128993   0.911   3.529   5.868 -0.4033  0.3545 -0.5906
 2526TIP3    H228994   0.915   3.618   5.745 -0.2988  1.9250  0.5244
 2527TIP3   OH228995   0.432   3.625   3.979 -0.0297 -0.5576 -0.0191
 2527TIP3    H128996   0.453   3.654   3.890  0.6433 -2.5243 -0.5603
 2527TIP3    H228997   0.429   3.705   4.031  2.2359  0.4508 -1.3027
 2528TIP3   OH228998   2.743   6.353  15.856 -0.1216  0.2771 -0.5730
 2528TIP3    H128999   2.688   6.350  15.777  0.8520  0.9930 -1.2988
 2528TIP3    H229000   2.682   6.379  15.925 -0.5457  2.0352 -1.5410
 2529TIP3   OH229001   5.639   1.078   5.877 -0.4071  0.0529  0.1349
 2529TIP3    H129002   5.732   1.060   5.870 -0.1584  1.0686  0.6271
 2529TIP3    H229003   5.596   0.995   5.856  0.6519 -0.9207  1.6460
 2530TIP3   OH229004   5.746   3.937   3.520  0.1772 -0.4781 -0.0135
 2530TIP3    H129005   5.821   3.966   3.572 -0.6659 -0.4923  1.2544
 2530TIP3    H229006   5.692   4.016   3.509 -0.0302 -0.6445 -0.2102
 2531TIP3   OH229007   0.155   3.657   1.295 -0.2023 -0.2028  0.1260
 2531TIP3    H129008   0.159   3.657   1.199  0.8091 -1.3926  0.1422
 2531TIP3    H229009   0.134   3.748   1.317  0.0533  0.2125 -1.2083
 2532TIP3   OH229010   4.084   2.447   1.045 -0.0829  0.5271  0.0857
 2532TIP3    H129011   4.002   2.487   1.075 -1.3615  0.9768 -3.5568
 2532TIP3    H229012   4.061   2.356   1.026 -0.0974  0.9202 -1.9599
 2533TIP3   OH229013   3.246   5.719  13.325  0.0343  0.4430  0.3323
 2533TIP3    H129014   3.260   5.624  13.336  1.0503  0.5817  0.3486
 2533TIP3    H229015   3.245   5.732  13.230  0.7723  0.5235  0.3283
 2534TIP3   OH229016   0.464   4.138  11.470 -0.6745  0.4334 -0.1547
 2534TIP3    H129017   0.466   4.157  11.377 -1.0616 -0.8557 -0.4527
 2534TIP3    H229018   0.546   4.172  11.504 -0.4432  0.7365 -1.0095
 2535TIP3   OH229019   1.756   1.643  13.389  0.0146 -0.0747  0.0084
 2535TIP3    H129020   1.675   1.692  13.400  0.3569  0.2107  1.6386
 2535TIP3    H229021   1.731   1.551  13.397 -0.2634 -0.0334 -0.3859
 2536TIP3   OH229022   5.193   0.255  14.356 -0.9573  0.4337 -0.1285
 2536TIP3    H129023   5.160   0.313  14.424 -1.3937  1.4392 -1.1641
 2536TIP3    H229024   5.130   0.183  14.352 -0.8810  0.3260  0.5829
 2537TIP3   OH229025   1.693   6.331  16.599  0.3859 -0.0514 -0.1953
 2537TIP3    H129026   1.618   6.306  16.545 -0.1805 -1.7602  1.2566
 2537TIP3    H229027   1.663   6.408  16.647 -1.6404 -2.2782  2.4536
 2538TIP3   OH229028   2.987   3.942  14.575 -0.3876  0.3195  0.2062
 2538TIP3    H129029   2.912   4.000  14.571  0.9992  2.1674 -0.2282
 2538TIP3    H229030   3.036   3.960  14.495  1.1529  0.0772  1.0520
 2539TIP3   OH229031   0.038   1.735  17.078  0.0795 -0.0915 -0.0919
 2539TIP3    H129032  -0.034   1.795  17.060 -0.7508 -1.2911 -0.9217
 2539TIP3    H229033   0.054   1.746  17.172 -2.4131 -1.0412  0.5397
 2540TIP3   OH229034   4.220   2.041  10.402 -0.3328  0.6005 -0.3463
 2540TIP3    H129035   4.151   2.081  10.455 -1.5653 -2.4249  0.5510
 2540TIP3    H229036   4.284   2.010  10.466  0.6391  1.1733 -1.0129
 2541TIP3   OH229037   2.407   3.446  16.010 -0.8012 -0.5402 -0.3280
 2541TIP3    H129038   2.466   3.495  16.067 -1.0575 -1.4885  0.7844
 2541TIP3    H229039   2.347   3.512  15.975  1.7285  0.7223 -2.6685
 2542TIP3   OH229040   4.107   0.520   2.701  0.0293 -0.0302  0.0927
 2542TIP3    H129041   4.160   0.596   2.727  0.7955 -1.1823  2.1114
 2542TIP3    H229042   4.170   0.458   2.665 -0.5653  0.1639 -1.3381
 2543TIP3   OH229043   3.259   0.700  15.602 -0.2184 -0.7695  0.1667
 2543TIP3    H129044   3.350   0.693  15.631 -0.5840  1.6431  2.2612
 2543TIP3    H229045   3.255   0.785  15.558 -1.6535 -0.2685  1.1878
 2544TIP3   OH229046   4.924   1.469  12.219 -0.3133  0.0918 -0.4109
 2544TIP3    H129047   4.966   1.484  12.134  0.6909  0.0662  0.0659
 2544TIP3    H229048   4.997   1.461  12.281 -1.0405  2.3770  0.8432
 2545TIP3   OH229049   3.741   0.039   5.105  0.2131 -0.2203  0.0910
 2545TIP3    H129050   3.736   0.094   5.027 -0.2851  0.8507  0.8532
 2545TIP3    H229051   3.786   0.093   5.170  1.6470 -1.5030  0.2374
 2546TIP3   OH229052   1.724   1.245  12.050 -0.4842  0.9260 -0.4776
 2546TIP3    H129053   1.714   1.155  12.020  1.0649  0.8732 -0.9365
 2546TIP3    H229054   1.817   1.264  12.039  0.6979  0.4941  5.4741
 2547TIP3   OH229055   0.295   3.780  17.007  0.1181  0.3888 -0.9493
 2547TIP3    H129056   0.248   3.863  17.014  1.5372  1.4604 -3.0757
 2547TIP3    H229057   0.330   3.779  16.918  1.8657 -1.5622 -0.3306
 2548TIP3   OH229058   3.970   1.843   1.652 -0.4925 -0.0099  0.2498
 2548TIP3    H129059   3.972   1.792   1.571 -0.3225 -2.5111  1.7415
 2548TIP3    H229060   4.031   1.797   1.710  0.4197  2.4862  1.4129
 2549TIP3   OH229061   1.565   4.182  13.105 -0.0750 -0.3679  0.0560
 2549TIP3    H129062   1.617   4.103  13.088 -0.3905 -0.5276 -0.1956
 2549TIP3    H229063   1.504   4.156  13.174  0.6544  0.0354  0.8639
 2550TIP3   OH229064   4.475   1.794  15.347  0.0221  0.0504 -0.2113
 2550TIP3    H129065   4.449   1.710  15.309  0.1596 -0.7872  1.4420
 2550TIP3    H229066   4.532   1.771  15.420 -1.6600  1.4354  1.6793
 2551TIP3   OH229067   1.474   3.551  15.403 -0.9086  0.8928  0.7231
 2551TIP3    H129068   1.554   3.593  15.372 -0.7738  0.1296 -0.0359
 2551TIP3    H229069   1.403   3.606  15.370 -0.7238  0.7918  0.1399
 2552TIP3   OH229070   2.556   4.222  14.355  0.1716 -0.2600 -0.0701
 2552TIP3    H129071   2.514   4.202  14.271  0.1552 -1.9034  0.2838
 2552TIP3    H229072   2.486   4.257  14.410 -0.3158 -1.1670 -0.0916
 2553TIP3   OH229073   1.611   2.072  16.160  0.1496 -0.4351  0.1632
 2553TIP3    H129074   1.699   2.068  16.198  0.4159  0.2293 -0.3631
 2553TIP3    H229075   1.596   1.984  16.126  0.5390 -0.6007  0.4125
 2554TIP3   OH229076   4.445   5.885  15.874  0.1901  0.1808 -0.1194
 2554TIP3    H129077   4.540   5.876  15.876  0.3196  1.4276  0.3796
 2554TIP3    H229078   4.422   5.915  15.961 -0.5710  0.6393 -0.4689
 2555TIP3   OH229079   1.110   3.571   0.879  0.6413 -0.0578 -0.5313
 2555TIP3    H129080   1.094   3.487   0.836  0.5973  0.3155 -1.2478
 2555TIP3    H229081   1.068   3.561   0.965 -0.8163 -0.1838 -1.2232
 2556TIP3   OH229082   0.840   6.414  10.076 -0.1515  0.7428 -0.1130
 2556TIP3    H129083   0.835   6.489  10.137  0.9059  0.4283  0.3766
 2556TIP3    H229084   0.931   6.413  10.047 -0.0511 -0.6059  0.2113
 2557TIP3   OH229085   3.469   6.517  13.378 -0.0845  0.7674 -0.7755
 2557TIP3    H129086   3.404   6.495  13.444  1.5841 -1.1242  0.3526
 2557TIP3    H229087   3.430   6.490  13.295 -0.6411 -0.5633 -0.0999
 2558TIP3   OH229088   1.916   3.002   4.211  0.6961  0.0673 -0.1271
 2558TIP3    H129089   1.971   3.066   4.168  0.4840 -0.1429 -0.7262
 2558TIP3    H229090   1.906   3.034   4.301 -1.2030  2.0693 -0.9503
 2559TIP3   OH229091   2.326   4.583   0.734  0.1380 -0.1380  0.3499
 2559TIP3    H129092   2.258   4.558   0.796 -0.9086  2.0337  0.1827
 2559TIP3    H229093   2.305   4.537   0.653 -1.2430  0.5749  0.2770
 2560TIP3   OH229094   0.044   6.230   6.415  0.1943  0.0368 -0.1937
 2560TIP3    H129095  -0.023   6.256   6.352 -1.0625 -1.6842  0.3271
 2560TIP3    H229096   0.042   6.299   6.482  0.3584  1.0115 -1.1772
 2561TIP3   OH229097   2.845   5.786   1.275 -0.6415  0.5126  0.5474
 2561TIP3    H129098   2.897   5.748   1.346  2.4060  1.9251 -0.7607
 2561TIP3    H229099   2.854   5.880   1.285 -2.8593  0.8227  0.1095
 2562TIP3   OH229100   3.852   3.629   0.314 -0.1313  0.1312 -0.1431
 2562TIP3    H129101   3.839   3.684   0.236 -0.4912 -0.8744 -0.8192
 2562TIP3    H229102   3.816   3.544   0.289  0.3943 -0.4106  0.8894
 2563TIP3   OH229103   3.239   0.703  11.765 -0.8656  0.7273 -0.5783
 2563TIP3    H129104   3.298   0.746  11.827  0.5273  0.4614 -1.6632
 2563TIP3    H229105   3.292   0.635  11.725 -2.5709 -1.0426 -0.0138
 2564TIP3   OH229106   0.174   4.207   3.715  0.1851 -0.2442  0.0396
 2564TIP3    H129107   0.168   4.224   3.621 -1.8122  1.4637  0.3928
 2564TIP3    H229108   0.163   4.112   3.724 -1.6798 -0.2102 -1.3643
 2565TIP3   OH229109   6.683   0.489   2.501  0.2087  0.2759  0.1703
 2565TIP3    H129110   6.607   0.534   2.463  0.0551 -0.7526 -0.7760
 2565TIP3    H229111   6.732   0.457   2.425 -0.1408 -1.9025  0.7929
 2566TIP3   OH229112   0.438   0.184  13.782 -0.0017 -0.2227 -0.3074
 2566TIP3    H129113   0.405   0.241  13.852  1.0982 -0.0021  0.0663
 2566TIP3    H229114   0.401   0.098  13.801 -1.7175  0.3517 -0.8998
 2567TIP3   OH229115   0.783   0.011  11.918 -0.2327 -0.0953  0.1631
 2567TIP3    H129116   0.812  -0.042  11.844  0.5103 -0.5650  0.7788
 2567TIP3    H229117   0.733  -0.048  11.972  1.0089 -0.3328  1.1002
 2568TIP3   OH229118   3.215   4.658   3.874 -0.0464 -0.0546 -0.3200
 2568TIP3    H129119   3.132   4.612   3.862 -0.2983 -0.1069  1.4531
 2568TIP3    H229120   3.192   4.751   3.871 -0.2948 -0.0659  0.7914
 2569TIP3   OH229121   0.549   2.228   0.380  0.6285 -0.5157 -0.1852
 2569TIP3    H129122   0.601   2.294   0.334 -1.0087  1.4462  0.6876
 2569TIP3    H229123   0.584   2.227   0.469 -0.1371  0.0942  0.1339
 2570TIP3   OH229124   1.378   0.681   3.312 -0.3895  0.1062  0.0639
 2570TIP3    H129125   1.472   0.698   3.317  0.0283 -2.1161  0.9565
 2570TIP3    H229126   1.371   0.597   3.266 -1.8724 -0.1774  0.7304
 2571TIP3   OH229127   4.136   3.739  16.695  0.3878 -0.5108  0.4660
 2571TIP3    H129128   4.071   3.670  16.709 -1.1180  0.1852 -2.1935
 2571TIP3    H229129   4.130   3.758  16.601  2.0562  1.9632  0.7622
 2572TIP3   OH229130   2.613   6.622  12.297  0.1847  0.3904 -0.3123
 2572TIP3    H129131   2.538   6.568  12.323  0.0218  0.5152 -0.5292
 2572TIP3    H229132   2.614   6.693  12.361 -0.3164  0.7883 -0.7336
 2573TIP3   OH229133   5.251   6.255  15.001 -0.1116 -0.0278 -0.0447
 2573TIP3    H129134   5.328   6.221  14.955  0.0094  0.0251  0.1190
 2573TIP3    H229135   5.253   6.212  15.087  0.0022  0.3349  0.1365
 2574TIP3   OH229136   3.520   6.080   2.345 -0.6159 -0.2954  0.6750
 2574TIP3    H129137   3.512   6.168   2.382  2.4402 -0.2276  1.4470
 2574TIP3    H229138   3.563   6.029   2.414  0.0813 -1.6693 -0.7134
 2575TIP3   OH229139   1.774   3.787  15.116 -0.1373 -0.5113  0.1483
 2575TIP3    H129140   1.759   3.809  15.208  1.3324  1.7022 -0.0704
 2575TIP3    H229141   1.865   3.811  15.100 -0.7072  0.3226 -2.1916
 2576TIP3   OH229142   2.110   6.146   5.630 -0.1814  0.1690  0.5331
 2576TIP3    H129143   2.185   6.086   5.634 -0.6161 -0.6617 -1.8154
 2576TIP3    H229144   2.133   6.218   5.688  0.6616 -1.9252  2.9380
 2577TIP3   OH229145   0.088   5.172   0.670 -0.5281 -0.4963  0.7184
 2577TIP3    H129146   0.049   5.209   0.750  0.6765  0.6665  0.7879
 2577TIP3    H229147   0.029   5.099   0.647 -1.8540  0.2197  1.6846
 2578TIP3   OH229148   6.083   2.885   4.961  0.5315  0.1129  0.8257
 2578TIP3    H129149   5.990   2.904   4.964  0.0403 -1.6978 -0.8661
 2578TIP3    H229150   6.100   2.831   5.038 -0.3381 -1.4365 -0.0304
 2579TIP3   OH229151   5.986   4.849  14.844 -0.5407 -0.1635  0.3704
 2579TIP3    H129152   5.948   4.936  14.860  0.5785  0.2804  0.7495
 2579TIP3    H229153   6.080   4.861  14.860 -0.3114 -1.3507  0.0139
 2580TIP3   OH229154   5.999   0.631  14.625 -0.0880 -0.2963 -0.2055
 2580TIP3    H129155   5.986   0.673  14.540 -1.0203  1.5402  0.7794
 2580TIP3    H229156   6.094   0.639  14.641  0.2262 -1.3644 -1.3792
 2581TIP3   OH229157   4.453   1.725   6.018 -0.2793  0.0203 -0.6441
 2581TIP3    H129158   4.461   1.682   6.103  0.8151  1.2871 -0.0725
 2581TIP3    H229159   4.528   1.785   6.015 -2.1444  2.4341 -1.0727
 2582TIP3   OH229160   5.515   6.309   1.420 -0.4603 -0.8455 -0.2695
 2582TIP3    H129161   5.605   6.320   1.389 -1.0963  0.0737 -1.9036
 2582TIP3    H229162   5.488   6.223   1.387 -0.3701 -0.8800 -0.2524
 2583TIP3   OH229163   5.639   6.378  15.770 -0.1687 -0.7334 -0.3178
 2583TIP3    H129164   5.556   6.347  15.733 -0.1988 -2.5846  1.1265
 2583TIP3    H229165   5.621   6.386  15.864  0.9060  0.2247 -0.1785
 2584TIP3   OH229166   0.920   5.220   5.255  0.0761 -0.1994  1.0157
 2584TIP3    H129167   1.010   5.204   5.225 -0.4076 -1.7703  0.3126
 2584TIP3    H229168   0.918   5.314   5.273  1.7568 -0.0632  0.7161
 2585TIP3   OH229169   1.698   4.154  16.916 -0.0260 -0.1819  0.3757
 2585TIP3    H129170   1.613   4.198  16.909 -0.6042 -1.4484 -2.2996
 2585TIP3    H229171   1.762   4.224  16.923 -0.9539  1.1966 -3.0334
 2586TIP3   OH229172   4.802   2.488   3.599 -0.4254  0.1902 -0.3545
 2586TIP3    H129173   4.853   2.447   3.529  1.3029  0.2430  0.8272
 2586TIP3    H229174   4.862   2.550   3.640 -1.9276  1.3994  0.1162
 2587TIP3   OH229175   0.495   2.692   5.779 -0.4019  0.4158  0.3051
 2587TIP3    H129176   0.533   2.609   5.809  1.2677  1.0997  0.1911
 2587TIP3    H229177   0.494   2.747   5.857 -0.0128  0.7995  0.0447
 2588TIP3   OH229178   4.852   4.574  14.712 -0.2301 -0.3127  0.4589
 2588TIP3    H129179   4.801   4.520  14.773 -1.5667 -0.1673 -0.4850
 2588TIP3    H229180   4.799   4.653  14.701  0.7136  0.3066  0.2278
 2589TIP3   OH229181   6.556   0.352   4.192 -0.5201  0.3203  0.1951
 2589TIP3    H129182   6.621   0.345   4.263 -0.6833  1.6816  0.5084
 2589TIP3    H229183   6.603   0.323   4.114  0.0043 -0.1385  0.6659
 2590TIP3   OH229184   6.765   3.293   2.641  0.5512  0.2881 -0.7734
 2590TIP3    H129185   6.758   3.345   2.561 -2.7915  0.3922 -0.5489
 2590TIP3    H229186   6.780   3.357   2.710 -2.0839  0.9101 -0.6892
 2591TIP3   OH229187   4.340   4.242  16.192  0.1355  0.2596 -0.8066
 2591TIP3    H129188   4.410   4.241  16.127 -0.2508  0.7566 -1.2352
 2591TIP3    H229189   4.385   4.262  16.275  0.8389 -1.8764 -0.6306
 2592TIP3   OH229190   1.527   6.594   0.003 -0.6372  0.5337 -0.2209
 2592TIP3    H129191   1.477   6.642   0.069  0.4218  1.2479  0.0798
 2592TIP3    H229192   1.529   6.504   0.035 -1.9971  0.4043 -0.4088
 2593TIP3   OH229193   3.547   6.341  12.586  0.0272  0.2234  0.4913
 2593TIP3    H129194   3.550   6.437  12.585  1.2090  0.3025 -3.2786
 2593TIP3    H229195   3.454   6.320  12.589 -0.4833  1.6723 -2.0419
 2594TIP3   OH229196   0.904   2.980   0.398  0.1169  0.0988 -0.4192
 2594TIP3    H129197   0.829   3.033   0.372 -0.2381 -1.1053 -1.9960
 2594TIP3    H229198   0.886   2.955   0.488  0.4188  2.8056  0.4574
 2595TIP3   OH229199   2.637   3.035   4.866 -0.2476  0.1629  0.2885
 2595TIP3    H129200   2.711   2.978   4.849 -0.2578  0.1288  0.3571
 2595TIP3    H229201   2.564   2.975   4.885  0.0387  0.2065  1.5915
 2596TIP3   OH229202   2.022   6.657   2.245 -0.2991 -0.0926  0.1605
 2596TIP3    H129203   2.071   6.590   2.291 -0.4006 -0.8393 -0.7901
 2596TIP3    H229204   2.077   6.736   2.250  0.8585 -0.8235 -0.6121
 2597TIP3   OH229205   4.180   4.171  15.986 -0.5716  0.1252 -0.1735
 2597TIP3    H129206   4.219   4.197  16.070  0.7894 -0.2290 -0.6621
 2597TIP3    H229207   4.206   4.240  15.925  0.1082 -0.5788 -0.7059
 2598TIP3   OH229208   3.713   0.503   1.643  0.3840  0.4023 -0.3109
 2598TIP3    H129209   3.677   0.537   1.561 -0.2379 -1.0887 -0.6964
 2598TIP3    H229210   3.638   0.491   1.700  0.4301 -1.1848 -0.5366
 2599TIP3   OH229211   3.034   0.737   1.605  0.4352 -0.4618  0.3449
 2599TIP3    H129212   2.963   0.754   1.543 -0.0703  1.5397  1.3894
 2599TIP3    H229213   2.996   0.679   1.671 -0.1168  0.2540  0.6653
 2600TIP3   OH229214   6.782   2.023   6.473  0.5560 -0.0892  0.6258
 2600TIP3    H129215   6.732   2.100   6.448  0.0909  0.3592  2.7506
 2600TIP3    H229216   6.741   1.992   6.554  0.2631 -3.0357 -0.5113
 2601TIP3   OH229217   0.821   3.874   1.861 -0.2129  1.2022  0.9311
 2601TIP3    H129218   0.753   3.934   1.831  0.8527  2.5010  0.9612
 2601TIP3    H229219   0.895   3.892   1.803  0.2166  0.0872  1.1228
 2602TIP3   OH229220   6.283   6.783   3.433  0.1780  0.3485  0.1884
 2602TIP3    H129221   6.339   6.756   3.360 -1.2401 -1.7314 -0.2150
 2602TIP3    H229222   6.307   6.724   3.504 -0.2283  0.6792  0.6010
 2603TIP3   OH229223   0.957   2.403  14.681  0.4439 -0.3489  0.2805
 2603TIP3    H129224   0.888   2.393  14.747  1.7306 -0.7517  1.6073
 2603TIP3    H229225   0.949   2.494  14.653 -0.0583 -0.1323  1.0849
 2604TIP3   OH229226   1.362   0.181   6.826 -0.1070  0.1349  0.9962
 2604TIP3    H129227   1.338   0.255   6.882  0.2668 -0.4328  1.9138
 2604TIP3    H229228   1.298   0.184   6.755  0.3516  1.7923  0.6026
 2605TIP3   OH229229   5.264   6.630  16.235  0.2718  0.3172  0.2963
 2605TIP3    H129230   5.325   6.688  16.191 -0.5020  0.5786 -0.4591
 2605TIP3    H229231   5.212   6.688  16.291 -0.5135  0.3798 -0.4729
 2606TIP3   OH229232   4.279   1.754  17.025 -0.0438 -0.4166  0.1601
 2606TIP3    H129233   4.257   1.663  17.043 -0.3961 -0.1809  0.9233
 2606TIP3    H229234   4.229   1.776  16.946  0.0257 -0.8701 -0.0134
 2607TIP3   OH229235   0.838   6.145  12.236 -0.1031  0.2882  0.0381
 2607TIP3    H129236   0.772   6.101  12.182 -1.0574 -0.3126  1.6304
 2607TIP3    H229237   0.836   6.236  12.207 -0.5724 -0.0260 -0.9405
 2608TIP3   OH229238   5.408   0.333  15.744 -0.3170 -0.4531 -0.5726
 2608TIP3    H129239   5.497   0.349  15.776 -0.0675  0.2835 -1.5780
 2608TIP3    H229240   5.364   0.417  15.753 -0.4741 -0.4398 -1.3921
 2609TIP3   OH229241   4.952   3.182   6.171  0.3207 -0.4241 -0.2513
 2609TIP3    H129242   5.002   3.151   6.246 -0.3420  0.3316  0.5344
 2609TIP3    H229243   4.960   3.278   6.175  0.1984 -0.3705 -1.0880
 2610TIP3   OH229244   4.783   6.442   4.606  0.3080 -0.0648 -0.4850
 2610TIP3    H129245   4.867   6.407   4.576  1.4107  1.2565  0.9437
 2610TIP3    H229246   4.752   6.379   4.670  0.6021 -0.1590 -0.4343
 2611TIP3   OH229247   2.897   2.200   3.043  0.2893 -0.4454  0.5393
 2611TIP3    H129248   2.818   2.161   3.081  0.5210 -0.8211  0.6390
 2611TIP3    H229249   2.945   2.126   3.007  0.2528 -0.1371 -0.1637
 2612TIP3   OH229250   0.675   0.475  12.331 -0.0808 -0.1230  0.7266
 2612TIP3    H129251   0.624   0.409  12.284  0.4770 -0.4853  0.6309
 2612TIP3    H229252   0.656   0.458  12.424 -0.4934  0.0361  0.6724
 2613TIP3   OH229253   3.267   0.090   5.612  0.2688 -0.9950 -0.5185
 2613TIP3    H129254   3.249   0.152   5.541 -0.3147  0.2879  0.6845
 2613TIP3    H229255   3.361   0.074   5.606  0.6781  0.9277 -0.2311
 2614TIP3   OH229256   4.199   0.629   4.818 -0.4370 -0.3056 -0.4870
 2614TIP3    H129257   4.144   0.588   4.884  1.6306 -1.4355  0.6182
 2614TIP3    H229258   4.144   0.633   4.740 -2.1810 -1.0340  0.6536
 2615TIP3   OH229259   4.566   0.199  13.094 -0.3555 -0.6115  0.7004
 2615TIP3    H129260   4.522   0.194  13.179  0.3748 -2.3665  1.0042
 2615TIP3    H229261   4.612   0.116  13.085  2.7336  0.9522  0.3036
 2616TIP3   OH229262   2.869   6.280   2.744  0.1420 -0.6299  0.2313
 2616TIP3    H129263   2.806   6.324   2.801  1.1250  0.8842  0.1903
 2616TIP3    H229264   2.815   6.227   2.686 -1.2293  1.4538 -0.5122
 2617TIP3   OH229265   4.931   0.439   6.577  0.3565  0.2793  0.3342
 2617TIP3    H129266   4.851   0.481   6.610  1.7291  0.6680  3.4880
 2617TIP3    H229267   4.904   0.348   6.563 -1.2032  0.8940 -1.0003
 2618TIP3   OH229268   4.612   2.471   3.385 -0.0463 -0.5520  0.6532
 2618TIP3    H129269   4.617   2.542   3.321 -1.4008  0.1846  1.3057
 2618TIP3    H229270   4.658   2.504   3.461  1.0161 -1.1750  0.2925
 2619TIP3   OH229271   0.297   6.280  14.513  0.4485  0.1635 -0.0140
 2619TIP3    H129272   0.366   6.232  14.559  1.4374  2.6560  1.3098
 2619TIP3    H229273   0.300   6.247  14.423  3.0130 -0.1976  0.1271
 2620TIP3   OH229274   5.998   1.611  13.174 -0.5762  0.0702 -0.4039
 2620TIP3    H129275   6.069   1.667  13.206  0.6902 -2.6401  2.0086
 2620TIP3    H229276   5.924   1.632  13.231 -0.9074  0.9904 -1.1488
 2621TIP3   OH229277   5.609   1.245   0.996 -0.3739  0.4421  0.1979
 2621TIP3    H129278   5.656   1.313   0.949 -1.6332  1.5276  0.4573
 2621TIP3    H229279   5.517   1.273   0.995 -1.1327 -1.8590 -0.7289
 2622TIP3   OH229280   3.269   4.906  14.494  0.6349 -0.7801 -0.1706
 2622TIP3    H129281   3.330   4.980  14.488 -1.3883  0.9256 -0.8410
 2622TIP3    H229282   3.289   4.853  14.417  0.4927  0.4287 -1.0740
 2623TIP3   OH229283   1.736   2.087  13.745 -0.4584  0.2906 -0.1446
 2623TIP3    H129284   1.727   2.104  13.651 -0.0535 -1.3061 -0.4996
 2623TIP3    H229285   1.695   2.001  13.757 -2.1467  1.2599  1.4768
 2624TIP3   OH229286   4.047   1.689   3.276 -0.1241 -0.1684  0.4304
 2624TIP3    H129287   4.081   1.727   3.195 -1.2631 -0.3964 -0.1785
 2624TIP3    H229288   4.011   1.604   3.249 -0.2986 -0.3497  1.2146
 2625TIP3   OH229289   6.358   2.312  16.950 -0.0395 -0.5819  0.2801
 2625TIP3    H129290   6.370   2.250  17.022 -1.3067 -1.0091  0.1507
 2625TIP3    H229291   6.263   2.316  16.938  0.1058  0.2622 -0.7007
 2626TIP3   OH229292   2.261   2.884   3.898 -0.8259  0.0839 -0.3313
 2626TIP3    H129293   2.249   2.977   3.879 -2.1933  0.4921  2.1180
 2626TIP3    H229294   2.326   2.854   3.834  0.4148  2.9368 -0.5189
 2627TIP3   OH229295   4.835   1.166  16.420  0.4754 -0.1833  1.0287
 2627TIP3    H129296   4.887   1.238  16.456  1.6010 -0.6900  0.4595
 2627TIP3    H229297   4.874   1.087  16.456 -0.0821 -0.5676  0.8083
 2628TIP3   OH229298   2.668   1.598   2.031 -0.6466 -0.0953  0.9485
 2628TIP3    H129299   2.616   1.593   2.112 -0.7691  1.2740  0.9706
 2628TIP3    H229300   2.708   1.685   2.033  0.1131 -0.4055 -0.0135
 2629TIP3   OH229301   0.255   6.631   1.243 -0.3369  0.0588 -0.5801
 2629TIP3    H129302   0.336   6.680   1.250  0.4151 -1.1594 -0.4302
 2629TIP3    H229303   0.224   6.622   1.333  0.6234 -1.4708 -0.3653
 2630TIP3   OH229304   1.880   5.659   3.581 -0.6129  0.4391  0.0603
 2630TIP3    H129305   1.953   5.661   3.642 -1.1184  0.9162  0.6710
 2630TIP3    H229306   1.860   5.751   3.563 -1.4190  0.3357  0.3574
 2631TIP3   OH229307   3.403   1.619   4.163  0.2784  0.5634 -0.2866
 2631TIP3    H129308   3.369   1.695   4.116  2.5129  0.1422 -2.8282
 2631TIP3    H229309   3.492   1.644   4.188  0.9901 -1.0789 -0.9905
 2632TIP3   OH229310   1.135   6.539  13.290  0.0356 -0.1339 -0.6041
 2632TIP3    H129311   1.060   6.516  13.345 -1.0405 -0.0934 -1.9765
 2632TIP3    H229312   1.211   6.515  13.341 -0.9225 -0.3282  0.7825
 2633TIP3   OH229313   0.566   3.398   3.308 -0.4857 -0.0279 -0.4196
 2633TIP3    H129314   0.490   3.357   3.350  0.0589 -1.3404 -0.6617
 2633TIP3    H229315   0.537   3.486   3.287 -1.2634  0.1843  1.3550
 2634TIP3   OH229316   0.743   2.841  14.035 -0.8311  0.2135 -0.3231
 2634TIP3    H129317   0.726   2.855  14.128 -1.0898 -0.7088 -0.2213
 2634TIP3    H229318   0.761   2.747  14.028  0.6277  0.5229 -0.9861
 2635TIP3   OH229319   6.775   6.176   1.555 -0.2704 -0.3690  0.1071
 2635TIP3    H129320   6.714   6.246   1.578 -0.2083 -0.8258  1.8059
 2635TIP3    H229321   6.849   6.189   1.614 -0.3601 -1.9770  0.6107
 2636TIP3   OH229322   5.880   2.125  13.696  1.2980 -0.2145  0.5709
 2636TIP3    H129323   5.849   2.118  13.605  1.1358  0.4668  0.5725
 2636TIP3    H229324   5.882   2.219  13.714 -0.7190 -0.3834  1.9666
 2637TIP3   OH229325   4.846   6.434  12.033  0.5493 -0.5015 -0.4120
 2637TIP3    H129326   4.777   6.481  12.081  0.9862  0.5226 -0.7694
 2637TIP3    H229327   4.817   6.436  11.942  0.6435 -0.8068 -0.4489
 2638TIP3   OH229328   2.387   3.385  14.613  0.0725 -0.3547 -0.0529
 2638TIP3    H129329   2.453   3.451  14.633  1.2258 -1.7269  0.8557
 2638TIP3    H229330   2.437   3.310  14.579 -1.0038 -1.3570  0.4849
 2639TIP3   OH229331   5.739   6.653   5.929 -0.0993 -0.4335 -0.2197
 2639TIP3    H129332   5.697   6.666   5.845  0.9975  0.7771 -0.6115
 2639TIP3    H229333   5.683   6.590   5.975 -1.8679  0.4925 -1.0083
 2640TIP3   OH229334   5.438   1.057  12.949 -0.1893  0.0638  0.0578
 2640TIP3    H129335   5.528   1.086  12.941  0.1204 -0.9713 -0.3502
 2640TIP3    H229336   5.442   0.982  13.009 -0.4495 -1.3249 -1.5830
 2641TIP3   OH229337   3.359   0.071   4.368  0.4571  0.1369 -0.8893
 2641TIP3    H129338   3.285   0.064   4.307 -1.3837 -0.2490  1.2438
 2641TIP3    H229339   3.402   0.153   4.345 -3.2620  2.7357  0.4250
 2642TIP3   OH229340   5.423   1.830   0.360  0.5472  0.2782 -0.1007
 2642TIP3    H129341   5.361   1.760   0.379 -1.2850  1.9640  0.4458
 2642TIP3    H229342   5.409   1.850   0.267 -0.1542  1.0108  0.1487
 2643TIP3   OH229343   1.237   1.469  15.805  0.4274  0.2847  0.1528
 2643TIP3    H129344   1.156   1.427  15.834  0.3906 -1.2472 -1.9106
 2643TIP3    H229345   1.299   1.455  15.876 -0.2404 -1.3414  0.4496
 2644TIP3   OH229346   0.601   2.631   0.397  0.3648 -0.2285 -0.2354
 2644TIP3    H129347   0.519   2.651   0.351 -0.8525 -1.0890  1.4469
 2644TIP3    H229348   0.661   2.603   0.328 -0.4546  1.2715 -1.6190
 2645TIP3   OH229349   6.294   3.216  12.890  0.3407  0.0183 -0.4617
 2645TIP3    H129350   6.302   3.264  12.808  0.0714 -0.7374 -0.9364
 2645TIP3    H229351   6.329   3.129  12.871 -1.1510 -0.6663 -0.2188
 2646TIP3   OH229352   3.549   1.097   0.227 -0.1148 -0.2572  0.8287
 2646TIP3    H129353   3.511   1.183   0.244 -0.1313  0.4606 -2.2492
 2646TIP3    H229354   3.629   1.115   0.178 -1.0465 -1.9136 -1.5214
 2647TIP3   OH229355   1.464   3.534  13.266 -0.6311 -0.2634  0.4254
 2647TIP3    H129356   1.466   3.456  13.322 -4.1846 -0.7444  0.1131
 2647TIP3    H229357   1.535   3.520  13.203  1.3962 -1.2453  2.7650
 2648TIP3   OH229358   0.224   0.512  16.250  0.2252  0.0735  0.1346
 2648TIP3    H129359   0.211   0.541  16.340  0.5594  1.2136 -0.1694
 2648TIP3    H229360   0.212   0.417  16.253  1.1264 -0.0173  1.5447
 2649TIP3   OH229361   4.766   1.239   5.688 -0.6660 -0.4536 -0.5249
 2649TIP3    H129362   4.797   1.284   5.610 -0.9878  0.2921 -0.2342
 2649TIP3    H229363   4.733   1.309   5.745 -2.3358 -1.1443 -0.5857
 2650TIP3   OH229364   6.676   3.663  14.655 -0.2455  0.0192  0.3987
 2650TIP3    H129365   6.585   3.642  14.635  0.0540 -0.8143 -0.1337
 2650TIP3    H229366   6.722   3.579  14.647  0.9120  0.7710 -1.2675
 2651TIP3   OH229367   4.234   3.358   5.669  0.0975 -0.2227  0.0456
 2651TIP3    H129368   4.234   3.415   5.746 -0.3827 -0.6966  0.4095
 2651TIP3    H229369   4.162   3.390   5.615  1.9599  1.6842 -1.4377
 2652TIP3   OH229370   5.217   1.511   0.730  0.5524  0.6520  0.4180
 2652TIP3    H129371   5.251   1.525   0.818 -1.6438  0.1181  1.4289
 2652TIP3    H229372   5.228   1.417   0.715 -0.6720  0.4141  0.8862
 2653TIP3   OH229373   0.258   4.031  11.972 -0.4476 -0.4444 -0.2062
 2653TIP3    H129374   0.220   4.119  11.966 -1.3264 -0.7782  0.2466
 2653TIP3    H229375   0.350   4.043  11.946 -0.6834  0.5071 -0.6673
 2654TIP3   OH229376   6.305   4.801  14.961 -0.0697  0.1220  0.8532
 2654TIP3    H129377   6.373   4.784  15.027  1.7468  1.3496 -0.6001
 2654TIP3    H229378   6.323   4.738  14.891 -0.9022 -0.0260  0.7638
 2655TIP3   OH229379   6.230   0.157   1.190 -0.1008  0.3520 -0.0104
 2655TIP3    H129380   6.284   0.229   1.223 -0.5233  0.7793 -0.2318
 2655TIP3    H229381   6.198   0.113   1.268  1.3367 -0.5108  0.1333
 2656TIP3   OH229382   1.021   5.948   1.804  0.3190 -0.2857  0.3606
 2656TIP3    H129383   0.967   5.876   1.836  0.8092 -1.5329 -1.4616
 2656TIP3    H229384   1.091   5.957   1.869 -1.7140  1.0816  2.5432
 2657TIP3   OH229385   6.144   4.180  13.973 -0.0889  0.0498  0.4143
 2657TIP3    H129386   6.128   4.087  13.955  0.8628 -0.0001 -0.2193
 2657TIP3    H229387   6.111   4.192  14.062  0.4303 -1.0682  0.7810
 2658TIP3   OH229388   1.775   4.971   6.144 -0.5402 -0.0759 -0.5747
 2658TIP3    H129389   1.854   4.971   6.089  0.3088 -0.1285  0.6027
 2658TIP3    H229390   1.768   4.882   6.177 -0.2314  0.2820  0.4982
 2659TIP3   OH229391   3.684   6.263   2.122  0.7018 -0.5078  0.4635
 2659TIP3    H129392   3.714   6.197   2.059  1.3546  1.1781 -1.1045
 2659TIP3    H229393   3.661   6.214   2.200  1.1956 -2.5693 -0.6247
 2660TIP3   OH229394   6.463   0.402   2.161  1.0889 -0.1584  0.3585
 2660TIP3    H129395   6.472   0.380   2.068 -0.4580  0.3527  0.0589
 2660TIP3    H229396   6.525   0.345   2.205  1.4736 -0.7938 -0.9440
 2661TIP3   OH229397   3.588   4.369   5.437 -0.1584 -0.5503 -0.1351
 2661TIP3    H129398   3.605   4.281   5.469  2.7234 -0.2765 -0.6029
 2661TIP3    H229399   3.541   4.412   5.509  1.2884 -1.5326  1.4759
 2662TIP3   OH229400   1.491   3.320   3.428  0.3067 -0.1932  0.3121
 2662TIP3    H129401   1.473   3.263   3.502  1.2181 -0.5431  0.2739
 2662TIP3    H229402   1.499   3.261   3.353 -2.9495  0.3042 -0.5907
 2663TIP3   OH229403   5.542   6.713  12.715  0.4986  0.7490 -0.0497
 2663TIP3    H129404   5.466   6.761  12.746  0.5537 -0.1233  1.5233
 2663TIP3    H229405   5.522   6.692  12.624  0.2559  3.2453 -0.6340
 2664TIP3   OH229406   5.319   6.493  14.788 -0.9191 -0.1833  0.0028
 2664TIP3    H129407   5.263   6.450  14.852 -0.6249 -1.4407 -0.5577
 2664TIP3    H229408   5.401   6.444  14.791 -1.1341 -0.7162 -1.8050
 2665TIP3   OH229409   4.974   0.308   5.981  0.4849  0.6763 -0.2749
 2665TIP3    H129410   5.066   0.298   5.956  0.3401 -1.1679 -0.2450
 2665TIP3    H229411   4.943   0.218   5.990 -1.0921  1.2807  0.5781
 2666TIP3   OH229412   3.529   1.098   2.942 -0.4031 -0.0879 -0.7748
 2666TIP3    H129413   3.558   1.027   2.885  1.0198  0.0061 -0.2119
 2666TIP3    H229414   3.499   1.166   2.882  0.6537 -0.1621 -1.4155
 2667TIP3   OH229415   2.467   2.113   4.582  0.2273  0.1248 -0.4275
 2667TIP3    H129416   2.415   2.135   4.504 -0.1814  0.1756 -0.1438
 2667TIP3    H229417   2.494   2.023   4.568  1.2178  0.5250 -1.2155
 2668TIP3   OH229418   5.447   4.204  15.155 -0.3607 -0.1139 -0.2269
 2668TIP3    H129419   5.527   4.165  15.189  0.3691 -1.0238 -2.7552
 2668TIP3    H229420   5.477   4.265  15.087 -1.7923 -0.3499 -1.1056
 2669TIP3   OH229421   2.258   4.311  12.313  0.1176 -0.6285 -0.3108
 2669TIP3    H129422   2.179   4.362  12.292 -0.5188 -2.5292 -3.1129
 2669TIP3    H229423   2.254   4.298  12.407 -1.2798  1.8649  0.0576
 2670TIP3   OH229424   5.885   6.238   3.759 -0.5084 -0.3495  0.1583
 2670TIP3    H129425   5.888   6.155   3.808  0.8841 -0.0323  0.6593
 2670TIP3    H229426   5.792   6.248   3.736 -0.6800 -2.1619 -0.1335
 2671TIP3   OH229427   0.521   4.019  14.403  0.1429 -0.7209 -0.2728
 2671TIP3    H129428   0.544   4.017  14.311 -1.7225  0.6326 -0.8257
 2671TIP3    H229429   0.533   4.111  14.429 -2.5555 -0.3175 -0.1360
 2672TIP3   OH229430   3.625   5.779  13.730  0.0137 -0.1832 -0.2337
 2672TIP3    H129431   3.695   5.785  13.795  0.3183  0.2008 -0.5948
 2672TIP3    H229432   3.664   5.812  13.649 -0.7282  0.5224 -0.3197
 2673TIP3   OH229433   3.471   2.060  10.448 -0.0894  0.1193  0.1769
 2673TIP3    H129434   3.398   2.114  10.479 -0.3509  0.0036 -0.2262
 2673TIP3    H229435   3.486   2.091  10.358  0.7109  0.5147  0.4315
 2674TIP3   OH229436   5.120   2.094   0.031  0.2262 -0.1536  0.0208
 2674TIP3    H129437   5.076   2.009   0.032  1.1710 -0.6719 -0.6373
 2674TIP3    H229438   5.070   2.148   0.091 -0.4055 -1.1741  0.4320
 2675TIP3   OH229439   2.855   3.284   1.819 -0.1916 -0.1088  0.5888
 2675TIP3    H129440   2.939   3.304   1.860 -0.6247  0.3599  1.2982
 2675TIP3    H229441   2.807   3.236   1.887 -0.4470 -0.4896  0.1431
 2676TIP3   OH229442   5.111   6.437   3.162  0.0263  0.0449  0.4408
 2676TIP3    H129443   5.102   6.410   3.253 -0.2747 -2.9668 -0.3845
 2676TIP3    H229444   5.024   6.471   3.139 -0.4797 -1.0180  0.7406
 2677TIP3   OH229445   5.012   4.261   5.071 -1.0071  0.2223  0.1648
 2677TIP3    H129446   5.099   4.262   5.032 -1.6696  0.0237 -1.4048
 2677TIP3    H229447   5.028   4.258   5.166  0.6847 -0.5946 -0.1000
 2678TIP3   OH229448   6.030   5.100   4.246 -0.6846 -0.0158  0.2301
 2678TIP3    H129449   5.989   5.017   4.270  1.2535 -0.9096  0.6544
 2678TIP3    H229450   6.124   5.081   4.246 -0.0669  2.5455  1.8132
 2679TIP3   OH229451   4.927   1.928  13.415  0.0379 -0.0624 -0.4499
 2679TIP3    H129452   4.833   1.944  13.420  0.0651 -0.1904  1.1058
 2679TIP3    H229453   4.936   1.838  13.385 -0.3484 -0.0896 -0.4798
 2680TIP3   OH229454   3.380   2.134   1.393  0.2636 -0.4866  0.3320
 2680TIP3    H129455   3.466   2.101   1.418  1.1170 -1.0799 -2.8950
 2680TIP3    H229456   3.319   2.064   1.416  1.2734 -1.9093 -1.0741
 2681TIP3   OH229457   3.890   0.383   6.385  0.0456 -0.3235  0.0881
 2681TIP3    H129458   3.831   0.451   6.416 -0.1941  1.1707 -3.2282
 2681TIP3    H229459   3.978   0.418   6.403 -0.0287  1.6890 -2.7257
 2682TIP3   OH229460   3.622   3.372  12.763 -0.6350 -0.0306 -0.2441
 2682TIP3    H129461   3.532   3.373  12.797  0.0728  1.5810  1.7969
 2682TIP3    H229462   3.619   3.312  12.688 -3.5717  0.6152 -0.7428
 2683TIP3   OH229463   3.385   1.210  14.405  0.0462  0.0072 -0.0973
 2683TIP3    H129464   3.320   1.241  14.342  0.4672  0.5161 -0.2804
 2683TIP3    H229465   3.388   1.115  14.391  1.0149  0.2476 -1.6860
 2684TIP3   OH229466   4.019   2.896   0.926  0.1270  0.3301  0.5375
 2684TIP3    H129467   4.096   2.894   0.983  0.0150  1.5696  0.7694
 2684TIP3    H229468   4.052   2.872   0.840  0.2226 -1.9839  1.1687
 2685TIP3   OH229469   5.583   2.205  14.313  0.0903 -0.0901  0.5728
 2685TIP3    H129470   5.562   2.208  14.220 -1.1918  1.7010  0.8815
 2685TIP3    H229471   5.679   2.211  14.316  0.0977  0.6556 -0.6070
 2686TIP3   OH229472   1.355   3.061   4.554 -0.1694 -0.3146 -0.4949
 2686TIP3    H129473   1.280   3.026   4.506 -0.3264 -0.5586 -0.0782
 2686TIP3    H229474   1.316   3.114   4.624  0.0628  0.8211 -1.1921
 2687TIP3   OH229475   4.595   6.695   2.919 -0.3117  0.3500 -0.6746
 2687TIP3    H129476   4.676   6.745   2.912 -0.2812  0.6601  1.2217
 2687TIP3    H229477   4.570   6.703   3.011 -1.1182 -1.8635 -0.6256
 2688TIP3   OH229478   4.974   6.740   2.064  0.1086 -0.2644  0.0250
 2688TIP3    H129479   4.996   6.749   2.157  0.1619  0.4331 -0.0560
 2688TIP3    H229480   4.879   6.749   2.061  0.0971 -0.3786  0.0182
 2689TIP3   OH229481   0.220   6.165  16.233 -0.2061 -0.0589 -0.3141
 2689TIP3    H129482   0.143   6.133  16.186  0.2603 -0.1237 -1.0503
 2689TIP3    H229483   0.208   6.260  16.237 -2.0609 -0.2777  2.6966
 2690TIP3   OH229484   6.161   2.049  13.647 -0.3331  0.6503  0.0773
 2690TIP3    H129485   6.155   2.048  13.742  2.7531 -1.9046  0.4038
 2690TIP3    H229486   6.090   1.992  13.618 -0.2983  0.1033  1.0140
 2691TIP3   OH229487   5.585   6.456  17.073  0.0796  0.5413 -0.2586
 2691TIP3    H129488   5.508   6.424  17.025 -0.2968  2.3825 -1.0042
 2691TIP3    H229489   5.654   6.394  17.053 -1.0448 -0.8230 -0.0752
 2692TIP3   OH229490   3.588   1.883   1.182  0.2316 -0.6499 -0.0305
 2692TIP3    H129491   3.493   1.882   1.189  0.0844  1.5019 -0.9058
 2692TIP3    H229492   3.605   1.895   1.088  1.4101 -2.1506 -0.0411
 2693TIP3   OH229493   2.547   0.221  15.172  0.9849 -0.1018  0.2869
 2693TIP3    H129494   2.541   0.317  15.169  3.2330  0.1173  0.9970
 2693TIP3    H229495   2.564   0.195  15.082 -1.8011 -0.0855 -0.3126
 2694TIP3   OH229496   3.794   4.257   1.849 -0.3165 -0.5899  0.2717
 2694TIP3    H129497   3.888   4.251   1.835 -0.1498 -1.1671  1.5230
 2694TIP3    H229498   3.784   4.264   1.944 -1.5310 -0.4737  0.1516
 2695TIP3   OH229499   5.848   5.636  11.997 -0.1053  0.6601  0.2865
 2695TIP3    H129500   5.787   5.706  12.018 -1.0387 -0.2558  0.7440
 2695TIP3    H229501   5.797   5.574  11.946  0.6158  0.1592  0.1467
 2696TIP3   OH229502   5.190   3.942   4.840  0.4089  0.2159 -0.1882
 2696TIP3    H129503   5.102   3.913   4.862 -0.5286  0.7392 -2.8256
 2696TIP3    H229504   5.244   3.916   4.914 -1.8348 -0.7095  1.2108
 2697TIP3   OH229505   3.156   6.550  15.424  0.4775 -0.1781 -0.1744
 2697TIP3    H129506   3.222   6.524  15.488  2.1816  1.8158 -1.0109
 2697TIP3    H229507   3.198   6.619  15.372 -2.6075  2.0268 -0.0356
 2698TIP3   OH229508   3.826   1.952  15.191  0.2886  0.3554  0.7599
 2698TIP3    H129509   3.876   1.905  15.124  2.0196  0.0457  2.2154
 2698TIP3    H229510   3.756   1.996  15.141  0.5105 -1.1840 -1.0227
 2699TIP3   OH229511   4.551   2.355   1.050 -0.5242  0.5907 -0.1346
 2699TIP3    H129512   4.476   2.359   0.991  0.2245 -0.6417 -1.2290
 2699TIP3    H229513   4.584   2.265   1.040  0.5762  0.8491  0.9729
 2700TIP3   OH229514   2.797   3.644   6.133  0.5125 -0.1225 -0.4159
 2700TIP3    H129515   2.808   3.738   6.135  1.3673 -0.2138 -0.6312
 2700TIP3    H229516   2.862   3.609   6.193 -0.0957 -0.5574  0.0090
 2701TIP3   OH229517   2.048   1.070   3.684 -0.4806 -0.0980  0.3010
 2701TIP3    H129518   1.978   1.059   3.748 -1.5140  0.1104 -0.7723
 2701TIP3    H229519   2.039   0.996   3.624  1.1323 -0.8768  0.9541
 2702TIP3   OH229520   5.044   4.559   1.019  0.3009  0.3393  0.3507
 2702TIP3    H129521   5.127   4.555   0.971  0.4950 -0.0679  0.7078
 2702TIP3    H229522   4.990   4.491   0.979  0.1164  0.6580  0.0675
 2703TIP3   OH229523   6.709   0.701  11.134  0.4118  0.0867 -0.0297
 2703TIP3    H129524   6.798   0.688  11.102  0.4298 -0.9147  0.3852
 2703TIP3    H229525   6.664   0.746  11.063  0.7805 -0.9689 -0.9602
 2704TIP3   OH229526   5.864   2.579  13.067  0.3399 -0.7089  0.2612
 2704TIP3    H129527   5.836   2.666  13.041 -1.7279 -1.2740  0.4339
 2704TIP3    H229528   5.955   2.590  13.094  0.4346  1.1822 -0.6575
 2705TIP3   OH229529   6.546   1.298  16.882  0.0970  0.4795 -0.0010
 2705TIP3    H129530   6.469   1.345  16.913 -0.2550  0.2198 -0.4725
 2705TIP3    H229531   6.608   1.303  16.955 -0.3773  0.6574  0.3956
 2706TIP3   OH229532   2.053   3.043   0.159 -0.1530 -1.1831 -0.6930
 2706TIP3    H129533   1.975   2.989   0.173 -1.4118  0.7962  0.3910
 2706TIP3    H229534   2.027   3.106   0.092  0.7269 -0.8649 -0.7457
 2707TIP3   OH229535   0.608   0.624   3.467  0.0072  0.2332  0.5441
 2707TIP3    H129536   0.650   0.564   3.529 -1.1302 -0.8721  0.3003
 2707TIP3    H229537   0.657   0.612   3.385 -0.9429 -1.3337  0.1529
 2708TIP3   OH229538   4.461   0.532   2.220  0.2033 -0.0164 -0.4086
 2708TIP3    H129539   4.444   0.439   2.206 -0.2559  0.0047 -0.0140
 2708TIP3    H229540   4.405   0.556   2.294 -3.5487  1.7131 -3.4555
 2709TIP3   OH229541   2.861   1.727  13.151  0.8640  0.2088  0.0892
 2709TIP3    H129542   2.905   1.642  13.161 -0.4081 -0.5111 -0.1964
 2709TIP3    H229543   2.932   1.788  13.132  1.9237 -0.6068  1.1991
 2710TIP3   OH229544   1.820   6.068  11.374 -0.1650 -0.5100  0.6171
 2710TIP3    H129545   1.766   6.093  11.448  1.0855 -1.6961  1.9848
 2710TIP3    H229546   1.836   6.150  11.327 -4.0174 -0.2464 -0.5427
 2711TIP3   OH229547   3.220   6.638   0.415 -0.0211 -0.0867  0.3051
 2711TIP3    H129548   3.222   6.614   0.322 -1.5221 -0.6789  0.3897
 2711TIP3    H229549   3.133   6.676   0.428  0.1674 -0.0189  1.4657
 2712TIP3   OH229550   4.165   5.670   5.720 -0.0021 -0.0426 -0.0820
 2712TIP3    H129551   4.152   5.716   5.803 -0.0118 -1.3114  0.6617
 2712TIP3    H229552   4.166   5.738   5.654 -1.7542  0.8894  0.7691
 2713TIP3   OH229553   4.872   3.382  10.936  0.2431  0.3501  0.1249
 2713TIP3    H129554   4.941   3.421  10.882  1.8390  0.3603  2.0579
 2713TIP3    H229555   4.886   3.288  10.930  0.0195  0.3212  0.0296
 2714TIP3   OH229556   5.392   1.599   4.367 -0.3096 -0.3689  0.0045
 2714TIP3    H129557   5.381   1.573   4.458  0.4844 -3.1323 -0.6254
 2714TIP3    H229558   5.413   1.519   4.320  0.8376  1.1939 -2.3984
 2715TIP3   OH229559   2.774   6.201   2.484 -0.4663  0.4119 -0.6201
 2715TIP3    H129560   2.750   6.283   2.440 -0.3161  0.5644 -0.4207
 2715TIP3    H229561   2.756   6.133   2.419  0.2440  0.6763 -1.1176
 2716TIP3   OH229562   3.965   2.743   5.001  0.2801  1.1329 -0.5554
 2716TIP3    H129563   4.022   2.693   5.060  1.4599  1.1536 -1.6331
 2716TIP3    H229564   3.985   2.834   5.021  0.4957  1.1409 -0.7973
 2717TIP3   OH229565   4.258   2.251  17.033 -0.0664  0.1772 -0.5103
 2717TIP3    H129566   4.344   2.227  16.998  0.5048  1.1267  0.2043
 2717TIP3    H229567   4.196   2.222  16.966  0.6729 -1.9519 -0.3542
 2718TIP3   OH229568   3.518   0.785   1.518  0.5121 -0.6601 -0.1962
 2718TIP3    H129569   3.428   0.799   1.491  0.4437 -2.3489 -0.9192
 2718TIP3    H229570   3.526   0.834   1.600 -0.6608  0.5836 -0.7840
 2719TIP3   OH229571   2.628   0.475   6.157 -0.4723  0.5351  0.3333
 2719TIP3    H129572   2.724   0.477   6.152 -0.4466  1.2573  1.0231
 2719TIP3    H229573   2.602   0.418   6.084  0.5766 -1.6397  1.5291
 2720TIP3   OH229574   2.709   5.818  15.204  0.3064 -0.0199  0.4290
 2720TIP3    H129575   2.766   5.890  15.176  0.6413 -0.3509  0.2519
 2720TIP3    H229576   2.712   5.822  15.300  0.1323  0.3476  0.4235
 2721TIP3   OH229577   5.573   1.930  14.826  0.3390 -0.7780  0.0172
 2721TIP3    H129578   5.571   1.895  14.915  0.1200 -0.8441 -0.0117
 2721TIP3    H229579   5.577   1.853  14.770 -0.2555 -0.7692 -0.0492
 2722TIP3   OH229580   0.521   0.926   1.110 -0.2629  0.2143  0.2178
 2722TIP3    H129581   0.492   0.919   1.019  0.5565 -1.9726  0.0594
 2722TIP3    H229582   0.441   0.926   1.161 -0.6971  0.2828 -0.4485
 2723TIP3   OH229583   0.402   6.192  12.222 -0.0418 -0.0820  0.2720
 2723TIP3    H129584   0.448   6.139  12.156 -0.5705  0.6603 -0.7296
 2723TIP3    H229585   0.466   6.258  12.248 -0.2117  0.3796 -0.4344
 2724TIP3   OH229586   4.255   2.998   1.675  0.2586  0.0353  0.5929
 2724TIP3    H129587   4.309   2.920   1.660  0.8452  0.6848 -0.8303
 2724TIP3    H229588   4.217   2.984   1.762  2.5757 -0.5027  1.5927
 2725TIP3   OH229589   4.527   4.774   1.210  0.1452 -0.4636 -0.2798
 2725TIP3    H129590   4.448   4.743   1.254  0.6526  0.0812  1.0641
 2725TIP3    H229591   4.560   4.844   1.266  2.1140 -1.3102 -0.2991
 2726TIP3   OH229592   4.186   5.513   5.026 -1.2132  0.3986 -0.1123
 2726TIP3    H129593   4.202   5.607   5.033  0.9525  0.0369  0.3653
 2726TIP3    H229594   4.248   5.473   5.086 -2.0458 -1.3678 -0.3549
 2727TIP3   OH229595   5.762   3.327  14.201  0.0991  0.0077 -0.0543
 2727TIP3    H129596   5.757   3.253  14.261 -0.1513 -0.1549 -0.2738
 2727TIP3    H229597   5.850   3.322  14.163 -0.3151 -0.8481 -0.9206
 2728TIP3   OH229598   0.229   1.396   3.284  0.1728 -0.2217  0.2619
 2728TIP3    H129599   0.250   1.489   3.292 -1.0917  0.3455 -1.9330
 2728TIP3    H229600   0.139   1.390   3.316  1.2199 -1.3383  3.2739
 2729TIP3   OH229601   4.104   3.424   4.379 -0.4032 -0.1195  0.8929
 2729TIP3    H129602   4.090   3.516   4.402  0.6752  0.6200 -1.1198
 2729TIP3    H229603   4.036   3.405   4.314  1.3071  0.3002 -1.1039
 2730TIP3   OH229604   5.083   6.797  16.350  0.1930 -0.2309 -0.0918
 2730TIP3    H129605   5.030   6.857  16.298  0.4309  1.8431  1.8941
 2730TIP3    H229606   5.118   6.851  16.421  2.2017 -2.2739  0.6097
 2731TIP3   OH229607   6.038   6.088  12.463 -0.2662 -0.2585  0.2213
 2731TIP3    H129608   6.051   6.173  12.504 -0.5651  0.4109 -1.0193
 2731TIP3    H229609   6.051   6.104  12.369 -2.7988 -1.0192 -0.3481
 2732TIP3   OH229610   4.010   1.085  15.739 -0.5379 -0.4640  0.8814
 2732TIP3    H129611   3.918   1.101  15.719 -0.2269  0.4626  0.1257
 2732TIP3    H229612   4.040   1.166  15.781  0.5581  0.2404 -1.1544
 2733TIP3   OH229613   1.032   6.436   1.520 -0.5590 -0.4835  0.1360
 2733TIP3    H129614   1.019   6.366   1.584 -2.4258 -0.1043  0.2287
 2733TIP3    H229615   0.973   6.414   1.448  2.2672 -1.4836 -2.0430
 2734TIP3   OH229616   4.159   1.831   5.157 -0.2897  0.0237  0.8069
 2734TIP3    H129617   4.089   1.785   5.204 -2.1164  0.4603 -1.3469
 2734TIP3    H229618   4.213   1.761   5.120 -0.9263 -0.3520  0.5766
 2735TIP3   OH229619   5.426   4.145  14.760  0.1861 -0.1570 -0.3218
 2735TIP3    H129620   5.342   4.183  14.736  0.3330 -0.0111 -0.6105
 2735TIP3    H229621   5.480   4.220  14.785  0.0760 -0.2951  0.3513
 2736TIP3   OH229622   0.616   2.109  11.075 -0.9559  0.5958  0.5211
 2736TIP3    H129623   0.672   2.044  11.117 -3.0933  0.0848  2.8130
 2736TIP3    H229624   0.557   2.139  11.144 -0.6767  4.3825 -0.6431
 2737TIP3   OH229625   6.494   6.028  12.181 -0.1691  0.3577  0.4180
 2737TIP3    H129626   6.415   6.016  12.129  0.4144 -0.9087 -0.2174
 2737TIP3    H229627   6.547   6.090  12.131  1.3744 -2.5145 -1.7543
 2738TIP3   OH229628   4.893   6.740  14.257 -0.1911 -0.4771 -0.1449
 2738TIP3    H129629   4.807   6.714  14.227 -0.9204 -0.9831  2.1673
 2738TIP3    H229630   4.884   6.748  14.352  1.4675  2.6367 -0.1133
 2739TIP3   OH229631   1.195   3.919   4.727 -0.0976  0.3655  0.1809
 2739TIP3    H129632   1.182   3.824   4.719  0.7641  0.3716 -2.5121
 2739TIP3    H229633   1.166   3.954   4.642  2.4750  2.0939 -0.1129
 2740TIP3   OH229634   6.192   0.571  12.162 -0.5309  0.0701 -0.5049
 2740TIP3    H129635   6.139   0.590  12.084 -0.0136  2.0746 -0.4243
 2740TIP3    H229636   6.131   0.583  12.235 -0.5182  0.1712 -0.5103
 2741TIP3   OH229637   6.763   1.037  16.283 -0.1529  0.2194 -0.2718
 2741TIP3    H129638   6.838   1.023  16.340 -1.4414  2.2665  2.1279
 2741TIP3    H229639   6.758   1.132  16.272 -1.0490 -0.0124 -2.3340
 2742TIP3   OH229640   4.920   6.129   1.572  0.3627 -0.0349 -0.4476
 2742TIP3    H129641   4.961   6.167   1.650  1.7719  1.2946 -1.7523
 2742TIP3    H229642   4.827   6.123   1.593  0.3526  2.4997  0.5172
 2743TIP3   OH229643   1.733   3.655  16.829 -0.6105  0.1340  0.3483
 2743TIP3    H129644   1.748   3.734  16.880 -0.7863 -0.2297  0.9755
 2743TIP3    H229645   1.779   3.670  16.747  0.3715  0.4047  0.9346
 2744TIP3   OH229646   1.754   3.576   5.021  0.7595  1.1165  0.0451
 2744TIP3    H129647   1.728   3.488   4.992  0.6358  0.6989  1.3563
 2744TIP3    H229648   1.751   3.629   4.942  0.3974  0.0376 -0.6895
 2745TIP3   OH229649   6.777   5.323   5.818  0.7892  0.3677  0.8325
 2745TIP3    H129650   6.716   5.251   5.838  1.3840 -0.3319  0.1930
 2745TIP3    H229651   6.777   5.377   5.897 -0.6948  0.4195  0.8413
 2746TIP3   OH229652   4.062   4.865   0.176  0.2459 -0.4325  0.4499
 2746TIP3    H129653   4.025   4.925   0.241  0.9510  0.9711 -0.3850
 2746TIP3    H229654   3.990   4.850   0.114  0.0009 -0.6237  0.7810
 2747TIP3   OH229655   1.708   0.760  11.293 -0.2748 -0.2012 -0.2363
 2747TIP3    H129656   1.687   0.776  11.201  2.5538  1.3002 -0.7411
 2747TIP3    H229657   1.779   0.696  11.291  0.2859  0.3439  0.8290
 2748TIP3   OH229658   2.028   4.245  13.030  0.0033 -0.4633 -0.2871
 2748TIP3    H129659   2.055   4.200  13.111  0.5503  0.5472  0.1079
 2748TIP3    H229660   1.947   4.289  13.053  0.6729  0.6478  0.0331
 2749TIP3   OH229661   2.394   4.160  13.261  0.3998  0.5540 -0.1311
 2749TIP3    H129662   2.460   4.214  13.304  1.5999  0.7353 -2.0724
 2749TIP3    H229663   2.312   4.208  13.273  1.0177  1.5080  0.3816
 2750TIP3   OH229664   5.563   2.949   1.953  0.8723 -0.1189  0.1173
 2750TIP3    H129665   5.475   2.925   1.982  1.7813 -0.3716  2.9357
 2750TIP3    H229666   5.611   2.966   2.034  3.2359  0.7607 -1.3726
 2751TIP3   OH229667   4.876   0.651   6.394 -0.2427  0.3833 -0.3645
 2751TIP3    H129668   4.907   0.567   6.428  3.4584  1.3798 -0.8611
 2751TIP3    H229669   4.859   0.634   6.301  2.5293  0.4790 -0.9943
 2752TIP3   OH229670   3.248   2.187   3.245 -0.1872  0.4520  0.1380
 2752TIP3    H129671   3.239   2.103   3.198 -0.0329 -0.3313  1.4690
 2752TIP3    H229672   3.337   2.216   3.225  0.6982 -1.0176  1.7085
 2753TIP3   OH229673   0.897   2.483   2.783  0.0056  0.5914 -0.4017
 2753TIP3    H129674   0.981   2.523   2.763  0.4617 -1.0953 -2.2002
 2753TIP3    H229675   0.897   2.474   2.879  1.0487  2.2545 -0.2111
 2754TIP3   OH229676   6.023   5.324  11.950  0.4544  0.1015 -0.7444
 2754TIP3    H129677   6.006   5.346  11.858  0.5195 -0.3861 -0.8743
 2754TIP3    H229678   6.118   5.326  11.958  0.4169  1.7750 -0.2735
 2755TIP3   OH229679   0.422   2.579   2.592  0.1871 -0.4140  0.1451
 2755TIP3    H129680   0.482   2.505   2.599 -0.2005 -0.8236 -0.7199
 2755TIP3    H229681   0.425   2.603   2.500  0.1609  0.5354  0.3807
 2756TIP3   OH229682   2.461   2.278   4.357 -0.0476  0.4258 -0.0763
 2756TIP3    H129683   2.411   2.318   4.286 -0.2128  0.8111  0.2561
 2756TIP3    H229684   2.449   2.336   4.431 -0.9837 -0.6736  0.6578
 2757TIP3   OH229685   0.699   6.325  17.102  0.0589  0.3098 -0.4280
 2757TIP3    H129686   0.779   6.283  17.068  1.1608  2.0309 -0.1249
 2757TIP3    H229687   0.658   6.364  17.025 -1.3800 -1.8255 -0.8387
 2758TIP3   OH229688   5.235   0.413  13.858 -0.2611  0.1151  0.1440
 2758TIP3    H129689   5.241   0.437  13.950  0.6634 -1.7859  0.6372
 2758TIP3    H229690   5.271   0.324  13.854 -0.7509 -0.0465 -1.9708
 2759TIP3   OH229691   1.896   6.484  14.756  0.8540  0.1040  0.2814
 2759TIP3    H129692   1.823   6.423  14.753 -0.8550  2.0725 -0.5475
 2759TIP3    H229693   1.963   6.443  14.700 -0.0819 -1.1471  0.0296
 2760TIP3   OH229694   0.483   0.910  16.873 -0.1235  0.5019  0.7094
 2760TIP3    H129695   0.400   0.899  16.921 -1.7395 -1.8919 -2.2510
 2760TIP3    H229696   0.477   0.997  16.834 -2.4510 -0.4575 -1.3087
 2761TIP3   OH229697   4.028   1.726   3.953 -0.1817  0.0725  0.2375
 2761TIP3    H129698   4.029   1.631   3.941 -1.1694  0.1334 -0.4077
 2761TIP3    H229699   4.082   1.759   3.881 -2.0791  0.1401 -1.2138
 2762TIP3   OH229700   1.466   1.800   5.974 -0.1209  0.1370 -0.4726
 2762TIP3    H129701   1.468   1.895   5.967 -0.3914  0.0970 -1.1905
 2762TIP3    H229702   1.554   1.771   5.950  0.2432  0.2480  0.6629
 2763TIP3   OH229703   2.347   2.548  13.567 -0.6343  0.3859  0.8893
 2763TIP3    H129704   2.429   2.507  13.541 -0.2508  1.4077  0.4444
 2763TIP3    H229705   2.293   2.476  13.598 -0.0216 -0.4747  0.0084
 2764TIP3   OH229706   2.335   0.709  16.415  0.2047 -0.7161 -0.0742
 2764TIP3    H129707   2.364   0.619  16.429  0.2818 -0.5116  1.1404
 2764TIP3    H229708   2.413   0.762  16.430  0.3114 -0.4636 -1.3854
 2765TIP3   OH229709   1.094   5.916   5.546  0.0122 -0.3494  0.1686
 2765TIP3    H129710   1.058   5.993   5.591 -0.2946  0.2860 -1.1132
 2765TIP3    H229711   1.027   5.849   5.556 -0.4032  0.0322 -0.0106
 2766TIP3   OH229712   2.439   0.599   0.926 -0.7933  0.1421  0.2146
 2766TIP3    H129713   2.369   0.539   0.902 -3.6930  2.0231  3.1159
 2766TIP3    H229714   2.450   0.655   0.849 -2.9378  0.1440 -0.1435
 2767TIP3   OH229715   6.607   3.629   2.817 -0.1462 -0.4365  0.0969
 2767TIP3    H129716   6.658   3.650   2.738  1.8056  1.1194  1.6494
 2767TIP3    H229717   6.641   3.545   2.845  0.2256 -0.2880  0.0972
 2768TIP3   OH229718   0.823   5.559  14.521 -0.2202 -0.0668  0.0050
 2768TIP3    H129719   0.867   5.480  14.490 -1.9832 -0.1849 -2.4947
 2768TIP3    H229720   0.886   5.629  14.506  0.4670 -0.6853 -0.0371
 2769TIP3   OH229721   2.365   3.406  12.091 -0.2119 -0.1686 -0.2652
 2769TIP3    H129722   2.403   3.488  12.060 -0.6764  1.4028  2.8994
 2769TIP3    H229723   2.276   3.405  12.055  0.4955 -0.4167 -2.0831
 2770TIP3   OH229724   0.095   3.893   1.106  0.1773 -0.1106 -0.4115
 2770TIP3    H129725   0.047   3.925   1.183  2.6968  2.1851  0.3727
 2770TIP3    H229726   0.027   3.877   1.041 -1.8370  0.5855  1.3805
 2771TIP3   OH229727   1.007   6.482  11.407 -0.3971 -0.5315  0.4470
 2771TIP3    H129728   0.913   6.483  11.387 -0.3888 -1.2897  0.3532
 2771TIP3    H229729   1.048   6.504  11.323 -0.5338  2.3475  1.0148
 2772TIP3   OH229730   4.390   4.479  13.695 -0.3414  0.0978 -0.3946
 2772TIP3    H129731   4.445   4.551  13.665  0.0805  0.3629  0.9450
 2772TIP3    H229732   4.452   4.416  13.732 -0.8739  0.1243  0.5782
 2773TIP3   OH229733   2.162   1.428   0.355 -0.3295  0.1851  0.1648
 2773TIP3    H129734   2.172   1.362   0.424  0.7935  2.1785  2.0343
 2773TIP3    H229735   2.089   1.396   0.301 -0.8931 -1.7260  1.9317
 2774TIP3   OH229736   2.619   2.480  11.222  0.5462 -0.3410 -0.0719
 2774TIP3    H129737   2.577   2.405  11.179  0.5309  0.2481 -1.1118
 2774TIP3    H229738   2.629   2.545  11.152  2.2751 -0.0756  0.3617
 2775TIP3   OH229739   2.273   3.680   4.059  0.7995  0.1185  0.2701
 2775TIP3    H129740   2.214   3.645   3.993  1.8747  0.2256 -0.7954
 2775TIP3    H229741   2.230   3.759   4.091 -0.9497 -1.3180  1.6197
 2776TIP3   OH229742   3.918   1.275  12.948  0.3866 -0.5911  0.4376
 2776TIP3    H129743   3.979   1.249  12.879  0.8825  1.1654  0.1762
 2776TIP3    H229744   3.838   1.227  12.929  1.5873 -2.8621  0.7123
 2777TIP3   OH229745   0.233   4.436  16.952  0.2774 -0.3804 -0.1492
 2777TIP3    H129746   0.316   4.388  16.957 -0.1995 -1.1998 -0.0565
 2777TIP3    H229747   0.204   4.426  16.862  0.2260 -0.1757 -0.1576
 2778TIP3   OH229748   2.872   5.959   5.341  0.2291  0.3514 -0.0192
 2778TIP3    H129749   2.874   5.988   5.432  2.0642  0.6047 -0.0876
 2778TIP3    H229750   2.828   6.030   5.294 -0.2666  0.4559  0.5865
 2779TIP3   OH229751   3.362   1.283   0.066 -0.4102  0.0586 -0.3034
 2779TIP3    H129752   3.404   1.202   0.036  2.0939  1.4551 -0.8035
 2779TIP3    H229753   3.283   1.253   0.113  1.3793 -2.7903  1.1698
 2780TIP3   OH229754   4.064   6.657  16.605  0.1980 -0.1805  0.2223
 2780TIP3    H129755   4.070   6.725  16.538 -0.2226 -0.4679 -0.1148
 2780TIP3    H229756   4.048   6.577  16.556  0.3077 -0.4652  0.6440
 2781TIP3   OH229757   1.582   5.144  13.443  0.7584  0.0963  0.0318
 2781TIP3    H129758   1.577   5.134  13.538  1.3176  1.1218  0.1906
 2781TIP3    H229759   1.633   5.068  13.414 -0.0560 -0.6293  0.4479
 2782TIP3   OH229760   6.386   2.517  12.420  0.5638 -0.7796  0.2860
 2782TIP3    H129761   6.331   2.585  12.380 -0.2158 -0.8353  1.2268
 2782TIP3    H229762   6.352   2.435  12.384 -0.5090 -0.8713  1.4385
 2783TIP3   OH229763   1.086   5.373   4.600 -0.4589  0.6538  0.4638
 2783TIP3    H129764   1.104   5.306   4.665  0.8305  2.0588  1.6213
 2783TIP3    H229765   1.119   5.337   4.518  0.9345  0.1734  1.2065
 2784TIP3   OH229766   6.409   3.411   5.598  0.5366 -0.1530 -0.2035
 2784TIP3    H129767   6.316   3.400   5.582  0.0122  2.2878  0.6925
 2784TIP3    H229768   6.429   3.349   5.668 -0.7967  0.3259  0.6371
 2785TIP3   OH229769   4.823   6.012   5.042  0.9363 -0.1559  0.6556
 2785TIP3    H129770   4.860   5.950   4.979  1.9148 -0.0168  1.0749
 2785TIP3    H229771   4.861   6.096   5.017 -2.1274  0.7732 -1.3474
 2786TIP3   OH229772   2.812   5.272  14.770  0.1159  0.0839  0.1680
 2786TIP3    H129773   2.850   5.189  14.799 -1.3968 -0.5752  0.3701
 2786TIP3    H229774   2.865   5.338  14.813 -0.0547 -0.8343  1.8924
 2787TIP3   OH229775   5.676   5.376   1.694  0.7448 -0.2869  0.1207
 2787TIP3    H129776   5.745   5.374   1.628 -1.8591  1.2893 -2.9096
 2787TIP3    H229777   5.703   5.446   1.754  2.0571 -0.1311 -0.6075
 2788TIP3   OH229778   2.028   2.907  13.806  0.2399  0.4447  0.1527
 2788TIP3    H129779   2.036   2.813  13.792  0.0835  0.3950  0.4011
 2788TIP3    H229780   1.945   2.918  13.852  0.1470  0.7240 -0.0776
 2789TIP3   OH229781   1.119   1.665  11.839  0.3755  0.2992  0.0638
 2789TIP3    H129782   1.165   1.737  11.794  1.1278  0.2955  0.8014
 2789TIP3    H229783   1.188   1.619  11.886 -0.5573  1.1508  2.3843
 2790TIP3   OH229784   3.941   6.473   5.347  0.6476 -0.1147  0.3485
 2790TIP3    H129785   3.953   6.486   5.441 -1.7325 -0.6024  0.8052
 2790TIP3    H229786   3.942   6.378   5.335 -1.5841 -0.2134  0.3878
 2791TIP3   OH229787   5.794   6.697   3.393 -0.6460 -0.2402  0.5420
 2791TIP3    H129788   5.731   6.760   3.428  1.0672  1.1404  1.2808
 2791TIP3    H229789   5.824   6.736   3.311 -0.1559 -0.4746  0.6069
 2792TIP3   OH229790   5.460   5.892  12.993  0.0978 -0.1310  0.6339
 2792TIP3    H129791   5.518   5.951  12.945  1.4332 -1.2805  0.7522
 2792TIP3    H229792   5.408   5.949  13.050  1.4953  0.9058  0.9168
 2793TIP3   OH229793   3.236   3.028  16.498  0.0493 -0.3095 -0.4039
 2793TIP3    H129794   3.265   3.010  16.409  1.0756 -2.1815  0.2586
 2793TIP3    H229795   3.217   2.942  16.535 -0.4119  0.4359  1.1845
 2794TIP3   OH229796   0.908   6.644   2.240 -0.0745 -0.0507 -0.4150
 2794TIP3    H129797   0.963   6.713   2.276  0.3946 -1.2756  1.3531
 2794TIP3    H229798   0.969   6.577   2.210 -0.5343  0.1180 -1.8158
 2795TIP3   OH229799   5.730   3.207  17.032  0.1797 -0.1659  0.3304
 2795TIP3    H129800   5.714   3.299  17.047  0.5288  0.0761 -0.6457
 2795TIP3    H229801   5.759   3.172  17.116 -1.7522  0.1834  1.1774
 2796TIP3   OH229802   2.503   5.206   2.804 -0.2594  0.0895  0.2067
 2796TIP3    H129803   2.457   5.289   2.823 -1.5271 -0.9558  2.0251
 2796TIP3    H229804   2.434   5.148   2.771  0.1986 -0.8472  0.8787
 2797TIP3   OH229805   1.608   1.392   0.370 -0.1812 -0.5718  0.1288
 2797TIP3    H129806   1.564   1.476   0.383  1.4357  0.1753  1.0202
 2797TIP3    H229807   1.607   1.380   0.275 -1.2484  0.0018  0.0553
 2798TIP3   OH229808   6.254   6.015   0.652  0.0181 -0.3621 -0.0824
 2798TIP3    H129809   6.235   6.094   0.601  1.0626  0.3899  0.6545
 2798TIP3    H229810   6.242   6.042   0.744 -1.0124 -1.4605  0.1310
 2799TIP3   OH229811   3.879   5.452   1.449 -0.2791  0.1638 -0.1444
 2799TIP3    H129812   3.948   5.472   1.512  0.6728 -0.0686 -1.0985
 2799TIP3    H229813   3.829   5.381   1.490 -0.6147  1.0358  1.0164
 2800TIP3   OH229814   4.260   1.905   0.635  0.2499  0.0442 -0.3706
 2800TIP3    H129815   4.205   1.846   0.687  1.0172 -1.4587 -1.1886
 2800TIP3    H229816   4.211   1.917   0.553 -0.5961  1.7845  0.3423
 2801TIP3   OH229817   4.272   6.709  13.148  0.1154  0.7129 -0.1613
 2801TIP3    H129818   4.288   6.755  13.230  1.4893 -0.3463  0.1936
 2801TIP3    H229819   4.180   6.683  13.153  0.0055  1.2260  0.7457
 2802TIP3   OH229820   5.083   0.741   6.085  0.3462 -0.0086 -0.4151
 2802TIP3    H129821   5.093   0.836   6.079  1.8823 -0.2326 -2.3113
 2802TIP3    H229822   5.130   0.717   6.165  1.2809  0.6695 -0.7472
 2803TIP3   OH229823   2.850   5.274  15.070 -0.3967 -0.8104  0.3944
 2803TIP3    H129824   2.859   5.183  15.043 -1.6572 -1.3882  1.7568
 2803TIP3    H229825   2.940   5.306  15.079  0.0634 -1.2492 -2.0737
 2804TIP3   OH229826   2.636   0.416  16.019  0.3774  0.1247  0.1900
 2804TIP3    H129827   2.588   0.346  16.064 -0.4559 -0.5806 -1.7020
 2804TIP3    H229828   2.595   0.497  16.050  0.1745 -0.3036  1.0663
 2805TIP3   OH229829   6.617   2.081   3.731 -0.1752  0.0325 -0.1660
 2805TIP3    H129830   6.660   2.159   3.697  0.7906 -0.8430 -1.0223
 2805TIP3    H229831   6.667   2.008   3.695 -1.3869 -1.0048  0.1571
 2806TIP3   OH229832   0.748   4.079  11.844 -1.0014  0.1463  0.0947
 2806TIP3    H129833   0.776   4.031  11.923 -3.2415 -0.3673  0.6784
 2806TIP3    H229834   0.717   4.010  11.785  1.4248  0.4500 -1.6759
 2807TIP3   OH229835   3.334   5.087  12.650  0.7120  0.6070  0.3187
 2807TIP3    H129836   3.273   5.157  12.671 -1.2506 -1.2802  1.3410
 2807TIP3    H229837   3.287   5.007  12.672  2.6853 -1.0797 -1.2033
 2808TIP3   OH229838   5.944   2.508   2.514  0.3750  0.3000  0.1601
 2808TIP3    H129839   5.964   2.586   2.462 -2.1296 -0.2799 -1.8934
 2808TIP3    H229840   5.946   2.538   2.605  1.3691  2.2586 -0.4533
 2809TIP3   OH229841   3.849   5.246  11.952 -0.4064 -0.2210 -0.4256
 2809TIP3    H129842   3.847   5.197  12.034 -0.2933  0.7107  0.1452
 2809TIP3    H229843   3.760   5.279  11.941 -0.0737  0.8955  0.1026
 2810TIP3   OH229844   2.256   1.361  16.973 -0.0096 -0.8271  0.3399
 2810TIP3    H129845   2.288   1.447  17.000  0.6992 -1.4213  1.4668
 2810TIP3    H229846   2.201   1.331  17.045 -1.3861 -0.7570 -0.6449
 2811TIP3   OH229847   0.014   4.080  10.096 -0.1250  0.4173  0.2756
 2811TIP3    H129848   0.004   3.986  10.113 -2.0355  0.5931  0.4092
 2811TIP3    H229849  -0.073   4.108  10.067  0.3141  2.2121  0.5684
 2812TIP3   OH229850   3.004   5.692   2.250  0.1979 -0.2280 -0.1147
 2812TIP3    H129851   3.028   5.726   2.164  3.4336 -1.5521  0.0995
 2812TIP3    H229852   3.013   5.767   2.309  0.1652  0.1830 -0.6316
 2813TIP3   OH229853   5.646   6.268  13.750 -0.1063  0.0555 -0.1855
 2813TIP3    H129854   5.622   6.311  13.832 -0.6424 -0.5627 -0.0184
 2813TIP3    H229855   5.684   6.339  13.697  1.2589  0.2482  0.9871
 2814TIP3   OH229856   2.128   6.255  12.405 -0.0391  0.2227  0.1339
 2814TIP3    H129857   2.108   6.317  12.335  0.3115  0.6073  0.3714
 2814TIP3    H229858   2.220   6.232  12.392 -1.1557 -3.8384 -2.7919
 2815TIP3   OH229859   4.418   5.646  13.460  0.3011  0.2756 -0.2718
 2815TIP3    H129860   4.506   5.667  13.492  0.7065 -2.0151  0.3292
 2815TIP3    H229861   4.409   5.552  13.477 -2.3322  0.4843 -0.1756
 2816TIP3   OH229862   2.065   0.151  16.577 -0.5050  0.1412  0.0929
 2816TIP3    H129863   2.060   0.169  16.483  0.1592 -0.4132 -0.0525
 2816TIP3    H229864   2.061   0.056  16.584 -0.5073  0.1771  0.6284
 2817TIP3   OH229865   3.677   1.014  12.168  0.0774  0.1450 -0.3035
 2817TIP3    H129866   3.742   0.947  12.186 -1.5810 -2.0359 -1.9400
 2817TIP3    H229867   3.616   1.009  12.242  0.3140  0.3475 -0.0916
 2818TIP3   OH229868   2.993   2.403  14.631 -0.0317  0.2678  0.4727
 2818TIP3    H129869   3.047   2.349  14.688  1.3699  1.6188  0.4882
 2818TIP3    H229870   2.961   2.474  14.687  0.7744  1.2089 -0.2297
 2819TIP3   OH229871   2.631   6.719  15.801  0.5551 -0.0269  0.1510
 2819TIP3    H129872   2.613   6.807  15.833 -0.1145 -0.2029  0.2831
 2819TIP3    H229873   2.635   6.729  15.705  1.7073  0.3498  0.2284
 2820TIP3   OH229874   3.839   4.934   2.970 -0.0695 -0.2402  0.6872
 2820TIP3    H129875   3.924   4.975   2.955  0.1988 -0.2490  2.0329
 2820TIP3    H229876   3.854   4.841   2.955  0.1764 -0.2423  0.9244
 2821TIP3   OH229877   1.322   2.519  12.289 -0.0357 -0.1168  0.2637
 2821TIP3    H129878   1.360   2.479  12.210  1.0514  1.8748 -0.3149
 2821TIP3    H229879   1.242   2.561  12.258  0.4558  0.7709  0.1635
 2822TIP3   OH229880   5.479   3.129   2.850 -0.2040  0.5866  0.1891
 2822TIP3    H129881   5.411   3.173   2.901 -0.7722  0.8112 -0.7408
 2822TIP3    H229882   5.436   3.052   2.812  0.6306 -0.4904  1.3270
 2823TIP3   OH229883   0.452   1.641  13.294 -0.1427 -0.3225  0.6711
 2823TIP3    H129884   0.438   1.640  13.389 -2.0846  0.1557  0.4322
 2823TIP3    H229885   0.474   1.551  13.272 -1.0841 -0.7558  1.4131
 2824TIP3   OH229886   5.284   3.103  16.476  0.2649 -0.5685  0.6060
 2824TIP3    H129887   5.360   3.154  16.504  0.1550 -1.0426  1.8261
 2824TIP3    H229888   5.316   3.051  16.402  0.5713  0.6896 -0.1957
 2825TIP3   OH229889   5.813   6.546  15.203  0.4652  0.0022  0.0427
 2825TIP3    H129890   5.761   6.486  15.149 -1.3309  0.9654  0.6436
 2825TIP3    H229891   5.760   6.560  15.282  1.8419  0.6955  0.8891
 2826TIP3   OH229892   6.104   2.102   4.421 -0.4139  0.6245 -0.4493
 2826TIP3    H129893   6.079   2.183   4.376  0.1184  0.4964 -0.9995
 2826TIP3    H229894   6.156   2.055   4.356  2.7105  1.6378  1.1469
 2827TIP3   OH229895   0.537   4.890  12.917  0.3300  0.0466 -0.1349
 2827TIP3    H129896   0.471   4.833  12.877 -0.9163  1.1975  0.2096
 2827TIP3    H229897   0.601   4.906  12.848  0.6266 -1.6106 -0.2866
 2828TIP3   OH229898   3.642   4.728  12.676 -0.7751 -0.1768 -0.4093
 2828TIP3    H129899   3.733   4.756  12.686 -0.7413 -0.0215 -1.1241
 2828TIP3    H229900   3.608   4.726  12.765  0.2090 -1.2025 -0.0354
 2829TIP3   OH229901   2.966   0.826  12.816  0.0924 -0.1230 -0.1464
 2829TIP3    H129902   2.982   0.838  12.722  2.5641  0.7068  0.3012
 2829TIP3    H229903   2.940   0.912  12.847  0.1538 -0.1843  0.0777
 2830TIP3   OH229904   4.621   3.308   5.110 -0.3732  0.0600  0.5606
 2830TIP3    H129905   4.686   3.351   5.055 -0.8322 -0.3303 -0.3106
 2830TIP3    H229906   4.610   3.366   5.185  1.8946 -0.4731  1.3874
 2831TIP3   OH229907   0.856   6.430  13.716 -0.4329 -0.5996  0.2468
 2831TIP3    H129908   0.818   6.349  13.753 -0.2333 -1.2927 -1.0302
 2831TIP3    H229909   0.833   6.497  13.780 -1.1839 -1.5438  1.0153
 2832TIP3   OH229910   2.336   0.702   2.791  0.0497  0.1142  0.1536
 2832TIP3    H129911   2.275   0.716   2.719 -0.6544  0.6714  0.8407
 2832TIP3    H229912   2.302   0.624   2.836 -2.0577  2.1938  2.4010
 2833TIP3   OH229913   2.156   6.393   0.469  0.1897 -0.0087 -0.3563
 2833TIP3    H129914   2.231   6.390   0.410 -0.4244 -0.0748 -1.1466
 2833TIP3    H229915   2.152   6.484   0.498  1.7487 -0.3962  1.2645
 2834TIP3   OH229916   3.981   5.469   5.608  0.3298  0.3165  0.1988
 2834TIP3    H129917   4.027   5.546   5.640 -1.5852  0.9961  1.5053
 2834TIP3    H229918   3.940   5.497   5.526 -0.0870  0.5687  0.4972
 2835TIP3   OH229919   3.627   2.658  17.105  0.1543  0.7103  0.0923
 2835TIP3    H129920   3.634   2.670  17.010 -2.0205  0.7066 -0.1154
 2835TIP3    H229921   3.667   2.737  17.142  0.6074  0.9265 -0.8139
 2836TIP3   OH229922   3.717   3.871  12.494  0.0154 -0.0589  0.2544
 2836TIP3    H129923   3.803   3.830  12.502  0.3674  0.8702  1.4105
 2836TIP3    H229924   3.714   3.935  12.565 -1.7309 -0.2445  0.3836
 2837TIP3   OH229925   3.926   0.155   3.180  0.5293  0.0427  0.2977
 2837TIP3    H129926   3.903   0.065   3.206 -0.7768  0.4565  0.6437
 2837TIP3    H229927   3.913   0.156   3.086 -1.5301  0.4076  0.5394
 2838TIP3   OH229928   1.056   0.211  15.122  0.0014  0.0165 -0.2325
 2838TIP3    H129929   1.092   0.282  15.069 -1.0750 -0.3234 -1.4641
 2838TIP3    H229930   1.039   0.251  15.207 -1.9873  1.6904 -1.3228
 2839TIP3   OH229931   5.247   1.012   2.387 -0.3190 -0.3712 -1.4398
 2839TIP3    H129932   5.303   0.973   2.454 -1.7368  1.4237  0.9081
 2839TIP3    H229933   5.191   0.940   2.359 -0.8963 -0.7888  0.6323
 2840TIP3   OH229934   1.262   3.621  12.529  0.1971  0.3470 -0.2059
 2840TIP3    H129935   1.171   3.596  12.511 -0.9230  4.3765 -1.3130
 2840TIP3    H229936   1.294   3.654  12.445  2.6393 -0.5956  0.2698
 2841TIP3   OH229937   1.516   6.014  16.780 -0.5463  0.4110  0.1516
 2841TIP3    H129938   1.544   6.095  16.824  0.0097  0.2509  0.0959
 2841TIP3    H229939   1.556   5.944  16.830  2.4136  0.2941 -2.1386
 2842TIP3   OH229940   3.930   4.723  14.000  0.0012  0.2947 -0.3470
 2842TIP3    H129941   3.837   4.741  14.014 -0.0033  0.0134 -0.0152
 2842TIP3    H229942   3.944   4.740  13.906 -0.5137 -0.2565 -0.5271
 2843TIP3   OH229943   4.681   4.865   0.897 -0.3021 -0.5113  0.1616
 2843TIP3    H129944   4.738   4.865   0.820 -0.6694  0.3345 -0.1209
 2843TIP3    H229945   4.595   4.890   0.862 -1.2436 -3.1394  0.3055
 2844TIP3   OH229946   0.595   3.077  15.312 -0.2992  0.0138  0.1595
 2844TIP3    H129947   0.550   3.001  15.347  0.8531 -0.5421  0.4760
 2844TIP3    H229948   0.612   3.132  15.388  0.1198 -0.0822  0.1372
 2845TIP3   OH229949   4.769   0.329   0.583  0.0752 -0.1891 -0.0913
 2845TIP3    H129950   4.704   0.306   0.516  0.4740 -0.7740 -0.2871
 2845TIP3    H229951   4.804   0.413   0.554  0.3823 -0.5310 -0.7231
 2846TIP3   OH229952   2.364   1.729   7.028 -0.4381 -0.4150  0.0743
 2846TIP3    H129953   2.331   1.817   7.047 -0.0529 -0.6267  1.8724
 2846TIP3    H229954   2.458   1.735   7.045 -0.4900 -1.2893  0.6976
 2847TIP3   OH229955   5.282   4.478   0.238  0.8130  0.4748 -0.3796
 2847TIP3    H129956   5.325   4.456   0.321 -1.1896 -2.9713 -0.0739
 2847TIP3    H229957   5.332   4.430   0.172  0.1887  0.1770 -0.6396
 2848TIP3   OH229958   1.220   6.464  11.573 -0.1560  0.2385 -0.4212
 2848TIP3    H129959   1.205   6.371  11.593 -0.4268  0.1559 -0.9661
 2848TIP3    H229960   1.140   6.491  11.526  0.5089  0.3653 -1.5182
 2849TIP3   OH229961   4.126   4.088  13.351  0.5616  0.1254  0.2808
 2849TIP3    H129962   4.127   4.183  13.369  1.3028  0.2395 -0.2930
 2849TIP3    H229963   4.056   4.076  13.288  0.4470  0.2834  0.3752
 2850TIP3   OH229964   2.480   4.977  13.241 -0.4706 -0.0929  0.4674
 2850TIP3    H129965   2.485   5.035  13.318 -1.7211  0.5597  0.0888
 2850TIP3    H229966   2.497   5.035  13.167 -1.8227 -0.1698  0.0743
 2851TIP3   OH229967   2.690   4.863   1.890  0.0283  0.1418 -0.0882
 2851TIP3    H129968   2.632   4.925   1.847  0.7431  1.0870  0.2559
 2851TIP3    H229969   2.705   4.901   1.977 -0.1972 -0.9588  0.4418
 2852TIP3   OH229970   2.085   4.425  14.972 -0.2889 -0.4172 -0.5905
 2852TIP3    H129971   2.063   4.505  15.021 -3.3658 -0.3468 -1.8777
 2852TIP3    H229972   2.012   4.366  14.988 -0.2902 -1.2385 -3.2288
 2853TIP3   OH229973   3.344   1.564  12.294 -0.1253  0.1738  0.2201
 2853TIP3    H129974   3.384   1.477  12.285  0.5786  0.5910 -0.7731
 2853TIP3    H229975   3.405   1.624  12.252  0.0753  1.3748  2.0844
 2854TIP3   OH229976   2.617   4.781  14.070  0.5015 -0.1220 -0.2250
 2854TIP3    H129977   2.567   4.703  14.046  1.8356 -0.8832 -0.6111
 2854TIP3    H229978   2.665   4.755  14.148  0.1504  0.6713  0.2653
 2855TIP3   OH229979   3.536   2.040  11.946  0.0115 -0.5884  0.3130
 2855TIP3    H129980   3.521   1.995  12.029  1.3739 -1.2775  0.2167
 2855TIP3    H229981   3.626   2.016  11.922 -0.7293 -1.3679 -1.9397
 2856TIP3   OH229982   6.405   2.971   3.139  0.2762 -0.7039 -0.1550
 2856TIP3    H129983   6.370   2.987   3.051 -0.9281  0.0981  0.4485
 2856TIP3    H229984   6.346   2.906   3.177 -1.7093  1.8527  1.4650
 2857TIP3   OH229985   3.806   5.748  11.849 -0.1682 -0.1549 -0.1949
 2857TIP3    H129986   3.809   5.674  11.788  2.1248  0.1055 -0.4599
 2857TIP3    H229987   3.747   5.811  11.807  0.8521 -0.2470 -1.8426
 2858TIP3   OH229988   2.691   5.626   2.311  0.0648  0.2605  0.3926
 2858TIP3    H129989   2.710   5.559   2.245  1.0727  0.3505  0.5710
 2858TIP3    H229990   2.709   5.709   2.267 -1.4510  0.4570  0.0832
 2859TIP3   OH229991   6.375   0.413   2.614  0.0970  0.3055  0.5639
 2859TIP3    H129992   6.445   0.461   2.569  0.5303  0.2384  1.1583
 2859TIP3    H229993   6.315   0.481   2.644  1.4687  0.6788  2.7332
 2860TIP3   OH229994   6.348   3.728  14.953 -0.0694 -0.0054  0.5245
 2860TIP3    H129995   6.274   3.729  14.891  0.7894 -0.7761 -0.5617
 2860TIP3    H229996   6.387   3.814  14.944 -0.2921  0.0858  0.4127
 2861TIP3   OH229997   3.845   5.904   4.022  0.3367 -0.3563 -0.3272
 2861TIP3    H129998   3.852   5.962   4.098 -0.6005  0.7368 -1.0392
 2861TIP3    H229999   3.802   5.825   4.056 -0.2399  0.1914  0.2447
 2862TIP3   OH230000   5.805   6.159  14.790 -0.0111 -1.2403  0.2579
 2862TIP3    H130001   5.730   6.172  14.733  0.6518  0.1935 -0.3317
 2862TIP3    H230002   5.777   6.194  14.875  0.2822  0.1522 -0.2005
 2863TIP3   OH230003   0.802   4.849  15.997 -0.7766  0.6840 -0.4069
 2863TIP3    H130004   0.722   4.864  16.047 -0.7176 -0.7682  0.1846
 2863TIP3    H230005   0.870   4.892  16.048 -0.8353 -0.1290  0.3838
 2864TIP3   OH230006   3.127   3.149  16.962 -0.3709 -0.4902  0.1152
 2864TIP3    H130007   3.039   3.120  16.985 -0.3103 -0.5454  0.2772
 2864TIP3    H230008   3.120   3.177  16.871 -0.3802 -1.2073 -0.1127
 2865TIP3   OH230009   4.217   6.080   0.223 -0.2731 -0.0528  0.1950
 2865TIP3    H130010   4.222   6.022   0.147 -2.6204 -0.4502  0.2668
 2865TIP3    H230011   4.160   6.035   0.285 -1.4357  1.8891  0.6364
 2866TIP3   OH230012   5.151   2.991  13.395 -0.8532 -0.1429 -0.1593
 2866TIP3    H130013   5.152   2.974  13.489  1.7653  1.7760  0.2600
 2866TIP3    H230014   5.126   3.083  13.387 -2.4005 -0.6238 -1.4965
 2867TIP3   OH230015   3.943   4.050  15.038 -0.3336 -0.0419  0.3371
 2867TIP3    H130016   4.018   4.049  15.097  1.7986  2.5839 -1.9919
 2867TIP3    H230017   3.884   4.116  15.074 -0.0161  0.1108  0.5756
 2868TIP3   OH230018   5.501   5.855  10.777 -0.8301  0.2947  0.5675
 2868TIP3    H130019   5.514   5.868  10.683 -0.9469  0.5670  0.5859
 2868TIP3    H230020   5.412   5.819  10.785 -0.8734  0.4022  0.5805
 2869TIP3   OH230021   3.354   4.739  17.070  0.0395  0.8800  0.1349
 2869TIP3    H130022   3.290   4.789  17.019 -0.0064  0.4625 -0.2238
 2869TIP3    H230023   3.301   4.675  17.118  0.1905  0.4127 -0.3013
 2870TIP3   OH230024   3.653   4.727   1.043 -0.1579  0.2810 -0.1691
 2870TIP3    H130025   3.732   4.679   1.070 -0.6807 -0.1500  0.6425
 2870TIP3    H230026   3.632   4.783   1.118 -0.0588  1.1427 -0.7726
 2871TIP3   OH230027   3.013   0.009  11.132 -0.5741  0.1928  0.4198
 2871TIP3    H130028   3.049   0.072  11.070 -1.6564  2.2657  1.7836
 2871TIP3    H230029   2.921   0.002  11.109 -0.3448 -1.4792 -0.1337
 2872TIP3   OH230030   0.305   4.701  16.480 -0.8697 -0.0221 -0.2394
 2872TIP3    H130031   0.237   4.634  16.481 -0.4101 -0.4854  0.3568
 2872TIP3    H230032   0.281   4.760  16.552 -1.6430  0.8470 -1.1753
 2873TIP3   OH230033   0.649   6.293  14.563  0.1871 -0.2448 -0.0651
 2873TIP3    H130034   0.602   6.219  14.602 -0.3155 -0.5563 -1.2300
 2873TIP3    H230035   0.605   6.370  14.598  1.8262 -0.3940  2.5620
 2874TIP3   OH230036   4.344   2.979  16.495 -0.1471 -0.1212  0.3698
 2874TIP3    H130037   4.263   2.928  16.493 -0.2092 -0.1028 -2.4760
 2874TIP3    H230038   4.317   3.066  16.523 -1.1704 -0.0696 -0.7085
 2875TIP3   OH230039   1.329   0.087   0.727 -0.1775  0.0207  0.4256
 2875TIP3    H130040   1.310  -0.005   0.749  1.1193 -1.2324 -2.9915
 2875TIP3    H230041   1.416   0.103   0.763 -1.2673  0.7329  2.9282
 2876TIP3   OH230042   6.458   1.792   5.528 -0.4390 -0.9144  0.0878
 2876TIP3    H130043   6.384   1.838   5.489  1.7680  2.6669 -0.4223
 2876TIP3    H230044   6.452   1.812   5.622 -1.1894 -2.3980  0.3792
 2877TIP3   OH230045   1.944   1.642   4.923  0.6175  0.1393  0.4804
 2877TIP3    H130046   1.966   1.680   4.838 -0.6771 -0.0142  0.0700
 2877TIP3    H230047   1.849   1.639   4.925  0.5889  0.9685  2.3118
 2878TIP3   OH230048   6.492   0.741  14.413  0.3109  0.2118 -0.8544
 2878TIP3    H130049   6.580   0.735  14.450  0.5847 -0.0967 -1.5311
 2878TIP3    H230050   6.456   0.653  14.424 -1.3010  1.1586  2.6782
 2879TIP3   OH230051   4.885   5.447  11.136  0.1538  0.1171  0.0425
 2879TIP3    H130052   4.862   5.533  11.102  0.7093  0.0016 -0.6407
 2879TIP3    H230053   4.850   5.447  11.226  0.2749  1.1031  0.1017
 2880TIP3   OH230054   4.736   0.976  17.045 -0.4371 -0.5564 -0.1353
 2880TIP3    H130055   4.759   1.010  17.131  1.0120  0.1549 -0.7649
 2880TIP3    H230056   4.718   1.053  16.992  0.3802 -0.8672 -0.9047
 2881TIP3   OH230057   4.824   4.799   2.765  0.3832  0.3335  0.6783
 2881TIP3    H130058   4.738   4.830   2.793  0.4796  1.1256  0.1158
 2881TIP3    H230059   4.845   4.729   2.826 -1.0740 -0.5065  0.2666
 2882TIP3   OH230060   5.848   4.145  16.282  0.9558 -0.2205 -0.1314
 2882TIP3    H130061   5.936   4.158  16.248  0.7665 -0.1949 -0.6286
 2882TIP3    H230062   5.807   4.086  16.219  0.1752  0.8684 -0.6723
 2883TIP3   OH230063   0.607   1.120   2.222  0.5617  0.3054 -0.1238
 2883TIP3    H130064   0.529   1.172   2.202  0.3992 -0.0209 -0.3513
 2883TIP3    H230065   0.613   1.058   2.149  2.0892  1.5227 -1.0817
 2884TIP3   OH230066   1.738   6.703   1.800  0.6390 -0.5353 -0.2265
 2884TIP3    H130067   1.734   6.609   1.816  1.0292 -0.9543 -2.3308
 2884TIP3    H230068   1.747   6.742   1.887  0.7623 -2.4480  0.6577
 2885TIP3   OH230069   2.156   2.119   0.066  0.4391 -0.2590  0.2776
 2885TIP3    H130070   2.176   2.206   0.101  2.8877  0.1393 -1.8097
 2885TIP3    H230071   2.162   2.129  -0.029  0.2416 -2.6082 -0.0524
 2886TIP3   OH230072   2.038   5.443  11.771 -0.8522  0.2601  0.0876
 2886TIP3    H130073   2.023   5.536  11.788  1.2291  0.5538  0.6258
 2886TIP3    H230074   2.101   5.416  11.838  0.8722 -0.7897 -1.8367
 2887TIP3   OH230075   0.356   3.855   1.163 -0.4332 -0.1899  0.2492
 2887TIP3    H130076   0.399   3.873   1.079  0.7913 -1.2166  0.6182
 2887TIP3    H230077   0.263   3.857   1.144 -0.1738 -0.1304 -1.0833
 2888TIP3   OH230078   5.752   0.762   4.543 -0.3003 -0.3957  0.6310
 2888TIP3    H130079   5.831   0.743   4.493  0.8899  0.7268  2.0197
 2888TIP3    H230080   5.749   0.694   4.610 -0.1286 -0.0297  1.0108
 2889TIP3   OH230081   4.815   1.348   3.794 -0.0622 -0.0749 -0.5285
 2889TIP3    H130082   4.854   1.435   3.777  0.5375 -0.2413 -0.0422
 2889TIP3    H230083   4.725   1.356   3.764 -0.1736  0.8964  0.0088
 2890TIP3   OH230084   2.202   4.967  10.824 -0.1246  0.6744 -0.1149
 2890TIP3    H130085   2.114   4.962  10.787 -1.1758  2.2777  2.0091
 2890TIP3    H230086   2.260   4.947  10.750 -2.1519  2.1081 -2.2145
 2891TIP3   OH230087   1.413   2.879   0.756 -0.5072  0.6266  0.5254
 2891TIP3    H130088   1.335   2.929   0.732 -1.7324 -0.8622  1.1964
 2891TIP3    H230089   1.388   2.788   0.743  1.1268  0.1043  0.8046
 2892TIP3   OH230090   6.385   4.709  12.359 -0.2652 -0.0183 -0.0357
 2892TIP3    H130091   6.330   4.760  12.418  1.1789 -0.2081  1.5445
 2892TIP3    H230092   6.458   4.679  12.413 -0.6280 -3.1587 -1.0592
 2893TIP3   OH230093   0.449   5.914  12.751  0.1360  0.3408 -0.1873
 2893TIP3    H130094   0.375   5.875  12.705 -0.3853  1.4170 -0.2882
 2893TIP3    H230095   0.411   5.987  12.799  0.9085  0.0645  0.8735
 2894TIP3   OH230096   5.830   6.251   1.000  0.3175 -0.2536  0.2436
 2894TIP3    H130097   5.898   6.318   0.999 -1.2362  1.4104  0.1577
 2894TIP3    H230098   5.874   6.172   1.032  2.2769  0.7171  0.1011
 2895TIP3   OH230099   1.770   3.536  14.988  0.1722  0.7550 -0.2007
 2895TIP3    H130100   1.766   3.630  15.004 -0.5397  0.7072 -0.0956
 2895TIP3    H230101   1.863   3.515  14.998  0.3270  1.4300 -0.1453
 2896TIP3   OH230102   4.134   1.368  14.007 -0.0053 -0.1819 -0.2643
 2896TIP3    H130103   4.171   1.456  14.001 -1.6310  0.6836  1.5124
 2896TIP3    H230104   4.140   1.346  14.100 -0.5487 -1.5426 -0.5362
 2897TIP3   OH230105   1.143   0.483   4.477 -0.5442  0.3490 -0.5538
 2897TIP3    H130106   1.176   0.440   4.398 -0.8689  0.4483 -0.7462
 2897TIP3    H230107   1.056   0.447   4.490 -0.6360  0.6025 -0.4487
 2898TIP3   OH230108   3.803   5.634   3.242  0.2752  0.6526 -0.0739
 2898TIP3    H130109   3.842   5.580   3.311 -1.8049  1.2656  1.7089
 2898TIP3    H230110   3.728   5.582   3.211 -0.8461  1.8136  0.6076
 2899TIP3   OH230111   0.208   4.501   3.121  0.2126 -0.5271  0.4999
 2899TIP3    H130112   0.270   4.515   3.193  0.7772 -0.6997  0.0594
 2899TIP3    H230113   0.130   4.465   3.164  0.7707 -1.2378  0.9662
 2900TIP3   OH230114   3.963   6.597  12.014 -0.1400  0.5230  0.0931
 2900TIP3    H130115   3.963   6.543  11.934 -0.2712  1.0187 -0.2489
 2900TIP3    H230116   3.909   6.673  11.991  0.3959  1.0122  0.4174
 2901TIP3   OH230117   6.763   5.674  13.397  0.7061  0.3597 -0.0914
 2901TIP3    H130118   6.792   5.696  13.309  1.0296 -0.2912 -0.1547
 2901TIP3    H230119   6.839   5.631  13.437  0.3519  0.0741  0.2839
 2902TIP3   OH230120   3.336   1.687   2.825  0.2201  0.4365 -0.4122
 2902TIP3    H130121   3.356   1.652   2.738 -0.4214  0.4709 -0.5761
 2902TIP3    H230122   3.302   1.774   2.809 -0.1076  0.3598 -0.1434
 2903TIP3   OH230123   6.171   6.237   1.690 -0.4072  0.3723 -0.0484
 2903TIP3    H130124   6.096   6.214   1.636 -1.2271  1.8258  0.3932
 2903TIP3    H230125   6.132   6.273   1.770  0.7680  0.1307  0.6542
 2904TIP3   OH230126   5.868   6.389  12.019 -0.4637 -0.0138  0.9840
 2904TIP3    H130127   5.942   6.408  11.962  1.3660 -2.4216  2.3315
 2904TIP3    H230128   5.898   6.412  12.107 -2.2475  1.1994  1.3304
 2905TIP3   OH230129   5.219   1.857   1.807 -0.1732 -0.4386  0.4508
 2905TIP3    H130130   5.228   1.813   1.723  0.8510  0.0347  0.2836
 2905TIP3    H230131   5.180   1.792   1.865 -0.4646 -0.9190 -0.2720
 2906TIP3   OH230132   1.697   5.615  13.186 -0.0805  0.1146 -0.1859
 2906TIP3    H130133   1.736   5.630  13.100 -0.3429 -1.9176 -0.7064
 2906TIP3    H230134   1.759   5.557  13.231 -0.2171  0.7041  0.7989
 2907TIP3   OH230135   3.760   4.426   3.270  0.0437 -0.4574  0.4496
 2907TIP3    H130136   3.664   4.424   3.271 -0.0781  2.0809  0.4936
 2907TIP3    H230137   3.782   4.496   3.210  1.8977 -0.7802  0.6934
 2908TIP3   OH230138   6.617   2.177  12.473  0.3405  0.8740  0.1652
 2908TIP3    H130139   6.619   2.251  12.412  1.9927 -0.5986 -1.7142
 2908TIP3    H230140   6.546   2.121  12.441  0.1721  0.8632  0.5593
 2909TIP3   OH230141   3.113   0.115  11.947 -0.3477 -0.2906  0.2072
 2909TIP3    H130142   3.026   0.093  11.915  0.1815 -0.7247 -0.9972
 2909TIP3    H230143   3.103   0.202  11.985 -1.6871 -1.0749  1.7713
 2910TIP3   OH230144   1.095   2.025  14.785 -0.6782  0.2161  0.3032
 2910TIP3    H130145   1.100   2.079  14.706 -0.7763  0.6134  0.5631
 2910TIP3    H230146   1.007   2.041  14.820 -0.3310  0.7256  0.9651
 2911TIP3   OH230147   5.792   2.268   3.448  0.4577 -0.4360 -0.8084
 2911TIP3    H130148   5.733   2.281   3.522  0.3288  1.1488 -1.1476
 2911TIP3    H230149   5.768   2.182   3.412 -0.3433 -0.6494  0.2002
 2912TIP3   OH230150   6.223   5.393  13.447  0.0624  0.0470 -0.0527
 2912TIP3    H130151   6.282   5.342  13.392  0.1742 -1.1288  1.1050
 2912TIP3    H230152   6.200   5.334  13.519 -1.9361  0.7281 -0.0717
 2913TIP3   OH230153   1.937   3.112  15.432  0.0783 -0.0056  0.4206
 2913TIP3    H130154   2.015   3.141  15.479  0.6433 -1.7424  0.6204
 2913TIP3    H230155   1.952   3.141  15.342  0.9364 -0.2683  0.4695
 2914TIP3   OH230156   4.458   2.776   0.936  0.1368  0.3523 -0.2444
 2914TIP3    H130157   4.452   2.722   0.856 -1.0799 -0.6786  0.4982
 2914TIP3    H230158   4.538   2.745   0.979 -0.2852 -0.5441 -0.0715
 2915TIP3   OH230159   2.414   1.868   2.214 -0.5628  0.5214 -0.1052
 2915TIP3    H130160   2.346   1.885   2.279 -0.1915 -0.7046  0.6477
 2915TIP3    H230161   2.377   1.800   2.157  0.1860 -0.5469  0.6314
 2916TIP3   OH230162   4.186   4.389   5.793  0.1153  0.3675  0.0578
 2916TIP3    H130163   4.269   4.356   5.828 -1.3472 -2.9427  0.7628
 2916TIP3    H230164   4.199   4.388   5.698  0.4231 -1.6434  0.0811
 2917TIP3   OH230165   2.436   1.476   6.008  0.1739  0.1151 -0.3142
 2917TIP3    H130166   2.417   1.520   5.926  1.7997  1.2014 -0.1444
 2917TIP3    H230167   2.530   1.488   6.022  0.4362 -2.1747  0.4842
 2918TIP3   OH230168   0.986   3.075  15.728 -0.2784 -0.1701  0.3235
 2918TIP3    H130169   1.054   3.126  15.683 -0.1318  1.0630  1.8338
 2918TIP3    H230170   1.017   2.985  15.723  1.5048  0.3588  0.9590
 2919TIP3   OH230171   2.507   1.312   3.945 -0.0707  0.1475 -0.3966
 2919TIP3    H130172   2.570   1.313   4.017 -0.9300  2.3381  0.4063
 2919TIP3    H230173   2.456   1.232   3.958  0.8001 -0.2778  0.5040
 2920TIP3   OH230174   0.826   3.918   4.732  0.0445  0.7189 -0.2830
 2920TIP3    H130175   0.767   3.963   4.672  0.1416  1.5143  0.2057
 2920TIP3    H230176   0.902   3.977   4.740  1.3306 -0.6659 -1.5903
 2921TIP3   OH230177   4.844   3.735  12.043 -0.1272  0.4238 -0.3486
 2921TIP3    H130178   4.927   3.774  12.068  1.1071 -1.3198 -1.5504
 2921TIP3    H230179   4.778   3.793  12.082  1.5878  2.8350 -0.8254
 2922TIP3   OH230180   1.754   0.037  16.623 -0.1313  0.0096  0.3261
 2922TIP3    H130181   1.831   0.043  16.566 -1.9321 -3.5197 -2.9469
 2922TIP3    H230182   1.787  -0.001  16.704  1.8615  0.5118 -0.1913
 2923TIP3   OH230183   4.495   1.768   0.574  0.3614  0.3321  0.4347
 2923TIP3    H130184   4.465   1.844   0.623 -1.6103 -1.8849  2.9591
 2923TIP3    H230185   4.438   1.764   0.498  0.2095  1.1393  0.4997
 2924TIP3   OH230186   4.044   0.650  12.970 -0.4590 -0.0444  0.3894
 2924TIP3    H130187   4.106   0.648  13.043 -0.2062  0.5351  0.1955
 2924TIP3    H230188   4.084   0.596  12.903 -0.9931 -1.1184  0.9040
 2925TIP3   OH230189   1.093   4.119   5.024  0.2290  0.0401  0.0687
 2925TIP3    H130190   1.151   4.046   5.046 -0.7833 -0.0739  2.7065
 2925TIP3    H230191   1.005   4.083   5.032 -0.2696  1.0939 -0.4757
 2926TIP3   OH230192   3.048   3.753   0.716  0.1391 -0.0798 -0.0862
 2926TIP3    H130193   3.089   3.717   0.637  0.3722 -2.4725  1.0473
 2926TIP3    H230194   3.111   3.817   0.749  0.7013 -0.1357 -1.0178
 2927TIP3   OH230195   4.552   4.019   3.260 -0.8819  0.2291 -0.7261
 2927TIP3    H130196   4.502   4.072   3.198  0.8928 -0.4457 -2.8241
 2927TIP3    H230197   4.525   3.929   3.242  1.5353 -0.2388 -2.4667
 2928TIP3   OH230198   2.353   5.927  10.772 -0.6193  0.2741  0.4005
 2928TIP3    H130199   2.262   5.907  10.747 -0.4617  1.0971 -0.9198
 2928TIP3    H230200   2.397   5.842  10.770 -1.0711  0.0426 -0.2375
 2929TIP3   OH230201   6.241   3.000  16.366  0.0230 -0.2249  0.1034
 2929TIP3    H130202   6.297   2.987  16.442  2.4873  0.5715 -1.4755
 2929TIP3    H230203   6.174   3.062  16.397 -0.0134 -1.1311  2.0098
 2930TIP3   OH230204   0.081   1.987   5.426  0.2635  0.4764  0.1862
 2930TIP3    H130205   0.110   1.974   5.516 -1.0659  1.0208  0.7144
 2930TIP3    H230206   0.060   2.080   5.421 -1.3961  0.1152 -0.1433
 2931TIP3   OH230207   2.881   5.560  13.634  0.1824  0.4392 -0.1717
 2931TIP3    H130208   2.845   5.578  13.721 -1.5726 -0.3210 -0.6974
 2931TIP3    H230209   2.888   5.646  13.593 -2.4214  0.5398 -0.5291
 2932TIP3   OH230210   6.769   0.635   5.739  0.2698  0.8090  0.3216
 2932TIP3    H130211   6.793   0.695   5.668 -1.2222  0.9381 -0.1249
 2932TIP3    H230212   6.733   0.692   5.807  1.9793  0.7168  1.3534
 2933TIP3   OH230213   2.686   0.355   0.802  0.2855 -0.0770  0.4953
 2933TIP3    H130214   2.667   0.384   0.713  0.0608 -1.6586 -0.0046
 2933TIP3    H230215   2.780   0.340   0.802 -0.0622 -2.7768 -0.3878
 2934TIP3   OH230216   4.168   0.344   2.375  0.3632 -0.3016  0.5290
 2934TIP3    H130217   4.145   0.437   2.380  1.7759  0.2712 -2.0104
 2934TIP3    H230218   4.084   0.299   2.371 -0.3859  0.6796  3.0688
 2935TIP3   OH230219   5.273   6.153  11.424  0.2197  0.6336 -0.2922
 2935TIP3    H130220   5.316   6.239  11.423 -1.6210  1.6038  0.4711
 2935TIP3    H230221   5.339   6.094  11.387  2.5958  1.8513  1.6849
 2936TIP3   OH230222   6.662   4.458   1.099 -0.2080 -0.2474  0.5519
 2936TIP3    H130223   6.647   4.367   1.074 -0.0594  0.0470 -0.6696
 2936TIP3    H230224   6.756   4.472   1.085 -0.4559  0.4466 -0.5651
 2937TIP3   OH230225   6.662   6.442   2.841  0.3848  0.4763  0.6755
 2937TIP3    H130226   6.577   6.415   2.807  1.0290 -0.0318 -0.5772
 2937TIP3    H230227   6.641   6.497   2.917 -1.0224 -1.1253  1.5244
 2938TIP3   OH230228   0.245   1.807   3.511  0.1834 -0.4387  0.3646
 2938TIP3    H130229   0.267   1.785   3.420  1.2756  1.4961  0.1074
 2938TIP3    H230230   0.151   1.826   3.509  0.4969  1.2349 -0.7732
 2939TIP3   OH230231   4.000   2.278   2.000  0.3383  0.5945 -0.1726
 2939TIP3    H130232   4.046   2.277   1.916 -0.5732  1.3035 -0.7083
 2939TIP3    H230233   3.951   2.196   2.001  2.2420 -0.6078  0.8113
 2940TIP3   OH230234   3.541   0.906   3.679  0.0289 -0.2542 -0.1802
 2940TIP3    H130235   3.627   0.944   3.661 -0.1209  0.6054  0.8277
 2940TIP3    H230236   3.524   0.849   3.604  1.1539  0.1205 -0.7456
 2941TIP3   OH230237   6.317   3.138  13.368  0.1559  0.3058 -0.1382
 2941TIP3    H130238   6.301   3.159  13.460  1.6732  1.3317 -0.0723
 2941TIP3    H230239   6.321   3.223  13.324 -0.4854 -0.1679 -1.1598
 2942TIP3   OH230240   2.825   3.742  16.093 -0.0425  0.5338  0.0036
 2942TIP3    H130241   2.878   3.663  16.099  0.0207  0.5455 -0.3504
 2942TIP3    H230242   2.814   3.756  15.998 -0.0903  0.9219  0.0662
 2943TIP3   OH230243   1.852   4.910   4.728 -0.2949  0.2007  0.7794
 2943TIP3    H130244   1.819   4.836   4.778  0.6806 -1.1954 -0.5444
 2943TIP3    H230245   1.777   4.940   4.676 -0.6947  0.1591  1.3269
 2944TIP3   OH230246   0.181   1.186  14.249 -0.3466  0.4196 -0.4502
 2944TIP3    H130247   0.208   1.245  14.178 -1.8188  1.4695 -0.1746
 2944TIP3    H230248   0.257   1.129  14.263  0.6137  1.3582 -1.6604
 2945TIP3   OH230249   4.273   2.001   3.662 -0.4024  0.0118 -0.0271
 2945TIP3    H130250   4.323   1.967   3.736 -0.7617 -1.1725 -0.3209
 2945TIP3    H230251   4.302   2.092   3.654 -0.5718  0.2497  1.7514
 2946TIP3   OH230252   0.950   6.623  16.109 -0.0408 -0.1519  0.2766
 2946TIP3    H130253   0.993   6.583  16.033 -0.6824 -0.7459  0.2261
 2946TIP3    H230254   0.908   6.550  16.154 -1.9292  0.5579 -0.2748
 2947TIP3   OH230255   3.094   1.108  15.238  0.4002 -0.2931  0.0266
 2947TIP3    H130256   3.156   1.120  15.166  0.1698 -1.5035 -0.3942
 2947TIP3    H230257   3.009   1.098  15.195  0.0528  0.2922  0.5472
 2948TIP3   OH230258   1.670   4.782   3.055  0.2321 -0.0262  0.0322
 2948TIP3    H130259   1.617   4.808   2.980 -1.0207  0.4596  1.0538
 2948TIP3    H230260   1.621   4.812   3.132  1.7658  0.0342  1.0482
 2949TIP3   OH230261   4.676   6.282   5.276 -0.1880 -0.3577  0.0941
 2949TIP3    H130262   4.707   6.287   5.186  1.7026 -0.0073  0.7122
 2949TIP3    H230263   4.633   6.366   5.291 -1.7430 -0.9411 -0.8560
 2950TIP3   OH230264   3.722   4.302   3.536  0.3110  0.1251  0.0811
 2950TIP3    H130265   3.654   4.238   3.516 -0.5097  0.7479  0.8237
 2950TIP3    H230266   3.747   4.338   3.451  0.0703 -0.4457 -0.2407
 2951TIP3   OH230267   6.584   2.792  16.255 -0.0393 -0.0721 -0.1421
 2951TIP3    H130268   6.559   2.871  16.207 -1.9862 -1.0845 -0.9090
 2951TIP3    H230269   6.604   2.728  16.186  0.3988 -0.5971  0.4576
 2952TIP3   OH230270   3.849   1.292   1.636  0.0153 -0.6469 -0.8866
 2952TIP3    H130271   3.869   1.224   1.700  2.2338  1.0012  0.3500
 2952TIP3    H230272   3.899   1.267   1.558  1.3271 -0.2238 -0.2308
 2953TIP3   OH230273   5.586   4.819   1.131  0.1997  0.4076  0.4924
 2953TIP3    H130274   5.630   4.736   1.116  0.9457  0.7449  0.7308
 2953TIP3    H230275   5.567   4.853   1.044 -1.0212 -0.4650  0.3940
 2954TIP3   OH230276   6.615   6.581   0.727  0.1212 -0.3025 -0.3920
 2954TIP3    H130277   6.647   6.539   0.807  1.6785  1.6982  0.1140
 2954TIP3    H230278   6.574   6.662   0.758 -2.8749 -1.3217 -1.3210
 2955TIP3   OH230279   6.671   3.417   3.683  0.4366 -0.5918  0.7681
 2955TIP3    H130280   6.714   3.371   3.755 -1.2512 -0.7854  1.6953
 2955TIP3    H230281   6.707   3.375   3.604  0.5597 -2.0293  1.5439
 2956TIP3   OH230282   1.665   3.286   0.108  0.2419 -0.1984 -0.5535
 2956TIP3    H130283   1.585   3.255   0.151  0.3334  0.1198 -0.1531
 2956TIP3    H230284   1.682   3.220   0.040 -0.2541 -0.3682 -0.5199
 2957TIP3   OH230285   3.200   3.222   0.895 -0.0200  0.1967  0.4144
 2957TIP3    H130286   3.109   3.216   0.865  0.3202  0.1376 -0.6221
 2957TIP3    H230287   3.205   3.308   0.937 -0.3551  0.5250 -0.2101
 2958TIP3   OH230288   0.514   2.541   3.586  0.1833  0.0001  0.4835
 2958TIP3    H130289   0.426   2.519   3.616  0.3469  0.6541  1.5019
 2958TIP3    H230290   0.503   2.625   3.541  0.2517 -0.0387  0.3936
 2959TIP3   OH230291   4.813   1.301   0.799 -0.7190  0.0299 -0.7203
 2959TIP3    H130292   4.864   1.226   0.767  0.7499  0.7057 -0.0385
 2959TIP3    H230293   4.865   1.378   0.776 -0.3678  0.6304  1.7780
 2960TIP3   OH230294   6.381   2.389  14.146 -0.4225 -0.5338  0.5706
 2960TIP3    H130295   6.360   2.465  14.091 -0.3167 -0.6332  0.3922
 2960TIP3    H230296   6.471   2.368  14.123 -0.9970 -1.7884 -0.6671
 2961TIP3   OH230297   0.561   3.219  16.954 -0.0634  0.0302  0.4255
 2961TIP3    H130298   0.628   3.242  17.018 -0.4923 -1.2116  1.3573
 2961TIP3    H230299   0.574   3.125  16.939  1.1792  0.5778 -2.6983
 2962TIP3   OH230300   5.699   5.491   4.268  0.2321 -0.3900 -0.3686
 2962TIP3    H130301   5.722   5.399   4.253 -0.5435 -0.2400 -2.9270
 2962TIP3    H230302   5.675   5.495   4.361 -0.5905 -2.9527 -0.4000
 2963TIP3   OH230303   3.821   5.794  14.905 -0.9870 -0.3742 -0.3719
 2963TIP3    H130304   3.776   5.851  14.843 -1.9018 -0.7292 -0.0470
 2963TIP3    H230305   3.778   5.810  14.989 -0.8135 -1.0432 -0.1433
 2964TIP3   OH230306   4.870   3.178   5.221  0.7180 -0.0118 -0.5041
 2964TIP3    H130307   4.909   3.149   5.304  1.2500  0.7402 -0.4743
 2964TIP3    H230308   4.879   3.274   5.224 -1.7352  0.2552 -0.2143
 2965TIP3   OH230309   4.907   1.621   3.752 -0.1328 -0.3054 -0.4701
 2965TIP3    H130310   4.990   1.604   3.796 -0.5037  0.0585  0.4073
 2965TIP3    H230311   4.930   1.676   3.677  0.1342  2.7131  1.6103
 2966TIP3   OH230312   5.209   1.001  11.903  0.1291 -0.3920 -0.7935
 2966TIP3    H130313   5.294   1.008  11.945  0.2623 -1.4762 -0.8527
 2966TIP3    H230314   5.159   1.076  11.937  0.9069 -0.0825 -0.3083
 2967TIP3   OH230315   2.852   3.849   0.574 -0.7218  0.0161 -0.0334
 2967TIP3    H130316   2.940   3.833   0.607  0.1135  0.0677 -2.0977
 2967TIP3    H230317   2.812   3.763   0.568 -0.0305 -0.2518 -1.0763
 2968TIP3   OH230318   3.346   0.406  14.462  0.1616  0.1394 -0.3743
 2968TIP3    H130319   3.382   0.442  14.543  0.6881 -0.4180 -0.3569
 2968TIP3    H230320   3.394   0.325  14.448 -1.1791 -0.7031 -0.2813
 2969TIP3   OH230321   5.460   5.549   3.464  0.0260  0.6807 -0.1753
 2969TIP3    H130322   5.535   5.596   3.501  0.6928 -0.6451  0.1919
 2969TIP3    H230323   5.384   5.591   3.504  0.6050  1.4020  0.2021
 2970TIP3   OH230324   0.716   4.957   2.804  0.5682  0.9978 -0.0274
 2970TIP3    H130325   0.705   4.877   2.752 -0.7146  0.2559  1.2929
 2970TIP3    H230326   0.798   4.995   2.774  1.7507 -1.3682  0.0193
 2971TIP3   OH230327   1.715   3.741  13.093  0.2766  0.1284 -0.0701
 2971TIP3    H130328   1.624   3.764  13.109  0.0621 -0.0588 -0.9603
 2971TIP3    H230329   1.725   3.653  13.129 -0.3779 -0.5634 -1.4857
 2972TIP3   OH230330   6.511   6.121   2.753  0.1623  0.2870 -0.0479
 2972TIP3    H130331   6.583   6.087   2.806  0.5282  0.5665 -0.3636
 2972TIP3    H230332   6.447   6.050   2.752  0.5267 -0.0491  0.0554
 2973TIP3   OH230333   3.387   1.528   1.418  0.1254  0.4131  0.2354
 2973TIP3    H130334   3.418   1.457   1.362  1.0108  1.0734 -0.1376
 2973TIP3    H230335   3.443   1.525   1.495 -0.2307  0.3294  0.4915
 2974TIP3   OH230336   2.651   4.989  15.243  0.1403  0.1145  0.4659
 2974TIP3    H130337   2.740   4.958  15.257  0.6166  0.9887 -0.4710
 2974TIP3    H230338   2.635   4.975  15.150 -0.1853  1.2166  0.3386
 2975TIP3   OH230339   3.695   5.023   1.806 -0.1130 -0.6026  0.3032
 2975TIP3    H130340   3.767   5.065   1.759  0.4372 -0.3721  1.3231
 2975TIP3    H230341   3.638   4.990   1.737 -0.1229  1.0638 -0.5367
 2976TIP3   OH230342   5.496   1.543  16.160 -0.0307  0.1448  0.0906
 2976TIP3    H130343   5.487   1.564  16.067 -1.0859 -1.1383 -0.1193
 2976TIP3    H230344   5.453   1.458  16.170 -2.3503  1.4289  2.2477
 2977TIP3   OH230345   1.482   4.286   1.689  0.0378  0.4653  0.2039
 2977TIP3    H130346   1.538   4.323   1.620 -0.6225 -0.0649 -0.6315
 2977TIP3    H230347   1.419   4.355   1.708 -0.7571  0.0597 -0.8593
 2978TIP3   OH230348   4.302   5.912  10.843 -0.0628 -0.3846 -0.5964
 2978TIP3    H130349   4.233   5.963  10.886 -0.2129 -0.9197 -0.1932
 2978TIP3    H230350   4.357   5.978  10.801 -1.5719 -0.0033 -2.0859
 2979TIP3   OH230351   4.351   5.669   2.119  0.7490  0.7152  0.2902
 2979TIP3    H130352   4.355   5.736   2.188  0.5650 -0.5697  1.6155
 2979TIP3    H230353   4.428   5.686   2.065  0.7911  1.8970  0.6899
 2980TIP3   OH230354   5.659   2.819   2.292 -0.0762  0.2514  0.0804
 2980TIP3    H130355   5.668   2.739   2.239 -0.7458  0.7824 -0.8686
 2980TIP3    H230356   5.569   2.817   2.324 -0.6460  1.4234 -1.3332
 2981TIP3   OH230357   5.282   3.885  15.193  0.2267  0.0141  0.0772
 2981TIP3    H130358   5.302   3.868  15.101 -1.0109 -0.1330 -0.1773
 2981TIP3    H230359   5.351   3.839  15.241 -1.0479 -2.9028 -0.6844
 2982TIP3   OH230360   1.645   5.901  15.553  0.1461 -0.5393 -0.0639
 2982TIP3    H130361   1.679   5.840  15.618  0.1472 -0.6642 -0.1792
 2982TIP3    H230362   1.550   5.890  15.558  0.1289 -0.2630  0.1905
 2983TIP3   OH230363   1.880   3.402  14.433 -0.2951 -0.0477  0.1560
 2983TIP3    H130364   1.907   3.384  14.523  0.7306  2.1458  0.3564
 2983TIP3    H230365   1.870   3.316  14.393 -0.6956 -1.0706  2.3283
 2984TIP3   OH230366   1.707   3.974  15.822 -0.2916 -0.4292 -0.0272
 2984TIP3    H130367   1.738   4.052  15.778  0.3468 -1.0815 -0.7543
 2984TIP3    H230368   1.665   4.007  15.902  0.5240  0.6065  0.0008
 2985TIP3   OH230369   0.350   3.690  11.802 -0.0752  0.3638 -0.0659
 2985TIP3    H130370   0.417   3.649  11.746  0.1689 -0.5981  0.8990
 2985TIP3    H230371   0.389   3.774  11.827  0.6273 -0.0216  0.1782
 2986TIP3   OH230372   2.201   5.614   6.156  0.3207 -0.2209 -0.0681
 2986TIP3    H130373   2.259   5.540   6.173 -0.0065 -1.7235 -4.1563
 2986TIP3    H230374   2.255   5.677   6.108  0.0469  1.3180  1.5350
 2987TIP3   OH230375   1.685   2.826   3.450 -0.1222 -0.4700 -0.3275
 2987TIP3    H130376   1.770   2.783   3.455 -0.2356 -0.6732 -0.0725
 2987TIP3    H230377   1.632   2.768   3.395 -1.0723 -2.0836  2.0946
 2988TIP3   OH230378   1.123   2.886   0.290 -0.2852 -0.3177  0.7831
 2988TIP3    H130379   1.107   2.799   0.328 -1.6017  0.2544  1.5983
 2988TIP3    H230380   1.054   2.941   0.325 -0.1890  0.8000 -0.6679
 2989TIP3   OH230381   1.861   2.576  16.080  0.2382  0.0766  0.2909
 2989TIP3    H130382   1.925   2.616  16.138 -1.0124 -0.0015  1.7957
 2989TIP3    H230383   1.793   2.642  16.070 -0.3335 -0.5077  0.2420
 2990TIP3   OH230384   6.149   3.775  11.105  0.4777 -0.0473 -0.0782
 2990TIP3    H130385   6.083   3.782  11.036  0.6565  0.6843 -0.1809
 2990TIP3    H230386   6.181   3.864  11.117  0.8751 -0.2677  0.5361
 2991TIP3   OH230387   6.778   2.906   3.676 -0.5622 -0.2060 -0.0713
 2991TIP3    H130388   6.707   2.941   3.622  0.2697 -0.2742 -1.2476
 2991TIP3    H230389   6.738   2.889   3.761 -1.5023  1.5466 -0.1287
 2992TIP3   OH230390   2.208   0.076   4.173 -0.4147 -0.6033  0.1616
 2992TIP3    H130391   2.268   0.144   4.203  0.3728 -1.6237  0.9690
 2992TIP3    H230392   2.148   0.062   4.246 -1.9242  0.6840 -0.7853
 2993TIP3   OH230393   1.089   1.952   2.439  0.1101 -0.5293 -0.3452
 2993TIP3    H130394   1.134   2.035   2.449 -1.1287  0.2167 -0.7514
 2993TIP3    H230395   1.085   1.917   2.528 -0.7491  0.6196  0.0970
 2994TIP3   OH230396   5.672   5.490   3.091 -0.0533  0.1050 -0.5929
 2994TIP3    H130397   5.642   5.527   3.174  0.1835 -0.2275 -0.3562
 2994TIP3    H230398   5.767   5.504   3.091 -0.1529  0.8507 -1.1860
 2995TIP3   OH230399   3.589   3.113   4.180  0.3735  0.0255 -0.2983
 2995TIP3    H130400   3.501   3.110   4.220  0.5474  1.6299  0.2841
 2995TIP3    H230401   3.577   3.165   4.101  0.6362 -0.5163 -0.6955
 2996TIP3   OH230402   6.619   0.343  11.534  0.2147  0.0164  0.2315
 2996TIP3    H130403   6.708   0.377  11.541  0.5924 -0.8247 -0.3119
 2996TIP3    H230404   6.585   0.381  11.453 -0.3149  1.1953  0.9933
 2997TIP3   OH230405   2.294   5.022   2.451  0.2972 -0.3082 -0.2665
 2997TIP3    H130406   2.290   5.114   2.423  0.2691  0.1607  1.1892
 2997TIP3    H230407   2.367   4.985   2.400  0.2503  0.4897 -0.9398
 2998TIP3   OH230408   4.128   1.725  12.973 -0.0524 -0.0468 -1.1771
 2998TIP3    H130409   4.069   1.686  12.909  1.5261 -0.7693 -2.2712
 2998TIP3    H230410   4.100   1.688  13.057 -1.4715  0.0716 -1.5705
 2999TIP3   OH230411   2.980   0.665  11.852  0.1938  0.1139  0.6011
 2999TIP3    H130412   3.054   0.695  11.799 -0.9357  2.2449  0.1443
 2999TIP3    H230413   2.939   0.596  11.800  0.0100  1.1168 -0.6368
 3000TIP3   OH230414   3.020   0.722  13.065  0.0444 -1.0328 -0.2393
 3000TIP3    H130415   2.997   0.631  13.085  0.2137 -0.9374  0.4157
 3000TIP3    H230416   3.002   0.731  12.972  0.6663 -1.9328 -0.4601
 3001TIP3   OH230417   6.505   3.164   1.403 -0.0280 -0.0418  0.2071
 3001TIP3    H130418   6.490   3.258   1.405  0.7641  0.1010 -0.1132
 3001TIP3    H230419   6.455   3.133   1.327  1.6994  0.5239 -1.2533
 3002TIP3   OH230420   0.267   3.982   0.272 -0.4434  0.5082 -0.0372
 3002TIP3    H130421   0.350   3.995   0.318 -0.1066  1.2007 -0.8067
 3002TIP3    H230422   0.237   3.896   0.300 -0.5413  1.1246  1.9148
 3003TIP3   OH230423   0.365   2.466  14.111 -0.4798  1.0058  0.3601
 3003TIP3    H130424   0.426   2.496  14.178  0.8443  0.2213 -0.4531
 3003TIP3    H230425   0.345   2.376  14.136  0.5128  0.4987 -0.6079
 3004TIP3   OH230426   1.510   4.507   0.649 -0.5354  0.3028 -0.3559
 3004TIP3    H130427   1.442   4.558   0.692 -1.2845 -2.6605  2.3200
 3004TIP3    H230428   1.589   4.525   0.700 -0.5134 -0.1836 -0.2152
 3005TIP3   OH230429   6.043   6.581  17.037 -0.5077  0.3423  0.3104
 3005TIP3    H130430   5.956   6.608  17.067  0.1606  0.3021  2.4100
 3005TIP3    H230431   6.095   6.662  17.038 -0.0488  0.0443  0.8387
 3006TIP3   OH230432   1.307   5.472   3.579 -0.4515 -0.7692 -0.1681
 3006TIP3    H130433   1.335   5.425   3.500  1.8546 -0.6851  0.5258
 3006TIP3    H230434   1.247   5.539   3.547  0.4972 -0.6815 -1.8755
 3007TIP3   OH230435   6.050   2.991  10.809  0.0053  0.2790  0.6726
 3007TIP3    H130436   6.059   3.077  10.850 -0.7511  0.3504  0.7074
 3007TIP3    H230437   6.018   2.934  10.879  0.9189 -0.1373  0.7607
 3008TIP3   OH230438   4.268   2.136   3.332 -0.2823 -0.0056  0.9946
 3008TIP3    H130439   4.316   2.192   3.271 -0.5770 -0.2997  0.4852
 3008TIP3    H230440   4.328   2.063   3.350 -1.0581 -1.1677 -0.8228
 3009TIP3   OH230441   5.226   2.075   1.120  0.3595  0.7689 -0.1457
 3009TIP3    H130442   5.207   2.043   1.208 -0.7318  0.9012 -0.3148
 3009TIP3    H230443   5.155   2.137   1.102 -1.7564 -2.0426 -2.5723
 3010TIP3   OH230444   6.641   1.820   0.084  0.3932  0.3535 -0.1286
 3010TIP3    H130445   6.672   1.750   0.141 -1.3240  1.1670  1.9289
 3010TIP3    H230446   6.606   1.886   0.143 -0.1906  1.9141 -2.0879
 3011TIP3   OH230447   0.143   0.498  12.239  0.0045 -0.0942  0.6941
 3011TIP3    H130448   0.080   0.518  12.309  0.6481  1.8246  0.7992
 3011TIP3    H230449   0.088   0.475  12.164 -1.1166  4.0866 -0.0163
 3012TIP3   OH230450   6.784   2.490   4.179  0.9208  0.5719  0.0725
 3012TIP3    H130451   6.821   2.417   4.228 -2.5442 -0.6875  1.0999
 3012TIP3    H230452   6.780   2.458   4.088  1.6835  0.4519  0.0821
 3013TIP3   OH230453   0.586   4.444  13.012  0.3282  0.3853  0.4774
 3013TIP3    H130454   0.641   4.366  12.998  0.6739  0.1996  2.4986
 3013TIP3    H230455   0.605   4.500  12.937  1.9626 -0.4431  0.2110
 3014TIP3   OH230456   1.386   6.426  13.503  0.7050  0.1305 -0.1744
 3014TIP3    H130457   1.350   6.502  13.549  0.6937 -0.2378  0.4396
 3014TIP3    H230458   1.313   6.365  13.497  1.4661 -1.1222  2.1482
 3015TIP3   OH230459   4.364   3.855   1.524  0.7784  0.2639  0.8387
 3015TIP3    H130460   4.334   3.862   1.433 -1.6873 -2.1266  1.3531
 3015TIP3    H230461   4.455   3.886   1.521  0.6742  0.6052 -2.3459
 3016TIP3   OH230462   3.750   4.055  14.393  0.5608 -0.0301 -0.5201
 3016TIP3    H130463   3.789   4.022  14.312 -2.2040 -0.8580 -1.6285
 3016TIP3    H230464   3.775   4.147  14.395  3.5752 -0.7347 -0.4181
 3017TIP3   OH230465   1.011   4.724   4.880  0.2244 -0.5276  0.3358
 3017TIP3    H130466   0.951   4.789   4.842 -0.2357 -0.7990  0.5852
 3017TIP3    H230467   1.066   4.696   4.806 -0.1124 -0.4416  0.0503
 3018TIP3   OH230468   0.311   0.209  14.160 -0.2248 -0.6694  0.2019
 3018TIP3    H130469   0.368   0.132  14.158  1.9352  0.7816  1.4587
 3018TIP3    H230470   0.249   0.191  14.230 -0.5269 -1.7395 -0.3196
 3019TIP3   OH230471   4.071   6.731   3.926  0.5077 -0.0264  0.3836
 3019TIP3    H130472   4.061   6.773   3.840 -0.7245 -1.2503 -0.1013
 3019TIP3    H230473   3.997   6.672   3.932  1.0271 -0.5486  1.9726
 3020TIP3   OH230474   1.658   3.914   3.543  0.3906  0.5931 -0.6686
 3020TIP3    H130475   1.707   3.977   3.597 -0.3360  2.5178 -2.1607
 3020TIP3    H230476   1.700   3.830   3.562  0.7694  1.3093  2.1432
 3021TIP3   OH230477   1.563   2.697  16.874  0.1096  0.2253 -0.8351
 3021TIP3    H130478   1.618   2.775  16.876 -1.4400  1.3565  0.6536
 3021TIP3    H230479   1.473   2.730  16.878 -0.6789 -1.5913 -2.1571
 3022TIP3   OH230480   1.460   3.998  15.085  0.5793 -0.2151  0.4057
 3022TIP3    H130481   1.431   4.039  15.167  0.7317  0.3070  0.1993
 3022TIP3    H230482   1.521   4.061  15.047 -1.3869  0.7472 -1.3973
 3023TIP3   OH230483   3.152   5.109   0.492 -0.8590 -0.4181  0.3903
 3023TIP3    H130484   3.181   5.069   0.410  0.0923  1.5068 -0.2726
 3023TIP3    H230485   3.135   5.201   0.469  0.2584  0.3828  2.5160
 3024TIP3   OH230486   2.585   5.743  16.449 -0.6422 -0.6542 -0.0127
 3024TIP3    H130487   2.555   5.805  16.515 -0.0098  0.7894 -1.0321
 3024TIP3    H230488   2.509   5.686  16.434 -2.0632  1.2958 -0.6670
 3025TIP3   OH230489   4.112   5.310   0.873 -0.4001 -0.4979 -0.0299
 3025TIP3    H130490   4.160   5.388   0.845 -0.5125  0.1725  1.5352
 3025TIP3    H230491   4.164   5.236   0.839  0.7770  0.2282  0.1283
 3026TIP3   OH230492   3.130   6.034  14.247  0.1610 -0.2278 -0.0196
 3026TIP3    H130493   3.114   6.100  14.315 -0.5300  1.1968 -1.5094
 3026TIP3    H230494   3.223   6.012  14.257  0.0296 -0.2170  1.5051
 3027TIP3   OH230495   2.684   2.319   1.008  0.6552 -0.0418  0.3813
 3027TIP3    H130496   2.764   2.275   1.038  0.0752 -0.8596  0.7522
 3027TIP3    H230497   2.679   2.299   0.915  1.7645  1.4203 -0.0364
 3028TIP3   OH230498   3.397   3.456  13.328  0.3159 -0.1606  0.0322
 3028TIP3    H130499   3.481   3.416  13.306 -0.6007 -1.5600 -1.0350
 3028TIP3    H230500   3.394   3.454  13.424  0.8606 -1.4434  0.0339
 3029TIP3   OH230501   3.755   2.396  16.329  0.6015 -0.0377 -0.5020
 3029TIP3    H130502   3.731   2.487  16.313 -0.4967 -0.5997 -2.3729
 3029TIP3    H230503   3.703   2.372  16.406  0.0389  0.5947 -0.6712
 3030TIP3   OH230504   5.444   2.492  10.830  0.2355  0.1951  0.2876
 3030TIP3    H130505   5.352   2.515  10.842  0.2424  0.5948 -0.3632
 3030TIP3    H230506   5.490   2.535  10.902  0.0400  0.8688  0.0180
 3031TIP3   OH230507   0.488   6.015  15.276  0.1782 -0.0856 -0.1996
 3031TIP3    H130508   0.512   6.094  15.326  1.1476 -0.5244  0.0560
 3031TIP3    H230509   0.473   6.046  15.187 -1.9909  0.7834  0.4076
 3032TIP3   OH230510   0.959   4.930  16.453 -0.1565 -0.6001  0.0131
 3032TIP3    H130511   0.919   4.956  16.370 -1.5513  0.6648  1.0193
 3032TIP3    H230512   0.922   4.843  16.471 -1.7381  0.1163  0.4220
 3033TIP3   OH230513   2.080   2.701  16.806  0.2096  0.3697 -0.3514
 3033TIP3    H130514   2.120   2.771  16.858  0.7793 -0.7115  0.7256
 3033TIP3    H230515   2.105   2.621  16.852 -0.2101 -0.5575 -1.6974
 3034TIP3   OH230516   1.769   1.345  17.165  0.0892 -0.1185 -0.2179
 3034TIP3    H130517   1.780   1.349  17.070 -1.1479 -0.8320 -0.4064
 3034TIP3    H230518   1.702   1.279  17.179 -1.1822  1.3649  1.0444
 3035TIP3   OH230519   1.397   0.064   4.969 -0.0715  0.2557 -0.4493
 3035TIP3    H130520   1.308   0.075   5.003 -0.0938 -1.2645  0.0336
 3035TIP3    H230521   1.413  -0.030   4.971  2.0296  0.5615  0.6872
 3036TIP3   OH230522   4.149   3.418   5.242  0.6194  0.3106 -0.0435
 3036TIP3    H130523   4.144   3.496   5.187  3.3362  1.4849  1.1828
 3036TIP3    H230524   4.133   3.449   5.330  0.8466 -0.6924  0.3699
 3037TIP3   OH230525   0.885   4.049  14.617 -0.4309  0.8670 -0.9043
 3037TIP3    H130526   0.847   3.999  14.690 -0.7014  1.6933 -0.4634
 3037TIP3    H230527   0.809   4.079  14.567 -0.2259 -1.1424 -2.5744
 3038TIP3   OH230528   2.442   2.868  12.749 -0.0369  0.0600 -0.7180
 3038TIP3    H130529   2.444   2.945  12.692 -0.9631 -0.6275 -1.7282
 3038TIP3    H230530   2.523   2.821  12.728  0.8026  1.0044  0.2994
 3039TIP3   OH230531   6.796   4.728  14.597 -0.2406  0.0963 -0.2256
 3039TIP3    H130532   6.809   4.821  14.615 -1.6539  0.1054  0.9197
 3039TIP3    H230533   6.842   4.684  14.668 -1.8051  0.0192  0.7902
 3040TIP3   OH230534   6.301   5.056  12.892  0.1536 -0.1589 -0.5439
 3040TIP3    H130535   6.388   5.031  12.922 -0.4889 -1.0040  0.7433
 3040TIP3    H230536   6.266   4.978  12.851  0.0059  0.1840 -1.0789
 3041TIP3   OH230537   2.642   4.774   1.618  0.2175  0.1888 -0.1270
 3041TIP3    H130538   2.559   4.740   1.651  0.5883  0.0433  0.6912
 3041TIP3    H230539   2.702   4.766   1.692  1.1465 -0.3693 -0.9175
 3042TIP3   OH230540   0.672   1.807  13.332 -0.0961  0.5522  0.1531
 3042TIP3    H130541   0.599   1.745  13.332 -0.7285  1.2772 -0.1756
 3042TIP3    H230542   0.704   1.806  13.422 -1.4546  1.3039  0.6682
 3043TIP3   OH230543   6.463   6.622  10.454  0.2038  0.1238  0.5407
 3043TIP3    H130544   6.461   6.652  10.363  0.0345 -0.4481  0.3500
 3043TIP3    H230545   6.545   6.574  10.461 -0.0532 -0.3193  0.5311
 3044TIP3   OH230546   2.030   3.031   0.781  0.2738  0.2616  0.3730
 3044TIP3    H130547   2.070   3.032   0.868 -0.1463 -1.5285  0.6293
 3044TIP3    H230548   1.988   3.116   0.772  0.4896  0.5411  1.8476
 3045TIP3   OH230549   6.566   4.751   4.622  0.0226  0.0600 -0.0304
 3045TIP3    H130550   6.529   4.830   4.663  0.4173  0.6617 -0.8037
 3045TIP3    H230551   6.497   4.718   4.566 -0.0126  0.0762  0.0029
 3046TIP3   OH230552   0.508   5.767   2.056 -0.1965  0.5301  0.3778
 3046TIP3    H130553   0.456   5.728   2.126  1.1512 -1.7136  0.2107
 3046TIP3    H230554   0.445   5.819   2.006 -2.4177 -2.2463  0.0404
 3047TIP3   OH230555   6.372   6.618   5.933 -0.6199  0.6320  0.4765
 3047TIP3    H130556   6.279   6.643   5.934 -0.7986  0.1851 -1.7172
 3047TIP3    H230557   6.381   6.557   6.006 -2.1185  0.4536  0.5422
 3048TIP3   OH230558   5.759   1.221   3.712 -0.2415  0.4041 -0.4879
 3048TIP3    H130559   5.748   1.316   3.718 -1.0459  0.3133 -0.3545
 3048TIP3    H230560   5.820   1.199   3.782 -1.9246  0.5353  1.0791
 3049TIP3   OH230561   0.391   4.819  14.743 -0.3495  0.1692 -0.9310
 3049TIP3    H130562   0.442   4.740  14.760  0.0643  0.6171 -0.0223
 3049TIP3    H230563   0.300   4.792  14.758 -0.0507  0.4585  2.0173
 3050TIP3   OH230564   0.984   4.421   0.342 -0.2382 -0.1434  0.5590
 3050TIP3    H130565   1.035   4.356   0.293  0.0442  0.7898 -0.4160
 3050TIP3    H230566   0.975   4.383   0.430 -0.1596 -1.5327 -0.0058
 3051TIP3   OH230567   4.947   4.869   4.339  0.5806 -0.2579  0.4547
 3051TIP3    H130568   4.905   4.834   4.417 -0.4556 -1.7689 -0.7284
 3051TIP3    H230569   4.879   4.867   4.271  0.3449  4.2208  0.2120
 3052TIP3   OH230570   2.922   6.757  14.834  0.3101  0.5836 -0.0114
 3052TIP3    H130571   2.886   6.845  14.819 -0.7485  0.1711  0.0843
 3052TIP3    H230572   2.878   6.726  14.913 -0.0810 -0.4342 -0.6121
 3053TIP3   OH230573   3.346   5.390  16.854 -0.1057  0.0242 -1.3769
 3053TIP3    H130574   3.266   5.434  16.883  0.1847 -0.6456  0.5875
 3053TIP3    H230575   3.369   5.434  16.772 -1.9695  0.8398 -1.5204
 3054TIP3   OH230576   5.427   0.179   2.519  0.4388 -0.3954  0.5390
 3054TIP3    H130577   5.438   0.257   2.464  0.7768  1.2446  2.8068
 3054TIP3    H230578   5.339   0.186   2.554 -0.0501 -1.8313 -0.3060
 3055TIP3   OH230579   6.134   0.282   5.121  0.4998  0.0539  0.4146
 3055TIP3    H130580   6.048   0.303   5.084  1.5797  0.1875 -2.2690
 3055TIP3    H230581   6.184   0.247   5.047  3.1361  1.0732  1.5756
 3056TIP3   OH230582   2.735   6.493   3.607  0.3110  0.1401 -0.7617
 3056TIP3    H130583   2.745   6.438   3.684  1.2810  2.0740  0.5663
 3056TIP3    H230584   2.672   6.561   3.634  2.1385  1.9962 -0.9133
 3057TIP3   OH230585   6.254   4.172  13.230  0.3845  0.2414  0.5039
 3057TIP3    H130586   6.331   4.116  13.225 -0.6534 -1.1739 -0.7917
 3057TIP3    H230587   6.239   4.186  13.324  1.1073 -1.0695  0.8354
 3058TIP3   OH230588   5.297   5.984  16.935  0.0283  0.4845 -0.0212
 3058TIP3    H130589   5.213   6.030  16.932 -0.1041  0.2630  0.1876
 3058TIP3    H230590   5.353   6.031  16.873  0.4160  1.9623  1.3668
 3059TIP3   OH230591   3.470   2.570  13.488  0.3908 -0.6260  0.4609
 3059TIP3    H130592   3.502   2.480  13.495  0.4759 -0.6367 -0.0125
 3059TIP3    H230593   3.443   2.579  13.396  1.9366  0.3356  0.0605
 3060TIP3   OH230594   6.594   2.661  15.019  1.0578  0.8534 -0.1908
 3060TIP3    H130595   6.562   2.572  15.035  3.2236 -0.1634 -1.0094
 3060TIP3    H230596   6.528   2.702  14.964  0.4838 -0.6106 -0.6263
 3061TIP3   OH230597   0.619   6.577   5.584 -0.1587 -0.0549 -0.0629
 3061TIP3    H130598   0.603   6.509   5.519  1.0134 -0.0425 -0.3858
 3061TIP3    H230599   0.693   6.544   5.636  1.2045  1.4175 -0.9461
 3062TIP3   OH230600   6.267   6.675  13.568 -0.0203 -0.2365 -0.1926
 3062TIP3    H130601   6.182   6.632  13.570  0.5465 -1.4966 -1.2116
 3062TIP3    H230602   6.326   6.615  13.615  0.4059  0.3563  0.0425
 3063TIP3   OH230603   2.514   3.527   3.414  0.0206 -0.0094  0.1715
 3063TIP3    H130604   2.607   3.502   3.411  0.5967  1.9071  0.7664
 3063TIP3    H230605   2.482   3.487   3.495  0.7395  0.5833  0.7610
 3064TIP3   OH230606   4.118   4.225   4.131 -0.0155  0.3125  0.7362
 3064TIP3    H130607   4.063   4.148   4.146  1.7527 -0.8086  1.8710
 3064TIP3    H230608   4.207   4.191   4.137  0.8252  2.1144 -0.7211
 3065TIP3   OH230609   5.784   1.548  13.019 -0.1339  0.1672 -0.0336
 3065TIP3    H130610   5.793   1.466  12.971 -0.6885 -0.1748  0.4315
 3065TIP3    H230611   5.872   1.567  13.051 -0.1183 -0.5740  0.3857
 3066TIP3   OH230612   3.831   1.774  11.199 -0.0998 -0.5034 -0.2485
 3066TIP3    H130613   3.801   1.834  11.267  0.1250 -1.5624  0.8038
 3066TIP3    H230614   3.926   1.772  11.209 -0.1187 -1.1645 -0.1570
 3067TIP3   OH230615   5.770   5.223   4.290 -0.4342 -0.3774 -0.4105
 3067TIP3    H130616   5.866   5.220   4.287 -0.3537  1.6261 -2.5091
 3067TIP3    H230617   5.744   5.131   4.295  1.5350 -0.9404  2.0959
 3068TIP3   OH230618   6.200   6.291  13.561  0.2480 -0.3483 -0.3173
 3068TIP3    H130619   6.164   6.272  13.475  0.6014 -1.3140 -0.2608
 3068TIP3    H230620   6.295   6.295  13.548  0.4037 -1.7031  0.2225
 3069TIP3   OH230621   0.965   6.461   6.019 -0.6576 -0.4031  0.4842
 3069TIP3    H130622   0.883   6.464   5.970 -0.7248 -0.3132  0.6042
 3069TIP3    H230623   0.939   6.471   6.111 -0.4239  0.6796  0.4390
 3070TIP3   OH230624   1.778   3.674   2.413 -0.5444 -0.1331 -0.1444
 3070TIP3    H130625   1.708   3.678   2.348 -1.1922 -1.0861  0.4703
 3070TIP3    H230626   1.763   3.751   2.469 -0.1489  0.5345 -0.9397
 3071TIP3   OH230627   2.564   5.210  15.375  0.6094  0.4792 -0.5698
 3071TIP3    H130628   2.608   5.287  15.340  0.3149  1.9213  1.9768
 3071TIP3    H230629   2.596   5.137  15.321  2.8382  2.0182 -1.4696
 3072TIP3   OH230630   3.934   6.202  13.658  0.5916  0.4446  0.3109
 3072TIP3    H130631   3.857   6.148  13.641  0.7240  0.3299  0.0723
 3072TIP3    H230632   3.899   6.278  13.705  0.1840  0.8683 -0.6468
 3073TIP3   OH230633   5.140   6.395  16.334 -0.1829 -0.3786  0.2511
 3073TIP3    H130634   5.092   6.406  16.252  1.0051 -1.7313 -0.6733
 3073TIP3    H230635   5.232   6.412  16.311  0.2616 -1.4360  1.1433
 3074TIP3   OH230636   5.191   5.646  14.740 -0.2614 -0.0863 -0.2002
 3074TIP3    H130637   5.227   5.558  14.728  0.8737  0.1899  1.0378
 3074TIP3    H230638   5.148   5.643  14.826  3.0251  1.5445  1.6731
 3075TIP3   OH230639   4.196   5.211  14.797 -0.1470 -0.1246  0.1224
 3075TIP3    H130640   4.116   5.199  14.849 -0.7315  0.5846 -0.5779
 3075TIP3    H230641   4.214   5.305  14.801 -0.2522 -0.0375 -0.9960
 3076TIP3   OH230642   5.661   0.111  11.203  0.1916  0.6464 -0.4902
 3076TIP3    H130643   5.630   0.134  11.115 -1.6741 -2.2764 -0.7436
 3076TIP3    H230644   5.645   0.189  11.255  0.1235  2.0173 -2.4564
 3077TIP3   OH230645   1.174   0.151  10.439 -0.2670  0.1853 -0.2665
 3077TIP3    H130646   1.244   0.110  10.390 -1.8007 -1.9368 -0.8416
 3077TIP3    H230647   1.160   0.093  10.514 -1.2945  0.6233 -0.1007
 3078TIP3   OH230648   4.215   5.589   3.822  0.0999 -0.3618  0.3187
 3078TIP3    H130649   4.254   5.673   3.795  0.0094  0.2498  1.9780
 3078TIP3    H230650   4.214   5.593   3.918 -0.0178 -2.2256  0.4268
 3079TIP3   OH230651   4.371   0.313   1.018 -0.4226  0.5630 -0.0888
 3079TIP3    H130652   4.350   0.233   1.066  0.4843  0.8887  0.9079
 3079TIP3    H230653   4.447   0.348   1.064  1.2945  0.2527 -2.5292
 3080TIP3   OH230654   3.324   3.735  11.928 -0.3626  0.1803  0.6900
 3080TIP3    H130655   3.411   3.723  11.966  0.3986  2.3738 -0.1890
 3080TIP3    H230656   3.278   3.653  11.946  1.4456 -0.5513  2.3001
 3081TIP3   OH230657   5.604   5.571  10.600  0.4337 -0.3827 -0.6216
 3081TIP3    H130658   5.565   5.489  10.571  0.3323 -0.7737  0.5886
 3081TIP3    H230659   5.603   5.626  10.522 -0.4046 -1.1847 -1.2013
 3082TIP3   OH230660   4.933   1.979   2.678 -0.1306 -0.3438 -0.0285
 3082TIP3    H130661   4.897   2.051   2.627 -0.1095 -1.3119 -1.4837
 3082TIP3    H230662   4.884   1.902   2.648 -0.5171 -0.8839  1.8564
 3083TIP3   OH230663   5.862   0.518  12.551  0.3984  0.0572  0.2561
 3083TIP3    H130664   5.914   0.438  12.545 -1.8578 -1.4721 -0.0924
 3083TIP3    H230665   5.822   0.514  12.638 -0.7936  0.0926 -0.2772
 3084TIP3   OH230666   2.630   3.000   0.084  0.2631  0.2705 -0.0293
 3084TIP3    H130667   2.648   2.975   0.175 -0.5478  1.2835  0.4292
 3084TIP3    H230668   2.676   2.934   0.032  0.8284 -0.2698  1.1090
 3085TIP3   OH230669   3.620   2.792  11.642  0.1001  0.2902  0.6474
 3085TIP3    H130670   3.638   2.702  11.616  1.6296  0.2176  1.8235
 3085TIP3    H230671   3.524   2.799  11.639 -0.0801 -1.5279  1.0146
 3086TIP3   OH230672   0.843   4.705   2.255 -0.2186 -0.8045 -0.5728
 3086TIP3    H130673   0.845   4.759   2.334  0.5246  0.4228 -1.4013
 3086TIP3    H230674   0.786   4.632   2.278 -0.5153 -0.1560  0.8911
 3087TIP3   OH230675   0.712   3.331   2.817 -0.0910  0.4041  0.2460
 3087TIP3    H130676   0.791   3.378   2.843 -0.7262  1.3797  0.4759
 3087TIP3    H230677   0.655   3.337   2.894 -0.4192 -0.2350  0.0605
 3088TIP3   OH230678   4.088   3.396  15.549  0.0619 -0.2251 -0.0916
 3088TIP3    H130679   4.127   3.483  15.555  0.4919 -0.5384  2.3674
 3088TIP3    H230680   3.993   3.412  15.549  0.1325  0.2406  0.8035
 3089TIP3   OH230681   5.427   3.197   3.915 -0.0562  1.0612  0.2024
 3089TIP3    H130682   5.429   3.177   4.009 -0.7320  1.5389  0.3281
 3089TIP3    H230683   5.413   3.291   3.911  2.5410  1.4891 -0.3817
 3090TIP3   OH230684   4.647   4.335   0.828  0.5657 -0.0799  0.5264
 3090TIP3    H130685   4.675   4.370   0.912  1.3437  0.9317 -0.1242
 3090TIP3    H230686   4.676   4.243   0.829 -1.6159 -0.8226  2.3100
 3091TIP3   OH230687   3.590   2.015  13.793  0.0911 -0.3279  0.3638
 3091TIP3    H130688   3.636   1.999  13.711  1.7468 -0.1645  1.2092
 3091TIP3    H230689   3.628   1.953  13.854 -1.6908 -1.0085  0.8476
 3092TIP3   OH230690   4.977   2.526   3.186 -0.1180  0.8269  0.2048
 3092TIP3    H130691   4.884   2.529   3.163  0.3714  2.0284 -1.7762
 3092TIP3    H230692   4.989   2.597   3.249 -0.6503  0.1598  1.0968
 3093TIP3   OH230693   3.689   0.997   4.451 -0.0720  0.9000  0.4604
 3093TIP3    H130694   3.639   0.916   4.448 -0.3056  1.0759 -0.6316
 3093TIP3    H230695   3.641   1.057   4.393  0.9781  1.3067 -0.0049
 3094TIP3   OH230696   1.077   5.013   3.659  0.0950 -0.5746  0.5263
 3094TIP3    H130697   1.172   5.009   3.650 -0.0858 -1.3222 -1.7779
 3094TIP3    H230698   1.061   5.093   3.710  1.9190  0.2318 -0.0786
 3095TIP3   OH230699   5.218   5.554  11.461 -0.0172 -0.4594  0.3993
 3095TIP3    H130700   5.143   5.613  11.472  0.1533 -0.1305 -0.1458
 3095TIP3    H230701   5.181   5.473  11.426 -0.2551 -0.6898  1.1632
 3096TIP3   OH230702   6.357   5.242  11.245  0.1181  0.0141 -0.0831
 3096TIP3    H130703   6.323   5.153  11.255  2.3326 -1.0156 -1.0571
 3096TIP3    H230704   6.440   5.242  11.293  1.4920  0.6648 -2.2800
 3097TIP3   OH230705   4.472   6.246   4.563  0.0218 -0.5604 -0.3753
 3097TIP3    H130706   4.402   6.311   4.554  0.0898 -0.4258  0.0297
 3097TIP3    H230707   4.537   6.270   4.498 -0.5694 -1.0302 -1.1566
 3098TIP3   OH230708   3.596   0.026  15.848  0.1265  0.1793  0.1571
 3098TIP3    H130709   3.577   0.089  15.917  1.0987 -0.0895  0.6834
 3098TIP3    H230710   3.654   0.072  15.788 -0.3333  0.2543 -0.2404
 3099TIP3   OH230711   2.379   3.793  12.193 -0.1064  0.3661 -0.2008
 3099TIP3    H130712   2.385   3.738  12.115 -1.2075 -2.7481  1.7289
 3099TIP3    H230713   2.294   3.771  12.232 -0.2404  2.9027  1.1506
 3100TIP3   OH230714   0.634   4.230  15.613  0.4460 -0.3337 -0.1688
 3100TIP3    H130715   0.636   4.180  15.694 -0.1513  0.2095  0.1962
 3100TIP3    H230716   0.541   4.233  15.589  0.2553  1.8330  0.6350
 3101TIP3   OH230717   5.313   0.880   5.227  0.2022  0.4569  0.5181
 3101TIP3    H130718   5.296   0.833   5.145  1.2409  0.0489  0.5158
 3101TIP3    H230719   5.368   0.954   5.201  1.4798 -0.2975  0.9627
 3102TIP3   OH230720   4.578   4.414   2.067 -0.5292 -0.6114 -0.0689
 3102TIP3    H130721   4.650   4.361   2.033  0.6005  0.4593  0.5844
 3102TIP3    H230722   4.563   4.481   2.000  1.0419  0.9013  1.0101
 3103TIP3   OH230723   5.460   3.626  16.767 -0.2619 -0.0579 -0.0521
 3103TIP3    H130724   5.428   3.716  16.769  0.1652  0.0933  1.9646
 3103TIP3    H230725   5.416   3.583  16.841  1.4219 -0.7954  0.5944
 3104TIP3   OH230726   2.448   2.138   3.001 -0.0187 -0.0703 -0.3130
 3104TIP3    H130727   2.370   2.087   3.023 -0.1257 -0.2582 -1.0981
 3104TIP3    H230728   2.521   2.084   3.028 -0.0982 -1.1913 -2.2381
 3105TIP3   OH230729   6.537   5.165  15.049 -0.0790  0.2441 -0.0355
 3105TIP3    H130730   6.516   5.231  14.983  0.2785  1.3055  0.8782
 3105TIP3    H230731   6.580   5.214  15.119  0.4256 -1.0083  0.5606
 3106TIP3   OH230732   5.785   1.050   2.047 -0.4363  0.2860 -0.2913
 3106TIP3    H130733   5.795   0.965   2.090  0.4570  0.2142 -0.6331
 3106TIP3    H230734   5.859   1.102   2.079 -1.1288  1.0413  0.1398
 3107TIP3   OH230735   3.184   1.573   5.442  0.5209  0.0351 -0.5192
 3107TIP3    H130736   3.144   1.588   5.356 -0.1607 -0.1242 -0.2347
 3107TIP3    H230737   3.216   1.659   5.470  1.0910  0.0217 -1.0928
 3108TIP3   OH230738   3.086   3.502   5.975 -0.0813 -0.5197 -0.2132
 3108TIP3    H130739   3.108   3.431   6.035 -0.9959  0.4303  1.3437
 3108TIP3    H230740   3.031   3.561   6.028  0.8001  1.4332 -1.3553
 3109TIP3   OH230741   5.724   2.222   2.279 -0.6533 -0.2847  0.2060
 3109TIP3    H130742   5.804   2.238   2.330  0.5698  1.4474 -2.0692
 3109TIP3    H230743   5.740   2.141   2.232 -1.4878 -1.4886  1.8773
 3110TIP3   OH230744   4.625   5.063  14.410 -0.1092 -0.1061 -0.3188
 3110TIP3    H130745   4.598   5.018  14.330 -2.3323 -0.5206  0.6136
 3110TIP3    H230746   4.698   5.010  14.444 -1.0039 -1.5645 -0.5930
 3111TIP3   OH230747   1.929   1.026  12.506 -0.0904 -0.5952 -0.5255
 3111TIP3    H130748   2.016   1.063  12.492  0.5480 -1.9572 -0.3102
 3111TIP3    H230749   1.913   0.972  12.429 -0.1988 -1.3317 -0.0004
 3112TIP3   OH230750   1.953   6.190   5.102  0.0447 -0.0841  0.5341
 3112TIP3    H130751   1.944   6.283   5.079  0.1508 -0.6068 -1.9020
 3112TIP3    H230752   1.978   6.190   5.194  0.0743  2.3006  0.5801
 3113TIP3   OH230753   0.855   5.557   4.240 -0.0569 -0.1995 -0.2454
 3113TIP3    H130754   0.936   5.505   4.246  0.3353  0.1275 -2.1901
 3113TIP3    H230755   0.886   5.647   4.237 -0.4560 -0.0889 -1.3266
 3114TIP3   OH230756   4.755   3.592   5.143  0.6786 -0.0511 -0.4362
 3114TIP3    H130757   4.750   3.545   5.060 -3.4688 -0.8914  0.0294
 3114TIP3    H230758   4.711   3.675   5.126  1.3648  0.5203  0.5093
 3115TIP3   OH230759   4.859   2.058  16.731 -0.1863  0.0842 -0.6896
 3115TIP3    H130760   4.882   2.145  16.764  0.7051  0.1269 -1.3898
 3115TIP3    H230761   4.776   2.072  16.684  1.5679  1.3037 -3.6810
 3116TIP3   OH230762   4.509   5.683   3.935 -0.3407  0.6510 -0.1588
 3116TIP3    H130763   4.470   5.771   3.938 -0.1010  0.7498  2.5929
 3116TIP3    H230764   4.562   5.683   3.855 -1.5822  2.4391 -1.0529
 3117TIP3   OH230765   4.427   0.044  15.940 -0.2481  0.6679 -0.0943
 3117TIP3    H130766   4.377  -0.032  15.970 -1.1759  0.5961 -1.6839
 3117TIP3    H230767   4.397   0.116  15.995 -0.3788  0.1611  0.5089
 3118TIP3   OH230768   2.531   2.124  13.461 -0.0629  0.8510  0.3296
 3118TIP3    H130769   2.498   2.071  13.389  2.4461  0.6511 -0.7920
 3118TIP3    H230770   2.551   2.061  13.530 -0.6203  0.8105  0.4600
 3119TIP3   OH230771   2.402   4.684  14.805  0.3952  0.0006  0.3639
 3119TIP3    H130772   2.399   4.776  14.833  0.8618  0.6061 -1.4333
 3119TIP3    H230773   2.486   4.652  14.837  1.5973  1.1100 -1.4448
 3120TIP3   OH230774   0.160   4.479  12.934 -0.0578  0.2421  0.3310
 3120TIP3    H130775   0.206   4.395  12.942  0.6319  0.4205 -1.3846
 3120TIP3    H230776   0.156   4.495  12.840 -1.6891  1.3355  0.5515
 3121TIP3   OH230777   6.517   4.888  14.226  0.3859  0.3975  0.3899
 3121TIP3    H130778   6.603   4.927  14.208  1.1413 -0.9269  0.9169
 3121TIP3    H230779   6.496   4.916  14.315 -0.4161  1.8592 -0.2260
 3122TIP3   OH230780   3.448   2.798   4.336  0.0818 -0.3755  0.3205
 3122TIP3    H130781   3.461   2.837   4.250 -0.4081  0.0523  0.4350
 3122TIP3    H230782   3.370   2.743   4.326  1.2193 -1.9943 -0.0582
 3123TIP3   OH230783   0.652   2.382   0.798  0.0239  0.2804  0.5133
 3123TIP3    H130784   0.577   2.438   0.779  0.2282  0.6300  0.7214
 3123TIP3    H230785   0.674   2.343   0.713  0.0040  0.6764  0.3212
 3124TIP3   OH230786   2.651   5.983  12.765 -0.0461 -0.0899 -0.1520
 3124TIP3    H130787   2.605   5.987  12.849 -0.3966  0.8676 -0.3792
 3124TIP3    H230788   2.589   5.940  12.706 -1.0667  2.0008 -0.6889
 3125TIP3   OH230789   0.510   2.578   0.661  0.3911  0.3609  0.4678
 3125TIP3    H130790   0.536   2.569   0.570  0.9702  0.4900  0.6169
 3125TIP3    H230791   0.415   2.591   0.658  0.5802  1.8726 -0.2255
 3126TIP3   OH230792   3.247   6.034  14.701  0.0104  0.2831 -0.1632
 3126TIP3    H130793   3.289   5.979  14.635  0.6163  0.2675  0.2334
 3126TIP3    H230794   3.304   6.029  14.777 -0.8135  0.1020  0.4590
 3127TIP3   OH230795   4.256   2.128   4.913 -0.2913  0.6531  0.9308
 3127TIP3    H130796   4.337   2.170   4.885 -1.5137  1.7403 -1.2688
 3127TIP3    H230797   4.265   2.036   4.886  0.0545  0.8631  0.3282
 3128TIP3   OH230798   4.680   5.258  11.702  0.1773 -0.6371  0.3545
 3128TIP3    H130799   4.589   5.280  11.682 -0.0026 -2.0587 -0.5064
 3128TIP3    H230800   4.730   5.337  11.679 -0.5530 -0.7157 -1.6070
 3129TIP3   OH230801   1.746   1.614   3.387  0.7347  0.2740  0.2609
 3129TIP3    H130802   1.750   1.705   3.359  0.3481  0.3488  0.4466
 3129TIP3    H230803   1.780   1.616   3.477  2.9576 -0.1128 -0.5031
 3130TIP3   OH230804   6.102   2.469   5.651 -0.3415  0.6217 -0.1870
 3130TIP3    H130805   6.064   2.388   5.686  2.9935 -0.8320  0.4570
 3130TIP3    H230806   6.114   2.450   5.558  0.3682  0.3838 -0.0509
 3131TIP3   OH230807   3.217   6.384   2.500  0.7212 -0.2199  0.2460
 3131TIP3    H130808   3.128   6.416   2.515  0.0390 -1.2371 -1.3947
 3131TIP3    H230809   3.273   6.445   2.549 -0.6917  1.8565 -0.5964
 3132TIP3   OH230810   1.512   3.172   4.373  0.0551 -0.8491 -0.7946
 3132TIP3    H130811   1.568   3.226   4.429  0.8502 -0.2457 -2.1147
 3132TIP3    H230812   1.465   3.115   4.434  0.0109  0.5730  0.5560
 3133TIP3   OH230813   2.775   6.679  15.058  0.3339 -0.2957 -0.2346
 3133TIP3    H130814   2.725   6.598  15.042  0.6597 -0.5739  0.1408
 3133TIP3    H230815   2.804   6.672  15.149 -0.6507  0.8113  0.1900
 3134TIP3   OH230816   3.492   1.117  13.948  0.0799 -0.0607 -0.0416
 3134TIP3    H130817   3.547   1.166  14.009  1.4055 -1.2189 -0.2498
 3134TIP3    H230818   3.495   1.166  13.866 -1.1498  1.1332  0.5911
 3135TIP3   OH230819   2.984   4.492  16.022  0.3274 -0.0149 -0.6847
 3135TIP3    H130820   2.930   4.497  16.101  0.2979  0.7163 -0.7373
 3135TIP3    H230821   3.065   4.450  16.051  0.8304  1.3832  0.0511
 3136TIP3   OH230822   0.888   6.672  16.800 -0.5915 -0.0475  0.3167
 3136TIP3    H130823   0.913   6.584  16.827 -1.2896 -0.3978 -0.1745
 3136TIP3    H230824   0.828   6.659  16.726 -0.0113  0.8558 -0.3317
 3137TIP3   OH230825   1.980   2.166  12.190  0.0531 -0.1061  0.2677
 3137TIP3    H130826   1.893   2.163  12.149 -0.2995  1.3370  0.8507
 3137TIP3    H230827   2.034   2.111  12.133 -1.6715 -2.8592  1.0842
 3138TIP3   OH230828   0.948   5.480   5.335  0.0235 -0.2383  0.2187
 3138TIP3    H130829   0.943   5.517   5.247 -1.0283 -2.4728 -0.7531
 3138TIP3    H230830   1.041   5.460   5.348  0.4157  1.4663  0.2774
 3139TIP3   OH230831   0.842   5.536   1.195 -0.2098 -0.1728  1.1790
 3139TIP3    H130832   0.783   5.554   1.121  0.1988  2.8182  1.4622
 3139TIP3    H230833   0.871   5.446   1.180 -2.4328 -0.7092 -0.6463
 3140TIP3   OH230834   2.252   3.635  14.911 -0.2486  0.1417 -0.4491
 3140TIP3    H130835   2.271   3.656  14.820 -0.9976 -0.2903 -0.7189
 3140TIP3    H230836   2.337   3.620  14.951  0.0613 -0.1478 -1.2041
 3141TIP3   OH230837   0.947   2.692   1.947  0.1448 -0.0276 -0.5073
 3141TIP3    H130838   0.878   2.656   1.891  0.0076 -0.7048  0.0829
 3141TIP3    H230839   0.986   2.615   1.988 -0.1294  0.4979  0.7659
 3142TIP3   OH230840   0.749   6.259  14.931 -0.0306 -0.5350  0.0036
 3142TIP3    H130841   0.764   6.275  15.024 -0.7850  0.0419  0.0389
 3142TIP3    H230842   0.665   6.302  14.913 -0.2424 -1.2628 -0.7816
 3143TIP3   OH230843   2.236   4.000  12.456 -0.6099  0.0891 -0.6114
 3143TIP3    H130844   2.264   4.039  12.373  0.7756  2.0252  0.6853
 3143TIP3    H230845   2.142   4.016  12.459 -0.3327  2.0161 -0.8485
 3144TIP3   OH230846   3.732   2.181  14.097 -0.5105 -0.0123  0.1288
 3144TIP3    H130847   3.802   2.233  14.059 -1.6402 -0.1107 -2.2407
 3144TIP3    H230848   3.762   2.091  14.089  0.2245  0.0479  1.6764
 3145TIP3   OH230849   1.356   5.808  13.660 -0.2425 -0.3110 -0.1488
 3145TIP3    H130850   1.341   5.718  13.629  0.3686 -0.2412 -0.6685
 3145TIP3    H230851   1.451   5.820  13.654 -0.2892  0.2760  0.1908
 3146TIP3   OH230852   5.830   2.038  16.288  0.2062  0.0659  0.5482
 3146TIP3    H130853   5.803   2.057  16.377 -1.7627  0.2525 -0.0579
 3146TIP3    H230854   5.756   2.063  16.233  0.8877 -1.1963 -1.0453
 3147TIP3   OH230855   1.299   0.952   3.049  0.3487 -0.2288  0.0236
 3147TIP3    H130856   1.358   0.985   3.117  1.3749 -0.9222 -0.4927
 3147TIP3    H230857   1.239   0.894   3.096  1.4989 -1.2645  0.2656
 3148TIP3   OH230858   6.300   0.731  12.758  0.8934  0.2007 -0.5157
 3148TIP3    H130859   6.356   0.722  12.834  1.1092 -0.1222 -0.7078
 3148TIP3    H230860   6.279   0.640  12.733  2.5165  0.2039 -2.0758
 3149TIP3   OH230861   3.695   4.795  16.251 -0.0566  0.5565  0.9284
 3149TIP3    H130862   3.710   4.761  16.339  0.2382  0.5962  0.8939
 3149TIP3    H230863   3.705   4.719  16.193  1.7296  0.8972  0.7392
 3150TIP3   OH230864   1.841   4.797  11.826  0.0418  0.1220  0.0637
 3150TIP3    H130865   1.854   4.892  11.825 -0.4153  0.3243  3.0291
 3150TIP3    H230866   1.770   4.783  11.890  0.3978 -2.2316  0.0370
 3151TIP3   OH230867   2.534   5.153  14.440  0.4701  0.1415 -0.1958
 3151TIP3    H130868   2.548   5.141  14.346  0.7436 -0.2422 -0.1087
 3151TIP3    H230869   2.536   5.064  14.476  1.9720  0.3915  0.3941
 3152TIP3   OH230870   2.969   2.563  11.347 -0.1705  0.0036  0.2577
 3152TIP3    H130871   2.892   2.619  11.339 -1.4672 -1.6206  0.8230
 3152TIP3    H230872   3.027   2.610  11.407 -1.0327  0.9177  0.3985
 3153TIP3   OH230873   0.971   3.615  13.933  0.4990 -0.2264  0.1669
 3153TIP3    H130874   0.974   3.616  13.837 -0.9782 -0.8994  0.0844
 3153TIP3    H230875   1.063   3.608  13.959  0.9151 -0.3142 -1.2042
 3154TIP3   OH230876   1.517   2.193   0.719 -0.1988 -0.3256 -0.5430
 3154TIP3    H130877   1.514   2.188   0.814  1.5961 -4.2587 -0.4952
 3154TIP3    H230878   1.427   2.173   0.691 -0.3077 -1.0727  0.3153
 3155TIP3   OH230879   5.479   1.082  11.611 -0.2219  0.0139  0.2885
 3155TIP3    H130880   5.477   1.177  11.607 -0.8410  0.0158  0.4678
 3155TIP3    H230881   5.521   1.055  11.529 -0.3365  0.4327  0.0892
 3156TIP3   OH230882   2.282   5.917   6.098  0.4818 -1.1508 -0.1410
 3156TIP3    H130883   2.191   5.939   6.076  1.3060  2.1077 -0.7216
 3156TIP3    H230884   2.287   5.928   6.193  1.0016  2.3468 -0.4485
 3157TIP3   OH230885   6.172   0.891   1.357  0.3287 -0.2360  0.4989
 3157TIP3    H130886   6.192   0.961   1.296  0.0679 -0.3116  0.3295
 3157TIP3    H230887   6.086   0.912   1.393 -1.6705 -2.4814 -2.4959
 3158TIP3   OH230888   1.248   5.588  10.890  0.7381 -0.7639  0.0338
 3158TIP3    H130889   1.305   5.526  10.935  0.0093 -1.7988 -0.4361
 3158TIP3    H230890   1.268   5.575  10.797  1.6903  0.8234 -0.0292
 3159TIP3   OH230891   1.535   3.356  11.275 -0.4697 -0.4281  0.3265
 3159TIP3    H130892   1.529   3.303  11.195  0.1057 -0.2252  0.1400
 3159TIP3    H230893   1.542   3.446  11.244  1.1780 -0.4471  0.5317
 3160TIP3   OH230894   5.392   4.901   3.827 -0.1219 -0.1028 -0.5269
 3160TIP3    H130895   5.381   4.995   3.842  0.0855 -0.2581  0.7041
 3160TIP3    H230896   5.477   4.880   3.864 -0.1381 -0.7690 -0.8452
 3161TIP3   OH230897   1.393   0.433   5.106 -0.0818 -0.0508 -0.0232
 3161TIP3    H130898   1.442   0.355   5.081 -0.4398 -0.3262  0.1359
 3161TIP3    H230899   1.417   0.449   5.197 -0.1896 -0.1135  0.0167
 3162TIP3   OH230900   5.236   4.771  11.364 -0.1567 -0.0686 -0.2999
 3162TIP3    H130901   5.222   4.815  11.280  0.0546  0.4346 -0.0771
 3162TIP3    H230902   5.224   4.840  11.429 -4.2758 -1.1521  0.3910
 3163TIP3   OH230903   0.107   6.612   0.213  0.2648  0.0094 -0.2577
 3163TIP3    H130904   0.127   6.521   0.235  2.1165  0.4447  0.0437
 3163TIP3    H230905   0.186   6.644   0.169 -0.5821  1.3030 -0.8968
 3164TIP3   OH230906   1.400   0.307  15.242  0.5780 -0.4840 -0.2490
 3164TIP3    H130907   1.417   0.216  15.218 -2.4189 -0.9794 -0.8691
 3164TIP3    H230908   1.411   0.356  15.160  1.3282 -0.4180 -0.1113
 3165TIP3   OH230909   6.219   4.175  14.661 -0.1434  0.1909 -0.4361
 3165TIP3    H130910   6.198   4.128  14.581  0.2027  0.4533 -0.6834
 3165TIP3    H230911   6.148   4.239  14.670 -2.0190 -1.9839  1.2462
 3166TIP3   OH230912   0.223   6.590  11.111  0.0747 -0.5593 -0.3081
 3166TIP3    H130913   0.134   6.618  11.089  0.0221  0.1415  0.7195
 3166TIP3    H230914   0.273   6.603  11.031 -0.4945  0.1964 -0.5535
 3167TIP3   OH230915   1.111   6.229   5.972 -0.3148 -0.1163  0.2037
 3167TIP3    H130916   1.060   6.311   5.967  0.5541  0.3896 -0.6009
 3167TIP3    H230917   1.069   6.180   6.043 -1.8030  0.3667 -0.3017
 3168TIP3   OH230918   1.473   6.082  14.803 -0.2053  0.4862  0.0225
 3168TIP3    H130919   1.452   6.016  14.869 -0.6490 -0.2540 -0.8363
 3168TIP3    H230920   1.464   6.036  14.720  2.2976  0.8378 -0.5172
 3169TIP3   OH230921   0.134   4.547   1.070 -0.2963  0.4364  0.5986
 3169TIP3    H130922   0.169   4.536   0.982 -3.1904  0.2256 -0.6309
 3169TIP3    H230923   0.196   4.606   1.113  1.4111  0.2208 -1.3977
 3170TIP3   OH230924   5.314   5.800   4.002 -0.6770 -0.3273 -0.4230
 3170TIP3    H130925   5.381   5.732   4.001  0.8228  1.0837 -1.2849
 3170TIP3    H230926   5.314   5.832   4.093 -0.9946 -1.0642 -0.1529
 3171TIP3   OH230927   1.404   1.041   5.629 -0.4292  0.6938 -0.5314
 3171TIP3    H130928   1.338   1.064   5.563 -1.0806  2.0843  0.5610
 3171TIP3    H230929   1.366   1.069   5.712  1.2285  0.8035  0.2291
 3172TIP3   OH230930   3.903   0.442  15.294 -0.5901  0.1516  0.3750
 3172TIP3    H130931   3.989   0.422  15.331  0.2270  0.8942 -1.0332
 3172TIP3    H230932   3.848   0.461  15.370  0.2415 -1.1829  1.3559
 3173TIP3   OH230933   5.451   0.096  11.536  0.1100 -0.0141 -0.3936
 3173TIP3    H130934   5.436   0.003  11.551 -2.5071  0.4116  0.1553
 3173TIP3    H230935   5.485   0.100  11.446  1.1923 -1.5228 -0.0887
 3174TIP3   OH230936   0.950   6.231  11.184  0.0018  0.4109 -0.2603
 3174TIP3    H130937   0.933   6.288  11.259  1.1235  0.6818 -0.1907
 3174TIP3    H230938   0.972   6.291  11.112  0.3290  0.1046 -0.4232
 3175TIP3   OH230939   6.251   1.615   1.184  0.1651 -0.4377  0.3749
 3175TIP3    H130940   6.237   1.668   1.106  1.1359 -1.1973 -0.3437
 3175TIP3    H230941   6.279   1.677   1.252  0.3186  0.0938 -0.1739
 3176TIP3   OH230942   4.066   1.494  16.198 -0.3190 -0.0139 -0.1886
 3176TIP3    H130943   4.123   1.488  16.121  0.1265 -0.2673  0.1576
 3176TIP3    H230944   4.023   1.579  16.189 -0.5341 -0.1851 -0.8945
 3177TIP3   OH230945   2.657   1.964  11.848  0.5011  0.5181  0.1034
 3177TIP3    H130946   2.598   2.038  11.861  2.2841  2.0277  0.0321
 3177TIP3    H230947   2.721   1.971  11.919  1.1454 -0.5286 -0.3438
 3178TIP3   OH230948   5.580   2.474   4.939 -0.3913  0.1969  0.3894
 3178TIP3    H130949   5.615   2.389   4.913  0.7027  0.9755 -0.8109
 3178TIP3    H230950   5.533   2.457   5.021 -0.1235 -1.5276  0.2184
 3179TIP3   OH230951   4.456   4.082   6.015  0.0600  0.2137 -0.1454
 3179TIP3    H130952   4.428   4.050   6.100  1.0435 -0.5962 -0.1090
 3179TIP3    H230953   4.552   4.076   6.017  0.1585  1.2834 -0.8821
 3180TIP3   OH230954   5.672   6.321  16.074  0.6262 -0.5224 -0.4802
 3180TIP3    H130955   5.595   6.370  16.046 -0.0791 -0.1514  1.8918
 3180TIP3    H230956   5.636   6.240  16.112  1.2940  0.0022  1.3643
 3181TIP3   OH230957   6.086   3.400   2.866 -0.5505 -0.2290 -0.4400
 3181TIP3    H130958   6.180   3.384   2.863 -1.0263 -3.8359 -0.6229
 3181TIP3    H230959   6.070   3.432   2.954  0.6068 -2.3563  0.6318
 3182TIP3   OH230960   3.963   0.019   3.459  0.7231 -0.0182 -0.1351
 3182TIP3    H130961   3.925  -0.067   3.479  1.1396 -0.6876 -1.9559
 3182TIP3    H230962   3.888   0.075   3.439  0.5276 -1.1405 -3.0261
 3183TIP3   OH230963   2.660   1.682  11.780 -0.4460 -0.2718 -0.1763
 3183TIP3    H130964   2.642   1.774  11.796 -0.6109 -0.2096 -0.6899
 3183TIP3    H230965   2.718   1.656  11.851 -1.1812 -0.0319  0.5215
 3184TIP3   OH230966   3.907   3.007   5.819 -0.5710  0.0885  0.8546
 3184TIP3    H130967   3.979   3.064   5.846 -0.7401  0.1849  1.1057
 3184TIP3    H230968   3.943   2.919   5.822  0.1553  0.2772 -1.0021
 3185TIP3   OH230969   1.061   5.456   2.046 -0.1901 -0.0395  0.6964
 3185TIP3    H130970   1.141   5.457   2.099  1.1743  1.4786 -1.2348
 3185TIP3    H230971   1.079   5.393   1.977 -1.6089 -1.3655  1.4920
 3186TIP3   OH230972   2.177   4.256  16.260 -0.1448 -0.4101 -0.4129
 3186TIP3    H130973   2.181   4.185  16.325 -1.4993  0.9733  1.2718
 3186TIP3    H230974   2.228   4.327  16.299 -1.1575  0.5176 -0.7301
 3187TIP3   OH230975   3.269   4.914   5.705 -0.5230 -0.1188 -0.0188
 3187TIP3    H130976   3.349   4.961   5.684 -0.5806  0.8251  1.6750
 3187TIP3    H230977   3.200   4.961   5.658 -0.3160  0.2359  0.0293
 3188TIP3   OH230978   0.559   3.065  11.454  0.2509  0.0355 -0.4593
 3188TIP3    H130979   0.553   3.046  11.360  1.1442  2.1825 -1.0264
 3188TIP3    H230980   0.496   3.006  11.495 -0.9027 -0.2525 -2.5149
 3189TIP3   OH230981   1.529   3.670   6.174  0.5185 -0.5996 -0.1274
 3189TIP3    H130982   1.509   3.603   6.240  0.8318 -0.3738  0.2020
 3189TIP3    H230983   1.560   3.745   6.225 -2.1756  0.7339 -0.2598
 3190TIP3   OH230984   3.293   5.077  15.929  0.1859  0.5001 -0.0571
 3190TIP3    H130985   3.293   5.085  16.024  0.8659 -0.5488  0.0527
 3190TIP3    H230986   3.384   5.061  15.906  0.1435  1.4330 -0.9653
 3191TIP3   OH230987   2.600   1.644   6.232 -0.2557 -0.3479 -0.0544
 3191TIP3    H130988   2.629   1.735   6.226  2.9230 -1.2933 -1.1557
 3191TIP3    H230989   2.505   1.648   6.217  0.2276  2.5047 -3.8523
 3192TIP3   OH230990   4.441   1.570  13.218  0.3158 -0.3575 -0.0806
 3192TIP3    H130991   4.407   1.659  13.229  0.9505 -0.3024  1.8309
 3192TIP3    H230992   4.486   1.572  13.134  1.1385  1.4451  0.3381
 3193TIP3   OH230993   6.068   5.058   0.138  0.5942 -0.5005 -0.2559
 3193TIP3    H130994   6.116   4.992   0.088  0.3404  0.5672 -1.9890
 3193TIP3    H230995   5.983   5.064   0.094 -0.7775 -1.5546  2.0684
 3194TIP3   OH230996   0.190   1.014  15.878  0.6526 -0.1612 -0.0201
 3194TIP3    H130997   0.259   1.000  15.943  0.3135 -1.5682  0.0810
 3194TIP3    H230998   0.127   1.071  15.922 -0.3743 -2.3611  1.5737
 3195TIP3   OH230999   2.173   2.921  13.232 -0.1868 -0.7192 -0.1362
 3195TIP3    H131000   2.220   2.924  13.149 -2.0693  1.5199 -1.2689
 3195TIP3    H231001   2.115   2.845  13.225 -0.7999 -0.1808 -1.2183
 3196TIP3   OH231002   5.382   0.193  13.730 -0.2608  0.2548 -0.1378
 3196TIP3    H131003   5.293   0.202  13.695 -0.2876  3.1287  0.3628
 3196TIP3    H231004   5.370   0.171  13.822 -0.3850 -1.0073 -0.4476
 3197TIP3   OH231005   1.757   3.511   1.457  0.0056  0.0957 -0.1632
 3197TIP3    H131006   1.813   3.533   1.382  0.1844 -1.1439 -0.4247
 3197TIP3    H231007   1.725   3.595   1.489 -0.8587  0.6085 -2.2249
 3198TIP3   OH231008   1.994   6.353  12.625 -0.1300  0.1696  0.1937
 3198TIP3    H131009   2.071   6.332  12.572  0.9780 -1.7987  2.3942
 3198TIP3    H231010   1.931   6.284  12.603  0.1423 -0.3570  1.0416
 3199TIP3   OH231011   1.068   6.075  16.217 -0.0351  0.5962  0.9047
 3199TIP3    H131012   1.116   6.060  16.298 -0.0911  2.0890  1.2509
 3199TIP3    H231013   0.976   6.079  16.244 -0.1912 -0.2519  0.5433
 3200TIP3   OH231014   2.170   4.055   0.640 -0.1814 -0.5300  0.0434
 3200TIP3    H131015   2.197   3.968   0.668 -1.2290 -0.9528 -0.1854
 3200TIP3    H231016   2.077   4.060   0.664 -0.4684  0.0182 -1.0844
 3201TIP3   OH231017   3.346   3.668   1.936 -0.1697 -0.0481 -0.1312
 3201TIP3    H131018   3.428   3.620   1.925 -0.1789  0.2725 -1.8803
 3201TIP3    H231019   3.373   3.757   1.960  0.1102  0.4469 -2.1012
 3202TIP3   OH231020   4.853   3.840   0.067 -0.3452 -0.4046 -0.4962
 3202TIP3    H131021   4.806   3.759   0.085 -0.4509 -0.0405  1.0158
 3202TIP3    H231022   4.924   3.814   0.008 -1.2299 -1.3162 -1.1986
 3203TIP3   OH231023   4.316   0.919  13.260  0.6562  0.3766  0.4268
 3203TIP3    H131024   4.278   0.850  13.206  1.0878  0.2300  0.3109
 3203TIP3    H231025   4.410   0.904  13.256  0.6448 -0.5633  2.4432
 3204TIP3   OH231026   3.453   4.051  12.518 -0.5161  0.4571  0.0345
 3204TIP3    H131027   3.490   4.128  12.475  1.0555  0.7273  1.7193
 3204TIP3    H231028   3.456   3.982  12.452  2.5691  0.6294 -0.1796
 3205TIP3   OH231029   1.566   4.668  10.861 -0.1310  0.8828 -0.3271
 3205TIP3    H131030   1.619   4.709  10.930 -0.1290 -0.1156  0.2802
 3205TIP3    H231031   1.588   4.717  10.782  2.4129 -0.0552 -0.2906
 3206TIP3   OH231032   0.963   6.477   4.229  0.1918  0.3946  0.2235
 3206TIP3    H131033   1.031   6.415   4.203 -0.8426 -0.9514  0.6218
 3206TIP3    H231034   0.989   6.560   4.188  1.4060 -0.3789 -0.6345
 3207TIP3   OH231035   4.953   2.160   5.672 -0.3798  0.3441  0.5202
 3207TIP3    H131036   4.989   2.108   5.600  0.5198 -0.7610  1.7260
 3207TIP3    H231037   4.859   2.144   5.667 -0.0922 -1.8301  1.1301
 3208TIP3   OH231038   4.838   3.577   1.087 -0.3446 -0.0689  0.0393
 3208TIP3    H131039   4.888   3.529   1.020 -0.1837  0.8919 -0.5504
 3208TIP3    H231040   4.758   3.604   1.041  0.3053  1.6341 -0.1419
 3209TIP3   OH231041   5.748   5.629   2.781  0.4253 -0.2487  0.2961
 3209TIP3    H131042   5.745   5.654   2.874 -1.4607 -0.5622  0.3624
 3209TIP3    H231043   5.813   5.558   2.777  1.9483  1.0430  1.0083
 3210TIP3   OH231044   4.647   0.868   0.477  0.6264 -0.2831 -0.0640
 3210TIP3    H131045   4.715   0.935   0.476  0.4238 -0.0643  0.5096
 3210TIP3    H231046   4.647   0.835   0.567  0.2988 -0.6080 -0.1827
 3211TIP3   OH231047   5.785   1.923   0.194 -0.4875 -0.2080 -0.2825
 3211TIP3    H131048   5.709   1.963   0.151 -0.0984  1.8806  0.8507
 3211TIP3    H231049   5.787   1.963   0.281  1.6716 -0.5379 -0.1293
 3212TIP3   OH231050   2.315   6.015   4.614 -0.1429 -0.2325  0.1131
 3212TIP3    H131051   2.267   6.037   4.534  0.3341  0.5473  0.0316
 3212TIP3    H231052   2.270   5.938   4.648 -1.5047  0.5260  0.0894
 3213TIP3   OH231053   4.477   4.688  11.259  0.3178  0.0256  0.4015
 3213TIP3    H131054   4.501   4.670  11.350 -1.0003 -1.7211  0.4458
 3213TIP3    H231055   4.405   4.751  11.265 -1.3206 -1.8027  0.7277
 3214TIP3   OH231056   5.374   2.672  17.104 -0.5352 -0.5266 -0.3039
 3214TIP3    H131057   5.415   2.634  17.182 -1.0160  1.2788  0.8942
 3214TIP3    H231058   5.382   2.604  17.037  1.7364 -1.3532  0.7159
 3215TIP3   OH231059   3.965   3.430  11.318 -0.4745  0.2843 -0.4074
 3215TIP3    H131060   4.020   3.358  11.287  1.9911  2.0576 -0.5389
 3215TIP3    H231061   3.876   3.402  11.299  0.4390 -2.1253 -1.6984
 3216TIP3   OH231062   2.502   1.672  14.244 -0.7073  0.1462  0.2732
 3216TIP3    H131063   2.429   1.732  14.258 -0.8047 -0.4771  3.0315
 3216TIP3    H231064   2.471   1.588  14.278  0.4188 -0.7833 -0.8854
 3217TIP3   OH231065   6.590   3.331   2.890 -0.0506  0.0008 -0.3011
 3217TIP3    H131066   6.607   3.250   2.938  1.5121  0.3680 -0.1912
 3217TIP3    H231067   6.578   3.302   2.799 -1.0540 -0.4871 -0.0338
 3218TIP3   OH231068   5.051   5.024   0.483 -0.3144 -0.2428 -0.4681
 3218TIP3    H131069   4.980   4.962   0.467 -2.1846  1.5053  0.6221
 3218TIP3    H231070   5.009   5.110   0.479  1.5234  0.8165  1.2638
 3219TIP3   OH231071   1.668   1.156  16.372  0.2296 -0.3407  0.6540
 3219TIP3    H131072   1.616   1.217  16.320  0.2356 -0.8823  0.0061
 3219TIP3    H231073   1.611   1.079  16.381  0.7106 -0.7290  0.3918
 3220TIP3   OH231074   4.385   1.183  13.032  0.3592 -1.0213  0.3268
 3220TIP3    H131075   4.295   1.192  13.064 -0.1065 -0.1968 -1.1059
 3220TIP3    H231076   4.406   1.269  12.996  0.4911 -2.0691 -2.3264
 3221TIP3   OH231077   5.834   4.288  11.900 -0.1801 -0.1345  0.2080
 3221TIP3    H131078   5.804   4.233  11.828  1.5952  0.5217 -1.1050
 3221TIP3    H231079   5.903   4.237  11.943  0.4367  0.4428 -0.0826
 3222TIP3   OH231080   2.757   6.140   1.804  0.0891 -0.0454  0.5529
 3222TIP3    H131081   2.727   6.229   1.785 -2.6118 -1.2368 -1.2477
 3222TIP3    H231082   2.692   6.106   1.866  0.2617 -1.2365  0.0896
 3223TIP3   OH231083   2.080   6.660   0.511 -0.3142 -0.0748  0.4773
 3223TIP3    H131084   2.112   6.725   0.574  1.1209 -0.1882 -0.0988
 3223TIP3    H231085   2.141   6.668   0.437 -0.0559 -2.1402  0.4301
 3224TIP3   OH231086   0.297   1.906  12.283  0.1319 -0.5657 -0.3516
 3224TIP3    H131087   0.346   1.985  12.305 -0.4366  0.0332 -1.1939
 3224TIP3    H231088   0.205   1.934  12.282  0.0015 -0.9928 -1.6533
 3225TIP3   OH231089   0.881   6.090   3.142 -0.2100  0.5686 -0.3465
 3225TIP3    H131090   0.923   6.176   3.139 -1.9577  1.6204  1.8764
 3225TIP3    H231091   0.804   6.098   3.087 -0.8018  0.7280  0.4790
 3226TIP3   OH231092   1.604   6.349  12.377 -0.1487  0.0316  0.5579
 3226TIP3    H131093   1.606   6.256  12.399 -0.5205  0.1555  1.1461
 3226TIP3    H231094   1.659   6.390  12.445 -0.4568  0.3054  0.6414
 3227TIP3   OH231095   5.767   1.207   3.119 -0.1367  0.3444  0.0798
 3227TIP3    H131096   5.852   1.223   3.159 -0.4026  1.0613  0.3735
 3227TIP3    H231097   5.773   1.118   3.085  0.6233  0.2793  0.3647
 3228TIP3   OH231098   5.329   3.513  16.951 -0.4293 -0.1894  0.0334
 3228TIP3    H131099   5.246   3.465  16.954 -0.0255 -0.9171 -0.1439
 3228TIP3    H231100   5.371   3.492  17.035 -0.8411  0.9663  0.5530
 3229TIP3   OH231101   2.207   1.125   2.677 -0.0433 -0.5312  0.0659
 3229TIP3    H131102   2.281   1.116   2.617  1.3171  1.0316  1.4011
 3229TIP3    H231103   2.155   1.196   2.641 -0.9197 -1.5893 -0.8395
 3230TIP3   OH231104   6.063   2.092   2.837  0.4087  0.6041  0.1494
 3230TIP3    H131105   5.991   2.139   2.796  0.1145 -0.7101 -0.9079
 3230TIP3    H231106   6.035   2.082   2.929 -0.4164  0.7642 -0.0733
 3231TIP3   OH231107   1.524   5.849  17.112  0.0746  0.0310  0.0439
 3231TIP3    H131108   1.558   5.761  17.095  1.4601  0.4848  0.3476
 3231TIP3    H231109   1.439   5.835  17.153 -0.2006 -1.1474 -0.8706
 3232TIP3   OH231110   2.547   5.542  16.215  1.3701  0.0024 -0.1202
 3232TIP3    H131111   2.475   5.595  16.182  1.6143  0.8533  0.6830
 3232TIP3    H231112   2.507   5.458  16.238  0.9052 -0.0292 -0.9850
 3233TIP3   OH231113   0.488   1.334  12.828  0.3861 -0.2163 -0.3167
 3233TIP3    H131114   0.402   1.312  12.792 -0.2892 -0.4685  1.3916
 3233TIP3    H231115   0.494   1.429  12.820 -0.7654  0.0023  1.0114
 3234TIP3   OH231116   4.844   3.528  14.082  0.3259  0.1653  0.5353
 3234TIP3    H131117   4.876   3.599  14.026 -1.0148  0.3002 -0.1021
 3234TIP3    H231118   4.910   3.519  14.150  0.8299  1.6023  0.2626
 3235TIP3   OH231119   5.292   5.220  15.839 -0.2031  0.2557 -0.3153
 3235TIP3    H131120   5.365   5.238  15.898 -0.5114 -1.0433  0.4963
 3235TIP3    H231121   5.297   5.126  15.823  0.8823  0.7476 -3.7230
 3236TIP3   OH231122   1.951   5.085  10.723  0.0796 -0.4290  0.1254
 3236TIP3    H131123   1.915   5.126  10.802 -0.8156  0.1353 -0.5457
 3236TIP3    H231124   1.876   5.079  10.663  0.7611 -0.7395 -0.7197
 3237TIP3   OH231125   2.930   6.098   0.990  0.7958 -0.0927 -0.5051
 3237TIP3    H131126   2.853   6.054   1.024  1.0598 -0.0794  0.1211
 3237TIP3    H231127   2.977   6.030   0.941  0.8133 -0.3169 -0.1818
 3238TIP3   OH231128   3.362   5.254  10.719  0.2000  0.1153  0.1352
 3238TIP3    H131129   3.420   5.325  10.746  0.4402  0.9640 -2.3446
 3238TIP3    H231130   3.408   5.174  10.746  1.0900  0.8501  0.8455
 3239TIP3   OH231131   0.957   6.701   4.084  0.0327  0.2325  0.3907
 3239TIP3    H131132   0.991   6.701   3.995 -0.9976  0.9653 -0.0309
 3239TIP3    H231133   0.862   6.688   4.074  0.0366 -0.8378  1.4542
 3240TIP3   OH231134   3.778   0.424   2.980  0.3460 -0.0565  0.0536
 3240TIP3    H131135   3.698   0.381   3.010  0.8442 -1.5486 -0.6825
 3240TIP3    H231136   3.798   0.382   2.896  2.1576 -0.0177  0.4413
 3241TIP3   OH231137   5.223   2.362  11.079  0.0378  0.1941  0.0252
 3241TIP3    H131138   5.228   2.446  11.125  0.0860  0.0801  0.2310
 3241TIP3    H231139   5.207   2.385  10.988  4.2100  0.6141 -0.7683
 3242TIP3   OH231140   1.380   0.151   4.410 -0.3136 -0.2087 -0.0818
 3242TIP3    H131141   1.320   0.136   4.337 -0.5217  1.3016 -0.2694
 3242TIP3    H231142   1.392   0.247   4.411 -0.7701 -0.1296  2.2272
 3243TIP3   OH231143   2.406   4.827  11.977  0.4094 -0.5510 -0.4608
 3243TIP3    H131144   2.313   4.838  11.957 -0.0886 -1.1856  1.3634
 3243TIP3    H231145   2.446   4.806  11.892 -0.9656  0.4511 -1.4052
 3244TIP3   OH231146   3.902   2.994  14.722  0.0117 -0.2968 -0.0711
 3244TIP3    H131147   3.970   3.012  14.788 -0.4837  0.0452  0.3475
 3244TIP3    H231148   3.952   2.977  14.642  0.5631  2.2896 -0.3712
 3245TIP3   OH231149   3.981   0.956  11.788 -0.1829  0.0705 -0.0670
 3245TIP3    H131150   4.047   1.021  11.764  0.4864 -0.7645 -0.5382
 3245TIP3    H231151   3.900   1.006  11.796  0.7360  1.3485  1.8494
 3246TIP3   OH231152   1.963   5.895  14.395 -0.0271  0.3059 -0.1584
 3246TIP3    H131153   1.878   5.855  14.375 -0.3852  0.6186  0.7073
 3246TIP3    H231154   2.027   5.832  14.361 -0.5917 -0.4161  0.0829
 3247TIP3   OH231155   1.259   5.210  14.962 -0.2228  0.0408  0.4511
 3247TIP3    H131156   1.194   5.201  15.031 -0.3948 -0.2333  0.2585
 3247TIP3    H231157   1.319   5.136  14.976 -0.5909 -0.3619 -0.0376
 3248TIP3   OH231158   5.182   0.467  16.168  0.3308 -0.0455  0.2613
 3248TIP3    H131159   5.243   0.540  16.170 -0.3266  0.5211 -0.0255
 3248TIP3    H231160   5.166   0.445  16.260  0.2921  0.3692  0.3523
 3249TIP3   OH231161   2.691   4.233  15.908 -0.0890  0.3562 -0.0108
 3249TIP3    H131162   2.689   4.324  15.879  2.7217  0.3548 -0.4270
 3249TIP3    H231163   2.644   4.185  15.839  0.4794  1.2017 -1.0099
 3250TIP3   OH231164   2.858   6.003   4.573 -0.2211  0.0266 -0.1312
 3250TIP3    H131165   2.801   6.008   4.496  0.7336  0.2800 -0.8431
 3250TIP3    H231166   2.926   5.941   4.548  1.0312  1.3500 -0.1426
 3251TIP3   OH231167   6.281   5.835  14.474 -0.2408  0.2341  0.4911
 3251TIP3    H131168   6.215   5.903  14.486  0.8147  1.7707 -1.7386
 3251TIP3    H231169   6.287   5.824  14.379  1.4662 -1.1139  0.7142
 3252TIP3   OH231170   3.989   3.592   5.099  0.0950 -0.6051 -0.3390
 3252TIP3    H131171   3.910   3.646   5.103  0.9735  0.7544 -0.4086
 3252TIP3    H231172   3.976   3.536   5.023 -2.2079 -2.8004  1.4921
 3253TIP3   OH231173   3.300   1.901   1.189  0.0801  0.7213  0.1409
 3253TIP3    H131174   3.262   1.843   1.255  0.3465  1.0426  0.5777
 3253TIP3    H231175   3.234   1.904   1.120  1.0127 -1.9635 -0.9980
 3254TIP3   OH231176   4.386   1.250   6.013 -0.2522  0.4392  0.3443
 3254TIP3    H131177   4.380   1.206   5.928  0.0274  0.9995  0.0285
 3254TIP3    H231178   4.433   1.188   6.068 -0.7464 -0.0770  0.1943
 3255TIP3   OH231179   4.593   2.276   5.875  0.2424  0.1327  0.3219
 3255TIP3    H131180   4.507   2.262   5.836  0.2314 -0.1623  0.4471
 3255TIP3    H231181   4.639   2.332   5.813  0.1698 -0.2097 -0.0429
 3256TIP3   OH231182   0.683   1.273   5.827  0.2013 -0.6762  0.1353
 3256TIP3    H131183   0.650   1.354   5.789  0.5927  0.5017  2.1829
 3256TIP3    H231184   0.689   1.291   5.920  1.2739 -2.7385  0.5139
 3257TIP3   OH231185   4.752   4.114   3.462  0.4544  0.8598  0.7352
 3257TIP3    H131186   4.755   4.080   3.551  1.1441 -1.7780 -0.1974
 3257TIP3    H231187   4.670   4.081   3.426 -0.4381  2.9491  0.7053
 3258TIP3   OH231188   0.553   4.358  11.698 -0.5721  0.3694 -0.1582
 3258TIP3    H131189   0.624   4.344  11.635 -0.1118  0.8456  0.2513
 3258TIP3    H231190   0.488   4.410  11.649  1.2131  3.6303  0.6758
 3259TIP3   OH231191   6.441   5.930   2.449 -0.2677  0.0203 -0.9417
 3259TIP3    H131192   6.375   5.885   2.501  0.1378  1.9313  1.4402
 3259TIP3    H231193   6.523   5.885   2.471 -0.0525  1.0077  0.4168
 3260TIP3   OH231194   1.406   2.240   1.770 -0.0630  0.2235  0.5281
 3260TIP3    H131195   1.330   2.270   1.721 -0.2463  0.4283  0.9377
 3260TIP3    H231196   1.373   2.168   1.824 -0.0125  0.4500  0.8611
 3261TIP3   OH231197   1.444   1.482  13.306  0.2357  0.1782  0.0991
 3261TIP3    H131198   1.430   1.388  13.298 -2.5718  0.5338 -0.2086
 3261TIP3    H231199   1.441   1.515  13.216 -1.3768  0.8022  0.3429
 3262TIP3   OH231200   5.980   3.082   1.916  0.2246 -0.2866 -1.0985
 3262TIP3    H131201   6.037   3.079   1.839  0.9401  1.1315 -0.6552
 3262TIP3    H231202   5.897   3.115   1.883  0.2773 -0.4710 -1.4146
 3263TIP3   OH231203   2.458   1.923  11.490  0.3231  0.1323  0.0281
 3263TIP3    H131204   2.499   1.848  11.447 -0.0140 -0.4549  0.7165
 3263TIP3    H231205   2.490   1.999  11.441  2.4058 -0.2707  0.6688
 3264TIP3   OH231206   6.061   6.378  13.024 -0.6092  0.1450 -0.2235
 3264TIP3    H131207   6.052   6.290  12.988  0.7469  0.6710 -2.0413
 3264TIP3    H231208   6.007   6.432  12.966  3.1557  1.3246 -3.0267
 3265TIP3   OH231209   1.498   3.526   1.389  0.0775  0.1481 -0.0837
 3265TIP3    H131210   1.552   3.450   1.366 -0.2014  0.0477 -0.4106
 3265TIP3    H231211   1.549   3.602   1.360 -0.4115  0.0150 -1.3543
 3266TIP3   OH231212   4.919   2.758  11.230  0.2263 -0.1500 -0.1179
 3266TIP3    H131213   4.942   2.781  11.140  1.4725  0.5668  0.3552
 3266TIP3    H231214   4.967   2.822  11.284  0.4250 -1.2777  1.0862
 3267TIP3   OH231215   2.472   1.341  16.708  0.0323 -0.3217  0.1174
 3267TIP3    H131216   2.439   1.264  16.755 -1.9871 -0.3755 -1.2472
 3267TIP3    H231217   2.432   1.415  16.754 -0.9878 -0.3179 -0.7293
 3268TIP3   OH231218   0.276   0.461  12.647  0.3900 -0.0603 -0.0317
 3268TIP3    H131219   0.332   0.487  12.720  2.0487 -0.4771 -1.1135
 3268TIP3    H231220   0.314   0.504  12.571 -0.2402 -1.0687 -0.9435
 3269TIP3   OH231221   0.413   3.439  10.841  0.2680 -0.2297  0.0229
 3269TIP3    H131222   0.486   3.493  10.872 -0.3945 -0.3623  1.9248
 3269TIP3    H231223   0.455   3.362  10.802  1.2003  1.1910 -1.9777
 3270TIP3   OH231224   3.312   4.406   2.931 -0.2374 -0.1203  0.2595
 3270TIP3    H131225   3.352   4.368   2.853  1.2184  2.4591 -0.3804
 3270TIP3    H231226   3.222   4.424   2.906 -0.4234 -1.3866 -0.0250
 3271TIP3   OH231227   4.101   1.215  16.067  0.0529  0.1374  0.6138
 3271TIP3    H131228   4.157   1.254  15.999  0.4991  0.9993  1.4576
 3271TIP3    H231229   4.016   1.258  16.056 -0.5043 -1.2212 -0.7122
 3272TIP3   OH231230   0.661   1.729   5.151  0.5121  0.3945 -0.3473
 3272TIP3    H131231   0.652   1.798   5.217 -0.1180 -0.3515  0.3759
 3272TIP3    H231232   0.571   1.705   5.130  0.7137  0.6115 -1.4769
 3273TIP3   OH231233   4.053   3.861   5.707 -0.0458  0.8922 -0.6229
 3273TIP3    H131234   4.138   3.900   5.727  0.7855 -0.7096 -0.7782
 3273TIP3    H231235   4.055   3.776   5.751 -1.6577  0.8837 -0.4904
 3274TIP3   OH231236   4.578   1.370   3.422 -0.0497 -0.6460  0.0775
 3274TIP3    H131237   4.491   1.393   3.392 -0.6611 -1.3617  1.2094
 3274TIP3    H231238   4.590   1.279   3.393  0.6555 -0.2913 -0.7731
 3275TIP3   OH231239   0.108   3.531  11.643  0.0170  0.1377 -0.2297
 3275TIP3    H131240   0.157   3.500  11.720  0.4376 -0.5975 -0.7884
 3275TIP3    H231241   0.025   3.563  11.679  0.2869 -0.0144  0.5549
 3276TIP3   OH231242   4.580   5.912   4.044 -0.8045  0.2308  0.2408
 3276TIP3    H131243   4.502   5.923   3.989 -2.0628 -3.2115  1.0893
 3276TIP3    H231244   4.652   5.900   3.981 -1.6539 -0.4007 -0.6379
 3277TIP3   OH231245   4.324   4.788  14.433  0.7193  1.0509 -0.3688
 3277TIP3    H131246   4.410   4.745  14.436  0.8535  1.2521  2.9403
 3277TIP3    H231247   4.322   4.840  14.513 -2.8830  0.2424  0.2188
 3278TIP3   OH231248   0.858   6.431  16.279  0.0908 -0.8009  0.4501
 3278TIP3    H131249   0.788   6.424  16.344 -0.3111  1.3617  0.3199
 3278TIP3    H231250   0.936   6.449  16.331 -0.2819  1.2155  0.3652
 3279TIP3   OH231251   3.023   5.918   0.818  0.5404 -0.1336  1.5136
 3279TIP3    H131252   3.099   5.882   0.772  0.0474 -1.2965  1.5607
 3279TIP3    H231253   2.950   5.862   0.790 -0.6928  2.0465  0.0334
 3280TIP3   OH231254   0.200   5.571  14.687 -0.0579  0.1616 -0.0971
 3280TIP3    H131255   0.266   5.569  14.756 -1.7363 -0.3219  1.5663
 3280TIP3    H231256   0.158   5.656  14.697  0.2437  0.4462 -1.1162
 3281TIP3   OH231257   4.696   2.717   3.310  0.5833 -0.0291 -0.1589
 3281TIP3    H131258   4.759   2.789   3.305  0.8886 -0.3570 -1.4744
 3281TIP3    H231259   4.620   2.754   3.353  1.0374  0.8634 -0.1051
 3282TIP3   OH231260   6.296   2.169   4.673 -0.5075  0.7047  0.2836
 3282TIP3    H131261   6.290   2.144   4.580  0.4243  1.1413  0.0901
 3282TIP3    H231262   6.375   2.223   4.677  2.2450 -2.9434  2.0954
 3283TIP3   OH231263   4.468   6.678   1.901  0.0308  0.0221 -0.6684
 3283TIP3    H131264   4.496   6.591   1.874  1.5912  0.1942  0.3025
 3283TIP3    H231265   4.372   6.671   1.908  0.2138 -2.1139  1.0021
 3284TIP3   OH231266   2.331   1.723  15.061  0.0981  0.1874  0.2755
 3284TIP3    H131267   2.335   1.805  15.112  0.4256  0.3973 -0.0779
 3284TIP3    H231268   2.358   1.656  15.124 -0.6349  0.2798  0.7021
 3285TIP3   OH231269   0.819   0.906   2.287 -0.6241  0.5314  0.4440
 3285TIP3    H131270   0.858   0.988   2.316  0.6963  0.6466 -1.4549
 3285TIP3    H231271   0.726   0.925   2.281 -0.3473  1.8879  0.0896
 3286TIP3   OH231272   2.313   3.064  12.064 -0.0158 -0.4908 -0.0228
 3286TIP3    H131273   2.300   3.014  11.984 -0.9675 -0.6062  0.1953
 3286TIP3    H231274   2.369   3.137  12.038 -0.4840 -0.4173 -0.8338
 3287TIP3   OH231275   3.174   2.929  15.489 -0.0564 -0.4329  0.0376
 3287TIP3    H131276   3.234   2.922  15.563  0.6575 -0.3707 -0.5227
 3287TIP3    H231277   3.144   2.840  15.474  0.1161 -0.5083  0.1386
 3288TIP3   OH231278   1.086   5.214  10.865  0.0874  0.1860 -0.2217
 3288TIP3    H131279   1.013   5.158  10.841  0.9130 -2.2271  2.4662
 3288TIP3    H231280   1.127   5.171  10.939  3.9220  1.7383 -1.2065
 3289TIP3   OH231281   5.085   0.989   5.373 -0.3817 -0.3746  0.1664
 3289TIP3    H131282   5.116   1.053   5.437 -1.3913 -1.0069  1.3462
 3289TIP3    H231283   5.164   0.956   5.331  0.3636 -0.3675  1.5105
 3290TIP3   OH231284   5.066   4.976   6.068 -0.0092 -0.6999  0.2654
 3290TIP3    H131285   5.135   5.003   6.129 -0.6221  0.8639  0.3171
 3290TIP3    H231286   5.077   5.034   5.993 -0.9103 -0.8373  0.0221
 3291TIP3   OH231287   4.687   1.000  15.576 -0.1527 -0.0528  0.3585
 3291TIP3    H131288   4.675   0.958  15.661 -0.0435  0.1233  0.4609
 3291TIP3    H231289   4.665   0.932  15.513  0.5644 -0.4336  0.5129
 3292TIP3   OH231290   5.140   2.113  11.165  0.2612  0.2094  0.4455
 3292TIP3    H131291   5.182   2.196  11.143  0.4958  0.1095  0.5193
 3292TIP3    H231292   5.076   2.100  11.096  0.7543  0.0707  0.0082
 3293TIP3   OH231293   5.976   6.279  10.883  0.6267  0.5172  0.0347
 3293TIP3    H131294   6.062   6.240  10.866 -0.2971 -1.4562 -0.2870
 3293TIP3    H231295   5.913   6.209  10.867 -0.9307  1.1412  2.7122
 3294TIP3   OH231296   3.114   0.768  12.360  0.0484  0.0498  0.4793
 3294TIP3    H131297   3.191   0.719  12.390 -0.3596 -0.3692  0.8615
 3294TIP3    H231298   3.142   0.809  12.278  0.8415  0.3248  0.8747
 3295TIP3   OH231299   2.638   3.201  12.680 -0.1527 -0.2148 -0.1409
 3295TIP3    H131300   2.639   3.233  12.771 -1.5928 -0.9694  0.1618
 3295TIP3    H231301   2.595   3.271  12.631 -0.5627 -0.3660 -0.0036
 3296TIP3   OH231302   0.817   2.183  13.428  0.2297  0.1604 -0.4717
 3296TIP3    H131303   0.817   2.257  13.367  1.0800  0.2897 -0.3171
 3296TIP3    H231304   0.908   2.171  13.453  0.1645 -1.1818 -0.7795
 3297TIP3   OH231305   3.826   0.515  11.285 -0.4421 -0.2416 -0.7577
 3297TIP3    H131306   3.765   0.445  11.309 -1.2737  1.1849  1.5425
 3297TIP3    H231307   3.814   0.582  11.351  0.9812  1.7377 -2.3664
 3298TIP3   OH231308   0.654   6.162  13.025  0.5079 -0.0790  0.0895
 3298TIP3    H131309   0.620   6.135  13.110  0.2122  1.2837  0.4212
 3298TIP3    H231310   0.670   6.080  12.979 -1.9338 -0.8470  0.4383
 3299TIP3   OH231311   4.304   3.892  16.029 -0.5469 -0.4244 -0.3537
 3299TIP3    H131312   4.229   3.883  16.088  0.3671 -0.0198  0.9196
 3299TIP3    H231313   4.380   3.893  16.087  0.3511  0.7600 -1.4894
 3300TIP3   OH231314   5.684   5.672   3.630 -0.1600  0.2239 -0.0952
 3300TIP3    H131315   5.699   5.764   3.608  0.1440  0.1186 -0.3341
 3300TIP3    H231316   5.771   5.633   3.631 -0.3337 -0.1855 -0.5411
 3301TIP3   OH231317   4.413   3.191  13.170 -0.6679 -0.1970 -0.1299
 3301TIP3    H131318   4.469   3.228  13.102 -2.5094  0.2690 -1.4793
 3301TIP3    H231319   4.393   3.103  13.140 -0.1950 -0.5639  0.6263
 3302TIP3   OH231320   6.690   6.564  14.890 -0.4234  0.4238 -0.2615
 3302TIP3    H131321   6.765   6.595  14.839  0.5486 -1.4891 -0.0871
 3302TIP3    H231322   6.650   6.643  14.925  1.2205  1.5240 -0.7673
 3303TIP3   OH231323   2.853   1.082  17.101 -0.2820 -0.6966 -0.1572
 3303TIP3    H131324   2.842   1.176  17.088  0.6516 -0.6902 -0.9880
 3303TIP3    H231325   2.806   1.041  17.028  0.3582 -0.8273 -0.5045
 3304TIP3   OH231326   6.510   0.834  16.670  0.5273 -0.0464 -0.0145
 3304TIP3    H131327   6.451   0.767  16.706  0.6755 -0.2516 -0.1470
 3304TIP3    H231328   6.469   0.917  16.692  1.9383 -0.0388  3.0404
 3305TIP3   OH231329   1.736   5.462   6.201 -0.6317  0.2821  0.2759
 3305TIP3    H131330   1.793   5.426   6.269  2.0123 -0.5613 -2.1853
 3305TIP3    H231331   1.649   5.429   6.223  0.6526 -2.6564  1.4870
 3306TIP3   OH231332   0.575   2.484   5.920 -0.5658 -0.1078  0.1793
 3306TIP3    H131333   0.584   2.485   6.015  0.6192 -2.6851  0.1938
 3306TIP3    H231334   0.544   2.395   5.900 -1.9138  0.7520 -1.7859
 3307TIP3   OH231335   6.606   4.240   3.104  0.1384 -0.1923  0.5236
 3307TIP3    H131336   6.555   4.225   3.184 -0.7311 -0.6751 -0.1004
 3307TIP3    H231337   6.548   4.293   3.048  0.0823 -1.1988 -0.4059
 3308TIP3   OH231338   4.424   1.014  13.566  0.5918 -0.2427  0.3643
 3308TIP3    H131339   4.496   0.964  13.604  1.3236  0.6627  0.2154
 3308TIP3    H231340   4.350   0.953  13.563  1.5157 -1.3542 -0.0289
 3309TIP3   OH231341   2.983   0.554  15.103  0.0548 -0.4442 -0.2378
 3309TIP3    H131342   3.064   0.527  15.058 -0.9928  0.4595 -2.8930
 3309TIP3    H231343   3.002   0.641  15.137  0.4972 -0.6250 -0.0170
 3310TIP3   OH231344   4.484   0.560  11.283 -0.1888 -0.4698  0.3701
 3310TIP3    H131345   4.424   0.571  11.209  0.1861  0.5105  0.1982
 3310TIP3    H231346   4.561   0.518  11.246 -0.5868 -1.3287  0.5036
 3311TIP3   OH231347   5.342   5.521  14.992  0.2095  0.0225  0.0393
 3311TIP3    H131348   5.284   5.571  15.050 -0.7791 -1.4362  0.3514
 3311TIP3    H231349   5.397   5.469  15.051  1.5826  1.0714 -0.2697
 3312TIP3   OH231350   4.238   3.080  11.406  0.2685 -0.1435 -0.1996
 3312TIP3    H131351   4.292   3.147  11.365 -0.4275  0.0735 -0.7949
 3312TIP3    H231352   4.284   3.057  11.487  1.3049 -0.0736 -0.7601
 3313TIP3   OH231353   6.252   5.064   4.390  0.6390 -0.0862 -0.4442
 3313TIP3    H131354   6.240   5.025   4.476 -1.3375 -0.1933 -0.7211
 3313TIP3    H231355   6.204   5.147   4.394 -1.9019 -1.3466 -2.2284
 3314TIP3   OH231356   0.531   0.053  10.772 -0.5915 -0.3792 -0.0965
 3314TIP3    H131357   0.495   0.122  10.717 -1.8312 -1.1292 -0.2537
 3314TIP3    H231358   0.472  -0.021  10.760 -0.6139 -0.7414  1.8440
 3315TIP3   OH231359   5.885   1.408   1.569 -0.0131 -0.2004  0.2246
 3315TIP3    H131360   5.813   1.383   1.627  0.9729 -1.1400  1.0836
 3315TIP3    H231361   5.864   1.497   1.541 -1.6684 -0.5767  0.1892
 3316TIP3   OH231362   5.629   1.431   4.237  0.3861 -0.7444 -0.5733
 3316TIP3    H131363   5.667   1.493   4.175  1.4859  0.1299  0.9072
 3316TIP3    H231364   5.635   1.346   4.193 -0.9167  0.1261 -2.5281
 3317TIP3   OH231365   1.501   3.185   3.188 -0.4200 -0.5518 -0.3265
 3317TIP3    H131366   1.485   3.096   3.157  0.5389 -1.3223  1.2175
 3317TIP3    H231367   1.589   3.205   3.157  0.0345 -0.8341  0.7141
 3318TIP3   OH231368   2.373   3.871  16.009 -0.5793  0.2109 -0.5527
 3318TIP3    H131369   2.374   3.964  16.031 -0.3186  0.0722  0.0514
 3318TIP3    H231370   2.459   3.853  15.973 -0.0307 -0.1385  0.8702
 3319TIP3   OH231371   5.189   2.705   3.027 -0.0847  0.6738 -0.3153
 3319TIP3    H131372   5.130   2.648   3.077 -0.5570  0.5705 -0.9883
 3319TIP3    H231373   5.256   2.645   2.993 -0.4074  0.5688 -0.7646
 3320TIP3   OH231374   0.639   6.299   5.374 -0.3489 -0.2820  0.0786
 3320TIP3    H131375   0.645   6.242   5.298  3.3298 -0.8748  0.6238
 3320TIP3    H231376   0.673   6.384   5.344 -0.1501 -0.1264  0.7113
 3321TIP3   OH231377   1.069   3.346   1.381  0.0516 -0.1916 -0.4737
 3321TIP3    H131378   1.130   3.285   1.423 -0.3474 -1.3624 -1.5314
 3321TIP3    H231379   1.123   3.399   1.323  0.2311 -0.3667 -0.4668
 3322TIP3   OH231380   6.018   2.859   3.994 -0.0248 -0.0350 -0.2329
 3322TIP3    H131381   5.924   2.840   3.997  0.4527 -2.5841  0.4225
 3322TIP3    H231382   6.042   2.878   4.084  0.1226  0.6358 -0.4041
 3323TIP3   OH231383   1.842   6.458   4.687 -0.4135  0.1036 -0.0267
 3323TIP3    H131384   1.764   6.414   4.653 -1.0514  0.1107  1.3195
 3323TIP3    H231385   1.874   6.511   4.614 -2.5317  1.2372 -0.2086
 3324TIP3   OH231386   3.356   1.471   4.485  0.1910 -0.1802  0.0344
 3324TIP3    H131387   3.352   1.524   4.406  0.5189  0.7284  0.6218
 3324TIP3    H231388   3.264   1.449   4.505 -0.0311  0.9931  0.3407
 3325TIP3   OH231389   5.884   3.108  12.983  0.2020 -0.0456 -0.1871
 3325TIP3    H131390   5.948   3.104  13.054 -0.5193  0.3313  0.5091
 3325TIP3    H231391   5.911   3.184  12.932  2.0876 -1.6345 -1.7126
 3326TIP3   OH231392   2.181   5.392   5.626 -0.1598 -0.3777 -0.2228
 3326TIP3    H131393   2.178   5.374   5.720  3.6433  2.1639  0.5891
 3326TIP3    H231394   2.244   5.329   5.591  0.3472  0.3007 -0.5546
 3327TIP3   OH231395   6.464   0.516  15.385  0.1098 -0.5822  0.1991
 3327TIP3    H131396   6.496   0.601  15.416  0.2545 -0.6545  0.2470
 3327TIP3    H231397   6.418   0.479  15.460  0.1051 -0.5769  0.1987
 3328TIP3   OH231398   2.123   3.676  13.232 -0.1286 -0.3488 -0.1262
 3328TIP3    H131399   2.120   3.771  13.231 -0.7353 -0.3435  0.6407
 3328TIP3    H231400   2.191   3.654  13.296 -0.4586 -0.4228  0.2045
 3329TIP3   OH231401   0.513   2.448   0.125 -0.9566  0.3396  0.5649
 3329TIP3    H131402   0.455   2.523   0.113  0.1915  1.2051  0.2761
 3329TIP3    H231403   0.601   2.483   0.111 -0.4915 -1.4221 -1.3557
 3330TIP3   OH231404   3.340   5.834   5.352  0.9383 -0.0329 -0.6590
 3330TIP3    H131405   3.268   5.884   5.315  0.8543  1.7466  1.6706
 3330TIP3    H231406   3.418   5.867   5.308  0.8916  2.3268  0.8717
 3331TIP3   OH231407   6.625   1.199   6.411  0.7288  0.0266 -0.0829
 3331TIP3    H131408   6.570   1.124   6.389  0.7685 -0.5224  1.5471
 3331TIP3    H231409   6.713   1.163   6.420  0.4722 -0.1533  2.4820
 3332TIP3   OH231410   0.768   5.147   4.695  0.2283 -0.4890 -0.3900
 3332TIP3    H131411   0.767   5.243   4.693  0.2443 -0.4774  0.0925
 3332TIP3    H231412   0.681   5.123   4.727  0.9164 -0.5768  1.5131
 3333TIP3   OH231413   0.346   2.515  14.763  0.4558  0.6350 -0.2639
 3333TIP3    H131414   0.301   2.559  14.691  0.4394 -0.1257 -0.7263
 3333TIP3    H231415   0.420   2.470  14.723  0.5898  0.4067  0.2230
 3334TIP3   OH231416   4.170   4.320  12.500 -0.0487  0.0234  0.1336
 3334TIP3    H131417   4.245   4.365  12.461  1.9780 -1.5733  2.0219
 3334TIP3    H231418   4.173   4.232  12.464 -1.8125  0.2361 -0.6848
 3335TIP3   OH231419   4.650   6.558  11.037 -0.0054 -0.0938  0.0866
 3335TIP3    H131420   4.557   6.548  11.018 -0.1629  2.1525 -0.5549
 3335TIP3    H231421   4.676   6.637  10.990  2.3926 -1.0069 -0.2463
 3336TIP3   OH231422   6.468   3.223  11.913  0.2464 -0.1106  0.4880
 3336TIP3    H131423   6.431   3.277  11.844 -0.4451 -2.8290 -1.4742
 3336TIP3    H231424   6.560   3.248  11.917  0.7378 -0.9382 -2.7296
 3337TIP3   OH231425   3.250   6.306  16.477  0.5322  0.1146  0.2417
 3337TIP3    H131426   3.171   6.304  16.530  1.1290  0.6087  1.1679
 3337TIP3    H231427   3.222   6.343  16.393 -0.1060  0.8169  0.7537
 3338TIP3   OH231428   4.014   5.414  16.069  0.3934 -0.0707 -0.0346
 3338TIP3    H131429   4.019   5.379  15.980  2.6469 -1.5099  0.5819
 3338TIP3    H231430   4.007   5.337  16.125 -0.7359  0.7965  1.0844
 3339TIP3   OH231431   0.171   1.870   5.199 -0.7809  0.2722 -0.0815
 3339TIP3    H131432   0.100   1.807   5.183 -2.2549  1.6722  0.6619
 3339TIP3    H231433   0.155   1.900   5.288  1.6075 -0.3742  0.6329
 3340TIP3   OH231434   5.067   4.741  13.976  0.4613  0.5466  0.2683
 3340TIP3    H131435   5.006   4.683  13.930  2.0982 -1.0410 -0.0083
 3340TIP3    H231436   5.081   4.699  14.061  1.6190  0.5346  0.0896
 3341TIP3   OH231437   0.804   3.238   0.626  0.4229 -0.1569  0.0120
 3341TIP3    H131438   0.801   3.333   0.610  0.3757 -0.2908 -0.8011
 3341TIP3    H231439   0.715   3.208   0.609  0.4375 -0.3466  0.2712
 3342TIP3   OH231440   5.602   5.978  14.955 -0.2043 -0.2282  0.0132
 3342TIP3    H131441   5.597   6.063  14.997 -0.3636 -1.0593  1.7708
 3342TIP3    H231442   5.511   5.956  14.933 -0.1531  0.0724 -0.5278
 3343TIP3   OH231443   5.972   2.782   2.482 -0.4184 -0.4164  0.9341
 3343TIP3    H131444   5.950   2.790   2.389 -1.1306 -0.2121  1.1108
 3343TIP3    H231445   5.891   2.807   2.528  0.9725  3.4753  1.7010
 3344TIP3   OH231446   0.917   1.806   5.546  0.2674 -0.6497  0.2405
 3344TIP3    H131447   0.958   1.720   5.552  2.6683  0.0163 -3.4012
 3344TIP3    H231448   0.976   1.864   5.592  0.1262 -0.5618  0.3099
 3345TIP3   OH231449   4.648   5.762   2.754  0.1412 -0.3353 -0.1445
 3345TIP3    H131450   4.740   5.774   2.778  0.5151 -0.3238 -1.5175
 3345TIP3    H231451   4.630   5.670   2.773  0.9782 -0.8183 -1.5200
 3346TIP3   OH231452   6.623   3.147  16.614  0.4644 -0.0077  0.4475
 3346TIP3    H131453   6.594   3.195  16.537  2.3858 -1.0937 -1.0347
 3346TIP3    H231454   6.550   3.088  16.634 -0.9411  1.7922  0.8485
 3347TIP3   OH231455   0.079   2.153   0.047 -0.3831 -0.3676 -0.0443
 3347TIP3    H131456   0.014   2.138  -0.022 -0.7371 -0.3395  0.2791
 3347TIP3    H231457   0.079   2.248   0.059 -0.2179 -0.3596 -0.1041
 3348TIP3   OH231458   4.914   4.254   0.668  0.3114 -0.4246 -0.3943
 3348TIP3    H131459   4.896   4.180   0.726 -1.8018  1.0746  1.0151
 3348TIP3    H231460   4.870   4.231   0.586  1.3146 -1.5322 -0.6489
 3349TIP3   OH231461   6.335   5.517  16.202  0.3467 -0.6101  0.0436
 3349TIP3    H131462   6.252   5.476  16.227  0.6561 -0.6089  1.1074
 3349TIP3    H231463   6.319   5.611  16.213  0.4046 -0.5934 -0.0208
 3350TIP3   OH231464   3.296   4.916   1.846  0.1375 -0.4419 -0.0754
 3350TIP3    H131465   3.357   4.901   1.774 -1.0999 -0.7661 -1.0975
 3350TIP3    H231466   3.269   5.007   1.835  1.0440 -0.0352  0.8848
 3351TIP3   OH231467   4.490   3.471   0.568  0.5041  0.2017  0.5155
 3351TIP3    H131468   4.494   3.540   0.502 -2.3539  1.5114  1.5188
 3351TIP3    H231469   4.475   3.390   0.519 -0.9395  1.0623 -0.5303
 3352TIP3   OH231470   3.173   1.382   2.920  0.3963  0.7571 -0.0741
 3352TIP3    H131471   3.166   1.413   3.010 -1.2853 -0.2720  0.1938
 3352TIP3    H231472   3.089   1.406   2.880 -0.2876 -1.7947 -0.3406
 3353TIP3   OH231473   2.548   5.456   2.689 -0.3406  0.5177  0.0921
 3353TIP3    H131474   2.501   5.521   2.743  0.0395  0.5329  0.4092
 3353TIP3    H231475   2.640   5.477   2.700 -0.0774 -1.1570  1.6484
 3354TIP3   OH231476   3.287   3.367  17.177 -0.6154 -0.2807 -0.4107
 3354TIP3    H131477   3.241   3.284  17.163  0.1311 -0.5903 -1.1348
 3354TIP3    H231478   3.220   3.434  17.164 -0.6811 -0.6825 -2.4747
 3355TIP3   OH231479   0.779   5.537  12.505  0.2274  0.1390 -0.3915
 3355TIP3    H131480   0.758   5.615  12.556  0.9068  0.3210 -0.3810
 3355TIP3    H231481   0.863   5.557  12.463 -1.1362  0.7542 -3.1008
 3356TIP3   OH231482   3.565   2.801   4.729 -0.1066 -0.5658  0.0586
 3356TIP3    H131483   3.577   2.844   4.644 -1.7652 -0.8940 -0.3800
 3356TIP3    H231484   3.620   2.851   4.789 -2.1825  2.4648 -0.3410
 3357TIP3   OH231485   2.498   2.701   0.910 -0.0981  0.0566  0.0728
 3357TIP3    H131486   2.575   2.687   0.966 -1.2235  0.8759  1.9136
 3357TIP3    H231487   2.456   2.778   0.947 -1.2889  0.2004 -1.5167
 3358TIP3   OH231488   1.869   1.220   4.568  0.7841 -0.5520 -0.8357
 3358TIP3    H131489   1.857   1.131   4.536  0.1714 -0.6443 -0.3524
 3358TIP3    H231490   1.964   1.235   4.562  0.7958 -0.9212 -1.7270
 3359TIP3   OH231491   6.649   4.114   4.898 -0.3765  0.4916  0.0062
 3359TIP3    H131492   6.644   4.073   4.812  2.3407  0.8661 -0.4096
 3359TIP3    H231493   6.699   4.053   4.952 -2.6016 -0.0630  1.6181
 3360TIP3   OH231494   1.233   6.620   0.727 -0.3674  0.1704  0.1634
 3360TIP3    H131495   1.281   6.572   0.660  0.2706  0.4807  0.3888
 3360TIP3    H231496   1.149   6.641   0.686  0.8964  2.4536 -1.4609
 3361TIP3   OH231497   2.452   3.018  11.147 -0.7541  0.3591  0.3868
 3361TIP3    H131498   2.463   3.082  11.217 -0.5726  0.4013  0.3205
 3361TIP3    H231499   2.452   2.933  11.191  0.6879  0.2990  0.3193
 3362TIP3   OH231500   1.635   4.427  12.536  0.3759 -0.2505  0.1363
 3362TIP3    H131501   1.614   4.334  12.537 -1.7746  0.1941 -0.3087
 3362TIP3    H231502   1.646   4.450  12.444 -1.3214  0.3665  0.0581
 3363TIP3   OH231503   4.760   6.255  13.642  0.2988 -0.0448  0.1584
 3363TIP3    H131504   4.801   6.318  13.702  0.8215  1.7766 -1.9922
 3363TIP3    H231505   4.681   6.226  13.688 -1.0986  3.7504  0.5116
 3364TIP3   OH231506   1.420   0.073  10.322  0.0322  0.7742 -0.1353
 3364TIP3    H131507   1.431   0.064  10.227 -0.8033  1.2543 -0.2970
 3364TIP3    H231508   1.465   0.155  10.344 -1.1538  1.5257 -0.4071
 3365TIP3   OH231509   2.671   0.415  14.552  0.5270 -0.0649 -0.2107
 3365TIP3    H131510   2.624   0.350  14.500  0.8261 -0.5627  0.1305
 3365TIP3    H231511   2.657   0.497  14.506 -0.4552 -0.2451 -0.2642
 3366TIP3   OH231512   1.039   3.704   5.239  0.4340 -0.0233  0.4130
 3366TIP3    H131513   1.082   3.619   5.251 -0.4260 -0.4180  0.7528
 3366TIP3    H231514   0.956   3.683   5.197  0.8784  0.8062 -0.9481
 3367TIP3   OH231515   3.334   6.060  15.706  0.1437  0.0291  0.3828
 3367TIP3    H131516   3.303   5.971  15.723 -1.4975  0.4852 -0.0196
 3367TIP3    H231517   3.343   6.065  15.611 -0.8765  0.6164  0.3028
 3368TIP3   OH231518   3.049   1.492  14.027  0.4727  0.5001 -0.1438
 3368TIP3    H131519   3.043   1.426  13.959 -0.5529 -1.1213  1.4250
 3368TIP3    H231520   2.959   1.523  14.039  1.0051  2.6360 -1.2089
 3369TIP3   OH231521   2.755   0.009  16.385  0.3797  0.2442  0.1096
 3369TIP3    H131522   2.749   0.061  16.465  1.8885  0.1595  0.3064
 3369TIP3    H231523   2.699  -0.067  16.402  0.7150  0.2028  1.1088
 3370TIP3   OH231524   1.055   1.698   4.435 -0.2842  0.4742  0.2081
 3370TIP3    H131525   1.050   1.752   4.513  1.2377 -2.1495  2.2996
 3370TIP3    H231526   1.001   1.621   4.455 -0.5943  0.1346 -1.7008
 3371TIP3   OH231527   2.670   6.342  13.553  0.1467 -0.0879 -0.0091
 3371TIP3    H131528   2.744   6.293  13.590 -0.9757 -1.0741  1.0324
 3371TIP3    H231529   2.623   6.278  13.500  0.5845  0.7990 -1.5138
 3372TIP3   OH231530   0.215   4.818  17.119  0.8312 -0.3813 -0.0652
 3372TIP3    H131531   0.173   4.850  17.039  2.4770 -0.5808 -1.0757
 3372TIP3    H231532   0.147   4.770  17.165 -0.0742 -0.6017 -1.5602
 3373TIP3   OH231533   0.157   4.899   5.985  0.2460  0.6952  0.3215
 3373TIP3    H131534   0.208   4.915   6.065 -0.5252  0.7340  0.8079
 3373TIP3    H231535   0.222   4.905   5.914  0.7807  1.5103  0.8646
 3374TIP3   OH231536   3.125   2.952  12.891  0.1546  0.6491  1.1416
 3374TIP3    H131537   3.153   2.998  12.812  1.3905 -1.4160  0.2813
 3374TIP3    H231538   3.033   2.931  12.876  0.6064 -0.5335 -0.2264
 3375TIP3   OH231539   6.659   4.184  16.160 -0.1279  0.3748 -0.0097
 3375TIP3    H131540   6.720   4.220  16.224  0.2979  0.0585 -0.2380
 3375TIP3    H231541   6.692   4.096  16.140  0.1714  0.7428 -1.2238
 3376TIP3   OH231542   1.329   3.534   3.861  0.5844  0.3339 -0.3866
 3376TIP3    H131543   1.268   3.464   3.837  0.3646  0.0219  1.0036
 3376TIP3    H231544   1.358   3.570   3.777 -0.8947 -0.0373 -1.0944
 3377TIP3   OH231545   4.253   3.341   3.399  0.0576  0.1469  0.0145
 3377TIP3    H131546   4.262   3.251   3.429 -0.7221  0.5296  1.4800
 3377TIP3    H231547   4.333   3.358   3.348 -0.9856 -2.2152 -2.6873
 3378TIP3   OH231548   0.254   4.600  12.198  0.3494  0.4216  0.3242
 3378TIP3    H131549   0.232   4.510  12.222  1.5925 -0.0463 -0.2367
 3378TIP3    H231550   0.277   4.642  12.281 -3.0829  1.1480  1.0883
 3379TIP3   OH231551   4.918   1.872   3.020  0.0668 -1.0218  0.1877
 3379TIP3    H131552   4.931   1.839   3.109 -0.1463  0.5355  0.8413
 3379TIP3    H231553   4.998   1.920   3.000 -0.6435  0.3111  0.3641
 3380TIP3   OH231554   1.537   0.356  17.058 -0.0974 -0.9626 -0.4079
 3380TIP3    H131555   1.573   0.284  17.005  0.4894 -1.6623  0.9089
 3380TIP3    H231556   1.584   0.352  17.140 -0.3730  0.6761 -0.1304
 3381TIP3   OH231557   1.034   0.211  15.824  0.2292 -0.3005  0.0996
 3381TIP3    H131558   1.059   0.119  15.829 -1.1709 -0.7379 -0.4889
 3381TIP3    H231559   0.940   0.210  15.804  0.3687  1.2491 -0.8226
 3382TIP3   OH231560   5.999   0.303   1.149  0.0049  0.1874 -0.1381
 3382TIP3    H131561   5.984   0.365   1.220 -0.0727 -1.1541  1.0612
 3382TIP3    H231562   6.091   0.277   1.159 -0.4135 -1.1640  0.4690
 3383TIP3   OH231563   3.118   5.170   5.055 -0.1484  0.2286  0.0614
 3383TIP3    H131564   3.142   5.236   4.991 -1.0893 -1.4907 -2.2129
 3383TIP3    H231565   3.023   5.179   5.065 -0.3198 -0.8583 -0.4314
 3384TIP3   OH231566   5.768   3.796   4.743  0.1162  0.3534  0.5021
 3384TIP3    H131567   5.798   3.858   4.677 -2.1366 -0.2301 -1.2116
 3384TIP3    H231568   5.812   3.823   4.823  1.5681  2.2297 -0.8338
 3385TIP3   OH231569   5.473   6.200   4.043  0.3401  0.2582 -0.2445
 3385TIP3    H131570   5.388   6.191   3.999 -0.5514 -0.3196  1.4916
 3385TIP3    H231571   5.526   6.251   3.982 -0.9795 -0.0806 -1.7451
 3386TIP3   OH231572   6.134   1.951   3.504 -0.4474 -0.5691  0.1036
 3386TIP3    H131573   6.089   2.015   3.559  0.5886 -1.8304  2.6144
 3386TIP3    H231574   6.080   1.873   3.509  0.0817 -0.9469  0.0216
 3387TIP3   OH231575   5.595   6.181  16.496  0.2591 -0.3649  0.3222
 3387TIP3    H131576   5.522   6.146  16.445 -2.5724  1.2436  2.8835
 3387TIP3    H231577   5.673   6.144  16.455 -1.8779 -1.4324 -3.2419
 3388TIP3   OH231578   4.550   1.868   5.223  0.2914  0.6414 -0.5532
 3388TIP3    H131579   4.603   1.882   5.145  3.0361  2.1203  1.4151
 3388TIP3    H231580   4.516   1.955   5.245  1.9258  0.8679  1.3934
 3389TIP3   OH231581   4.099   6.120  12.681  0.4323  0.0517  0.0170
 3389TIP3    H131582   4.109   6.213  12.662 -0.3878  0.4132  1.2978
 3389TIP3    H231583   4.189   6.087  12.685  0.7887  1.1140  1.1038
 3390TIP3   OH231584   3.169   3.013  10.547 -0.1340 -0.4671  0.1235
 3390TIP3    H131585   3.256   3.007  10.585  0.3676  1.7644 -0.4947
 3390TIP3    H231586   3.171   2.955  10.471  1.2193  0.3543 -0.5122
 3391TIP3   OH231587   1.773   5.382  16.217 -0.2493 -0.0804 -0.4015
 3391TIP3    H131588   1.860   5.384  16.179  0.0756 -1.2582  0.2328
 3391TIP3    H231589   1.784   5.335  16.300 -1.2482  0.8821  0.3064
 3392TIP3   OH231590   1.798   2.350   3.924  0.2761 -0.8786 -0.1640
 3392TIP3    H131591   1.795   2.269   3.872 -0.9299  0.1830 -1.8807
 3392TIP3    H231592   1.766   2.418   3.864 -0.2941  0.6081  1.7127
 3393TIP3   OH231593   0.372   4.708   2.621  0.1769 -0.4110 -0.7581
 3393TIP3    H131594   0.349   4.768   2.692  0.5242 -1.4373  0.2531
 3393TIP3    H231595   0.413   4.764   2.555  1.3153  0.3627  0.5510
 3394TIP3   OH231596   2.835   2.157  12.627  0.2279 -0.2931  0.9197
 3394TIP3    H131597   2.848   2.248  12.652 -2.2402  0.3788  0.0097
 3394TIP3    H231598   2.839   2.157  12.531 -1.4279 -0.7813  0.8086
 3395TIP3   OH231599   3.215   0.934   1.691  0.6652 -0.4829  0.4186
 3395TIP3    H131600   3.203   1.028   1.673  1.2223 -0.2460  1.2362
 3395TIP3    H231601   3.127   0.897   1.681  0.0813  0.4296  1.7538
 3396TIP3   OH231602   5.353   2.422   3.705  0.1719  0.2697  0.1872
 3396TIP3    H131603   5.339   2.383   3.792  1.6623 -0.3835  0.1642
 3396TIP3    H231604   5.308   2.507   3.709 -2.2123 -0.9352  0.6122
 3397TIP3   OH231605   2.314   6.667  16.754  0.6238  0.4751 -0.4871
 3397TIP3    H131606   2.396   6.623  16.775 -0.3160 -1.8454 -1.3603
 3397TIP3    H231607   2.318   6.684  16.660 -0.7315 -1.7299 -1.0192
 3398TIP3   OH231608   3.156   1.673   0.697  0.2781  0.1647  0.0997
 3398TIP3    H131609   3.212   1.707   0.627  0.1510  1.3487  0.5475
 3398TIP3    H231610   3.203   1.696   0.777  0.6921 -1.6599  0.4165
 3399TIP3   OH231611   1.941   4.867   3.598 -0.4171  0.1875 -0.2304
 3399TIP3    H131612   2.001   4.883   3.671 -1.5575  0.4936  0.6728
 3399TIP3    H231613   1.990   4.810   3.539  0.3794 -0.4336  0.9880
 3400TIP3   OH231614   2.142   3.173  13.956  0.0567 -0.4353 -0.3061
 3400TIP3    H131615   2.171   3.096  13.907  0.5831  0.2235 -1.0654
 3400TIP3    H231616   2.058   3.196  13.917  0.5686  0.2085 -1.0798
 3401TIP3   OH231617   4.676   6.616   5.831  0.3680  0.0126 -0.4037
 3401TIP3    H131618   4.594   6.602   5.877  0.0013  1.3233 -0.6335
 3401TIP3    H231619   4.702   6.529   5.802 -1.4005 -0.3149 -1.1150
 3402TIP3   OH231620   6.234   0.459   5.344  0.3483 -0.2899 -0.1117
 3402TIP3    H131621   6.201   0.387   5.291 -1.0577  1.7174 -2.1015
 3402TIP3    H231622   6.328   0.461   5.326  0.0468 -0.2662 -1.7879
 3403TIP3   OH231623   6.277   1.798  16.550 -0.2793  0.3952 -0.4446
 3403TIP3    H131624   6.267   1.735  16.621  0.2640  0.1643 -0.5666
 3403TIP3    H231625   6.319   1.874  16.590  0.0859  0.2400 -0.5286
 3404TIP3   OH231626   0.316   2.261  14.273 -0.0984 -0.1876 -0.3108
 3404TIP3    H131627   0.297   2.243  14.366 -0.7346 -2.8339 -0.8613
 3404TIP3    H231628   0.410   2.245  14.265 -0.1059 -0.3077 -0.1791
 3405TIP3   OH231629   0.249   4.269  11.185 -0.2495  0.5390  0.2702
 3405TIP3    H131630   0.174   4.300  11.134  0.2793 -0.8305 -1.4842
 3405TIP3    H231631   0.218   4.188  11.225 -0.3235  1.0563  1.2855
 3406TIP3   OH231632   3.250   5.847   5.812 -0.1047  0.2594 -0.2882
 3406TIP3    H131633   3.305   5.820   5.738  0.8822  0.4824  0.3476
 3406TIP3    H231634   3.197   5.919   5.777 -0.0295  0.0120 -0.9233
 3407TIP3   OH231635   5.061   6.277   1.402 -0.1960 -0.0773  1.1201
 3407TIP3    H131636   5.047   6.182   1.406  0.5663 -0.3772 -1.3417
 3407TIP3    H231637   5.121   6.289   1.328 -0.9376  2.4099  0.8338
 3408TIP3   OH231638   5.028   1.719  14.147  0.3751  0.2698  0.0932
 3408TIP3    H131639   5.022   1.815  14.146 -0.2252  0.2354  0.3332
 3408TIP3    H231640   5.122   1.702  14.152  0.6170  0.8379 -1.7028
 3409TIP3   OH231641   5.608   1.864  16.363  0.4329 -0.0107  0.6040
 3409TIP3    H131642   5.697   1.848  16.330  0.6266  1.4588  0.3462
 3409TIP3    H231643   5.560   1.896  16.287 -0.3716 -0.9344  0.7083
 3410TIP3   OH231644   2.918   1.983   6.022  0.3404 -0.8109  0.2591
 3410TIP3    H131645   2.970   2.004   5.944 -0.7087 -1.6953 -0.7084
 3410TIP3    H231646   2.979   1.939   6.081  1.8023  2.0064  1.0477
 3411TIP3   OH231647   5.189   4.575  15.786 -0.0580 -0.3006 -0.0183
 3411TIP3    H131648   5.265   4.616  15.745  0.4310 -0.7281  0.4512
 3411TIP3    H231649   5.204   4.481  15.778  1.0877 -0.4587  2.9182
 3412TIP3   OH231650   5.508   5.645   0.753  0.1904  0.2246  0.6662
 3412TIP3    H131651   5.484   5.562   0.712  2.9009 -0.2128 -0.2546
 3412TIP3    H231652   5.453   5.649   0.831  0.0803 -2.5348  0.8460
 3413TIP3   OH231653   4.178   4.657   0.547  0.6082  0.2640 -0.0129
 3413TIP3    H131654   4.183   4.690   0.637  0.9831  0.2579 -0.0300
 3413TIP3    H231655   4.091   4.617   0.541 -0.5555  2.6475 -0.4758
 3414TIP3   OH231656   3.084   5.875  12.864  0.0444  0.1140 -0.0047
 3414TIP3    H131657   3.169   5.897  12.824 -0.1481  1.2844  0.2007
 3414TIP3    H231658   3.020   5.922  12.811 -0.5264 -1.0178 -0.3522
 3415TIP3   OH231659   2.017   2.559  12.488 -0.0630 -0.6591  0.3762
 3415TIP3    H131660   1.974   2.514  12.415 -0.7258 -1.5006  1.2540
 3415TIP3    H231661   1.950   2.616  12.525  0.1121 -0.6222  0.6416
 3416TIP3   OH231662   5.728   5.008   1.561 -0.1565  0.2083 -0.3547
 3416TIP3    H131663   5.667   4.946   1.601 -0.7003  1.5548  1.0085
 3416TIP3    H231664   5.727   4.986   1.468 -2.7563  0.1761 -0.3945
 3417TIP3   OH231665   2.159   4.547  14.752 -0.1575  0.8672  0.4582
 3417TIP3    H131666   2.135   4.489  14.824 -0.3032  0.7803  0.3401
 3417TIP3    H231667   2.252   4.567  14.767 -0.1231  0.6526  0.5308
 3418TIP3   OH231668   5.772   0.611   4.182  0.4317  0.2655  0.3470
 3418TIP3    H131669   5.788   0.703   4.204 -0.1561  0.2248  0.9779
 3418TIP3    H231670   5.676   0.603   4.180  0.4623  0.0696 -1.4350
 3419TIP3   OH231671   4.837   2.694   5.484  0.0520  0.1224  0.0143
 3419TIP3    H131672   4.799   2.639   5.416  1.0767 -0.1711 -0.3307
 3419TIP3    H231673   4.767   2.703   5.549 -0.6870 -0.1974 -0.7189
 3420TIP3   OH231674   6.211   0.369   1.872  0.6135 -0.4986 -0.1550
 3420TIP3    H131675   6.195   0.360   1.778 -0.3943 -0.1236 -0.0279
 3420TIP3    H231676   6.306   0.362   1.881  0.9724  1.6208 -1.4740
 3421TIP3   OH231677   0.551   5.528  15.536 -0.8540 -0.4066  0.0236
 3421TIP3    H131678   0.569   5.579  15.456  0.9759 -1.1432 -0.0762
 3421TIP3    H231679   0.457   5.537  15.549 -1.1630 -0.0599 -2.0895
 3422TIP3   OH231680   4.253   0.700   3.507 -0.2154 -0.3512  0.0623
 3422TIP3    H131681   4.282   0.695   3.598  0.3740 -0.6294 -0.1299
 3422TIP3    H231682   4.158   0.698   3.512 -0.1833 -1.1089  0.6423
 3423TIP3   OH231683   5.818   1.882   3.847 -0.5508 -0.1336  0.0995
 3423TIP3    H131684   5.731   1.858   3.880 -0.3122 -0.2818  0.6228
 3423TIP3    H231685   5.826   1.975   3.866 -1.5442  0.4629 -2.0805
 3424TIP3   OH231686   3.419   2.287   3.740  0.6906  0.3168  0.2359
 3424TIP3    H131687   3.477   2.322   3.808 -1.6255  1.7097  1.6620
 3424TIP3    H231688   3.340   2.259   3.788  0.1213 -1.4417 -1.5874
 3425TIP3   OH231689   4.683   3.194  15.982 -0.3963 -0.6937 -0.1724
 3425TIP3    H131690   4.612   3.213  16.044 -1.2350  0.6060 -1.4628
 3425TIP3    H231691   4.641   3.147  15.910 -0.0232  0.2356 -1.0340
 3426TIP3   OH231692   4.901   5.804   0.692  0.0338 -0.0383 -0.5188
 3426TIP3    H131693   4.968   5.867   0.720  0.1106 -1.0051  1.6300
 3426TIP3    H231694   4.842   5.855   0.637 -0.9949  2.5035  2.6182
 3427TIP3   OH231695   1.258   4.526  14.490  0.3452  0.1285  0.0955
 3427TIP3    H131696   1.252   4.566  14.404  0.8629  0.9055  0.4125
 3427TIP3    H231697   1.208   4.445  14.482 -0.3372  0.6117 -0.6866
 3428TIP3   OH231698   4.812   1.260   2.090 -0.2947  0.4747 -0.0421
 3428TIP3    H131699   4.907   1.271   2.094 -0.3321  0.6721  0.3030
 3428TIP3    H231700   4.784   1.257   2.181 -0.8443  2.4737 -0.1087
 3429TIP3   OH231701   2.081   6.105   0.333  0.5898 -0.1612  0.2805
 3429TIP3    H131702   2.151   6.095   0.269  0.2510 -0.1214 -0.0988
 3429TIP3    H231703   2.125   6.141   0.411  1.1646 -1.0869  0.4031
 3430TIP3   OH231704   1.537   0.702  13.714 -0.0260 -0.0906  0.5021
 3430TIP3    H131705   1.624   0.697  13.752  1.7031 -0.9967 -3.1745
 3430TIP3    H231706   1.485   0.641  13.767  1.3564  0.8125  3.0634
 3431TIP3   OH231707   2.804   4.029  16.790  0.2973  0.1105 -0.3258
 3431TIP3    H131708   2.764   4.028  16.877  1.4431  3.6846  0.4057
 3431TIP3    H231709   2.736   3.995  16.731 -1.8940  1.1299  1.4903
 3432TIP3   OH231710   5.331   2.135  13.413 -0.6317 -0.1593 -0.2058
 3432TIP3    H131711   5.317   2.219  13.369 -2.2683 -0.8620 -1.1056
 3432TIP3    H231712   5.357   2.075  13.343 -2.0763 -1.0039 -0.0678
 3433TIP3   OH231713   1.802   2.763   1.262 -0.1389 -0.1724  0.0485
 3433TIP3    H131714   1.726   2.705   1.249  0.6520 -1.7265  1.8739
 3433TIP3    H231715   1.878   2.708   1.244  0.6255  0.6909  0.5422
 3434TIP3   OH231716   1.551   1.836  15.348 -0.2343 -0.6611 -0.4311
 3434TIP3    H131717   1.542   1.807  15.439 -0.1625 -1.8986 -0.7974
 3434TIP3    H231718   1.633   1.885  15.346 -0.2639 -0.5762  0.1794
 3435TIP3   OH231719   0.896   2.593   5.507 -0.6389  0.0444  0.4338
 3435TIP3    H131720   0.844   2.571   5.584 -0.9529  2.7788  1.0768
 3435TIP3    H231721   0.987   2.582   5.535 -0.7747 -0.2731  0.7560
 3436TIP3   OH231722   5.559   1.427  15.538  0.3727 -0.4187  0.1664
 3436TIP3    H131723   5.628   1.382  15.587  0.9862 -0.3468 -0.5885
 3436TIP3    H231724   5.580   1.520  15.548  2.0826 -0.4153 -2.2779
 3437TIP3   OH231725   4.935   2.398  14.264  0.3849  0.4369 -0.3195
 3437TIP3    H131726   4.984   2.401  14.346 -1.5094  1.1707  0.8641
 3437TIP3    H231727   4.956   2.313  14.226  0.7219 -0.2530  1.3268
 3438TIP3   OH231728   1.409   3.981  14.578 -0.6773  0.2253 -0.3254
 3438TIP3    H131729   1.338   4.037  14.545 -0.6435  0.0658 -0.6719
 3438TIP3    H231730   1.383   3.893  14.552 -1.0162  0.0035  0.7205
 3439TIP3   OH231731   5.976   4.022  11.827  0.2849  0.0090  0.3872
 3439TIP3    H131732   5.889   4.054  11.800  0.5977  0.0902 -0.5812
 3439TIP3    H231733   6.006   3.971  11.752  0.6214 -0.9345  1.1578
 3440TIP3   OH231734   5.701   4.615   5.471  0.1627  0.2914 -0.2154
 3440TIP3    H131735   5.649   4.686   5.510  1.9419  2.1003 -0.9658
 3440TIP3    H231736   5.792   4.639   5.490  0.8214 -2.1887  0.0868
 3441TIP3   OH231737   5.857   3.477  12.082 -0.2519 -0.4646 -0.2475
 3441TIP3    H131738   5.815   3.434  12.008 -0.2020 -1.2040  0.1456
 3441TIP3    H231739   5.808   3.447  12.158  0.9095 -1.2822  0.2094
 3442TIP3   OH231740   1.568   3.542   4.363 -0.0073 -0.1347 -0.0988
 3442TIP3    H131741   1.612   3.589   4.434  1.2301 -0.4359 -0.6381
 3442TIP3    H231742   1.493   3.501   4.404 -1.0691  2.1788  0.4269
 3443TIP3   OH231743   1.545   5.784  10.167  0.6402  0.4791  0.3660
 3443TIP3    H131744   1.627   5.814  10.128  0.3414  2.0231  0.8895
 3443TIP3    H231745   1.546   5.818  10.256 -1.1329  1.6252 -0.0040
 3444TIP3   OH231746   4.784   0.443  12.211 -0.0383  0.0571  0.0408
 3444TIP3    H131747   4.872   0.477  12.193 -0.5350  1.0364 -0.6583
 3444TIP3    H231748   4.796   0.383  12.284  1.0023  1.2427  0.9006
 3445TIP3   OH231749   5.813   1.997  12.319 -0.5706  0.0568  0.0018
 3445TIP3    H131750   5.748   1.965  12.382 -1.5432  1.2085 -0.3936
 3445TIP3    H231751   5.817   2.091  12.334  0.9183  0.0326 -0.0872
 3446TIP3   OH231752   1.078   4.460  12.492 -0.1105 -0.5609  0.2333
 3446TIP3    H131753   1.016   4.514  12.442  0.1594  0.1610  0.6618
 3446TIP3    H231754   1.146   4.522  12.519  0.0573 -1.0706  0.9826
 3447TIP3   OH231755   1.590   2.977  10.945 -0.4629  0.1024 -0.0027
 3447TIP3    H131756   1.588   3.063  10.903 -1.2051 -0.4447 -1.1417
 3447TIP3    H231757   1.544   2.919  10.884 -0.4967 -0.9897  1.0125
 3448TIP3   OH231758   4.186   4.921   4.717 -0.4329 -0.0325  0.0497
 3448TIP3    H131759   4.188   4.894   4.625 -0.2264  0.2832 -0.0352
 3448TIP3    H231760   4.096   4.952   4.731 -0.7151 -0.8649  0.1795
 3449TIP3   OH231761   6.718   6.615   2.043  0.3006  0.1111  0.1012
 3449TIP3    H131762   6.777   6.588   1.972 -0.0762  0.5228 -0.3745
 3449TIP3    H231763   6.693   6.534   2.085 -1.5487 -0.4378 -1.8763
 3450TIP3   OH231764   2.376   1.520  13.172 -0.7806  0.1015 -0.3362
 3450TIP3    H131765   2.290   1.554  13.145 -0.4613  1.3318  0.1441
 3450TIP3    H231766   2.386   1.551  13.262  0.2179  0.0627 -0.4279
 3451TIP3   OH231767   1.719   5.361   0.788 -0.2235  0.3261  0.3388
 3451TIP3    H131768   1.700   5.360   0.882  0.9506  0.0224  0.5966
 3451TIP3    H231769   1.714   5.269   0.762  2.2616  0.0025  0.7560
 3452TIP3   OH231770   6.482   2.184   4.968 -0.2290  0.2137 -0.2650
 3452TIP3    H131771   6.555   2.139   5.010  0.3564  0.3292 -1.1185
 3452TIP3    H231772   6.429   2.218   5.040 -0.5548 -1.6011  0.3977
 3453TIP3   OH231773   6.329   2.540   3.400  0.7475  0.3405  0.1519
 3453TIP3    H131774   6.252   2.562   3.347  1.5774 -1.4298 -1.9239
 3453TIP3    H231775   6.396   2.518   3.337  1.5258 -2.8768  1.9136
 3454TIP3   OH231776   2.537   6.737   4.936 -0.3544  0.4936  0.1839
 3454TIP3    H131777   2.475   6.686   4.988  0.9128 -0.3748  0.9105
 3454TIP3    H231778   2.530   6.701   4.848 -1.3418  0.8533  0.1085
 3455TIP3   OH231779   6.647   3.954   4.082 -0.5258  0.3070 -0.0258
 3455TIP3    H131780   6.666   3.888   4.149 -0.4769  0.5538  0.2053
 3455TIP3    H231781   6.684   3.918   4.001 -2.0870 -0.7952 -0.2936
 3456TIP3   OH231782   0.481   0.238  11.541  0.2023 -0.1762  0.5501
 3456TIP3    H131783   0.491   0.276  11.628  1.3022 -0.1582  0.4238
 3456TIP3    H231784   0.477   0.313  11.481  0.6043 -0.2148  0.4734
 3457TIP3   OH231785   4.026   5.006   4.398 -0.0339  0.1320  0.2964
 3457TIP3    H131786   3.952   5.053   4.361  0.7731  1.1924 -0.0557
 3457TIP3    H231787   4.018   4.917   4.366 -1.1911  0.2157  0.3368
 3458TIP3   OH231788   2.147   5.099   3.179  0.8203  0.2027  0.2403
 3458TIP3    H131789   2.056   5.094   3.148  0.7724 -1.8284  0.5610
 3458TIP3    H231790   2.161   5.017   3.227  3.5573 -0.8120 -1.9392
 3459TIP3   OH231791   1.909   2.141   5.102  0.9613 -0.2443 -0.3067
 3459TIP3    H131792   1.956   2.070   5.058  0.8543 -0.2462 -0.4174
 3459TIP3    H231793   1.978   2.190   5.149  0.9723 -0.7087  0.1729
 3460TIP3   OH231794   5.066   3.284   4.139 -0.1276  0.1148  0.1452
 3460TIP3    H131795   4.995   3.345   4.159  1.2429  1.9036 -0.1556
 3460TIP3    H231796   5.024   3.215   4.087 -1.7561  0.7529  0.5402
 3461TIP3   OH231797   5.977   0.244   4.653 -0.7495  0.7528 -0.2072
 3461TIP3    H131798   6.057   0.193   4.644 -0.4008  0.1450  4.2572
 3461TIP3    H231799   5.910   0.193   4.608  0.6734 -0.5434 -0.9286
 3462TIP3   OH231800   0.693   2.599   5.301 -0.2341 -0.1024  0.0059
 3462TIP3    H131801   0.618   2.560   5.345  0.6911 -0.2875  1.4616
 3462TIP3    H231802   0.757   2.613   5.370  0.6559  1.0949 -1.0184
 3463TIP3   OH231803   2.487   4.141  15.736 -0.0671 -0.1019  0.5784
 3463TIP3    H131804   2.433   4.062  15.732 -1.3351  0.7562 -0.2257
 3463TIP3    H231805   2.515   4.155  15.645  0.7399  0.0030  0.8334
 3464TIP3   OH231806   0.697   2.362   3.671 -0.0960 -0.0312 -0.3905
 3464TIP3    H131807   0.768   2.377   3.609 -0.7625  0.7096 -1.0037
 3464TIP3    H231808   0.634   2.432   3.652 -0.9515 -0.6267  0.1885
 3465TIP3   OH231809   1.655   0.837  15.639  0.1232 -0.0124  0.0613
 3465TIP3    H131810   1.645   0.742  15.633  0.7524 -0.1245  0.6809
 3465TIP3    H231811   1.749   0.853  15.628 -0.0234  0.5677 -0.4100
 3466TIP3   OH231812   6.716   2.373   4.879 -0.3819 -0.2988  0.3696
 3466TIP3    H131813   6.677   2.429   4.946  1.7878 -0.4022  1.8060
 3466TIP3    H231814   6.774   2.314   4.927  0.5287 -1.0153 -1.5084
 3467TIP3   OH231815   3.082   5.707   0.378  0.7733  1.1074  0.3582
 3467TIP3    H131816   3.032   5.643   0.327  0.7408  0.8588  0.6941
 3467TIP3    H231817   3.141   5.748   0.315  1.2331  0.3041  0.2513
 3468TIP3   OH231818   1.864   2.481   1.767  0.0583 -0.0185  0.3473
 3468TIP3    H131819   1.904   2.420   1.704  1.1634  1.6997 -0.6995
 3468TIP3    H231820   1.792   2.431   1.806  0.0685 -1.5473 -1.4362
 3469TIP3   OH231821   1.273   6.124  13.845  0.1784 -0.0521  0.0237
 3469TIP3    H131822   1.368   6.113  13.840 -0.0346 -1.9078 -0.9206
 3469TIP3    H231823   1.239   6.064  13.779 -1.7285 -0.9314  1.7034
 3470TIP3   OH231824   1.280   0.371  11.771  0.2531 -0.2113  0.3758
 3470TIP3    H131825   1.334   0.299  11.803 -0.8809 -2.5334 -2.4775
 3470TIP3    H231826   1.314   0.390  11.684 -0.0031  2.2640  0.7279
 3471TIP3   OH231827   5.136   0.278   6.280 -0.3466  0.5813  0.3214
 3471TIP3    H131828   5.184   0.200   6.308 -1.2674  0.2802  1.1224
 3471TIP3    H231829   5.187   0.313   6.207 -0.1167 -0.9812 -0.3080
 3472TIP3   OH231830   3.680   5.856  16.619 -0.6795  0.5778  0.5342
 3472TIP3    H131831   3.771   5.875  16.595 -0.9517  1.3898  0.0997
 3472TIP3    H231832   3.673   5.761  16.614  0.6014  0.3502  2.2316
 3473TIP3   OH231833   5.112   2.520   0.726  0.2136 -0.0672  0.5145
 3473TIP3    H131834   5.131   2.443   0.673  0.3669 -0.8580  1.6912
 3473TIP3    H231835   5.182   2.522   0.791  0.8457  1.7055 -0.1656
 3474TIP3   OH231836   5.277   2.699   3.759 -0.1198 -0.0257  0.2453
 3474TIP3    H131837   5.271   2.724   3.667  0.3994 -0.9830 -0.0685
 3474TIP3    H231838   5.294   2.780   3.806  2.1658  0.1635 -0.7974
 3475TIP3   OH231839   3.499   5.086  12.900  0.3080 -0.2535 -0.4702
 3475TIP3    H131840   3.520   5.000  12.937 -1.3194 -0.0448  1.1271
 3475TIP3    H231841   3.488   5.071  12.806 -1.3981 -2.1486 -0.0412
 3476TIP3   OH231842   4.552   4.316  11.874  0.6654 -0.5462  0.2570
 3476TIP3    H131843   4.632   4.275  11.842  0.9890  0.9366 -0.9479
 3476TIP3    H231844   4.535   4.388  11.813 -0.7522  0.1164  1.3515
 3477TIP3   OH231845   3.964   0.731   5.928 -0.2527  0.1412 -0.7354
 3477TIP3    H131846   3.946   0.720   6.021  0.3360  3.7343 -0.0482
 3477TIP3    H231847   3.878   0.729   5.886 -0.8794  1.8215  0.3911
 3478TIP3   OH231848   5.723   3.788  15.469 -0.0882  0.1990  0.0259
 3478TIP3    H131849   5.701   3.749  15.553 -0.3513  0.6649  0.1769
 3478TIP3    H231850   5.813   3.760  15.452  0.8300  1.9739  1.5823
 3479TIP3   OH231851   4.572   0.517  14.335  0.3610  0.0543  0.2810
 3479TIP3    H131852   4.603   0.434  14.298  1.2415  0.9125 -1.0295
 3479TIP3    H231853   4.621   0.584  14.286 -2.1344  1.4516 -0.5056
 3480TIP3   OH231854   2.545   0.076  12.954 -0.0222  0.5250 -0.3323
 3480TIP3    H131855   2.489   0.096  13.029  0.0926  0.7873 -0.3175
 3480TIP3    H231856   2.617   0.024  12.991 -0.6798 -0.5365 -0.4790
 3481TIP3   OH231857   1.619   1.560   1.169 -0.1316 -0.1953 -0.1493
 3481TIP3    H131858   1.685   1.495   1.144 -0.4617 -0.0927 -1.3139
 3481TIP3    H231859   1.662   1.612   1.237  0.3181 -1.2964  0.4370
 3482TIP3   OH231860   5.060   6.348   3.411 -0.0487 -0.6034 -0.0032
 3482TIP3    H131861   5.039   6.375   3.500 -1.9629  1.7190 -1.0370
 3482TIP3    H231862   5.031   6.257   3.406  0.1615 -0.8028  1.7339
 3483TIP3   OH231863   1.934   2.816   3.992  0.0478 -0.1855  0.0421
 3483TIP3    H131864   1.949   2.858   4.077 -1.2697  0.8101 -0.1865
 3483TIP3    H231865   1.981   2.872   3.929 -0.2508 -0.0427 -0.0564
 3484TIP3   OH231866   1.070   2.799  15.600 -0.1562  0.0431 -0.2454
 3484TIP3    H131867   1.143   2.739  15.607 -0.1767  0.0633  0.2047
 3484TIP3    H231868   1.087   2.850  15.521  0.7029  0.5527  0.2471
 3485TIP3   OH231869   5.887   1.140  11.334 -0.3074 -0.1549 -0.0473
 3485TIP3    H131870   5.851   1.229  11.329 -2.7250 -1.0860 -0.5803
 3485TIP3    H231871   5.982   1.153  11.334 -0.5802  2.4129 -0.1841
 3486TIP3   OH231872   2.066   5.619  15.678 -0.1212 -0.0945 -0.1122
 3486TIP3    H131873   2.093   5.706  15.650 -0.0163  0.0932  0.5383
 3486TIP3    H231874   2.062   5.567  15.598 -2.5485  1.1273 -0.8707
 3487TIP3   OH231875   3.099   2.749  14.834  0.1788 -0.4854  0.1797
 3487TIP3    H131876   3.175   2.695  14.815 -0.1561 -0.1231 -2.6071
 3487TIP3    H231877   3.024   2.693  14.816 -0.2356 -0.4047  1.5413
 3488TIP3   OH231878   4.961   3.045   0.525 -0.1186 -0.8479 -0.8812
 3488TIP3    H131879   5.008   3.099   0.589 -0.8853 -0.5129 -0.5897
 3488TIP3    H231880   4.944   2.963   0.570 -0.2415 -0.7875 -0.8165
 3489TIP3   OH231881   6.734   3.393   2.078 -0.3529 -0.4903  0.3313
 3489TIP3    H131882   6.775   3.431   2.000  1.5218 -1.2158  0.9059
 3489TIP3    H231883   6.791   3.420   2.150 -0.9004 -1.5525  1.1928
 3490TIP3   OH231884   2.684   4.871  12.774  0.0907 -0.4821 -0.4622
 3490TIP3    H131885   2.755   4.896  12.833 -0.4829  2.7389 -0.9461
 3490TIP3    H231886   2.729   4.835  12.697  1.2744  1.5558 -0.7956
 3491TIP3   OH231887   0.061   6.014  11.529  0.3518 -0.3526 -0.1914
 3491TIP3    H131888   0.132   6.071  11.499 -0.6520  1.0737  0.0174
 3491TIP3    H231889   0.083   5.928  11.495  1.5786  0.3013 -1.1377
 3492TIP3   OH231890   0.534   2.546   6.221 -0.0202  0.2166 -0.0208
 3492TIP3    H131891   0.445   2.537   6.256  0.3675  0.0005  0.9332
 3492TIP3    H231892   0.563   2.632   6.250 -0.6705  1.2201 -2.1302
 3493TIP3   OH231893   1.718   5.051  15.100 -0.0769 -0.2194 -0.4132
 3493TIP3    H131894   1.688   5.136  15.068 -0.2380 -0.8501 -2.0252
 3493TIP3    H231895   1.767   5.014  15.027 -0.8000 -1.8995 -0.0790
 3494TIP3   OH231896   5.616   5.884   0.828 -0.4031 -0.0557  0.2567
 3494TIP3    H131897   5.583   5.796   0.810  0.1482 -0.4243  0.9907
 3494TIP3    H231898   5.642   5.918   0.743 -0.6335 -0.5993 -0.0338
 3495TIP3   OH231899   4.736   0.341  14.191 -0.7247  0.3329 -0.5869
 3495TIP3    H131900   4.727   0.324  14.097  0.0371 -1.4325 -0.3769
 3495TIP3    H231901   4.830   0.353  14.204 -0.9183  1.5650 -0.1676
 3496TIP3   OH231902   2.345   5.885   2.466  0.0457 -0.2849 -0.6986
 3496TIP3    H131903   2.414   5.859   2.527 -1.5653 -0.2423  1.2346
 3496TIP3    H231904   2.362   5.978   2.448  1.1657 -0.5743 -1.2529
 3497TIP3   OH231905   1.924   3.522  13.572  0.4758  0.0234 -0.0003
 3497TIP3    H131906   1.999   3.484  13.528 -0.0107 -2.3980  1.1202
 3497TIP3    H231907   1.960   3.561  13.652  0.6068 -0.8764  0.3908
 3498TIP3   OH231908   1.441   2.039  12.412 -0.5687 -0.5664  0.0742
 3498TIP3    H131909   1.520   2.056  12.461 -0.2152 -0.2326 -0.5946
 3498TIP3    H231910   1.396   1.970  12.461  0.1725 -0.8155  0.4081
 3499TIP3   OH231911   0.631   4.758   0.026 -0.4347  0.2156  0.3452
 3499TIP3    H131912   0.589   4.744  -0.059  0.2027 -0.1632  0.0861
 3499TIP3    H231913   0.692   4.830   0.011 -0.4108  0.2317  0.5152
 3500TIP3   OH231914   0.853   6.221  11.754 -0.7876 -0.2166 -0.2015
 3500TIP3    H131915   0.907   6.175  11.818 -0.9791  1.7598  1.5213
 3500TIP3    H231916   0.878   6.184  11.670  1.3950 -1.1238  0.7597
 3501TIP3   OH231917   5.378   5.272   3.500 -0.1313 -0.2578 -0.2401
 3501TIP3    H131918   5.441   5.343   3.489 -1.1184  1.0787  2.1541
 3501TIP3    H231919   5.431   5.197   3.527  0.7241  0.0349 -1.0564
 3502TIP3   OH231920   3.094   4.198   5.200 -0.2222  0.3070  0.2486
 3502TIP3    H131921   3.078   4.289   5.225 -2.5672  0.2443 -0.7778
 3502TIP3    H231922   3.157   4.204   5.128  0.0031  1.0757  0.4990
 3503TIP3   OH231923   2.541   0.111  14.096  0.0469  0.2839 -0.1168
 3503TIP3    H131924   2.452   0.147  14.085  1.0722  3.1389  0.0207
 3503TIP3    H231925   2.530   0.037  14.155 -2.5015 -0.8570 -1.8307
 3504TIP3   OH231926   2.743   6.678  11.775 -0.1644 -0.0713 -0.2154
 3504TIP3    H131927   2.764   6.589  11.745  1.8836  0.4289 -0.3973
 3504TIP3    H231928   2.702   6.665  11.860  0.0679 -1.1992 -0.2541
 3505TIP3   OH231929   5.365   2.964  14.947  0.1966  0.7553 -0.1207
 3505TIP3    H131930   5.450   2.925  14.967  0.8200  0.0614 -3.4890
 3505TIP3    H231931   5.384   3.056  14.929  0.0615  0.8196  0.0584
 3506TIP3   OH231932   3.159   4.317  16.141 -0.1410 -0.3183 -0.1290
 3506TIP3    H131933   3.160   4.281  16.230  1.4046  1.5393  0.6785
 3506TIP3    H231934   3.241   4.287  16.103  0.4272  0.9733  0.0167
 3507TIP3   OH231935   3.289   0.426  13.647  1.0542  0.0023 -0.2779
 3507TIP3    H131936   3.307   0.505  13.597 -0.4945 -0.0460 -0.9728
 3507TIP3    H231937   3.194   0.425  13.658  1.2022 -0.7895  1.3620
 3508TIP3   OH231938   0.180   0.775   3.550  0.3425 -0.0992  0.7241
 3508TIP3    H131939   0.195   0.740   3.463 -0.4014  1.4424 -0.0554
 3508TIP3    H231940   0.267   0.778   3.590  0.4218 -2.9098  0.9066
 3509TIP3   OH231941   4.463   6.204  14.372  0.0689  0.3016  0.1064
 3509TIP3    H131942   4.371   6.216  14.350  0.1724 -1.4891 -1.5428
 3509TIP3    H231943   4.464   6.137  14.440  0.2069 -1.3772 -1.4795
 3510TIP3   OH231944   4.376   3.865   3.126  0.1057  0.3893 -0.0776
 3510TIP3    H131945   4.311   3.896   3.189  1.7294  1.8924  0.9309
 3510TIP3    H231946   4.381   3.770   3.141 -1.4428  0.3308  0.1823
 3511TIP3   OH231947   4.763   3.088   5.622 -0.0109  0.2724 -0.2132
 3511TIP3    H131948   4.696   3.024   5.644  1.3381 -1.2299 -0.2332
 3511TIP3    H231949   4.737   3.168   5.669 -0.5291 -0.9790  1.7679
 3512TIP3   OH231950   2.804   5.061   5.302 -0.0605 -0.1535  0.0449
 3512TIP3    H131951   2.844   4.988   5.349  3.4682  1.0802 -0.6829
 3512TIP3    H231952   2.772   5.023   5.221  2.3160 -0.9244 -0.6249
 3513TIP3   OH231953   5.931   5.293  12.803 -0.3650 -0.0609 -0.5064
 3513TIP3    H131954   5.937   5.246  12.887  1.1173  0.5533 -0.2537
 3513TIP3    H231955   6.010   5.346  12.799 -0.5393  0.1130 -2.1989
 3514TIP3   OH231956   5.998   5.311  11.306  0.6488 -0.5167 -0.0443
 3514TIP3    H131957   5.952   5.238  11.263  0.5464 -0.5397  0.1035
 3514TIP3    H231958   5.929   5.375  11.324  0.8859  0.0242 -1.0195
 3515TIP3   OH231959   2.792   0.707   1.403  0.0742  0.1196 -0.1389
 3515TIP3    H131960   2.810   0.725   1.311  0.4641 -0.6434 -0.2190
 3515TIP3    H231961   2.770   0.614   1.406 -2.7718  0.7238  0.1309
 3516TIP3   OH231962   0.372   3.212   1.566  0.3447 -0.0649  0.3839
 3516TIP3    H131963   0.304   3.263   1.522 -0.7919 -1.6320  0.2163
 3516TIP3    H231964   0.454   3.255   1.542 -0.5503  1.7598  0.4200
 3517TIP3   OH231965   1.518   3.551  15.065  0.3412 -0.1480 -0.1640
 3517TIP3    H131966   1.612   3.540  15.052  0.5170  0.6953  0.3827
 3517TIP3    H231967   1.489   3.600  14.988  0.7996  1.8054  0.8389
 3518TIP3   OH231968   6.321   4.217   5.304  0.4935  0.4020 -0.3712
 3518TIP3    H131969   6.385   4.147   5.291  0.8336  0.5558  0.4006
 3518TIP3    H231970   6.339   4.248   5.393  0.5986  1.7308 -0.8488
 3519TIP3   OH231971   3.440   0.492  17.134  0.6635  0.6273 -0.2266
 3519TIP3    H131972   3.434   0.587  17.141  1.4161  0.6462  0.2796
 3519TIP3    H231973   3.466   0.476  17.043  1.9215  0.9909  0.0419
 3520TIP3   OH231974   3.627   3.138   2.944 -0.8332  0.3977  0.2375
 3520TIP3    H131975   3.636   3.047   2.913 -1.4980  0.2511  0.4680
 3520TIP3    H231976   3.709   3.155   2.990 -0.0967  0.4066 -1.0349
 3521TIP3   OH231977   2.494   3.735  15.281 -0.0665 -0.1470  0.3830
 3521TIP3    H131978   2.430   3.682  15.328  0.0974 -1.2317 -0.5657
 3521TIP3    H231979   2.447   3.815  15.258 -0.3160  0.1463  1.8427
 3522TIP3   OH231980   2.245   1.952  15.212  0.1970 -0.1454  0.6651
 3522TIP3    H131981   2.178   2.020  15.201  0.2235 -0.0605  1.0124
 3522TIP3    H231982   2.260   1.949  15.306 -0.1808 -1.0055  0.7029
 3523TIP3   OH231983   3.645   5.477  14.425  0.0663  0.6881  0.2696
 3523TIP3    H131984   3.735   5.462  14.398 -0.2534  1.8733 -1.7108
 3523TIP3    H231985   3.650   5.505  14.516  1.6824  0.7605  0.1725
 3524TIP3   OH231986   6.443   5.706  10.760  0.4495 -0.0885  0.5194
 3524TIP3    H131987   6.432   5.731  10.668 -0.4299 -1.7281  0.1519
 3524TIP3    H231988   6.538   5.709  10.774  0.5158  1.4392 -0.0358
 3525TIP3   OH231989   5.649   5.101  13.602 -0.1257 -0.0837 -0.0654
 3525TIP3    H131990   5.588   5.039  13.562  1.5819 -1.2260 -1.0179
 3525TIP3    H231991   5.699   5.048  13.664 -0.0105  0.8214  0.6346
 3526TIP3   OH231992   4.087   5.821   2.088  0.0403  0.1640 -0.0397
 3526TIP3    H131993   4.062   5.729   2.090  0.8738 -0.1714 -2.0682
 3526TIP3    H231994   4.176   5.822   2.124  1.1163 -0.3290 -2.4421
 3527TIP3   OH231995   0.363   2.792   1.239 -0.7556  0.6008 -0.1970
 3527TIP3    H131996   0.314   2.855   1.186  0.8520  1.3740 -0.8127
 3527TIP3    H231997   0.372   2.834   1.325 -0.5722  0.7514 -0.2912
 3528TIP3   OH231998   1.541   0.448   3.515  0.4593  0.1766 -0.6217
 3528TIP3    H131999   1.458   0.494   3.505  0.7304  0.9873  0.5898
 3528TIP3    H232000   1.532   0.369   3.462 -1.7897 -0.6993  0.9481
 3529TIP3   OH232001   3.027   3.628   6.284 -0.1363  0.4370 -0.4013
 3529TIP3    H132002   3.119   3.651   6.274 -0.8208  3.7976 -0.1806
 3529TIP3    H232003   3.009   3.641   6.378 -0.8271 -0.3603 -0.4058
 3530TIP3   OH232004   2.033   4.986   2.488 -1.0495 -0.4978 -0.3354
 3530TIP3    H132005   1.992   5.026   2.565 -1.2238  0.1541 -0.7534
 3530TIP3    H232006   2.126   5.000   2.501 -1.1320  0.5396 -0.7184
 3531TIP3   OH232007   6.654   3.179  14.575 -0.4484 -0.3178 -0.1605
 3531TIP3    H132008   6.717   3.109  14.562  0.3029  0.4089 -0.4949
 3531TIP3    H232009   6.607   3.186  14.492  0.2722  0.3343 -0.5292
 3532TIP3   OH232010   0.354   4.475   3.343  0.2240  0.7320  0.1057
 3532TIP3    H132011   0.347   4.522   3.427 -1.9806  1.2711 -0.3089
 3532TIP3    H232012   0.448   4.471   3.326  0.9085 -1.1281  3.5197
 3533TIP3   OH232013   1.572   2.332   0.208 -0.4665  0.1929 -0.2553
 3533TIP3    H132014   1.656   2.373   0.187 -0.6389 -0.0615 -1.5169
 3533TIP3    H232015   1.509   2.374   0.149 -0.9053 -0.8139 -0.5316
 3534TIP3   OH232016   5.696   6.282   3.556  0.2999  0.3753 -0.3561
 3534TIP3    H132017   5.617   6.309   3.509  0.5664  1.5851 -0.1381
 3534TIP3    H232018   5.755   6.357   3.549  1.2896 -0.3596 -0.1769
 3535TIP3   OH232019   3.665   6.261  17.179 -0.0353  0.0992  0.2939
 3535TIP3    H132020   3.758   6.243  17.171 -0.1999 -0.7378  0.2482
 3535TIP3    H232021   3.623   6.207  17.112 -0.6282 -0.2180  0.9060
 3536TIP3   OH232022   2.056   0.514  15.290 -0.7156  0.2546  0.3487
 3536TIP3    H132023   2.002   0.508  15.211 -0.3707  0.1988  0.1155
 3536TIP3    H232024   2.116   0.439  15.284  1.5277  2.0539 -1.0054
 3537TIP3   OH232025   2.496   1.491  13.559 -0.3817 -0.2350  0.8052
 3537TIP3    H132026   2.548   1.483  13.479 -0.9484 -0.1221  0.4139
 3537TIP3    H232027   2.430   1.422  13.551 -0.1594 -0.5232  1.4018
 3538TIP3   OH232028   0.188   4.706   5.288 -0.4706  0.6610  0.0765
 3538TIP3    H132029   0.106   4.690   5.334 -0.6606  1.1250 -0.0966
 3538TIP3    H232030   0.234   4.772   5.340 -0.9714  1.6653 -0.7144
 3539TIP3   OH232031   2.133   1.514  16.213 -0.8662 -0.8081  0.2715
 3539TIP3    H132032   2.160   1.451  16.280  0.1647 -0.2419  0.3991
 3539TIP3    H232033   2.209   1.523  16.156 -1.1765 -0.0518 -0.0344
 3540TIP3   OH232034   4.354   6.128  11.986  0.6803 -0.0428  0.4217
 3540TIP3    H132035   4.356   6.112  11.891 -1.0885 -0.0122  0.3567
 3540TIP3    H232036   4.443   6.158  12.006  1.0704  0.0371 -1.2368
 3541TIP3   OH232037   5.323   0.079  16.863 -0.2576  0.2037  0.3888
 3541TIP3    H132038   5.312   0.042  16.950 -0.2249  0.2274  0.4032
 3541TIP3    H232039   5.323   0.173  16.877 -1.7130  0.2560  0.2029
 3542TIP3   OH232040   6.755   5.399   5.010  0.2440  0.0099 -0.1244
 3542TIP3    H132041   6.725   5.455   5.081 -0.0362  0.2097 -0.3940
 3542TIP3    H232042   6.760   5.457   4.934 -2.4263 -0.7462 -1.0244
 3543TIP3   OH232043   3.331   5.429  14.350 -0.0792 -0.0143 -0.3047
 3543TIP3    H132044   3.241   5.397  14.356 -0.3153  0.8009  0.9192
 3543TIP3    H232045   3.326   5.503  14.290 -0.7210  1.5210  1.5433
 3544TIP3   OH232046   1.989   3.902   4.645 -0.0742  0.1201  0.4031
 3544TIP3    H132047   2.006   3.992   4.671  1.8298 -0.2919  0.6650
 3544TIP3    H232048   1.930   3.910   4.569  1.6118  1.6980 -0.8324
 3545TIP3   OH232049   0.361   3.878   4.086  0.1504 -0.0675  0.3712
 3545TIP3    H132050   0.336   3.918   4.169  0.5818 -0.6331  0.7791
 3545TIP3    H232051   0.421   3.942   4.046 -0.1912  0.2817  0.4092
 3546TIP3   OH232052   1.736   4.192  12.188  0.3404 -0.0742  0.1253
 3546TIP3    H132053   1.660   4.207  12.245  1.2361  0.9838  1.0948
 3546TIP3    H232054   1.767   4.105  12.212 -0.1973 -0.2593  0.1650
 3547TIP3   OH232055   6.362   1.251  16.048 -0.6609  0.4824  0.2495
 3547TIP3    H132056   6.398   1.283  15.965  1.6645  0.1289  1.0428
 3547TIP3    H232057   6.314   1.325  16.085 -1.3753  0.7661 -1.1811
 3548TIP3   OH232058   5.350   6.104   2.198  0.2220  1.2859 -0.2271
 3548TIP3    H132059   5.422   6.050   2.231 -0.2717  0.9664  0.3341
 3548TIP3    H232060   5.386   6.193   2.197  0.7347  1.0807 -0.2791
 3549TIP3   OH232061   2.959   5.655   3.371  0.1472 -0.5756 -0.0982
 3549TIP3    H132062   2.908   5.574   3.367 -0.7482 -0.0398  0.2232
 3549TIP3    H232063   2.947   5.695   3.285 -0.9357  0.1108  0.3563
 3550TIP3   OH232064   5.390   1.390   5.283  0.5443  0.1771 -1.0857
 3550TIP3    H132065   5.481   1.362   5.293  0.0666 -1.7571 -1.5476
 3550TIP3    H232066   5.395   1.472   5.233  2.0592  0.7141 -0.1065
 3551TIP3   OH232067   1.533   6.120   2.921  0.1769  0.3473 -0.2616
 3551TIP3    H132068   1.468   6.096   2.987  1.9286 -0.1247  1.3666
 3551TIP3    H232069   1.531   6.048   2.858 -0.2869 -0.0840  0.2336
 3552TIP3   OH232070   3.957   2.620  16.954  0.2673  0.7868  0.0258
 3552TIP3    H132071   4.043   2.662  16.954  0.1505  1.0978  1.5866
 3552TIP3    H232072   3.896   2.692  16.936  0.2944  0.6601 -0.5831
 3553TIP3   OH232073   3.111   6.324  14.082  0.4042  0.0847  0.0988
 3553TIP3    H132074   3.075   6.396  14.030  0.1274  0.4066  0.7228
 3553TIP3    H232075   3.132   6.364  14.166  1.2196 -0.3423  0.1051
 3554TIP3   OH232076   1.003   2.523  15.881 -0.1411 -0.2330  0.2865
 3554TIP3    H132077   0.992   2.432  15.856  0.6173  0.0544 -1.1936
 3554TIP3    H232078   0.942   2.536  15.954  0.3625 -2.1269  1.0946
 3555TIP3   OH232079   5.069   3.551  12.319  0.0960  0.4026  0.1454
 3555TIP3    H132080   4.991   3.594  12.353  0.4649  0.9096  0.3580
 3555TIP3    H232081   5.049   3.457  12.324 -0.8734  0.5376 -0.6863
 3556TIP3   OH232082   0.448   3.051  10.817 -0.5984  0.3932 -0.3717
 3556TIP3    H132083   0.519   2.987  10.817 -0.6847  0.2975 -0.0906
 3556TIP3    H232084   0.480   3.123  10.762  0.8354  1.6090  1.8705
 3557TIP3   OH232085   4.484   4.669  14.200  0.2470  0.1935  0.3348
 3557TIP3    H132086   4.394   4.664  14.168  0.4908  1.9069 -0.7282
 3557TIP3    H232087   4.503   4.763  14.204  1.6828 -0.1028  1.4623
 3558TIP3   OH232088   4.030   2.975   5.095 -0.3539 -0.3206  0.2479
 3558TIP3    H132089   4.089   3.009   5.162  1.6017 -1.1205 -0.9768
 3558TIP3    H232090   3.991   3.054   5.056  0.4332  0.2771  0.6417
 3559TIP3   OH232091   0.334   4.888  16.728  0.5192 -0.1727 -0.1019
 3559TIP3    H132092   0.266   4.919  16.788 -1.5032  0.7203 -2.6669
 3559TIP3    H232093   0.377   4.968  16.697  1.5861 -0.6244  0.1771
 3560TIP3   OH232094   3.990   3.178   0.902  0.2423  0.1814 -0.1834
 3560TIP3    H132095   4.005   3.192   0.808 -0.0650  0.9881 -0.1111
 3560TIP3    H232096   3.967   3.085   0.908  1.4811 -0.1839 -0.7563
 3561TIP3   OH232097   5.509   2.709  14.659 -0.0774 -0.4693  0.0832
 3561TIP3    H132098   5.588   2.761  14.676  0.4395 -1.1906 -0.0597
 3561TIP3    H232099   5.437   2.771  14.670  0.4478 -0.0135  1.1631
 3562TIP3   OH232100   5.539   0.461   4.377 -0.3996  0.1261  0.0740
 3562TIP3    H132101   5.628   0.460   4.411  0.6386  0.4770 -2.4124
 3562TIP3    H232102   5.493   0.524   4.433  1.6170  1.9111 -0.1581
 3563TIP3   OH232103   3.505   3.050  16.407  0.2865 -0.2357 -0.0284
 3563TIP3    H132104   3.470   2.984  16.347 -1.7811 -0.1212  0.9680
 3563TIP3    H232105   3.474   3.022  16.494  1.4817  0.7023  0.7254
 3564TIP3   OH232106   6.067   3.575   1.524  0.2655  0.8963  0.2784
 3564TIP3    H132107   6.051   3.654   1.576 -3.1029  0.4346  0.1898
 3564TIP3    H232108   6.083   3.607   1.435  1.1231  1.5100  0.6388
 3565TIP3   OH232109   6.385   1.125  14.108  0.2236  0.2554 -0.0356
 3565TIP3    H132110   6.309   1.116  14.165  1.5580  1.4768  2.0703
 3565TIP3    H232111   6.350   1.113  14.019 -2.5413  1.3752  0.7816
 3566TIP3   OH232112   2.808   3.407   3.121  0.0130 -0.3005 -0.7089
 3566TIP3    H132113   2.816   3.349   3.045  1.5069 -2.4664  0.9917
 3566TIP3    H232114   2.816   3.495   3.084  1.3010 -1.2877 -3.0172
 3567TIP3   OH232115   3.839   2.404   6.597  0.0659 -0.4131  0.1532
 3567TIP3    H132116   3.913   2.386   6.540  0.8913 -0.1575  1.1095
 3567TIP3    H232117   3.861   2.487   6.640 -0.0813 -1.0415  1.5123
 3568TIP3   OH232118   5.473   5.231   0.245 -0.3787 -0.5052  0.3796
 3568TIP3    H132119   5.422   5.272   0.175 -1.7057 -1.6706  0.6158
 3568TIP3    H232120   5.562   5.229   0.212 -0.5592  1.0949 -0.2857
 3569TIP3   OH232121   6.177   5.822  10.424 -0.3556  0.0190  0.0926
 3569TIP3    H132122   6.203   5.811  10.332 -0.3941 -0.5063  0.1380
 3569TIP3    H232123   6.247   5.779  10.473 -0.5601 -0.0946  0.2850
 3570TIP3   OH232124   3.615   1.275  11.252 -0.0802 -0.3853 -0.0209
 3570TIP3    H132125   3.554   1.348  11.257 -0.0180 -0.3998  2.5082
 3570TIP3    H232126   3.607   1.243  11.163 -1.1585  1.7966 -0.7882
 3571TIP3   OH232127   2.316   3.518   4.633 -0.2974 -0.3000  0.5899
 3571TIP3    H132128   2.388   3.529   4.696  1.4418  0.1126 -1.3435
 3571TIP3    H232129   2.358   3.481   4.556 -1.1928  3.7063 -2.1568
 3572TIP3   OH232130   0.333   0.620   3.861 -0.0584  0.1605  0.4087
 3572TIP3    H132131   0.362   0.696   3.810  0.2018 -0.1999  0.0209
 3572TIP3    H232132   0.378   0.545   3.822 -1.4298 -0.4079 -0.1716
 3573TIP3   OH232133   6.136   4.598  13.120  0.1089  0.5240  0.1455
 3573TIP3    H132134   6.199   4.669  13.130 -0.3613  0.9328  0.2602
 3573TIP3    H232135   6.064   4.621  13.179 -0.0505 -0.0475  0.1847
 3574TIP3   OH232136   4.111   2.648  11.591  0.8326 -0.0135  0.1711
 3574TIP3    H132137   4.199   2.635  11.625  0.5282  1.0258  1.4075
 3574TIP3    H232138   4.054   2.645  11.667  0.0415  1.5281 -0.3104
 3575TIP3   OH232139   1.943   3.937  11.084 -0.1095 -0.3457 -0.0833
 3575TIP3    H132140   1.878   3.989  11.130 -0.1341 -0.4788  0.0343
 3575TIP3    H232141   1.919   3.846  11.103  0.3209 -0.3942  0.2600
 3576TIP3   OH232142   2.232   2.140  15.766  0.5095  0.1813 -0.0273
 3576TIP3    H132143   2.235   2.173  15.676  1.9073 -0.4113 -0.2224
 3576TIP3    H232144   2.176   2.063  15.761 -1.5468  1.6070  0.1418
 3577TIP3   OH232145   2.581   5.377  10.824  0.1848  0.4644  0.0550
 3577TIP3    H132146   2.625   5.295  10.845 -0.7260  0.4034  1.9043
 3577TIP3    H232147   2.515   5.353  10.759  2.0513  0.3728 -1.9191
 3578TIP3   OH232148   0.025   0.614   0.524 -0.9633 -0.0498 -0.3238
 3578TIP3    H132149  -0.010   0.644   0.440 -1.3250 -1.1281 -0.5737
 3578TIP3    H232150   0.072   0.533   0.504  1.2401  1.0355  0.0992
 3579TIP3   OH232151   2.614   4.869   0.713 -0.0458  0.5705  0.1940
 3579TIP3    H132152   2.593   4.898   0.802 -0.0908  0.5429  0.1929
 3579TIP3    H232153   2.548   4.912   0.658 -0.8526 -0.4496  0.3284
 3580TIP3   OH232154   0.704   1.401  14.122  0.7954 -0.1226 -0.1551
 3580TIP3    H132155   0.763   1.360  14.060 -0.0501 -1.3779 -0.1813
 3580TIP3    H232156   0.618   1.362  14.102  0.5090 -0.6254  1.8032
 3581TIP3   OH232157   0.232   6.193   5.458 -0.5105  0.1720 -0.0175
 3581TIP3    H132158   0.253   6.163   5.546  0.0092  0.8115  0.0767
 3581TIP3    H232159   0.295   6.262   5.440 -0.5652 -0.0039 -0.9236
 3582TIP3   OH232160   6.723   3.070  10.899 -0.2240  0.0714  0.1617
 3582TIP3    H132161   6.666   3.064  10.822 -0.3101 -2.4309  0.3507
 3582TIP3    H232162   6.810   3.046  10.867  0.3027  1.6028  0.3572
 3583TIP3   OH232163   2.517   0.779  13.188 -0.4931 -0.0489  0.2491
 3583TIP3    H132164   2.543   0.871  13.196 -0.1185 -0.1529  0.2571
 3583TIP3    H232165   2.523   0.760  13.095  0.6201 -0.3969  0.3706
 3584TIP3   OH232166   1.537   3.697  15.711 -0.3319 -0.5755 -0.0408
 3584TIP3    H132167   1.523   3.785  15.677 -1.7821 -1.0408 -0.6891
 3584TIP3    H232168   1.598   3.656  15.649 -0.0022 -0.1875  0.0233
 3585TIP3   OH232169   3.847   4.718  12.175 -0.1252  0.1960 -0.0412
 3585TIP3    H132170   3.782   4.676  12.232  1.2845 -2.1432 -0.0299
 3585TIP3    H232171   3.888   4.784  12.230  0.2882 -1.1189  1.3046
 3586TIP3   OH232172   3.201   0.514   1.702 -0.0693 -0.0461  0.2082
 3586TIP3    H132173   3.265   0.577   1.734 -1.0588  0.6211  0.9352
 3586TIP3    H232174   3.142   0.566   1.646 -1.9556  0.1138  2.2173
 3587TIP3   OH232175   5.744   4.468  15.993  0.0560  0.4222  0.1783
 3587TIP3    H132176   5.835   4.444  15.976 -0.1460  0.8381 -1.7060
 3587TIP3    H232177   5.742   4.564  15.984 -0.8052  0.3081 -1.3122
 3588TIP3   OH232178   4.501   6.223  12.567 -0.0529  0.0290  0.2660
 3588TIP3    H132179   4.494   6.186  12.478 -2.2410  1.3547 -0.1816
 3588TIP3    H232180   4.451   6.162  12.621 -0.8532  0.5476  0.1209
 3589TIP3   OH232181   6.599   3.193   4.777 -0.0706 -0.6409  0.6176
 3589TIP3    H132182   6.517   3.149   4.755 -0.0969 -0.6156  0.6624
 3589TIP3    H232183   6.598   3.199   4.873 -0.2510 -0.1868  0.5900
 3590TIP3   OH232184   6.346   1.706   5.846  0.0269 -0.3387 -0.2038
 3590TIP3    H132185   6.380   1.617   5.838  2.2844  0.3531  0.7445
 3590TIP3    H232186   6.321   1.715   5.938  0.3783  0.1623 -0.1490
 3591TIP3   OH232187   3.454   2.235  13.586 -0.3191 -0.2469  0.0993
 3591TIP3    H132188   3.374   2.260  13.541 -0.1554  2.5220  1.1472
 3591TIP3    H232189   3.524   2.266  13.529  0.1328 -3.1659 -1.0933
 3592TIP3   OH232190   5.489   1.623   3.281  0.0222 -0.1363 -0.1438
 3592TIP3    H132191   5.398   1.644   3.263 -0.2238  0.6389  1.8194
 3592TIP3    H232192   5.486   1.538   3.324  0.3957 -0.7957 -1.3438
 3593TIP3   OH232193   6.015   2.692   5.774  0.1908 -0.4806 -0.1828
 3593TIP3    H132194   6.082   2.742   5.821 -0.4079 -0.9094  1.1665
 3593TIP3    H232195   6.063   2.619   5.735  0.5035 -0.8706  0.8978
 3594TIP3   OH232196   4.691   2.116  11.920 -0.2085 -0.4270  0.0429
 3594TIP3    H132197   4.716   2.163  11.840 -0.0075  0.4278  0.6080
 3594TIP3    H232198   4.760   2.135  11.983 -0.8029 -0.3917  0.7010
 3595TIP3   OH232199   4.031   2.417   3.996  0.7365  0.5139  0.4113
 3595TIP3    H132200   3.994   2.368   4.069 -2.3316  2.5740  0.4266
 3595TIP3    H232201   4.092   2.479   4.036  1.2313 -0.2633  0.8710
 3596TIP3   OH232202   5.695   0.384   5.891 -0.2776  0.1906 -0.3025
 3596TIP3    H132203   5.722   0.300   5.930 -0.7426  1.1133  2.1482
 3596TIP3    H232204   5.600   0.379   5.887 -0.4041  1.0523  1.0485
 3597TIP3   OH232205   2.090   5.741   4.785  0.4651 -0.0648 -0.0753
 3597TIP3    H132206   2.181   5.772   4.790 -0.3446  2.3529  1.7524
 3597TIP3    H232207   2.075   5.724   4.692  2.9959 -1.3384 -0.3266
 3598TIP3   OH232208   6.468   0.957   2.439  0.1420  0.2842  0.0665
 3598TIP3    H132209   6.543   0.961   2.497  1.3538  1.6991 -1.5209
 3598TIP3    H232210   6.503   0.975   2.352 -1.7779 -0.6813 -0.9881
 3599TIP3   OH232211   3.197   6.311  15.306  0.0655  0.0956  0.0841
 3599TIP3    H132212   3.178   6.245  15.373 -0.0772  0.0795  0.0288
 3599TIP3    H232213   3.168   6.394  15.345  1.6461  0.3560  0.7667
 3600TIP3   OH232214   2.614   1.624  16.990  0.6122 -0.0985  0.2056
 3600TIP3    H132215   2.546   1.625  16.922 -0.8817 -2.6319  1.5073
 3600TIP3    H232216   2.692   1.655  16.945 -0.7942  0.3982 -2.0953
 3601TIP3   OH232217   3.471   0.149  15.521 -0.3744 -0.3456  0.3155
 3601TIP3    H132218   3.402   0.162  15.456  0.6383  0.1791 -0.7018
 3601TIP3    H232219   3.435   0.185  15.602 -1.7618 -1.2395  0.1282
 3602TIP3   OH232220   0.107   4.529  16.181  0.0115  0.2774  0.6277
 3602TIP3    H132221   0.023   4.561  16.211  0.4578  0.4301  1.7620
 3602TIP3    H232222   0.140   4.476  16.253  1.2489  0.9010  0.5545
 3603TIP3   OH232223   3.818   0.716  14.437 -0.0227  0.3941  0.2697
 3603TIP3    H132224   3.781   0.780  14.497 -0.7829 -0.2458  0.5017
 3603TIP3    H232225   3.839   0.640  14.492 -1.0437 -0.3278 -0.3069
 3604TIP3   OH232226   4.046   4.448   2.690 -0.7773 -0.5106  0.1244
 3604TIP3    H132227   4.040   4.359   2.722 -0.6622 -0.0243  1.5840
 3604TIP3    H232228   4.047   4.502   2.769  2.1038  0.6176 -0.5312
 3605TIP3   OH232229   3.987   3.527  16.738  0.1896 -0.1618 -0.1314
 3605TIP3    H132230   3.986   3.450  16.680 -0.6505 -0.5652  0.4023
 3605TIP3    H232231   3.923   3.507  16.806  0.8710  0.4716  0.7299
 3606TIP3   OH232232   4.883   0.671   1.937  0.2985 -0.0457  0.4390
 3606TIP3    H132233   4.903   0.758   1.970 -1.4541 -0.0875  1.7502
 3606TIP3    H232234   4.850   0.623   2.014 -2.1198 -0.7510 -0.9367
 3607TIP3   OH232235   4.809   6.063  17.020 -1.2007  0.3558  0.4138
 3607TIP3    H132236   4.725   6.109  17.018 -1.7302 -0.5037  1.6306
 3607TIP3    H232237   4.829   6.052  17.113  0.7528  1.3456  0.1758
 3608TIP3   OH232238   1.921   3.035  12.155 -0.5037 -0.2732  0.2616
 3608TIP3    H132239   1.860   3.108  12.145 -1.0080 -0.8554 -1.0572
 3608TIP3    H232240   1.945   3.010  12.066 -0.2159 -1.6317  0.6861
 3609TIP3   OH232241   3.464   2.304   2.409 -1.0318 -0.1037 -0.1218
 3609TIP3    H132242   3.440   2.393   2.434  1.2569  0.7239 -0.5719
 3609TIP3    H232243   3.507   2.268   2.487 -1.6667 -0.7219 -0.0462
 3610TIP3   OH232244   6.269   2.270   2.702  0.0420 -0.5899  0.2131
 3610TIP3    H132245   6.263   2.338   2.769  2.3916 -2.4834  2.5923
 3610TIP3    H232246   6.200   2.207   2.724  0.1879 -0.7371  0.2530
 3611TIP3   OH232247   5.126   2.566  11.267  0.0118  0.2501 -0.3134
 3611TIP3    H132248   5.145   2.588  11.358  1.9122  1.4083 -0.9167
 3611TIP3    H232249   5.078   2.642  11.233  1.1098  0.7655 -0.7743
 3612TIP3   OH232250   4.305   2.406  15.533  0.1107  0.0655 -0.3871
 3612TIP3    H132251   4.348   2.490  15.550 -1.1703  0.4862  1.0336
 3612TIP3    H232252   4.351   2.370  15.458 -0.1187  2.6471 -1.8960
 3613TIP3   OH232253   4.313   4.980   4.446  0.2347  0.7072  0.3593
 3613TIP3    H132254   4.333   4.899   4.399  0.3156 -0.2153  1.9419
 3613TIP3    H232255   4.218   4.989   4.438  0.3948  1.3427 -1.1762
 3614TIP3   OH232256   5.120   1.810  14.882  0.3158 -0.0451  0.2811
 3614TIP3    H132257   5.139   1.869  14.808  0.8142 -0.8077 -0.2173
 3614TIP3    H232258   5.039   1.844  14.920  0.8768  1.2678  0.3286
 3615TIP3   OH232259   6.441   1.755  14.497  0.0718 -0.2282  0.1220
 3615TIP3    H132260   6.533   1.779  14.483 -0.0766 -0.2713 -0.9900
 3615TIP3    H232261   6.428   1.677  14.444 -0.6112 -0.2316  0.2812
 3616TIP3   OH232262   6.480   6.705   6.252 -0.0807  0.6012  0.0350
 3616TIP3    H132263   6.439   6.623   6.224 -0.5563  0.5797  0.7548
 3616TIP3    H232264   6.566   6.678   6.284  0.0186  0.4747 -0.3278
 3617TIP3   OH232265   4.904   3.621  13.566  0.0365 -0.2340 -0.1364
 3617TIP3    H132266   4.856   3.538  13.564 -0.3138 -0.0508  0.6100
 3617TIP3    H232267   4.836   3.687  13.551  0.0763  0.0171  0.7945
 3618TIP3   OH232268   5.942   2.072   5.899  0.0002 -0.4499 -0.0821
 3618TIP3    H132269   5.966   1.984   5.927  1.2990 -0.6032 -1.5292
 3618TIP3    H232270   5.864   2.060   5.845  0.1527 -0.7139 -0.2443
 3619TIP3   OH232271   3.950   5.502  15.691 -0.8131 -0.2094  0.8521
 3619TIP3    H132272   3.875   5.452  15.659 -1.8782  2.0183 -0.3814
 3619TIP3    H232273   3.987   5.542  15.612  0.7866 -0.0761  1.6305
 3620TIP3   OH232274   4.390   3.481  14.338 -0.1019  0.3602  0.1019
 3620TIP3    H132275   4.374   3.393  14.305  0.0607  0.1175  0.6526
 3620TIP3    H232276   4.426   3.529  14.263 -1.5953  0.3943 -0.6301
 3621TIP3   OH232277   6.264   3.880   0.264 -0.1764 -0.2057  0.0719
 3621TIP3    H132278   6.318   3.958   0.251 -1.4155  1.0202  1.7142
 3621TIP3    H232279   6.310   3.810   0.218  1.3712  1.3371 -0.8347
 3622TIP3   OH232280   3.530   2.421  14.995  0.4126 -0.5181 -0.4992
 3622TIP3    H132281   3.597   2.488  14.993 -0.9188  0.8925  0.1633
 3622TIP3    H232282   3.540   2.378  15.080  0.2492 -0.0657 -0.2513
 3623TIP3   OH232283   1.952   5.360   3.987  0.5437  0.0764 -0.0751
 3623TIP3    H132284   1.953   5.309   3.905  0.8168 -0.1260  0.0535
 3623TIP3    H232285   1.924   5.297   4.054 -0.0888  0.3485 -0.0809
 3624TIP3   OH232286   6.301   2.258  13.541  0.1143 -0.1628  0.0073
 3624TIP3    H132287   6.267   2.179  13.583 -0.6884  0.7785  1.2004
 3624TIP3    H232288   6.234   2.281  13.477 -1.0042  1.0090  1.5179
 3625TIP3   OH232289   1.057   6.223  14.775 -0.1598  0.1105 -0.2866
 3625TIP3    H132290   1.009   6.144  14.803  2.3447 -1.4769 -0.1510
 3625TIP3    H232291   1.041   6.287  14.844 -1.9750 -0.3715 -0.2126
 3626TIP3   OH232292   6.168   2.675   0.253  0.0032 -0.1847 -0.5869
 3626TIP3    H132293   6.258   2.646   0.273  0.4870  0.0472 -2.3291
 3626TIP3    H232294   6.125   2.678   0.339  1.8418  0.3407  0.3737
 3627TIP3   OH232295   2.364   0.614  12.748  0.2887  0.0841  0.0133
 3627TIP3    H132296   2.347   0.613  12.654  0.2654 -0.0989  0.0193
 3627TIP3    H232297   2.437   0.554  12.760 -0.8510 -1.2814  0.3341
 3628TIP3   OH232298   4.792   0.026  16.889  0.6694 -0.2275  0.1478
 3628TIP3    H132299   4.855  -0.020  16.834  0.8390  0.0010  0.1457
 3628TIP3    H232300   4.825   0.116  16.893  1.4133 -0.5325  1.7080
 3629TIP3   OH232301   4.622   0.146  11.123  0.0325  0.1187 -0.1046
 3629TIP3    H132302   4.603   0.238  11.106  1.9888  0.5741 -0.0427
 3629TIP3    H232303   4.639   0.109  11.037  3.3532  0.8619  0.1010
 3630TIP3   OH232304   6.119   4.580  15.720  0.3371 -0.1138 -0.1915
 3630TIP3    H132305   6.160   4.579  15.806  0.7691  3.1769 -0.2124
 3630TIP3    H232306   6.139   4.495  15.682  3.9559 -0.0929  1.2921
 3631TIP3   OH232307   1.894   1.250   5.062 -0.1683 -0.2669  0.4868
 3631TIP3    H132308   1.862   1.255   4.972  0.7153 -2.1371  0.0237
 3631TIP3    H232309   1.817   1.225   5.114 -0.3416 -0.8093 -0.0166
 3632TIP3   OH232310   2.243   1.189   4.331 -0.2404 -0.4038 -0.4015
 3632TIP3    H132311   2.194   1.132   4.272 -1.0779 -0.3273  0.2034
 3632TIP3    H232312   2.183   1.262   4.348 -0.7843 -1.3236  1.9947
 3633TIP3   OH232313   1.194   5.369  11.995  0.0763  0.1304  0.2797
 3633TIP3    H132314   1.246   5.294  12.027  1.7710  1.5583  1.0350
 3633TIP3    H232315   1.140   5.394  12.070  1.9007  1.6391  1.1659
 3634TIP3   OH232316   0.820   0.183   4.062 -0.0614  0.4672  0.3466
 3634TIP3    H132317   0.763   0.170   3.986 -0.7416  0.3356  0.8633
 3634TIP3    H232318   0.899   0.133   4.042 -0.6872 -0.4811  0.1977
 3635TIP3   OH232319   3.746   0.885   4.914  0.1220  0.2510  0.0866
 3635TIP3    H132320   3.768   0.958   4.856 -1.9787  0.1414 -0.9487
 3635TIP3    H232321   3.768   0.806   4.864 -0.8482  0.1636 -0.2153
 3636TIP3   OH232322   1.366   1.957  11.195 -0.1808 -0.2103  0.6092
 3636TIP3    H132323   1.318   2.008  11.130 -1.0892 -2.3253 -0.4804
 3636TIP3    H232324   1.434   1.912  11.145 -0.0082 -0.8084  1.3612
 3637TIP3   OH232325   5.165   6.273  17.132 -0.0633  0.2422 -0.2156
 3637TIP3    H132326   5.102   6.282  17.202  0.1793 -2.6124  0.4982
 3637TIP3    H232327   5.124   6.212  17.070  1.1001  0.0546 -0.8345
 3638TIP3   OH232328   1.593   1.014   1.598  0.2297  0.0051 -0.6162
 3638TIP3    H132329   1.502   0.987   1.612 -0.5834  1.8335 -1.9765
 3638TIP3    H232330   1.636   0.936   1.564 -1.0620 -0.6338 -0.8452
 3639TIP3   OH232331   3.150   3.414   2.798 -0.0783  0.5297 -0.2991
 3639TIP3    H132332   3.090   3.486   2.783 -2.5195 -1.4766 -0.8352
 3639TIP3    H232333   3.130   3.383   2.886  1.3830  0.8550  0.1771
 3640TIP3   OH232334   3.603   4.710  15.606 -0.5332  0.2597 -0.2778
 3640TIP3    H132335   3.648   4.664  15.677  0.5099 -0.2711 -1.2453
 3640TIP3    H232336   3.513   4.680  15.612 -0.2813 -0.4143  0.3190
 3641TIP3   OH232337   4.302   2.194  12.853 -0.2796  0.1958 -0.0894
 3641TIP3    H132338   4.272   2.279  12.885 -1.3214  0.5187 -1.7662
 3641TIP3    H232339   4.250   2.130  12.902  1.6362  0.3613  2.3514
 3642TIP3   OH232340   4.277   4.914   0.477  0.1897  0.2346 -0.5103
 3642TIP3    H132341   4.213   4.984   0.466  1.5017  1.2008 -2.6450
 3642TIP3    H232342   4.225   4.834   0.478 -1.1194  1.0480 -1.1683
 3643TIP3   OH232343   5.820   5.840   3.288 -0.0691 -0.4906 -0.3008
 3643TIP3    H132344   5.907   5.813   3.318  0.1031 -1.8548 -1.8665
 3643TIP3    H232345   5.773   5.864   3.367  0.5454 -3.2948  1.0429
 3644TIP3   OH232346   3.445   1.906   1.880  0.0102  0.0362  0.0236
 3644TIP3    H132347   3.488   1.889   1.796 -1.8432 -2.4483 -0.5652
 3644TIP3    H232348   3.466   1.997   1.900  1.6911  0.2937 -2.4148
 3645TIP3   OH232349   1.814   1.126   0.889 -0.6000  0.1752 -0.0064
 3645TIP3    H132350   1.844   1.129   0.980 -1.2177 -0.5153  0.2355
 3645TIP3    H232351   1.759   1.204   0.879 -1.7794 -0.5231  0.6913
 3646TIP3   OH232352   0.404   6.695  13.532  0.7539  0.6044  0.5822
 3646TIP3    H132353   0.383   6.767  13.473 -0.2288  0.8135  1.1655
 3646TIP3    H232354   0.358   6.716  13.613  0.8333 -0.4474  0.9144
 3647TIP3   OH232355   0.636   0.794   6.255  0.3462  0.3852  0.0327
 3647TIP3    H132356   0.647   0.889   6.262  1.3463  0.1631  2.8080
 3647TIP3    H232357   0.555   0.776   6.302  0.1161 -0.1281 -0.5582
 3648TIP3   OH232358   0.383   1.181   3.394 -0.3537 -0.6129 -0.4944
 3648TIP3    H132359   0.318   1.131   3.443 -0.0130 -1.3766 -0.8112
 3648TIP3    H232360   0.333   1.252   3.353 -0.9309 -1.0158 -0.4926
 3649TIP3   OH232361   5.608   5.851  16.789  0.0081  0.2376 -0.4353
 3649TIP3    H132362   5.662   5.838  16.867 -2.0242 -0.6559  0.9134
 3649TIP3    H232363   5.576   5.941  16.797 -2.0654 -0.5514  1.1178
 3650TIP3   OH232364   3.007   6.718   0.246 -0.0073  0.7942 -0.0398
 3650TIP3    H132365   2.920   6.697   0.211  0.3404 -0.2688 -0.2985
 3650TIP3    H232366   3.048   6.772   0.179 -0.5933  1.5897  0.2368
 3651TIP3   OH232367   3.366   4.665   4.575 -0.0708 -0.1397 -0.2003
 3651TIP3    H132368   3.397   4.654   4.665 -0.2720 -2.8409 -0.3810
 3651TIP3    H232369   3.435   4.718   4.533  0.4302  0.4692  1.2928
 3652TIP3   OH232370   6.211   3.743  11.732  0.5484  0.2732  0.2177
 3652TIP3    H132371   6.140   3.692  11.692 -0.5826  1.9217  0.0207
 3652TIP3    H232372   6.200   3.729  11.826  0.9214 -0.6934  0.1233
 3653TIP3   OH232373   0.049   5.924   4.344 -0.3858  0.2692  0.3837
 3653TIP3    H132374   0.028   5.872   4.422 -0.8372 -0.0923  0.0295
 3653TIP3    H232375  -0.014   5.895   4.278  2.2114 -2.1129 -1.2882
 3654TIP3   OH232376   4.998   4.787   2.559 -0.3480 -0.0658 -0.3144
 3654TIP3    H132377   5.038   4.706   2.591  1.3738  0.6165 -0.6525
 3654TIP3    H232378   4.934   4.810   2.626  2.1722  0.5679  2.0742
 3655TIP3   OH232379   2.803   1.629   1.681  0.5547  0.0556 -0.1597
 3655TIP3    H132380   2.877   1.608   1.737  0.9908 -0.4136 -0.8923
 3655TIP3    H232381   2.764   1.545   1.658 -0.9694  0.3462  1.1862
 3656TIP3   OH232382   1.188   6.077  17.008 -0.0072  0.3983 -0.0399
 3656TIP3    H132383   1.221   6.167  17.008  1.5456 -0.1369 -0.5845
 3656TIP3    H232384   1.214   6.043  17.094 -0.2040  0.3244 -0.0097
 3657TIP3   OH232385   0.487   6.309  12.648 -0.3527  0.3041  0.1349
 3657TIP3    H132386   0.555   6.244  12.630 -0.6829 -0.1388  0.4443
 3657TIP3    H232387   0.509   6.343  12.735 -0.8381 -0.2507  0.4811
 3658TIP3   OH232388   5.613   0.346  13.039 -0.4873 -0.1674 -0.4046
 3658TIP3    H132389   5.578   0.258  13.053 -2.6486  0.4294 -1.5877
 3658TIP3    H232390   5.639   0.376  13.126 -0.1902 -1.7625  0.0895
 3659TIP3   OH232391   5.692   2.413   1.547  0.5884  0.2551  0.2129
 3659TIP3    H132392   5.649   2.496   1.568 -0.3387  0.7365 -3.0252
 3659TIP3    H232393   5.655   2.350   1.609 -0.5607  1.7832  1.1342
 3660TIP3   OH232394   0.871   2.758   1.354 -0.1099  0.7104 -0.0071
 3660TIP3    H132395   0.858   2.852   1.342  0.0210  0.4356 -3.2610
 3660TIP3    H232396   0.959   2.741   1.321 -0.1233 -0.5459  0.5471
 3661TIP3   OH232397   6.111   5.778   0.793 -0.4131 -0.1140 -0.4615
 3661TIP3    H132398   6.088   5.845   0.858  1.3015 -1.3230  1.4684
 3661TIP3    H232399   6.050   5.706   0.810 -1.5552  0.4581 -1.8522
 3662TIP3   OH232400   3.206   4.162   3.070 -0.4311 -0.6708 -0.5027
 3662TIP3    H132401   3.284   4.112   3.047  0.1545 -0.0195  0.0132
 3662TIP3    H232402   3.230   4.254   3.054 -0.4240 -0.2924  1.4196
 3663TIP3   OH232403   5.493   4.029  16.245  0.1619  0.1001  0.4225
 3663TIP3    H132404   5.420   4.050  16.186  0.7190 -0.6880 -0.5588
 3663TIP3    H232405   5.571   4.033  16.189  0.6511 -1.0955  0.9988
 3664TIP3   OH232406   6.528   1.575   2.345 -0.2125  0.1222  0.3858
 3664TIP3    H132407   6.586   1.505   2.377 -0.1634 -0.9062 -1.7867
 3664TIP3    H232408   6.475   1.533   2.278 -1.6610  1.7148  0.4786
 3665TIP3   OH232409   6.369   6.719   0.872 -0.0395  0.6525 -0.0762
 3665TIP3    H132410   6.437   6.750   0.932  1.6927 -1.2803 -0.9116
 3665TIP3    H232411   6.372   6.781   0.799  0.1799  1.1144  0.3226
 3666TIP3   OH232412   2.417   0.456  16.459 -0.0338 -0.1092  0.4481
 3666TIP3    H132413   2.381   0.370  16.479  0.2226 -0.0224  1.3303
 3666TIP3    H232414   2.481   0.472  16.529  0.1142  0.6755  0.1390
 3667TIP3   OH232415   3.746   1.890   3.021  0.4073 -0.3906  0.3958
 3667TIP3    H132416   3.713   1.874   2.932  0.1568  1.6697  0.0811
 3667TIP3    H232417   3.825   1.836   3.027  1.5112  0.8265 -1.7857
 3668TIP3   OH232418   3.442   2.915   5.956  0.0590 -0.2636 -0.1314
 3668TIP3    H132419   3.512   2.974   5.928 -1.6854  1.9079 -0.1800
 3668TIP3    H232420   3.463   2.832   5.913  2.1481  0.5117 -0.7772
 3669TIP3   OH232421   5.611   0.856   3.893 -0.8472  0.4648  0.4665
 3669TIP3    H132422   5.558   0.817   3.963 -1.3473  0.2257 -0.0341
 3669TIP3    H232423   5.664   0.783   3.861 -0.6518  0.5639  0.5624
 3670TIP3   OH232424   0.316   2.333   0.285  0.0653  0.4502 -0.1392
 3670TIP3    H132425   0.355   2.401   0.231 -0.6341  0.2365 -0.9306
 3670TIP3    H232426   0.387   2.272   0.302  0.8168  1.5669  0.9399
 3671TIP3   OH232427   5.752   4.229  16.768  0.1950 -0.0885  0.1494
 3671TIP3    H132428   5.843   4.207  16.747  0.8241  1.5592  1.0262
 3671TIP3    H232429   5.743   4.211  16.861  0.0367  1.0135  0.3642
 3672TIP3   OH232430   1.815   5.881  13.188 -0.4085  0.2190 -0.3006
 3672TIP3    H132431   1.801   5.838  13.104  1.3332 -0.9929 -0.0287
 3672TIP3    H232432   1.745   5.848  13.244  0.3475 -1.6316 -0.3711
 3673TIP3   OH232433   6.517   0.106   1.755 -0.0301 -0.0404 -0.0255
 3673TIP3    H132434   6.502   0.072   1.667  0.3464 -0.9169  0.2383
 3673TIP3    H232435   6.595   0.059   1.785  1.5722  2.2878 -0.2894
 3674TIP3   OH232436   5.671   0.331   0.932 -0.0606  0.3985  0.5128
 3674TIP3    H132437   5.627   0.404   0.976 -1.2126 -0.3481  0.6376
 3674TIP3    H232438   5.651   0.255   0.985  0.1889 -0.1953 -0.2263
 3675TIP3   OH232439   4.819   5.879  15.551  0.4868  0.2502 -0.2808
 3675TIP3    H132440   4.899   5.929  15.564  0.3338  0.0909  1.4584
 3675TIP3    H232441   4.753   5.945  15.528  1.1474  0.3447 -2.0619
 3676TIP3   OH232442   3.422   5.477  11.729  0.0125 -0.8986  0.4403
 3676TIP3    H132443   3.403   5.516  11.814  0.3967  1.4678 -0.4964
 3676TIP3    H232444   3.338   5.441  11.699 -0.2510 -1.2283  1.5190
 3677TIP3   OH232445   1.837   1.879  15.048  0.1698  0.0786  0.0453
 3677TIP3    H132446   1.822   1.866  15.142  0.0223 -2.4690 -0.2566
 3677TIP3    H232447   1.802   1.966  15.030  1.4595  1.2451  2.5969
 3678TIP3   OH232448   1.140   4.601   4.647  0.6201 -0.0132 -0.0647
 3678TIP3    H132449   1.108   4.511   4.650  0.2351  0.1314  3.1083
 3678TIP3    H232450   1.195   4.604   4.569  1.2969 -3.2365  0.1545
 3679TIP3   OH232451   2.146   2.648   4.752 -0.1351 -0.1328 -0.2548
 3679TIP3    H132452   2.179   2.633   4.663 -0.9646 -1.0414 -0.4194
 3679TIP3    H232453   2.208   2.711   4.790  0.9411 -0.6790 -1.0543
 3680TIP3   OH232454   4.029   1.830   2.989 -0.2166 -0.4966 -0.5158
 3680TIP3    H132455   4.123   1.849   2.994 -0.1141 -1.2004  0.4501
 3680TIP3    H232456   4.011   1.825   2.895  0.9246 -1.3010 -0.7130
 3681TIP3   OH232457   4.894   4.842  11.185  0.7252 -0.4760  0.1975
 3681TIP3    H132458   4.881   4.831  11.279 -0.4641 -1.6541 -0.0818
 3681TIP3    H232459   4.814   4.808  11.145  2.2588 -2.5187 -1.3520
 3682TIP3   OH232460   0.756   2.591  15.190  0.5662  0.2017 -0.2154
 3682TIP3    H132461   0.829   2.552  15.238 -0.1000 -0.1133  0.5765
 3682TIP3    H232462   0.711   2.645  15.256  0.4783  0.9363 -0.8612
 3683TIP3   OH232463   5.297   4.498   1.536 -0.1723 -0.4305 -0.3794
 3683TIP3    H132464   5.346   4.416   1.527 -2.5033 -2.2994  2.1652
 3683TIP3    H232465   5.239   4.500   1.461  0.8711 -0.3579 -1.2014
 3684TIP3   OH232466   3.308   2.325   5.381  0.1065 -0.1542  0.3456
 3684TIP3    H132467   3.377   2.277   5.336 -0.6236  0.0129 -1.0341
 3684TIP3    H232468   3.306   2.410   5.336 -1.1538 -0.2603  0.1649
 3685TIP3   OH232469   4.262   6.224   5.343 -0.3914 -0.3118  0.3858
 3685TIP3    H132470   4.245   6.227   5.437 -0.3801 -1.9436  0.4641
 3685TIP3    H232471   4.344   6.176   5.334 -0.4134 -0.2135 -0.4637
 3686TIP3   OH232472   2.146   0.196  14.644 -0.2808 -0.6222  0.0895
 3686TIP3    H132473   2.159   0.130  14.576  1.5686 -0.3525  0.1470
 3686TIP3    H232474   2.198   0.271  14.616 -2.6722  1.0740 -0.2021
 3687TIP3   OH232475   6.712   4.376   3.528 -0.0863 -0.2107 -0.1446
 3687TIP3    H132476   6.735   4.343   3.441  4.0926  0.6705  0.3859
 3687TIP3    H232477   6.731   4.470   3.524 -1.0953  0.1002  1.3775
 3688TIP3   OH232478   0.852   1.468   4.099 -0.2911 -0.2001 -0.0620
 3688TIP3    H132479   0.780   1.476   4.036  0.5920 -2.4255 -1.4975
 3688TIP3    H232480   0.878   1.376   4.094  2.6383  0.4837  0.3950
 3689TIP3   OH232481   6.639   1.285  16.150 -0.3698  0.2382  0.8153
 3689TIP3    H132482   6.638   1.380  16.157 -0.4309  0.4455 -1.2561
 3689TIP3    H232483   6.549   1.261  16.128  0.0725 -0.0163 -0.9277
 3690TIP3   OH232484   3.117   1.040  16.435 -0.0625  0.0116 -0.3216
 3690TIP3    H132485   3.129   1.020  16.527  0.1336  0.0954 -0.3312
 3690TIP3    H232486   3.068   1.122  16.434 -1.9706 -1.0604 -0.2638
 3691TIP3   OH232487   4.689   2.801  15.355  0.3278  0.2514 -0.4334
 3691TIP3    H132488   4.657   2.882  15.395  1.2306  0.9839 -1.1433
 3691TIP3    H232489   4.706   2.825  15.264 -1.0642 -1.2047 -1.1146
 3692TIP3   OH232490   5.549   4.487  11.151  0.2343  0.0998 -0.2951
 3692TIP3    H132491   5.522   4.538  11.227 -0.2056 -0.0071 -0.3735
 3692TIP3    H232492   5.621   4.433  11.182 -0.2749 -0.3137  0.1764
 3693TIP3   OH232493   5.954   1.006   1.487 -0.2931 -0.3203 -0.2242
 3693TIP3    H132494   6.006   1.086   1.502 -0.4440 -0.4909  1.4612
 3693TIP3    H232495   5.936   0.973   1.575 -0.6367 -1.9763 -0.8799
 3694TIP3   OH232496   5.158   1.714  13.822 -0.1319  0.0331 -0.2543
 3694TIP3    H132497   5.222   1.785  13.809  0.1187 -0.1739 -0.1477
 3694TIP3    H232498   5.208   1.644  13.864 -0.4738 -0.0591 -0.0032
 3695TIP3   OH232499   2.718   2.842   5.963  0.1118 -0.7215 -0.7494
 3695TIP3    H132500   2.763   2.806   5.887  1.7551  3.5659 -2.1088
 3695TIP3    H232501   2.627   2.851   5.934  0.0235 -2.0578 -0.9594
 3696TIP3   OH232502   5.285   2.888  14.662 -0.2609  0.0594 -0.1078
 3696TIP3    H132503   5.211   2.944  14.637  0.7410  1.4086 -0.1706
 3696TIP3    H232504   5.300   2.908  14.755  0.3233  0.1475 -0.2189
 3697TIP3   OH232505   3.652   0.981  10.436  0.3548 -0.5445  0.2237
 3697TIP3    H132506   3.727   1.019  10.480 -0.8871  1.6399  0.5825
 3697TIP3    H232507   3.644   0.893  10.474 -0.0939  0.8741  3.7435
 3698TIP3   OH232508   1.825   3.691  16.330 -0.2810 -0.4232 -0.7667
 3698TIP3    H132509   1.827   3.778  16.291  0.5852  0.2163  0.6083
 3698TIP3    H232510   1.898   3.644  16.290  0.0636 -0.0675 -0.5633
 3699TIP3   OH232511   4.409   1.192  11.650  0.3290  0.1164 -0.1832
 3699TIP3    H132512   4.385   1.154  11.734 -0.3693  1.5018  0.2711
 3699TIP3    H232513   4.327   1.189  11.599  0.3989  0.5278 -0.3229
 3700TIP3   OH232514   1.765   1.676   1.369  0.1429  0.2465 -0.0971
 3700TIP3    H132515   1.853   1.703   1.396  1.1468 -1.3057 -1.6007
 3700TIP3    H232516   1.735   1.617   1.438  1.4876 -1.4145 -0.8570
 3701TIP3   OH232517   6.772   2.301   3.661 -0.3987  0.4233 -0.5150
 3701TIP3    H132518   6.845   2.269   3.609 -0.1993  1.1428 -0.6880
 3701TIP3    H232519   6.752   2.387   3.624  0.2319  1.2974  1.0661
 3702TIP3   OH232520   5.543   1.873   3.945  0.3365  0.2626  0.2014
 3702TIP3    H132521   5.499   1.923   4.014  0.3622 -0.5495  0.8236
 3702TIP3    H232522   5.514   1.783   3.959 -0.5557  0.2338 -1.5622
 3703TIP3   OH232523   4.340   5.216  13.535 -0.1248  0.1298  0.1538
 3703TIP3    H132524   4.425   5.244  13.501  0.5007 -0.5836  1.0801
 3703TIP3    H232525   4.293   5.183  13.458  0.2601  0.9172 -0.4359
 3704TIP3   OH232526   2.582   5.429  14.797 -0.1081  0.1129  0.0096
 3704TIP3    H132527   2.537   5.365  14.852 -0.7349  0.8846  0.4124
 3704TIP3    H232528   2.668   5.390  14.780 -0.0054 -0.2666  1.3080
 3705TIP3   OH232529   4.772   3.724   1.305  0.0287  0.1468  0.3550
 3705TIP3    H132530   4.722   3.661   1.357 -1.1266 -0.4604 -1.3947
 3705TIP3    H232531   4.812   3.671   1.236  0.2939  1.1192 -0.2489
 3706TIP3   OH232532   6.740   5.803   4.927  0.0625 -0.0513  0.7802
 3706TIP3    H132533   6.784   5.725   4.963 -0.0237  0.3236  1.7357
 3706TIP3    H232534   6.656   5.806   4.974 -0.0398  0.4737  0.5639
 3707TIP3   OH232535   2.595   2.615  16.201 -0.3235  0.5549 -0.3291
 3707TIP3    H132536   2.679   2.590  16.164  0.7520 -0.8042  2.7258
 3707TIP3    H232537   2.608   2.705  16.231 -0.1079  0.4988 -0.2535
 3708TIP3   OH232538   2.648   0.486   4.280  0.4040 -0.0028  0.2996
 3708TIP3    H132539   2.555   0.510   4.278 -0.0309 -1.5635  0.6212
 3708TIP3    H232540   2.673   0.496   4.372  0.5948  0.5211  0.1949
 3709TIP3   OH232541   3.409   1.495  13.860  0.2554 -0.0898  0.3074
 3709TIP3    H132542   3.339   1.469  13.800 -0.8006 -1.0312  1.8669
 3709TIP3    H232543   3.363   1.526  13.938  1.5756  2.0348  0.3210
 3710TIP3   OH232544   0.182   3.115   5.023 -0.4750  0.3858  0.2754
 3710TIP3    H132545   0.112   3.127   4.958 -2.2511 -0.0116  2.0040
 3710TIP3    H232546   0.146   3.151   5.104  0.8308 -0.9726  1.5312
 3711TIP3   OH232547   1.865   3.715  14.263  0.8122 -0.1858  0.1154
 3711TIP3    H132548   1.910   3.790  14.303 -0.0077  0.7537 -0.6865
 3711TIP3    H232549   1.791   3.698  14.321  1.7266 -1.2541  1.0230
 3712TIP3   OH232550   3.307   2.567  12.151 -0.6173 -0.2084 -0.1106
 3712TIP3    H132551   3.269   2.512  12.220  1.3017 -0.5345  0.7492
 3712TIP3    H232552   3.390   2.524  12.130  0.4550  1.7921 -0.1545
 3713TIP3   OH232553   5.885   0.582  16.507 -0.1332  0.2164  0.5023
 3713TIP3    H132554   5.950   0.546  16.567 -0.2440 -0.1131  0.4266
 3713TIP3    H232555   5.919   0.563  16.420 -0.2482  0.1902  0.4614
 3714TIP3   OH232556   2.700   2.080  16.079 -0.1289  0.0585 -0.5774
 3714TIP3    H132557   2.687   1.990  16.108  1.9111 -1.1084 -2.9067
 3714TIP3    H232558   2.723   2.072  15.986 -2.7220  3.2355 -1.6990
 3715TIP3   OH232559   6.104   1.380   1.237 -0.1237 -0.0020  0.3531
 3715TIP3    H132560   6.147   1.460   1.207 -1.5975  0.2168 -1.3609
 3715TIP3    H232561   6.175   1.324   1.269  1.0471  1.5463  0.5333
 3716TIP3   OH232562   4.794   4.194  13.839  0.5537 -0.2673  0.1245
 3716TIP3    H132563   4.707   4.191  13.881  0.5663 -0.3994  0.1442
 3716TIP3    H232564   4.797   4.114  13.786  0.2972  0.2011 -0.6169
 3717TIP3   OH232565   0.303   4.321  13.934 -0.6274 -0.3228  0.3418
 3717TIP3    H132566   0.370   4.254  13.948 -0.4421 -0.0638  0.7177
 3717TIP3    H232567   0.223   4.283  13.970 -0.7680 -0.7832 -0.4442
 3718TIP3   OH232568   5.932   0.677   6.113  0.2307  0.7248 -0.2824
 3718TIP3    H132569   5.837   0.675   6.127  0.4714  0.2956  1.5405
 3718TIP3    H232570   5.953   0.770   6.107 -0.5561  0.8362 -3.1946
 3719TIP3   OH232571   0.720   5.601   5.029 -0.1832  0.0234  0.1935
 3719TIP3    H132572   0.791   5.634   5.084  0.0051 -1.9441  1.1885
 3719TIP3    H232573   0.729   5.650   4.947  1.9459  0.2569  0.5115
 3720TIP3   OH232574   1.036   1.836   2.690 -0.3126  0.5844 -0.1632
 3720TIP3    H132575   0.956   1.789   2.714  0.3714 -0.1733  0.6963
 3720TIP3    H232576   1.107   1.779   2.719  0.5591  0.8801 -1.6137
 3721TIP3   OH232577   0.293   0.084   2.081 -0.2531 -0.8701 -0.6274
 3721TIP3    H132578   0.295   0.041   2.167 -0.7070 -1.6867 -1.0126
 3721TIP3    H232579   0.202   0.113   2.072 -0.0485 -0.1880 -0.5553
 3722TIP3   OH232580   0.709   4.067  15.815  0.2401  0.0903  0.1540
 3722TIP3    H132581   0.631   4.014  15.833  0.9192 -0.2949  2.3235
 3722TIP3    H232582   0.778   4.003  15.796  0.4550  0.3156  0.1623
 3723TIP3   OH232583   5.535   5.044  14.281  0.0228  0.2039  0.4431
 3723TIP3    H132584   5.593   5.066  14.209  0.5543  0.2432  0.8797
 3723TIP3    H232585   5.525   4.948  14.276  0.7649  0.1029  0.8461
 3724TIP3   OH232586   1.041   1.372  14.518  0.2292  0.0449 -0.5089
 3724TIP3    H132587   1.134   1.350  14.524 -0.0652 -0.8474  1.1647
 3724TIP3    H232588   1.026   1.436  14.587 -0.0841  1.5034 -1.8626
 3725TIP3   OH232589   6.471   3.128  14.368 -0.5566  0.1843  0.2850
 3725TIP3    H132590   6.483   3.035  14.352  0.2874  0.2363  0.5806
 3725TIP3    H232591   6.379   3.137  14.394 -0.4399 -0.6640  1.0112
 3726TIP3   OH232592   0.969   5.261  17.148 -0.1916  0.2758 -0.2426
 3726TIP3    H132593   0.883   5.228  17.121 -0.1042  0.3267 -0.5826
 3726TIP3    H232594   0.989   5.331  17.086  0.2244  0.0759 -0.3421
 3727TIP3   OH232595   5.129   3.358  16.375 -0.5905  0.4764  1.1801
 3727TIP3    H132596   5.197   3.322  16.431 -2.4837  0.1534  3.4121
 3727TIP3    H232597   5.050   3.309  16.398 -1.8121  1.4843 -0.5977
 3728TIP3   OH232598   3.941   1.189   1.885  0.1085 -0.4121 -0.3650
 3728TIP3    H132599   3.990   1.107   1.877 -0.7743 -1.1252  1.1596
 3728TIP3    H232600   3.930   1.201   1.979 -1.9627  0.1293 -0.6269
 3729TIP3   OH232601   4.481   2.079  14.967 -0.3105 -0.9048  0.1413
 3729TIP3    H132602   4.569   2.114  14.978 -0.6196 -0.7409  2.5249
 3729TIP3    H232603   4.486   1.990  15.001 -1.1679 -0.7309  0.7407
 3730TIP3   OH232604   4.739   4.272  16.392 -0.6395 -0.1062 -0.2832
 3730TIP3    H132605   4.824   4.278  16.436 -0.7014  1.2123 -0.2997
 3730TIP3    H232606   4.758   4.230  16.308  0.1467  0.8929 -0.6233
 3731TIP3   OH232607   1.872   1.990  14.521  0.0547 -0.4810  0.6549
 3731TIP3    H132608   1.917   2.022  14.599  1.8112 -1.1106 -0.0591
 3731TIP3    H232609   1.903   2.046  14.450 -1.1695 -0.2142  0.2954
 3732TIP3   OH232610   1.904   3.871   0.814 -0.0259 -0.7436  0.2320
 3732TIP3    H132611   1.970   3.894   0.879  0.3293  0.5902 -0.5629
 3732TIP3    H232612   1.824   3.855   0.865 -0.2053  1.9313  0.9096
 3733TIP3   OH232613   4.397   5.098  12.950 -0.7702 -0.0516  0.3632
 3733TIP3    H132614   4.350   5.164  13.002  1.0322  0.9772  0.7753
 3733TIP3    H232615   4.489   5.114  12.969 -0.1267 -0.7681 -1.8527
 3734TIP3   OH232616   2.627   5.715  14.705 -0.0849  0.0991 -0.3331
 3734TIP3    H132617   2.710   5.708  14.659  0.9394 -1.7476  1.6247
 3734TIP3    H232618   2.604   5.625  14.728 -1.6670  0.7418  0.7891
 3735TIP3   OH232619   6.364   2.542  16.037 -0.3390 -0.1128 -0.2752
 3735TIP3    H132620   6.367   2.488  15.958 -0.2593 -1.3412  0.5469
 3735TIP3    H232621   6.376   2.632  16.005  1.4952 -0.7369 -1.4742
 3736TIP3   OH232622   2.544   0.478  11.148  0.5100  0.5158  0.7032
 3736TIP3    H132623   2.589   0.518  11.073 -0.6897  0.3160 -0.1656
 3736TIP3    H232624   2.568   0.386  11.144  2.3368  0.9029  2.0043
 3737TIP3   OH232625   1.566   0.267   1.471 -0.1972  0.1186 -0.5850
 3737TIP3    H132626   1.517   0.186   1.484 -0.9089  0.6437  0.0555
 3737TIP3    H232627   1.520   0.312   1.400 -0.4722  0.4759 -0.1831
 3738TIP3   OH232628   3.337   0.209   3.371  1.1378 -0.4224 -0.3203
 3738TIP3    H132629   3.300   0.209   3.283  2.9995 -0.8571 -1.1504
 3738TIP3    H232630   3.431   0.221   3.358  1.4120 -0.0499  1.6419
 3739TIP3   OH232631   2.371   1.869   3.981 -0.0725  0.4033  1.0316
 3739TIP3    H132632   2.450   1.900   4.025  0.6885 -2.0145  1.5045
 3739TIP3    H232633   2.382   1.774   3.975 -1.3762  0.3192 -2.0081
 3740TIP3   OH232634   1.326   4.420  16.495  0.2855  0.5062  0.1016
 3740TIP3    H132635   1.408   4.370  16.500  1.4402  2.3632  0.4672
 3740TIP3    H232636   1.331   4.467  16.413 -0.4031  0.6830  0.1554
 3741TIP3   OH232637   4.093   2.958   4.264 -0.0613  0.0179  0.3167
 3741TIP3    H132638   4.041   2.878   4.276 -2.0815  0.9788 -1.5223
 3741TIP3    H232639   4.042   3.027   4.306  0.4428  0.7629 -0.2731
 3742TIP3   OH232640   2.144   4.830   3.285 -0.5420 -0.1227 -0.2772
 3742TIP3    H132641   2.112   4.802   3.200  0.7680 -1.9156 -0.2458
 3742TIP3    H232642   2.124   4.756   3.343 -0.4473  0.6190  0.7222
 3743TIP3   OH232643   3.369   1.069  11.578  0.0939 -0.5236 -0.9205
 3743TIP3    H132644   3.302   1.055  11.644  1.0891 -0.0836  0.2120
 3743TIP3    H232645   3.425   1.138  11.614  0.1135  0.4302 -2.6482
 3744TIP3   OH232646   1.307   1.821   6.309 -0.1167  0.5430 -0.4061
 3744TIP3    H132647   1.246   1.822   6.383  0.7058  0.4250  0.2957
 3744TIP3    H232648   1.255   1.791   6.235 -0.5524 -1.0773  0.4999
 3745TIP3   OH232649   2.292   2.393   5.458 -0.0601  0.1345 -0.1244
 3745TIP3    H132650   2.246   2.441   5.389  0.3903  1.1914  0.2883
 3745TIP3    H232651   2.225   2.336   5.495 -0.6286  0.4758 -0.5950
 3746TIP3   OH232652   2.977   3.568  14.457 -0.0484 -0.0881  0.0655
 3746TIP3    H132653   2.986   3.476  14.432  0.5407  0.5127 -2.1251
 3746TIP3    H232654   3.050   3.612  14.414 -1.3600  1.6877 -0.4607
 3747TIP3   OH232655   5.744   4.917   0.497 -0.0962  0.2572  0.1453
 3747TIP3    H132656   5.810   4.986   0.503 -0.3635  0.4416  1.2268
 3747TIP3    H232657   5.670   4.950   0.549 -1.6951  0.7349 -2.2802
 3748TIP3   OH232658   6.020   4.026   1.016  0.3650  0.0013  0.3280
 3748TIP3    H132659   6.035   3.936   0.988 -0.9422  0.1601 -1.0271
 3748TIP3    H232660   6.094   4.075   0.982  1.1037 -0.5471  1.1097
 3749TIP3   OH232661   5.684   5.646   5.572  0.0189 -0.9656  0.2525
 3749TIP3    H132662   5.732   5.729   5.563 -0.2650 -0.8781 -0.5610
 3749TIP3    H232663   5.736   5.594   5.633  0.2434 -0.2163  0.7090
 3750TIP3   OH232664   5.854   5.448   3.928 -0.0549  0.8179  0.1715
 3750TIP3    H132665   5.927   5.490   3.882 -0.5430  0.9308 -0.5156
 3750TIP3    H232666   5.886   5.359   3.947  0.0192  0.6415 -0.7358
 3751TIP3   OH232667   5.441   5.643   0.434  0.4361  0.2198  0.1151
 3751TIP3    H132668   5.349   5.637   0.406  0.6067 -1.3832 -0.1838
 3751TIP3    H232669   5.442   5.603   0.520  1.0970 -1.1348 -0.5038
 3752TIP3   OH232670   3.546   4.990   4.665 -0.2944  0.0552  0.1588
 3752TIP3    H132671   3.491   5.010   4.740  1.2069  0.5799  1.1753
 3752TIP3    H232672   3.571   4.898   4.678 -0.9432 -0.1920 -0.3180
 3753TIP3   OH232673   0.432   6.559  13.971 -0.5810 -0.2478 -0.4302
 3753TIP3    H132674   0.346   6.519  13.985 -0.4973 -0.1198  0.4574
 3753TIP3    H232675   0.454   6.536  13.880 -2.1474  0.8749 -1.1359
 3754TIP3   OH232676   1.424   4.244   0.872  0.6288  0.6245  0.1704
 3754TIP3    H132677   1.514   4.274   0.884 -0.5536  4.4058  1.0274
 3754TIP3    H232678   1.398   4.279   0.787  0.2616 -1.4540 -0.6183
 3755TIP3   OH232679   3.365   5.875  14.506  0.1248  0.0740  0.8663
 3755TIP3    H132680   3.423   5.873  14.430  1.6170 -2.2603  1.9401
 3755TIP3    H232681   3.286   5.829  14.477 -0.6252  1.8991 -0.1333
 3756TIP3   OH232682   6.785   4.067  14.368  0.3391 -0.0826  0.5792
 3756TIP3    H132683   6.719   4.052  14.435  1.5497 -0.8440  1.6526
 3756TIP3    H232684   6.866   4.034  14.406  1.1218 -0.3113 -1.1772
 3757TIP3   OH232685   0.594   0.114   2.923 -0.4165  0.4043  0.1849
 3757TIP3    H132686   0.648   0.086   2.849 -1.3819  1.0643 -0.7991
 3757TIP3    H232687   0.505   0.091   2.898 -0.7936  0.8903  1.0306
 3758TIP3   OH232688   2.454   5.172  10.253  0.3293  0.2227  0.4621
 3758TIP3    H132689   2.400   5.240  10.293 -1.2129 -0.6745 -0.0054
 3758TIP3    H232690   2.527   5.161  10.313  0.2157  1.7552  0.9251
 3759TIP3   OH232691   0.782   1.832  13.628 -0.2484  0.5677 -0.0487
 3759TIP3    H132692   0.783   1.900  13.695  1.1248 -0.1831  0.7427
 3759TIP3    H232693   0.776   1.750  13.678  3.3174 -0.1796 -0.5615
 3760TIP3   OH232694   1.888   3.581  15.981  0.0268  0.6676 -0.2481
 3760TIP3    H132695   1.877   3.490  16.005 -1.1085  0.5470 -1.1454
 3760TIP3    H232696   1.983   3.593  15.973  0.1598 -0.5531 -0.5955
 3761TIP3   OH232697   4.410   2.062   6.351 -0.2712 -0.3036  0.1813
 3761TIP3    H132698   4.353   2.115   6.296 -1.1243 -0.1295  1.1937
 3761TIP3    H232699   4.488   2.117   6.365  0.0176 -0.4006 -0.9163
 3762TIP3   OH232700   4.173   3.380  16.372 -0.1924  0.0830 -0.0159
 3762TIP3    H132701   4.162   3.463  16.419  2.7934  1.3037 -1.2141
 3762TIP3    H232702   4.247   3.338  16.416 -0.0332 -0.7130 -1.0107
 3763TIP3   OH232703   2.435   4.113   5.607  0.3853  0.0163 -0.2082
 3763TIP3    H132704   2.491   4.036   5.596  0.0929  0.0451 -2.2440
 3763TIP3    H232705   2.346   4.079   5.598  0.2540  0.5801 -1.1027
 3764TIP3   OH232706   3.589   6.266  14.564  0.3875  0.5952 -0.0139
 3764TIP3    H132707   3.666   6.261  14.620  0.8585  0.6962 -0.6371
 3764TIP3    H232708   3.547   6.181  14.573 -0.5876  1.2318  1.9228
 3765TIP3   OH232709   6.069   4.207  11.568  0.2863  0.2816 -0.0053
 3765TIP3    H132710   6.059   4.210  11.663 -0.9498  1.2458 -0.1480
 3765TIP3    H232711   6.032   4.290  11.537  0.6411 -0.0340 -1.3313
 3766TIP3   OH232712   4.885   5.370  16.541 -0.0918 -0.0460  0.4443
 3766TIP3    H132713   4.817   5.405  16.484 -0.0060 -2.4460 -1.2802
 3766TIP3    H232714   4.839   5.342  16.620 -0.3041  2.7056  1.4080
 3767TIP3   OH232715   0.213   6.630  15.794 -0.1892  0.5562  0.2293
 3767TIP3    H132716   0.259   6.558  15.751 -2.3345  0.4839 -2.1912
 3767TIP3    H232717   0.272   6.658  15.863  1.3794 -2.5526  0.3454
 3768TIP3   OH232718   4.018   6.059  16.914 -0.2063  0.4946 -0.4059
 3768TIP3    H132719   3.969   6.007  16.978 -0.1853 -0.0726 -0.8484
 3768TIP3    H232720   3.975   6.144  16.915 -2.1885 -0.4207 -1.8781
 3769TIP3   OH232721   2.978   0.469   0.963 -0.4731  0.0324  0.0056
 3769TIP3    H132722   2.976   0.553   0.917  0.8762  0.1570  0.1475
 3769TIP3    H232723   2.980   0.403   0.894  0.4184  0.1821 -0.1166
 3770TIP3   OH232724   1.813   6.597  11.801 -0.2535  0.1109 -0.4105
 3770TIP3    H132725   1.793   6.635  11.886 -1.1611 -1.8281  0.3026
 3770TIP3    H232726   1.904   6.622  11.783 -0.5341  1.7862  0.4066
 3771TIP3   OH232727   4.758   3.944  14.126  0.5332 -0.2165  0.5856
 3771TIP3    H132728   4.815   3.927  14.051  0.0440 -0.1570  0.1973
 3771TIP3    H232729   4.688   3.999  14.091  0.9038  0.7607  1.3409
 3772TIP3   OH232730   3.982   2.201   0.997  0.3296 -0.7193  0.7046
 3772TIP3    H132731   3.913   2.151   1.042  0.3415  0.2391  1.8295
 3772TIP3    H232732   4.054   2.139   0.988 -0.7241 -1.8072 -0.6834
 3773TIP3   OH232733   6.006   4.000  13.449 -0.7292 -0.0745  0.3296
 3773TIP3    H132734   6.011   3.992  13.545  0.6768  0.3981  0.3119
 3773TIP3    H232735   5.960   4.083  13.435 -2.0298 -0.7290  0.5696
 3774TIP3   OH232736   5.709   0.567   4.758  0.2847 -0.1065 -0.1380
 3774TIP3    H132737   5.613   0.572   4.755  0.2499  0.6323  1.6200
 3774TIP3    H232738   5.727   0.492   4.814  0.7208  0.4800  0.5175
 3775TIP3   OH232739   0.693   0.412   0.253 -0.1309 -0.3891 -0.8822
 3775TIP3    H132740   0.642   0.423   0.173 -0.1922 -0.3638 -0.8394
 3775TIP3    H232741   0.682   0.495   0.300  0.6121 -0.0654 -1.2567
 3776TIP3   OH232742   1.503   1.297  14.423  0.3475  0.1429 -0.3565
 3776TIP3    H132743   1.578   1.255  14.467 -0.5235 -1.8092 -0.6061
 3776TIP3    H232744   1.457   1.343  14.492  1.0405  0.2214  0.0608
 3777TIP3   OH232745   4.520   3.966  13.276 -0.0986  0.0596  0.2736
 3777TIP3    H132746   4.475   3.919  13.206 -0.7087  0.3516  0.4587
 3777TIP3    H232747   4.463   3.955  13.353 -0.1605  0.9225  0.3689
 3778TIP3   OH232748   2.356   6.508  12.366  0.4365 -0.2655 -0.1204
 3778TIP3    H132749   2.361   6.413  12.356  2.4639 -0.1575 -0.5261
 3778TIP3    H232750   2.266   6.525  12.393 -0.0476 -2.2657 -0.3614
 3779TIP3   OH232751   3.314   3.331  14.014  0.2898  0.0641  0.0313
 3779TIP3    H132752   3.296   3.299  13.926 -2.5220 -0.4493  0.7048
 3779TIP3    H232753   3.355   3.257  14.059 -0.7155 -0.6082 -0.1208
 3780TIP3   OH232754   4.307   0.720   3.798  0.0543  0.0025 -0.1608
 3780TIP3    H132755   4.257   0.647   3.836  0.0605 -0.8212 -1.6379
 3780TIP3    H232756   4.248   0.795   3.803 -0.9190 -0.6866 -0.8233
 3781TIP3   OH232757   6.415   1.341  12.201  0.2000  0.3995 -0.1428
 3781TIP3    H132758   6.378   1.398  12.134 -0.3046 -0.4231 -0.5886
 3781TIP3    H232759   6.497   1.310  12.163  0.0588  0.1655 -0.2586
 3782TIP3   OH232760   4.425   5.187  16.319 -0.4353 -0.8320 -0.0811
 3782TIP3    H132761   4.354   5.220  16.264  0.4591 -0.1896 -0.8645
 3782TIP3    H232762   4.504   5.194  16.265  0.1507 -2.1174  0.5518
 3783TIP3   OH232763   6.576   6.504  13.214 -0.2099 -0.0347 -0.0055
 3783TIP3    H132764   6.661   6.538  13.242  0.4869 -1.9452  0.3782
 3783TIP3    H232765   6.512   6.553  13.265  0.8388 -0.6424  2.0318
 3784TIP3   OH232766   3.846   0.303  12.888  0.2303  0.5259  0.1592
 3784TIP3    H132767   3.825   0.381  12.836  1.4447  1.8448  1.5492
 3784TIP3    H232768   3.942   0.301  12.890  0.2977  1.6093  3.7599
 3785TIP3   OH232769   0.220   2.290  12.147 -0.0608 -0.5578  0.0279
 3785TIP3    H132770   0.153   2.246  12.201  0.3272 -0.4011  0.6448
 3785TIP3    H232771   0.299   2.286  12.200 -0.0317  0.9819  0.1465
 3786TIP3   OH232772   3.232   1.080   1.360  0.3331 -0.4658 -0.1414
 3786TIP3    H132773   3.158   1.115   1.311  1.5661 -0.0582 -1.8094
 3786TIP3    H232774   3.231   1.127   1.443 -1.2809 -0.5147 -0.0990
 3787TIP3   OH232775   0.348   4.548   2.246  0.3307  0.1786 -0.0197
 3787TIP3    H132776   0.338   4.555   2.152 -0.7086  0.2729  0.0861
 3787TIP3    H232777   0.390   4.629   2.273 -1.7680  1.3705 -0.1034
 3788TIP3   OH232778   5.595   6.395  12.072 -0.3604  0.1945 -0.8578
 3788TIP3    H132779   5.681   6.361  12.046 -0.0131  0.5195 -0.1414
 3788TIP3    H232780   5.607   6.489  12.081 -0.9245  0.3146 -1.2450
 3789TIP3   OH232781   2.107   2.300   1.343 -0.0648 -0.0177 -0.0687
 3789TIP3    H132782   2.093   2.215   1.301 -1.5639  0.4951 -0.6591
 3789TIP3    H232783   2.065   2.291   1.429  2.8526 -1.0110  1.3832
 3790TIP3   OH232784   1.266   2.264  15.982  0.0867  0.6098  0.4212
 3790TIP3    H132785   1.281   2.357  15.966 -1.8280  1.1515  1.5607
 3790TIP3    H232786   1.316   2.245  16.061 -0.9397  1.1149  1.2011
 3791TIP3   OH232787   4.223   1.988   2.774 -0.3270  0.3226  1.0321
 3791TIP3    H132788   4.268   1.932   2.838  3.2607 -1.7678 -2.8497
 3791TIP3    H232789   4.281   2.064   2.764  0.2339 -0.3328 -1.0275
 3792TIP3   OH232790   2.904   3.742  11.622  0.8019 -0.5538  0.4286
 3792TIP3    H132791   2.997   3.762  11.627  0.7404  0.5554 -1.8759
 3792TIP3    H232792   2.860   3.823  11.648  0.4249 -1.0284  1.3744
 3793TIP3   OH232793   1.893   3.018  13.355 -0.0279  0.0864 -0.4781
 3793TIP3    H132794   1.985   3.004  13.333 -0.2969  0.8177 -2.2953
 3793TIP3    H232795   1.860   2.931  13.378  1.5863  0.1220  2.5138
 3794TIP3   OH232796   4.386   2.557  13.268 -0.6439 -0.4542  0.4872
 3794TIP3    H132797   4.337   2.591  13.193 -0.4736 -0.2237  0.4785
 3794TIP3    H232798   4.331   2.486  13.302 -0.1751 -1.3318 -0.5466
 3795TIP3   OH232799   0.129   1.931  15.069  0.1723  0.2581  0.7126
 3795TIP3    H132800   0.206   1.954  15.120 -0.4080 -1.6021  2.5853
 3795TIP3    H232801   0.135   1.836  15.058 -1.8090  0.0670  0.8585
 3796TIP3   OH232802   2.166   5.960   2.170 -0.1082  0.1755  0.0220
 3796TIP3    H132803   2.238   6.009   2.131 -1.3917  0.7457 -1.7395
 3796TIP3    H232804   2.152   5.886   2.110 -0.6573 -0.2267  0.6271
 3797TIP3   OH232805   1.962   0.314  14.391 -0.2016 -0.1224 -0.1079
 3797TIP3    H132806   1.965   0.379  14.462 -1.7077 -0.0112 -0.1074
 3797TIP3    H232807   1.885   0.261  14.410 -0.4774 -0.2700 -1.5124
 3798TIP3   OH232808   1.302   2.189  16.618 -0.2998  0.2247 -0.2440
 3798TIP3    H132809   1.212   2.206  16.592 -0.9302 -1.1588  0.9435
 3798TIP3    H232810   1.302   2.198  16.713  0.3943 -1.4833 -0.0487
 3799TIP3   OH232811   0.223   4.974  15.519  0.3463 -0.2447 -0.5132
 3799TIP3    H132812   0.318   4.975  15.520  0.4294 -2.1819 -1.6439
 3799TIP3    H232813   0.199   4.986  15.427 -0.5451  0.8319 -0.1666
 3800TIP3   OH232814   3.744   1.230   5.190  0.8750  0.7283  0.2533
 3800TIP3    H132815   3.836   1.216   5.212  1.2619  2.2144 -0.3065
 3800TIP3    H232816   3.733   1.188   5.105  0.7738 -0.3032  0.7689
 3801TIP3   OH232817   3.441   3.284   4.437  0.5356  0.2996 -0.6708
 3801TIP3    H132818   3.508   3.319   4.496 -0.2139  0.3338  0.1736
 3801TIP3    H232819   3.442   3.343   4.361  0.7718  0.8840 -0.2143
 3802TIP3   OH232820   2.064   2.255   0.539  0.1928 -0.4447 -0.5916
 3802TIP3    H132821   2.113   2.181   0.502 -0.2867 -1.3204  0.4905
 3802TIP3    H232822   2.064   2.239   0.633  1.2111  1.6410 -0.1731
 3803TIP3   OH232823   6.511   6.072   5.267  0.2790 -0.1335 -0.3683
 3803TIP3    H132824   6.544   6.114   5.346  0.0826 -3.0108  1.3492
 3803TIP3    H232825   6.589   6.051   5.216  0.4181  1.4787 -0.9056
 3804TIP3   OH232826   4.634   4.353   3.935  0.6319 -0.6879 -0.1262
 3804TIP3    H132827   4.700   4.366   3.868 -0.9055 -1.5522 -1.9116
 3804TIP3    H232828   4.567   4.298   3.893  0.2977 -2.5881  2.5899
 3805TIP3   OH232829   5.402   6.686   6.047  0.4742  0.2682  0.0285
 3805TIP3    H132830   5.443   6.770   6.063  0.1975  0.1243  1.7066
 3805TIP3    H232831   5.338   6.676   6.118  0.0223 -1.0534 -0.5134
 3806TIP3   OH232832   2.420   4.760   2.955 -0.1284 -0.3799 -0.1779
 3806TIP3    H132833   2.448   4.715   3.035  0.1601  0.7895  0.4118
 3806TIP3    H232834   2.444   4.701   2.884  0.5522 -0.9969  0.5466
 3807TIP3   OH232835   4.131   6.109  11.497 -0.1412  0.0545 -0.3188
 3807TIP3    H132836   4.209   6.055  11.484  0.5705  0.9637  0.0921
 3807TIP3    H232837   4.131   6.130  11.590 -1.2824 -0.5362 -0.1788
 3808TIP3   OH232838   6.622   1.515   5.969  0.8936  0.1888  0.6225
 3808TIP3    H132839   6.674   1.436   5.953  1.0703  0.3992  0.1654
 3808TIP3    H232840   6.676   1.586   5.936  0.3961  0.4288  0.3310
 3809TIP3   OH232841   0.499   1.118   3.159  0.0601  0.0623  0.1622
 3809TIP3    H132842   0.525   1.203   3.123  1.4026  0.5459  2.1432
 3809TIP3    H232843   0.439   1.140   3.230  0.1422 -0.6804  0.4655
 3810TIP3   OH232844   3.909   3.350  15.199 -0.3687 -0.5061  0.2058
 3810TIP3    H132845   3.817   3.350  15.223 -0.1313 -1.0051  1.1681
 3810TIP3    H232846   3.910   3.324  15.107 -1.2744  0.9572 -0.2535
 3811TIP3   OH232847   6.223   1.438   3.810 -0.6832  0.1949 -0.0596
 3811TIP3    H132848   6.165   1.500   3.853 -2.7444 -1.9802  0.5349
 3811TIP3    H232849   6.252   1.379   3.881  2.1601  1.0565 -0.3801
 3812TIP3   OH232850   4.559   1.069   4.341 -0.4946 -0.2624  0.4958
 3812TIP3    H132851   4.559   1.089   4.434 -2.3947 -1.0201  0.6910
 3812TIP3    H232852   4.586   0.978   4.336 -0.4502 -0.2395  0.2982
 3813TIP3   OH232853   6.658   3.960   3.094  0.0695  0.0014  0.1030
 3813TIP3    H132854   6.595   3.988   3.160 -1.1115  1.1851 -1.4528
 3813TIP3    H232855   6.676   3.869   3.115 -1.5826 -0.1384  1.0480
 3814TIP3   OH232856   6.284   5.218  11.980  0.0260 -0.4732 -0.7870
 3814TIP3    H132857   6.326   5.132  11.985  2.4710  0.6720 -0.0842
 3814TIP3    H232858   6.349   5.274  11.938 -1.1286  1.2572 -0.3820
 3815TIP3   OH232859   6.439   2.272   2.160  0.5492  0.6447 -0.5694
 3815TIP3    H132860   6.426   2.341   2.225  1.7836  1.7047 -1.3934
 3815TIP3    H232861   6.501   2.309   2.097 -1.0022 -0.1105 -2.6882
 3816TIP3   OH232862   2.339   6.544   0.026  0.6019 -0.0169 -0.0788
 3816TIP3    H132863   2.429   6.515   0.038  0.5168  0.4149  1.7845
 3816TIP3    H232864   2.288   6.488   0.085 -0.3097  0.0704 -0.7566
 3817TIP3   OH232865   4.412   4.510   3.261 -0.1739 -0.2113  0.4162
 3817TIP3    H132866   4.500   4.491   3.228 -1.1286  1.0070 -3.3243
 3817TIP3    H232867   4.389   4.594   3.221 -2.9396 -0.3536  1.4974
 3818TIP3   OH232868   6.673   1.932  13.750  0.0023 -0.5884 -0.6173
 3818TIP3    H132869   6.698   1.962  13.662  0.5458 -1.9089 -0.9479
 3818TIP3    H232870   6.581   1.907  13.741 -0.8644  2.0752 -0.0027
 3819TIP3   OH232871   4.128   0.205   4.036  0.2213  0.4167  0.4927
 3819TIP3    H132872   4.113   0.258   3.957  0.2056 -1.4041 -0.7868
 3819TIP3    H232873   4.074   0.127   4.023  1.5016 -0.6963  1.5243
 3820TIP3   OH232874   1.108   5.839   4.293  0.2495 -0.2606 -0.4568
 3820TIP3    H132875   1.083   5.886   4.372 -2.3262  0.4854 -1.6318
 3820TIP3    H232876   1.200   5.863   4.279  0.0954  1.3893  1.0490
 3821TIP3   OH232877   0.786   2.203  15.094 -0.2785 -0.0839  0.1375
 3821TIP3    H132878   0.736   2.134  15.138 -0.7630  1.0935  1.5270
 3821TIP3    H232879   0.876   2.172  15.095 -0.7731 -1.7919 -1.5031
 3822TIP3   OH232880   5.412   4.139  13.731  0.1406 -0.2940  0.3996
 3822TIP3    H132881   5.322   4.108  13.724  1.0742 -3.0038 -1.5890
 3822TIP3    H232882   5.447   4.094  13.808  0.1835 -0.4454  0.2936
 3823TIP3   OH232883   2.286   0.543   5.063 -0.1147  0.3661 -0.4641
 3823TIP3    H132884   2.342   0.614   5.032  0.2463 -0.3785 -1.5484
 3823TIP3    H232885   2.343   0.491   5.120 -0.8098  1.8048  1.7065
 3824TIP3   OH232886   2.378   4.906   5.051  0.0166 -0.0638  0.1456
 3824TIP3    H132887   2.399   4.900   4.958 -2.9647 -2.9152 -0.5036
 3824TIP3    H232888   2.328   4.987   5.059  0.2920  0.2029 -0.6979
 3825TIP3   OH232889   4.180   0.152   0.840  0.1332  0.5396  0.4277
 3825TIP3    H132890   4.126   0.098   0.898 -1.0278 -0.1017 -1.1743
 3825TIP3    H232891   4.237   0.201   0.899 -1.0681  0.0100  2.1048
 3826TIP3   OH232892   6.384   5.521   4.270 -0.5894  0.2593 -0.0641
 3826TIP3    H132893   6.344   5.479   4.193 -0.4334 -0.6001  0.3094
 3826TIP3    H232894   6.357   5.612   4.264 -0.5806  0.2064 -1.1398
 3827TIP3   OH232895   0.287   2.285   4.796 -0.3540  0.3076  0.2626
 3827TIP3    H132896   0.319   2.370   4.766 -0.6808  0.4034  0.1843
 3827TIP3    H232897   0.365   2.229   4.797 -0.0896  0.6683  0.5399
 3828TIP3   OH232898   5.862   4.093  14.365  0.3390  0.0952 -0.3018
 3828TIP3    H132899   5.772   4.122  14.384  1.0545  0.0369  4.3407
 3828TIP3    H232900   5.854   3.999  14.349 -0.4336  0.1525 -0.2899
 3829TIP3   OH232901   5.441   6.731  12.278  0.0817 -0.3833 -0.5289
 3829TIP3    H132902   5.365   6.740  12.220 -0.6338 -0.2647  0.4163
 3829TIP3    H232903   5.514   6.715  12.218 -0.6086 -0.0758 -1.4830
 3830TIP3   OH232904   2.321   2.146   2.484 -0.1208  0.0469  0.3705
 3830TIP3    H132905   2.257   2.176   2.419 -0.1233 -1.5504 -0.4295
 3830TIP3    H232906   2.269   2.133   2.564 -0.4807  0.2995  0.1837
 3831TIP3   OH232907   0.542   2.570  11.172  0.5063  0.1171 -0.1171
 3831TIP3    H132908   0.467   2.536  11.220 -0.2277  0.9912 -0.6105
 3831TIP3    H232909   0.601   2.495  11.164  0.7625 -0.0328  2.2745
 3832TIP3   OH232910   3.688   3.098  13.484  0.3969 -0.0983 -0.5935
 3832TIP3    H132911   3.685   3.194  13.486  0.1382 -0.0878 -1.3249
 3832TIP3    H232912   3.597   3.071  13.475  0.5563 -0.3830 -1.4374
 3833TIP3   OH232913   2.660   6.394   1.818  0.4841  0.1668 -0.0633
 3833TIP3    H132914   2.699   6.405   1.905  0.8566 -0.5502 -0.1354
 3833TIP3    H232915   2.566   6.411   1.832  0.4685 -0.3773  0.5709
 3834TIP3   OH232916   5.208   6.199  12.001 -0.1307 -0.0966  0.1528
 3834TIP3    H132917   5.156   6.212  11.922  0.2177 -0.1647 -0.0941
 3834TIP3    H232918   5.202   6.282  12.048 -2.4892 -0.8996  1.3767
 3835TIP3   OH232919   1.098   4.496   3.437  0.1104  0.0702  0.2779
 3835TIP3    H132920   1.193   4.486   3.430  0.3072  1.8145  0.1608
 3835TIP3    H232921   1.076   4.560   3.370 -0.8022  1.4913  1.8636
 3836TIP3   OH232922   3.525   1.818   3.453  0.1881  0.0857  0.7373
 3836TIP3    H132923   3.503   1.906   3.483 -0.3723 -0.5224  2.2002
 3836TIP3    H232924   3.618   1.822   3.434  0.1764  0.9841  0.8143
 3837TIP3   OH232925   6.134   5.856  13.033 -0.1220 -0.1499 -0.1011
 3837TIP3    H132926   6.225   5.847  13.061  0.8386  0.6764 -2.6386
 3837TIP3    H232927   6.136   5.838  12.939 -2.5737  0.0649 -0.2645
 3838TIP3   OH232928   2.978   6.710  13.189 -0.3714 -0.3984 -1.0684
 3838TIP3    H132929   2.915   6.667  13.247  0.8600  1.3108  1.7239
 3838TIP3    H232930   2.944   6.799  13.179  1.6437  0.6570  0.7545
 3839TIP3   OH232931   6.200   1.980   0.452 -0.6918 -0.4194 -0.1884
 3839TIP3    H132932   6.111   2.000   0.423 -0.4777 -1.2487 -1.4951
 3839TIP3    H232933   6.191   1.961   0.546 -1.5123  1.6893  0.2187
 3840TIP3   OH232934   4.264   6.787  14.782  0.1142 -0.8025 -0.5155
 3840TIP3    H132935   4.314   6.706  14.775 -1.1607 -1.6531 -0.1692
 3840TIP3    H232936   4.173   6.759  14.778 -0.4933  0.2115  3.1012
 3841TIP3   OH232937   4.442   0.973   2.613  0.1976  0.4744  0.6791
 3841TIP3    H132938   4.504   0.970   2.540  1.2620  0.7553  1.5452
 3841TIP3    H232939   4.363   1.012   2.576 -0.0142 -1.2619 -0.8332
 3842TIP3   OH232940   2.570   0.600   4.824  0.2856 -0.0082  0.0428
 3842TIP3    H132941   2.655   0.636   4.799  0.1123  0.8412  0.6450
 3842TIP3    H232942   2.521   0.675   4.859 -1.0055 -0.3152 -1.0182
 3843TIP3   OH232943   1.725   3.883  14.057  0.3054 -0.1645 -0.3008
 3843TIP3    H132944   1.748   3.854  13.968  0.1104 -1.2392 -0.0056
 3843TIP3    H232945   1.745   3.809  14.113  0.1401  0.4021  0.5274
 3844TIP3   OH232946   6.097   5.987  16.317  0.1053 -0.1196 -0.2082
 3844TIP3    H132947   6.110   5.905  16.363 -1.8038  0.0938  0.8266
 3844TIP3    H232948   6.017   6.023  16.355 -0.1104  1.3291 -1.9087
 3845TIP3   OH232949   1.592   1.090  16.062  0.4943  0.2755 -0.8489
 3845TIP3    H132950   1.605   1.022  15.996 -1.0788 -1.0221  0.0776
 3845TIP3    H232951   1.673   1.090  16.113  1.1173  0.2052 -1.8256
 3846TIP3   OH232952   2.372   2.738  11.322 -0.4455  0.0518  0.3414
 3846TIP3    H132953   2.341   2.815  11.369  0.5738 -0.0092  1.1458
 3846TIP3    H232954   2.432   2.694  11.383 -0.8098 -1.2511 -0.1883
 3847TIP3   OH232955   5.431   5.216   2.109 -0.2132  0.1476 -0.6194
 3847TIP3    H132956   5.380   5.148   2.152 -0.5879  0.6827 -0.2254
 3847TIP3    H232957   5.458   5.176   2.026  0.4018 -0.8367  0.0301
 3848TIP3   OH232958   6.580   0.652   3.870 -0.1301  0.0083  0.3147
 3848TIP3    H132959   6.667   0.639   3.832  0.1074 -1.2640  1.2280
 3848TIP3    H232960   6.595   0.651   3.965 -0.9514  1.2555  0.4691
 3849TIP3   OH232961   3.669   4.586  12.317 -0.3537  0.3969  0.3683
 3849TIP3    H132962   3.647   4.494  12.304 -0.4770  0.5344 -0.5108
 3849TIP3    H232963   3.673   4.598  12.412 -0.1711 -0.5525  0.4855
 3850TIP3   OH232964   6.015   0.532  14.925 -0.1381  0.1874  0.2373
 3850TIP3    H132965   6.012   0.623  14.895  1.9155 -0.1560 -1.2527
 3850TIP3    H232966   5.988   0.536  15.017 -0.1802  2.2884  0.1804
 3851TIP3   OH232967   0.623   5.410  11.188  0.2709 -0.5173 -0.3610
 3851TIP3    H132968   0.535   5.377  11.205 -0.2513  0.4427 -1.0626
 3851TIP3    H232969   0.650   5.449  11.271 -0.5915  0.5148 -0.5413
 3852TIP3   OH232970   0.954   1.182  12.356  0.8437  0.0114  0.5021
 3852TIP3    H132971   0.908   1.261  12.382  0.5809  0.3869 -1.0406
 3852TIP3    H232972   0.971   1.136  12.439  1.4400  1.8873  1.4791
 3853TIP3   OH232973   2.619   1.899  10.622  0.4682 -0.0109  0.1524
 3853TIP3    H132974   2.629   1.821  10.568 -1.5142  0.7892 -1.4712
 3853TIP3    H232975   2.682   1.961  10.586 -0.1280  0.1674 -0.6078
 3854TIP3   OH232976   1.140   5.438   0.646  0.0714  0.1315 -0.2076
 3854TIP3    H132977   1.193   5.469   0.572 -0.8713 -0.8338 -1.3212
 3854TIP3    H232978   1.139   5.343   0.636 -2.8957  0.1743 -0.9482
 3855TIP3   OH232979   6.636   6.152   5.500 -1.1472  0.3642 -0.2677
 3855TIP3    H132980   6.702   6.213   5.466 -0.5398  0.2996  0.7356
 3855TIP3    H232981   6.686   6.076   5.529 -1.4932  0.7571  1.5085
 3856TIP3   OH232982   0.554   0.446   3.796  0.6503  0.0605  0.5928
 3856TIP3    H132983   0.511   0.379   3.742  0.0896 -0.4564  1.6472
 3856TIP3    H232984   0.589   0.398   3.871  0.0236  0.9699  1.4918
 3857TIP3   OH232985   4.617   0.991   2.921 -0.3527  0.5069  0.2109
 3857TIP3    H132986   4.633   0.906   2.880  2.5607  1.3398 -0.6603
 3857TIP3    H232987   4.526   1.012   2.898 -1.3203 -2.4873  0.8429
 3858TIP3   OH232988   0.698   2.793  12.897  0.1246 -0.4038  0.1751
 3858TIP3    H132989   0.640   2.810  12.970 -0.3292  0.3745 -0.3483
 3858TIP3    H232990   0.785   2.816  12.930 -0.0745 -0.0755  0.4762
 3859TIP3   OH232991   4.263   5.682   1.001 -0.6476  0.3772 -0.2600
 3859TIP3    H132992   4.314   5.600   1.005 -1.7285 -0.2874  0.3114
 3859TIP3    H232993   4.245   5.694   0.907 -1.3081 -0.5810 -0.2715
 3860TIP3   OH232994   5.194   4.519  12.013  0.3120 -0.2425  0.4913
 3860TIP3    H132995   5.104   4.548  12.003  0.1769 -0.0812  1.9295
 3860TIP3    H232996   5.189   4.424  12.019  0.4048 -0.3458 -0.9057
 3861TIP3   OH232997   2.891   3.986  14.867 -0.2655  1.0811  0.0911
 3861TIP3    H132998   2.856   3.956  14.783 -0.7244 -0.7399  0.8890
 3861TIP3    H232999   2.905   3.906  14.917 -1.8680  2.1866  2.5032
 3862TIP3   OH233000   4.179   4.234   1.356  0.0932  0.8642 -0.0755
 3862TIP3    H133001   4.179   4.245   1.451 -1.0080  0.3251  0.0051
 3862TIP3    H233002   4.086   4.234   1.332  0.2765 -0.8873 -0.9166
 3863TIP3   OH233003   2.655   4.736   4.788 -0.8667 -0.0471 -0.0671
 3863TIP3    H133004   2.728   4.790   4.819 -2.0817  2.7553 -1.6852
 3863TIP3    H233005   2.696   4.658   4.752  1.9474  2.8833 -4.1923
 3864TIP3   OH233006   5.006   4.347  13.355 -0.0703  0.6282 -0.2140
 3864TIP3    H133007   5.068   4.370  13.286 -0.9370 -1.7290 -1.9154
 3864TIP3    H233008   5.050   4.278  13.405 -1.1431 -0.9273 -1.3150
 3865TIP3   OH233009   6.482   2.189   4.404  0.3430 -0.7007  0.0967
 3865TIP3    H133010   6.545   2.181   4.476 -0.0764 -0.2703  0.5206
 3865TIP3    H233011   6.531   2.165   4.326  0.9541 -0.6474  0.4621
 3866TIP3   OH233012   6.565   4.756  16.978 -0.2464 -0.2862 -0.1392
 3866TIP3    H133013   6.643   4.711  16.946  0.2840  0.7723 -0.3947
 3866TIP3    H233014   6.557   4.833  16.922 -1.2339 -0.1556  0.1598
 3867TIP3   OH233015   3.141   6.659   4.549 -0.1757 -0.3108  0.0214
 3867TIP3    H133016   3.052   6.640   4.519 -0.0369 -0.4765 -0.2914
 3867TIP3    H233017   3.155   6.598   4.621  0.0937 -1.0881 -0.6713
 3868TIP3   OH233018   1.338   3.917  15.491  0.0481  0.0314 -0.0216
 3868TIP3    H133019   1.307   4.006  15.474 -0.0507  0.1390  0.6883
 3868TIP3    H233020   1.287   3.862  15.432  1.1493  0.5798 -1.5669
 3869TIP3   OH233021   2.812   2.023   5.592 -0.2923 -0.4427  0.1608
 3869TIP3    H133022   2.839   2.111   5.618 -0.7062 -0.4072  0.4802
 3869TIP3    H233023   2.876   1.997   5.526  0.7829 -0.5289  1.2020
 3870TIP3   OH233024   4.765   0.003  16.116  0.2537 -0.5177  0.2844
 3870TIP3    H133025   4.798   0.087  16.083  1.3585 -0.7641  0.7209
 3870TIP3    H233026   4.760   0.015  16.211 -0.1082 -0.7650  0.2959
 3871TIP3   OH233027   1.286   5.534   4.271 -0.0205 -0.4113 -0.5853
 3871TIP3    H133028   1.350   5.479   4.317  1.0057 -0.1613 -1.6887
 3871TIP3    H233029   1.209   5.477   4.262  0.5069 -1.1703 -0.4119
 3872TIP3   OH233030   1.365   4.731  15.893  0.4167 -0.4885  0.1079
 3872TIP3    H133031   1.355   4.717  15.799 -0.6448  0.3754  0.0722
 3872TIP3    H233032   1.459   4.747  15.905  0.3694  0.8373 -1.0277
 3873TIP3   OH233033   1.646   5.937   2.719 -0.5638  0.4562 -0.0491
 3873TIP3    H133034   1.715   5.879   2.750 -0.4852  0.3237 -0.4604
 3873TIP3    H233035   1.565   5.889   2.737 -0.4641 -0.1497 -1.1114
 3874TIP3   OH233036   4.864   4.738   4.585 -0.2423  0.0047 -0.4228
 3874TIP3    H133037   4.798   4.677   4.619 -0.1142  1.0462  1.9070
 3874TIP3    H233038   4.825   4.824   4.597  0.2332  0.4999 -2.1649
 3875TIP3   OH233039   3.513   0.398   2.793  0.1529  0.2552 -0.3822
 3875TIP3    H133040   3.530   0.476   2.845 -2.9033  0.8741 -0.1168
 3875TIP3    H233041   3.476   0.432   2.711 -1.3952 -0.8675 -0.1938
 3876TIP3   OH233042   2.388   1.182  11.899  0.3550 -0.0292 -0.8473
 3876TIP3    H133043   2.340   1.182  11.982  5.1159 -0.8508  2.3466
 3876TIP3    H233044   2.398   1.274  11.877  2.4190  0.6149  2.0576
 3877TIP3   OH233045   1.352   1.881   0.736  1.0972 -0.7807  0.3978
 3877TIP3    H133046   1.400   1.905   0.815  1.6781 -1.2465  0.1861
 3877TIP3    H233047   1.318   1.965   0.703  0.2535 -0.6515  1.5081
 3878TIP3   OH233048   4.413   4.601   5.494 -0.8423 -0.1393 -0.1208
 3878TIP3    H133049   4.355   4.527   5.512 -1.8404  0.5222 -0.6013
 3878TIP3    H233050   4.356   4.678   5.494 -0.1167  0.4291 -1.4367
 3879TIP3   OH233051   0.905   2.671  14.621 -0.3115 -0.6083 -0.1547
 3879TIP3    H133052   0.989   2.717  14.620 -0.1644 -0.7269  1.9773
 3879TIP3    H233053   0.861   2.702  14.700 -2.1975 -0.7309 -1.0977
 3880TIP3   OH233054   6.227   6.100  16.074  0.2494  0.1545  0.6812
 3880TIP3    H133055   6.196   6.050  16.149  1.9501 -2.5844 -0.2834
 3880TIP3    H233056   6.286   6.041  16.028  2.7569  3.1887 -0.4273
 3881TIP3   OH233057   1.574   1.471  10.840  0.5407 -0.0154  0.0561
 3881TIP3    H133058   1.618   1.407  10.895 -0.2911 -0.7958 -0.1470
 3881TIP3    H233059   1.645   1.521  10.799  1.2172 -0.9284  0.0846
 3882TIP3   OH233060   1.538   1.928   0.095  0.8095  0.3184  0.1514
 3882TIP3    H133061   1.545   1.937   0.000  1.5012  1.0657  0.2641
 3882TIP3    H233062   1.484   2.002   0.123  0.0492 -0.2742  0.2761
 3883TIP3   OH233063   4.901   2.025  11.659  0.0879 -1.0841  0.2864
 3883TIP3    H133064   4.982   1.977  11.640  0.4073 -0.5712  0.3263
 3883TIP3    H233065   4.840   1.958  11.688 -0.2800 -1.8655 -2.0534
 3884TIP3   OH233066   2.494   3.791   3.269  0.3572  0.1210 -0.4401
 3884TIP3    H133067   2.399   3.799   3.281  0.2125 -1.3503 -0.4769
 3884TIP3    H233068   2.525   3.881   3.260 -1.1835  0.5685 -1.5778
 3885TIP3   OH233069   1.153   2.839  14.170  0.1236 -0.5017  0.1631
 3885TIP3    H133070   1.183   2.916  14.121 -0.0235 -0.4563  0.1468
 3885TIP3    H233071   1.134   2.872  14.257  1.0247 -0.7032  0.4497
 3886TIP3   OH233072   2.558   3.006  12.270  0.0334 -0.1892 -0.1792
 3886TIP3    H133073   2.514   2.993  12.354 -0.4542  0.7284 -0.2693
 3886TIP3    H233074   2.543   2.925  12.221 -0.2323 -0.4831  0.3866
 3887TIP3   OH233075   3.099   0.421  14.335  0.1600  0.2333 -0.1573
 3887TIP3    H133076   3.189   0.425  14.366  0.6678 -0.6383 -1.4788
 3887TIP3    H233077   3.101   0.363  14.259 -1.5113  0.2130 -0.2302
 3888TIP3   OH233078   4.795   4.079  15.210 -0.6210  0.0339  0.4439
 3888TIP3    H133079   4.850   4.038  15.143  0.0823  1.2229  0.2815
 3888TIP3    H233080   4.740   4.140  15.162 -2.5828 -1.5594  0.5122
 3889TIP3   OH233081   3.361   0.312   0.684  0.1925  0.2857 -0.2518
 3889TIP3    H133082   3.450   0.298   0.652 -0.1846 -0.9785 -0.8016
 3889TIP3    H233083   3.354   0.252   0.759 -1.5201 -3.0075 -2.7694
 3890TIP3   OH233084   4.763   2.270  11.695 -0.7668 -0.9598  0.3084
 3890TIP3    H133085   4.802   2.187  11.668 -1.3578 -1.2639  0.3902
 3890TIP3    H233086   4.838   2.329  11.705 -0.3221 -1.5435  0.4815
 3891TIP3   OH233087   1.384   1.571  16.577  0.2596  0.4094  0.1444
 3891TIP3    H133088   1.299   1.614  16.588 -0.1156 -0.6290  1.5052
 3891TIP3    H233089   1.381   1.496  16.636  2.5249  0.9278  1.0204
 3892TIP3   OH233090   1.967   2.529   4.018 -0.4851 -0.0941 -0.0183
 3892TIP3    H133091   1.910   2.470   3.968 -0.0355 -0.7019  0.1752
 3892TIP3    H233092   1.915   2.609   4.029 -1.5039 -0.8319  0.6263
 3893TIP3   OH233093   6.029   0.677  12.359  0.4425  0.3249 -0.3245
 3893TIP3    H133094   5.983   0.761  12.357  0.8816  0.5630 -1.2849
 3893TIP3    H233095   5.976   0.622  12.416 -0.3752  0.9573 -0.4480
 3894TIP3   OH233096   1.172   5.697  11.569  0.0693  0.1574  0.1780
 3894TIP3    H133097   1.191   5.775  11.517 -0.0455 -0.1839 -0.3949
 3894TIP3    H233098   1.076   5.692  11.569  0.0769 -0.0091  0.1617
 3895TIP3   OH233099   1.120   0.367  13.689  0.0747 -0.8590 -0.6917
 3895TIP3    H133100   1.127   0.453  13.647 -1.1343 -0.3840  0.0245
 3895TIP3    H233101   1.085   0.310  13.620 -1.1533 -0.2648 -0.5932
 3896TIP3   OH233102   2.937   5.080   4.062 -0.5855  0.1800  0.1632
 3896TIP3    H133103   3.030   5.093   4.044 -0.1572 -1.4023  1.0337
 3896TIP3    H233104   2.892   5.130   3.994  0.9133 -0.1059 -1.0914
 3897TIP3   OH233105   1.870   2.558   5.601  0.9419 -0.4952 -0.3380
 3897TIP3    H133106   1.850   2.645   5.634  0.3738 -0.6980 -0.1468
 3897TIP3    H233107   1.804   2.542   5.534  0.4259 -1.1878  0.3276
 3898TIP3   OH233108   0.518   4.964  15.836  0.4533  0.0538 -0.3545
 3898TIP3    H133109   0.512   4.954  15.741  1.2557 -3.0624 -0.1947
 3898TIP3    H233110   0.611   4.952  15.855  0.2598  0.3653  0.8640
 3899TIP3   OH233111   0.617   4.663  13.801 -0.5113 -0.2486  0.0339
 3899TIP3    H133112   0.585   4.642  13.713 -0.2563  2.4128 -0.8137
 3899TIP3    H233113   0.547   4.635  13.859 -1.9171  0.3168 -1.2922
 3900TIP3   OH233114   6.486   1.371   3.561 -1.0036  0.3626 -0.1739
 3900TIP3    H133115   6.476   1.303   3.494 -1.1765 -1.0410  1.2073
 3900TIP3    H233116   6.405   1.423   3.554 -1.0998  0.1235 -0.9215
 3901TIP3   OH233117   0.070   3.852  12.828  0.6458 -0.0926  0.1607
 3901TIP3    H133118   0.017   3.927  12.855  3.2317  1.7080  0.5987
 3901TIP3    H233119   0.078   3.861  12.733  0.4846 -0.1299  0.1440
 3902TIP3   OH233120   6.477   0.214  14.116  0.5235 -0.0168 -0.3441
 3902TIP3    H133121   6.552   0.156  14.129 -1.2325 -2.0583  1.3754
 3902TIP3    H233122   6.506   0.299  14.150  2.0123 -0.7764  0.3401
 3903TIP3   OH233123   4.687   6.133  14.695  0.1015 -0.0978  0.6838
 3903TIP3    H133124   4.696   6.224  14.722 -0.1761  0.1589 -0.0535
 3903TIP3    H233125   4.764   6.116  14.641 -0.1795 -0.0842  0.2697
 3904TIP3   OH233126   3.523   1.517  11.088  0.4133 -0.5515  0.1403
 3904TIP3    H133127   3.501   1.520  10.995  0.6549  1.3809  0.1119
 3904TIP3    H233128   3.449   1.559  11.131  1.2549  0.4940  0.6072
 3905TIP3   OH233129   6.134   5.265  14.723 -0.7783 -0.0561  0.3570
 3905TIP3    H133130   6.078   5.341  14.740 -0.2105  0.4563 -0.0414
 3905TIP3    H233131   6.110   5.202  14.791 -1.1030  0.5573  0.8172
 3906TIP3   OH233132   0.564   3.889  14.192  0.1240 -0.1524 -0.6371
 3906TIP3    H133133   0.559   3.800  14.225  1.5508 -0.0884 -0.1783
 3906TIP3    H233134   0.611   3.882  14.109  1.2715  0.2785 -0.0449
 3907TIP3   OH233135   0.671   5.787  13.909  0.8692  0.0424  0.5644
 3907TIP3    H133136   0.746   5.824  13.956  1.3174  0.0304 -0.1199
 3907TIP3    H233137   0.700   5.783  13.818 -0.6345  1.8386 -0.0780
 3908TIP3   OH233138   1.523   2.774   4.925  0.4304  0.7932 -0.2355
 3908TIP3    H133139   1.568   2.839   4.871  2.6479  0.9896  1.6557
 3908TIP3    H233140   1.500   2.704   4.864  3.7373  0.5153 -1.3681
 3909TIP3   OH233141   0.501   6.590  14.577 -0.2732  0.0369  0.0267
 3909TIP3    H133142   0.537   6.643  14.507  0.8282 -0.0984  0.4753
 3909TIP3    H233143   0.534   6.630  14.658 -0.0784 -0.8526  0.4002
 3910TIP3   OH233144   5.417   2.500   5.234 -0.3481  0.0645  0.6924
 3910TIP3    H133145   5.475   2.429   5.262 -0.6518 -0.1005  0.9242
 3910TIP3    H233146   5.362   2.516   5.311  2.8792  3.9504  2.5664
 3911TIP3   OH233147   4.012   3.019  14.465 -0.0241  0.5478  0.0474
 3911TIP3    H133148   4.072   3.071  14.412 -0.2851 -0.7447 -1.6133
 3911TIP3    H233149   3.936   3.006  14.408 -0.4341 -0.6840  0.8482
 3912TIP3   OH233150   3.588   5.196  11.014  0.2331  0.0489 -0.2183
 3912TIP3    H133151   3.548   5.148  10.941  0.5531 -0.2465 -0.2062
 3912TIP3    H233152   3.601   5.285  10.980 -0.6946  0.2289 -0.1174
 3913TIP3   OH233153   3.166   2.954   4.034  0.2909  0.8122 -0.4454
 3913TIP3    H133154   3.110   2.877   4.031  0.6199  0.4853  1.1348
 3913TIP3    H233155   3.254   2.919   4.048  1.0243  1.2932 -3.2341
 3914TIP3   OH233156   6.463   2.296  11.276 -0.3809  0.5048 -0.0912
 3914TIP3    H133157   6.505   2.260  11.198  1.3262  1.9904  0.0836
 3914TIP3    H233158   6.453   2.221  11.335  1.2813 -0.0563 -0.4810
 3915TIP3   OH233159   0.167   4.895   5.007 -0.2099 -0.1177 -0.0059
 3915TIP3    H133160   0.225   4.892   5.083  1.5926  0.1101 -1.3056
 3915TIP3    H233161   0.154   4.988   4.990 -1.8744 -0.1469  0.8903
 3916TIP3   OH233162   0.857   5.991   5.133  0.7531  0.4857 -0.0017
 3916TIP3    H133163   0.938   5.945   5.114  0.2007 -0.8063  0.6513
 3916TIP3    H233164   0.884   6.070   5.179  1.5735 -0.8396  1.8907
 3917TIP3   OH233165   3.455   0.939  15.437 -0.2608 -0.4682  0.3715
 3917TIP3    H133166   3.447   0.965  15.529 -0.2742 -1.6390  0.7305
 3917TIP3    H233167   3.374   0.891  15.418 -0.5527  0.3238 -0.4648
 3918TIP3   OH233168   3.437   4.241   0.672 -0.2649  0.2246  0.2628
 3918TIP3    H133169   3.527   4.251   0.642 -0.2096 -0.0786  0.3201
 3918TIP3    H233170   3.445   4.199   0.758 -0.4771 -0.2934  0.0386
 3919TIP3   OH233171   1.734   2.081  14.821 -0.2963 -1.0181  0.0844
 3919TIP3    H133172   1.829   2.086  14.806 -0.1876 -0.1989  0.8977
 3919TIP3    H233173   1.696   2.070  14.734  0.3900  1.6612 -0.6456
 3920TIP3   OH233174   0.077   1.333   5.869 -0.2080 -0.3517  0.3247
 3920TIP3    H133175   0.045   1.309   5.956  0.1974 -0.2151  0.5165
 3920TIP3    H233176   0.080   1.251   5.820  2.0111 -0.9025  1.2471
 3921TIP3   OH233177   4.508   5.291  14.165  0.2195  0.4572 -0.4648
 3921TIP3    H133178   4.479   5.223  14.104 -1.2407  0.9541 -0.3628
 3921TIP3    H233179   4.457   5.274  14.244  0.5821  1.0742 -0.0965
 3922TIP3   OH233180   5.019   2.433  16.224 -0.0881 -0.8245  0.4120
 3922TIP3    H133181   4.931   2.432  16.186  0.3809 -1.2296 -0.7101
 3922TIP3    H233182   5.013   2.492  16.299 -1.1673 -0.3956 -0.0044
 3923TIP3   OH233183   4.075   3.819  12.282  0.2798 -0.0865  0.4772
 3923TIP3    H133184   4.044   3.733  12.311  0.6122 -0.2352  0.3896
 3923TIP3    H233185   4.055   3.877  12.355  2.3076 -0.6950  1.5797
 3924TIP3   OH233186   6.263   5.333   3.868 -0.0716  0.3970  0.6892
 3924TIP3    H133187   6.186   5.346   3.923 -0.2911 -2.1720  1.0962
 3924TIP3    H233188   6.296   5.247   3.892  0.2634 -0.5415 -2.6920
 3925TIP3   OH233189   0.623   1.474   5.665 -0.4932  0.2656 -0.5589
 3925TIP3    H133190   0.614   1.479   5.570  1.1059  0.6471 -0.7222
 3925TIP3    H233191   0.547   1.521   5.699  0.4500  2.7749 -1.7142
 3926TIP3   OH233192   0.745   1.245   3.701 -0.3803  0.0242  0.0908
 3926TIP3    H133193   0.715   1.215   3.616 -1.7615  0.5380  0.3723
 3926TIP3    H233194   0.828   1.198   3.716  1.3631  1.9050 -2.6970
 3927TIP3   OH233195   4.102   3.816  14.885  0.0788 -0.5997 -0.4284
 3927TIP3    H133196   4.085   3.908  14.906 -0.2731 -0.7141 -0.2153
 3927TIP3    H233197   4.057   3.767  14.953 -1.3267 -0.9806 -1.5943
 3928TIP3   OH233198   6.751   6.358  16.724 -0.4820  0.5237  0.1412
 3928TIP3    H133199   6.823   6.333  16.666  1.1460  0.5135  2.0546
 3928TIP3    H233200   6.704   6.277  16.740 -0.5983  0.4206 -0.7156
 3929TIP3   OH233201   0.162   4.927  14.972 -0.6841  0.1038 -0.3774
 3929TIP3    H133202   0.143   4.835  14.990 -1.8255 -0.0698 -2.1684
 3929TIP3    H233203   0.131   4.974  15.049 -1.5186 -0.9003 -0.0889
 3930TIP3   OH233204   5.699   3.745  12.307 -0.5216  0.3478 -0.8505
 3930TIP3    H133205   5.626   3.805  12.323  1.2586  2.6041 -0.7550
 3930TIP3    H233206   5.737   3.775  12.225  0.0303 -1.1217 -1.1586
 3931TIP3   OH233207   4.394   6.318   2.214  0.2506 -0.4877 -0.0325
 3931TIP3    H133208   4.318   6.310   2.157 -0.1895 -0.8772  0.5844
 3931TIP3    H233209   4.466   6.340   2.156 -0.0861 -1.3535 -0.8008
 3932TIP3   OH233210   0.594   5.638   0.468  0.4036  0.0901  0.5346
 3932TIP3    H133211   0.579   5.731   0.485  0.2830  0.3242 -0.7916
 3932TIP3    H233212   0.506   5.601   0.457  0.5005  0.0553 -0.1299
 3933TIP3   OH233213   4.310   0.090   3.023  0.4644 -0.3744  0.4757
 3933TIP3    H133214   4.231   0.145   3.028 -1.0465 -2.2272 -1.1853
 3933TIP3    H233215   4.378   0.148   2.991 -0.7134  0.8733  0.1375
 3934TIP3   OH233216   1.599   0.359   0.738 -0.0184  0.4644  0.4183
 3934TIP3    H133217   1.689   0.361   0.706 -0.1019  0.0100  0.1445
 3934TIP3    H233218   1.554   0.426   0.686  0.3540  1.3310  1.1805
 3935TIP3   OH233219   6.102   2.497  14.527  0.2743  0.0887 -0.1263
 3935TIP3    H133220   6.130   2.581  14.563  0.1532 -0.4344  1.2869
 3935TIP3    H233221   6.109   2.507  14.433 -1.6619  2.3456 -0.1227
 3936TIP3   OH233222   5.027   1.195  16.733  0.1165  0.4897 -0.2474
 3936TIP3    H133223   4.936   1.218  16.714 -0.7096  0.0059  2.6386
 3936TIP3    H233224   5.033   1.102  16.713  0.2044  0.6735 -1.1095
 3937TIP3   OH233225   6.039   1.245  14.782 -0.2536 -0.3739  0.5587
 3937TIP3    H133226   6.047   1.246  14.877  1.7324  0.7588  0.4131
 3937TIP3    H233227   5.977   1.173  14.764 -1.0732 -0.2678  2.6941
 3938TIP3   OH233228   5.333   5.692  12.629  0.2265 -0.4420 -0.3386
 3938TIP3    H133229   5.256   5.658  12.675  0.7934 -1.4522 -0.0976
 3938TIP3    H233230   5.405   5.634  12.656  1.2383  0.9345  0.0483
 3939TIP3   OH233231   3.424   3.384   1.952  0.0841  0.1446  0.5513
 3939TIP3    H133232   3.455   3.302   1.990 -1.3455 -0.1591  1.1571
 3939TIP3    H233233   3.499   3.443   1.956  0.6320 -0.6003  1.7535
 3940TIP3   OH233234   1.152   2.518  11.234  0.7752 -0.3164 -0.1048
 3940TIP3    H133235   1.121   2.454  11.171  0.0781  1.0964 -1.2540
 3940TIP3    H233236   1.247   2.513  11.229  0.7250 -0.8078 -0.6348
 3941TIP3   OH233237   4.831   1.719   4.001  0.1178  0.7130  0.0128
 3941TIP3    H133238   4.857   1.683   3.916 -1.8899  2.0912 -1.2913
 3941TIP3    H233239   4.790   1.645   4.047  0.6199  0.1169 -0.4762
 3942TIP3   OH233240   2.788   2.628  10.387  0.1370 -0.1001  0.6722
 3942TIP3    H133241   2.870   2.581  10.403  1.1322  1.5353  0.5249
 3942TIP3    H233242   2.720   2.563  10.405  1.4271 -2.6535 -2.4818
 3943TIP3   OH233243   1.055   6.700   1.342  0.3280  0.5108 -0.7666
 3943TIP3    H133244   1.012   6.618   1.315 -0.9015  1.1551 -0.8144
 3943TIP3    H233245   1.133   6.671   1.390  0.1125 -0.6860 -1.1019
 3944TIP3   OH233246   0.519   0.183  15.497 -0.4852 -0.3479  0.1285
 3944TIP3    H133247   0.461   0.164  15.423 -0.5917  0.5566 -0.0353
 3944TIP3    H233248   0.510   0.107  15.555 -0.4652 -1.0318 -0.7413
 3945TIP3   OH233249   2.152   6.134  16.347 -0.5380 -0.1389  0.5650
 3945TIP3    H133250   2.082   6.183  16.390 -1.9199 -1.3531 -0.1994
 3945TIP3    H233251   2.126   6.043  16.355  1.1144 -0.6555  0.4797
 3946TIP3   OH233252   6.109   3.404   3.604  0.3131  0.0888 -0.3099
 3946TIP3    H133253   6.160   3.333   3.643  0.3049  0.5547  0.5656
 3946TIP3    H233254   6.031   3.411   3.659 -0.9378 -0.8947 -1.8727
 3947TIP3   OH233255   5.576   4.187   3.516 -0.7402 -0.1623  0.1411
 3947TIP3    H133256   5.602   4.278   3.528  0.3853 -0.2985 -1.0312
 3947TIP3    H233257   5.492   4.180   3.561  0.1743  0.8755  2.1319
 3948TIP3   OH233258   6.024   3.725   2.059  0.4832 -0.1285  0.4871
 3948TIP3    H133259   6.041   3.642   2.013  0.3115  0.2729 -0.3164
 3948TIP3    H233260   5.948   3.707   2.114  0.4214 -0.4941  0.2843
 3949TIP3   OH233261   1.475   4.558  12.724  0.4056  0.5198  0.3931
 3949TIP3    H133262   1.449   4.493  12.789  0.0500  1.4864  1.2376
 3949TIP3    H233263   1.509   4.506  12.651  1.7351 -0.5883  1.7186
 3950TIP3   OH233264   6.009   0.590  13.384  0.2842 -0.3828 -0.6148
 3950TIP3    H133265   5.926   0.564  13.344  0.5785 -0.1580 -1.3937
 3950TIP3    H233266   6.018   0.683  13.364 -0.2206  0.0981  1.1879
 3951TIP3   OH233267   4.753   2.113  12.374  0.5801  0.4632 -0.0891
 3951TIP3    H133268   4.706   2.052  12.431  1.8276 -0.3520  0.0835
 3951TIP3    H233269   4.809   2.163  12.433 -1.8196  3.2323  0.0737
 3952TIP3   OH233270   6.444   3.018  16.175  0.2517 -0.4998 -0.0388
 3952TIP3    H133271   6.376   3.009  16.241 -1.5321 -0.0754 -1.7306
 3952TIP3    H233272   6.459   3.112  16.168  2.3720 -0.6362  1.5460
 3953TIP3   OH233273   3.492   0.074  14.631  0.0952  0.2703 -0.4291
 3953TIP3    H133274   3.423   0.044  14.691  2.0221 -0.8508  1.3737
 3953TIP3    H233275   3.537   0.143  14.679 -0.2248  1.5609 -1.9176
 3954TIP3   OH233276   6.311   2.528   2.077  0.1125 -0.1536 -0.0845
 3954TIP3    H133277   6.386   2.561   2.027  1.1121 -0.3841  1.2003
 3954TIP3    H233278   6.345   2.518   2.166 -1.1460 -1.3255  0.2929
 3955TIP3   OH233279   2.682   2.937   2.323  0.0748  0.3889  0.2399
 3955TIP3    H133280   2.724   2.854   2.344  0.5882  0.6008  0.0683
 3955TIP3    H233281   2.590   2.924   2.346 -0.3085 -0.9596 -1.8089
 3956TIP3   OH233282   6.763   6.763   4.223 -0.1489 -0.0891 -0.1689
 3956TIP3    H133283   6.675   6.758   4.185 -0.1948  0.2300 -0.1071
 3956TIP3    H233284   6.817   6.708   4.167 -0.5677 -0.9956  0.3052
 3957TIP3   OH233285   5.592   1.080  12.694 -0.1749  0.5953  0.2233
 3957TIP3    H133286   5.603   1.175  12.701 -2.0659  1.0447 -1.7979
 3957TIP3    H233287   5.607   1.061  12.601 -2.5751 -0.6221  0.0240
 3958TIP3   OH233288   3.649   1.422  11.984  0.2312 -0.4220  0.1369
 3958TIP3    H133289   3.688   1.393  11.902 -0.5665  0.1841 -0.4718
 3958TIP3    H233290   3.673   1.515  11.991  0.0436 -0.3934  0.4469
 3959TIP3   OH233291   2.164   2.687  16.532  0.0601  0.0305 -0.0850
 3959TIP3    H133292   2.153   2.679  16.627  2.1752 -0.1234  0.1950
 3959TIP3    H233293   2.233   2.753  16.521 -0.2010  0.1001 -1.5348
 3960TIP3   OH233294   4.501   0.126   3.446  0.4119 -0.2487 -0.0664
 3960TIP3    H133295   4.436   0.161   3.507 -0.3760 -1.3769 -0.2312
 3960TIP3    H233296   4.534   0.048   3.489  1.5508  0.2177 -0.0661
 3961TIP3   OH233297   5.123   5.401  16.663  0.6484  0.5082 -0.3260
 3961TIP3    H133298   5.043   5.391  16.611  0.2913  0.3139  0.2471
 3961TIP3    H233299   5.187   5.344  16.620  0.1949 -0.0778 -0.2309
 3962TIP3   OH233300   3.934   2.391  14.019 -0.0653 -0.6842 -0.1395
 3962TIP3    H133301   3.948   2.317  13.960 -1.3499 -1.3656  0.3458
 3962TIP3    H233302   3.953   2.468  13.966 -0.7242 -1.2914 -1.3234
 3963TIP3   OH233303   3.511   4.057   5.101 -0.5640  0.5426  0.1724
 3963TIP3    H133304   3.474   3.977   5.061 -1.9940  0.5821  1.3250
 3963TIP3    H233305   3.603   4.056   5.075 -1.0874 -0.1776 -1.9082
 3964TIP3   OH233306   1.667   0.229  13.932 -0.0822 -0.3416  0.3806
 3964TIP3    H133307   1.721   0.183  13.996  0.9932  0.0308 -0.2254
 3964TIP3    H233308   1.594   0.265  13.983 -0.5375 -2.0171  0.9906
 3965TIP3   OH233309   1.318   0.679   1.246  0.0163  0.3445  1.0642
 3965TIP3    H133310   1.339   0.743   1.178  1.3516 -0.1798  0.9403
 3965TIP3    H233311   1.238   0.712   1.287  1.3652  2.8187  1.9090
 3966TIP3   OH233312   1.725   0.973   1.875 -0.3385 -0.0308  0.0019
 3966TIP3    H133313   1.719   0.987   1.781  0.5928 -0.2291 -0.0998
 3966TIP3    H233314   1.733   0.878   1.885  0.4356  0.0456  0.2118
 3967TIP3   OH233315   2.547   4.456   4.212  0.2266 -0.3785 -0.0015
 3967TIP3    H133316   2.621   4.507   4.246 -0.8358  0.7847  0.6301
 3967TIP3    H233317   2.498   4.431   4.290 -0.6163 -0.2482 -0.4840
 3968TIP3   OH233318   0.468   4.443  15.431 -0.0587  0.3521 -0.1286
 3968TIP3    H133319   0.470   4.395  15.348 -3.3066  1.6650 -1.1321
 3968TIP3    H233320   0.434   4.380  15.495  0.3553 -0.0169 -0.2623
 3969TIP3   OH233321   4.841   5.230   0.954 -0.4803  0.8258 -0.2653
 3969TIP3    H133322   4.933   5.239   0.931 -0.1841  0.8176  0.8693
 3969TIP3    H233323   4.837   5.149   1.006 -1.3742  0.0205 -1.5081
 3970TIP3   OH233324   1.988   2.266   4.769 -0.5691  0.2788 -0.0515
 3970TIP3    H133325   1.923   2.332   4.793 -0.9731 -0.0374 -0.2719
 3970TIP3    H233326   1.937   2.187   4.752 -0.0328 -0.2479  0.7622
 3971TIP3   OH233327   1.932   0.928  15.815 -0.0574  0.1821 -0.3472
 3971TIP3    H133328   1.899   1.017  15.826 -1.1925 -0.3822  1.2580
 3971TIP3    H233329   1.948   0.897  15.905  1.4009 -0.8538 -0.9175
 3972TIP3   OH233330   4.433   5.778   4.558 -0.6102 -0.1954 -0.1892
 3972TIP3    H133331   4.340   5.778   4.579 -0.7260 -2.5439 -0.4493
 3972TIP3    H233332   4.455   5.686   4.544  2.1579  0.0610  1.5779
 3973TIP3   OH233333   4.428   1.642   1.945  0.4031  0.2032  0.1208
 3973TIP3    H133334   4.498   1.698   1.910  0.9832 -1.0343 -0.7641
 3973TIP3    H233335   4.474   1.577   1.998 -0.1474 -0.1265  0.1990
 3974TIP3   OH233336   4.257   2.821   4.858 -0.1566  0.2902  0.2283
 3974TIP3    H133337   4.169   2.810   4.894 -0.5667  0.8204 -0.5883
 3974TIP3    H233338   4.286   2.907   4.889 -0.3599  0.5837 -0.3959
 3975TIP3   OH233339   0.739   5.137  13.739  0.2788 -0.2124 -0.6020
 3975TIP3    H133340   0.701   5.072  13.680  0.2486  0.4010 -1.2774
 3975TIP3    H233341   0.685   5.215  13.725  1.6350  0.6199 -1.4193
 3976TIP3   OH233342   6.422   4.154   4.087 -0.8733  0.2323 -0.0765
 3976TIP3    H133343   6.510   4.131   4.115 -0.6840  0.4455 -0.4983
 3976TIP3    H233344   6.434   4.228   4.027 -1.2734 -0.2397 -0.7511
 3977TIP3   OH233345   5.394   1.341  15.891  0.8185  0.8127 -0.4380
 3977TIP3    H133346   5.347   1.293  15.822  0.0368  0.2877  0.4375
 3977TIP3    H233347   5.486   1.332  15.868  0.7691 -1.6548 -0.0178
 3978TIP3   OH233348   0.544   2.097  13.549 -0.1334  0.5076 -0.2748
 3978TIP3    H133349   0.613   2.127  13.489 -1.2585  0.9546 -1.4135
 3978TIP3    H233350   0.493   2.036  13.497 -0.1920 -0.3653  0.7852
 3979TIP3   OH233351   3.173   3.819  10.467 -0.0019  0.6566 -0.1678
 3979TIP3    H133352   3.082   3.814  10.495 -0.2190  0.4076 -0.9089
 3979TIP3    H233353   3.181   3.754  10.397  1.2764 -0.8869  1.2923
 3980TIP3   OH233354   4.967   0.239  16.529  0.3963  0.1319 -0.3566
 3980TIP3    H133355   4.910   0.304  16.569  2.5492  0.1646  3.1621
 3980TIP3    H233356   5.052   0.283  16.523  0.9427 -1.0499 -1.9857
 3981TIP3   OH233357   6.547   2.320  11.707 -0.2600  0.8407  0.4329
 3981TIP3    H133358   6.593   2.385  11.653  2.1233  0.5869  2.0010
 3981TIP3    H233359   6.544   2.241  11.653 -1.9346  1.7951 -0.9599
 3982TIP3   OH233360   6.376   0.044   0.617  0.0201 -0.1908 -0.2276
 3982TIP3    H133361   6.467   0.064   0.595  0.0865 -0.7937 -0.5152
 3982TIP3    H233362   6.346  -0.014   0.547 -0.5880  0.0034 -0.1386
 3983TIP3   OH233363   1.055   1.571   1.654  0.2784 -0.2694 -0.7213
 3983TIP3    H133364   1.092   1.533   1.575 -0.1788  0.7850 -1.4658
 3983TIP3    H233365   0.960   1.566   1.642  0.1784  1.8160 -1.2612
 3984TIP3   OH233366   3.948   4.517   5.534  0.0434 -0.1858  0.5234
 3984TIP3    H133367   3.921   4.451   5.598 -0.2887  0.1879  0.7765
 3984TIP3    H233368   4.005   4.576   5.584 -0.1656  0.0714  0.4649
 3985TIP3   OH233369   0.802   6.074  13.674 -0.2412 -0.5415 -0.4960
 3985TIP3    H133370   0.731   6.137  13.687 -0.7527 -0.9874 -1.0877
 3985TIP3    H233371   0.875   6.109  13.727  0.0361  1.3976 -2.0330
 3986TIP3   OH233372   1.554   5.328   5.006 -0.2109 -0.0543  0.2924
 3986TIP3    H133373   1.622   5.393   4.989 -0.2612  0.3374  1.4944
 3986TIP3    H233374   1.570   5.259   4.942 -0.3154  1.2526 -1.1744
 3987TIP3   OH233375   4.331   2.244   2.241  0.3692  0.0383  0.0390
 3987TIP3    H133376   4.323   2.158   2.282  1.5505 -0.0105  0.1843
 3987TIP3    H233377   4.355   2.225   2.150 -1.2942  0.1768 -0.4746
 3988TIP3   OH233378   0.997   0.959  13.111 -0.1999  0.2951 -0.0715
 3988TIP3    H133379   1.082   0.964  13.067  0.2992  0.5290  0.8805
 3988TIP3    H233380   0.941   1.020  13.064  0.3024  0.4908 -0.4182
 3989TIP3   OH233381   6.110   2.367   4.741 -0.0939  0.1131 -0.0078
 3989TIP3    H133382   6.152   2.389   4.824 -0.6748 -2.9574  1.2469
 3989TIP3    H233383   6.160   2.293   4.707 -0.3840  0.7784 -2.0015
 3990TIP3   OH233384   6.497   1.014  16.146  0.2449  0.3097 -0.2304
 3990TIP3    H133385   6.453   1.099  16.150  0.2227  0.4363 -2.0185
 3990TIP3    H233386   6.588   1.034  16.167 -0.0473  0.4879  0.9294
 3991TIP3   OH233387   0.606   5.941  16.671  0.6429  0.8936 -0.1470
 3991TIP3    H133388   0.631   6.033  16.682 -0.9413  1.3476 -0.0803
 3991TIP3    H233389   0.544   5.924  16.742  0.6576 -0.1312 -0.3608
 3992TIP3   OH233390   3.611   0.203   1.551 -0.5058  0.2977 -0.5409
 3992TIP3    H133391   3.633   0.171   1.638 -0.1204 -0.0352 -0.7540
 3992TIP3    H233392   3.574   0.290   1.565 -3.3579 -0.9238  0.2478
 3993TIP3   OH233393   3.937   6.459   2.088 -0.0984 -0.1574  0.2334
 3993TIP3    H133394   3.847   6.426   2.083 -0.5014  1.0372 -0.7105
 3993TIP3    H233395   3.960   6.481   1.998  1.5336 -1.4066  0.3008
 3994TIP3   OH233396   2.995   5.917   2.399  0.3459 -0.0009  0.0072
 3994TIP3    H133397   2.933   5.950   2.334 -0.9913 -1.2265  0.5876
 3994TIP3    H233398   3.019   5.994   2.450 -1.3705  0.4051  0.2839
 3995TIP3   OH233399   6.536   2.708   2.032 -0.2029 -0.2126  0.1701
 3995TIP3    H133400   6.610   2.739   2.085  1.9203  0.5736 -2.9840
 3995TIP3    H233401   6.481   2.786   2.020  0.7421  0.3162 -0.9201
 3996TIP3   OH233402   5.646   3.238   2.640 -0.0157  0.1325  0.3306
 3996TIP3    H133403   5.603   3.235   2.725  0.7761 -1.3967  0.7285
 3996TIP3    H233404   5.654   3.146   2.615 -1.2989  0.5749 -1.9741
 3997TIP3   OH233405   2.880   6.050   3.546 -0.4506  0.3082 -0.6306
 3997TIP3    H133406   2.793   6.015   3.524 -0.8870  2.1496 -2.0687
 3997TIP3    H233407   2.861   6.126   3.602  0.3575 -0.2586  0.4540
 3998TIP3   OH233408   5.721   1.354  12.014  0.5100  0.3863 -0.0595
 3998TIP3    H133409   5.704   1.394  11.929  0.5677  0.2218 -0.1500
 3998TIP3    H233410   5.771   1.420  12.063 -0.4137  0.8852  0.2227
 3999TIP3   OH233411   3.707   4.335   0.635 -0.4422 -0.4543  0.1524
 3999TIP3    H133412   3.663   4.384   0.565 -0.4003 -2.6504 -1.5066
 3999TIP3    H233413   3.775   4.285   0.590  0.3584 -1.0575  1.9520
 4000TIP3   OH233414   4.110   3.574   6.259  0.5108 -0.9100 -0.1708
 4000TIP3    H133415   4.028   3.557   6.214  0.2482 -1.4235  0.4970
 4000TIP3    H233416   4.085   3.604   6.346  1.0216 -0.2168 -0.2514
 4001TIP3   OH233417   3.267   2.501   0.486 -0.2276 -0.2605  0.0319
 4001TIP3    H133418   3.181   2.493   0.527  0.2873  1.2632  1.5602
 4001TIP3    H233419   3.281   2.596   0.481  1.8078 -0.4762  0.8691
 4002TIP3   OH233420   0.153   1.918  15.832  0.2130  0.1501  0.5828
 4002TIP3    H133421   0.083   1.853  15.827  0.7258 -0.3785  0.2477
 4002TIP3    H233422   0.109   2.002  15.815  0.0861 -0.4427 -2.5949
 4003TIP3   OH233423   3.891   4.052   2.211  0.0904 -0.0867 -0.2609
 4003TIP3    H133424   3.858   4.139   2.191  2.1899  0.6562 -0.6900
 4003TIP3    H233425   3.925   4.019   2.127 -1.7984 -1.8843 -0.4077
 4004TIP3   OH233426   3.155   0.730  11.462 -0.2750 -0.5142  0.3133
 4004TIP3    H133427   3.156   0.821  11.434  0.9051 -0.6422 -0.0885
 4004TIP3    H233428   3.175   0.734  11.556 -2.9376 -0.1900  0.9638
 4005TIP3   OH233429   5.852   5.001  17.162 -0.1409  0.1158  0.0206
 4005TIP3    H133430   5.862   5.015  17.067  0.3192 -0.0439  0.0402
 4005TIP3    H233431   5.856   4.906  17.173  0.0804  0.1462  0.2237
 4006TIP3   OH233432   6.688   4.716   0.171 -0.2448 -0.1597 -0.0641
 4006TIP3    H133433   6.641   4.774   0.110  0.3619 -0.1123 -0.4963
 4006TIP3    H233434   6.628   4.705   0.244 -1.5129 -1.1958 -1.2024
 4007TIP3   OH233435   6.340   5.297  12.776 -0.3691  0.2235 -0.3402
 4007TIP3    H133436   6.261   5.317  12.726 -0.0895 -1.1243 -1.3799
 4007TIP3    H233437   6.318   5.217  12.824  0.2348  0.0498 -0.3434
 4008TIP3   OH233438   3.033   3.949  15.496 -0.3609  0.2656  0.0155
 4008TIP3    H133439   2.990   3.992  15.570  2.1065  0.3614  1.4816
 4008TIP3    H233440   3.083   4.019  15.454 -0.8754 -0.0266 -1.1338
 4009TIP3   OH233441   4.446   0.193   5.084 -0.0073 -0.7991  0.3645
 4009TIP3    H133442   4.382   0.219   5.018 -0.0524 -0.5617  0.5001
 4009TIP3    H233443   4.397   0.198   5.167 -0.2119 -1.9691  0.3258
 4010TIP3   OH233444   3.180   1.455   5.727  0.1065 -0.2325  0.2882
 4010TIP3    H133445   3.235   1.529   5.702 -1.5475  0.9590 -0.0437
 4010TIP3    H233446   3.211   1.430   5.814  0.4626  1.1094  0.5736
 4011TIP3   OH233447   0.986   2.800  15.859  0.1087  0.0534  0.1830
 4011TIP3    H133448   1.003   2.709  15.885  1.1317 -0.0261 -0.6923
 4011TIP3    H233449   0.977   2.796  15.764  3.2360  1.2467 -0.2824
 4012TIP3   OH233450   6.394   3.800  16.550  0.4296  0.2708 -0.0228
 4012TIP3    H133451   6.488   3.797  16.529  0.9717  1.9497  1.8156
 4012TIP3    H233452   6.375   3.714  16.587  1.5879  0.3293  0.7774
 4013TIP3   OH233453   0.933   6.478   2.959 -0.0603  0.2938 -0.2487
 4013TIP3    H133454   1.004   6.421   2.931 -1.2500 -1.0255 -0.6680
 4013TIP3    H233455   0.901   6.519   2.878  0.6643  1.4396  0.0258
 4014TIP3   OH233456   2.518   3.174   2.826 -0.1180 -0.0755 -0.0337
 4014TIP3    H133457   2.435   3.131   2.845 -0.6067  0.0347 -1.7903
 4014TIP3    H233458   2.535   3.155   2.734  1.3779  0.6183  0.0681
 4015TIP3   OH233459   2.656   4.239   4.044 -0.1260 -0.1008 -0.0145
 4015TIP3    H133460   2.712   4.189   4.103  1.3508 -0.4579 -1.6407
 4015TIP3    H233461   2.591   4.279   4.102  0.6204 -1.2335  1.7187
 4016TIP3   OH233462   2.040   5.470   3.410  0.1039  0.4709 -0.2380
 4016TIP3    H133463   2.135   5.459   3.410 -0.0401 -1.1400 -0.8188
 4016TIP3    H233464   2.022   5.524   3.486  1.4453  0.3095  0.2265
 4017TIP3   OH233465   2.097   2.368  16.171 -0.1351 -0.4387 -0.5431
 4017TIP3    H133466   2.051   2.430  16.227 -0.7415 -1.6923  0.4096
 4017TIP3    H233467   2.159   2.324  16.229  1.3135  0.2557 -1.5185
 4018TIP3   OH233468   3.883   5.369  11.327 -0.5610  0.2323 -0.4086
 4018TIP3    H133469   3.891   5.463  11.316 -2.2404  0.2316 -2.3085
 4018TIP3    H233470   3.900   5.333  11.240  0.1172 -1.2481  0.2975
 4019TIP3   OH233471   2.796   1.383  12.556 -0.3087 -0.1800  0.2817
 4019TIP3    H133472   2.741   1.329  12.499  0.2975 -1.0061  0.4514
 4019TIP3    H233473   2.742   1.397  12.634 -0.9339  0.5048 -0.2583
 4020TIP3   OH233474   5.442   1.047   4.471  0.2445  0.1466 -0.2862
 4020TIP3    H133475   5.524   1.045   4.520  0.6827 -1.0341 -1.0197
 4020TIP3    H233476   5.467   1.026   4.381 -0.7809  0.4337 -0.6520
 4021TIP3   OH233477   1.983   2.823  15.444 -0.2567 -0.1619  0.2855
 4021TIP3    H133478   2.037   2.837  15.366  0.4595 -2.7449  0.2222
 4021TIP3    H233479   1.986   2.907  15.491 -0.5482  1.3917 -2.3183
 4022TIP3   OH233480   3.413   4.535  15.762 -0.1048  0.0799  0.0201
 4022TIP3    H133481   3.350   4.589  15.810 -0.7403 -0.6772  0.0503
 4022TIP3    H233482   3.390   4.548  15.669 -1.8024 -1.9240  0.0909
 4023TIP3   OH233483   6.202   6.007   0.353  0.3460  0.1026  0.2679
 4023TIP3    H133484   6.230   5.924   0.392  1.5544  0.6914  0.7029
 4023TIP3    H233485   6.106   6.005   0.359  0.4279 -0.4307  2.0212
 4024TIP3   OH233486   5.992   3.287   5.871  0.3230 -0.0295 -0.9209
 4024TIP3    H133487   5.992   3.361   5.811  1.6658 -0.4554 -1.4668
 4024TIP3    H233488   6.071   3.298   5.924  0.1333 -0.6599 -0.4858
 4025TIP3   OH233489   6.711   2.564  10.830  0.3026  0.2160  0.4413
 4025TIP3    H133490   6.644   2.624  10.862 -1.1980 -0.3124 -1.5901
 4025TIP3    H233491   6.665   2.482  10.812  1.3662 -0.0301 -1.4138
 4026TIP3   OH233492   4.778   1.289  13.573  0.3261  0.5052  0.1638
 4026TIP3    H133493   4.743   1.207  13.538  1.3546  0.4726 -0.8730
 4026TIP3    H233494   4.705   1.351  13.569 -0.3933 -0.2980  0.7466
 4027TIP3   OH233495   6.406   5.937   3.845 -0.6862  0.1840 -0.6355
 4027TIP3    H133496   6.328   5.989   3.865 -0.6101  0.0358  0.0512
 4027TIP3    H233497   6.409   5.870   3.912 -0.1435 -0.0112 -0.8473
 4028TIP3   OH233498   4.757   4.893   3.880  0.1879  0.1662  0.0149
 4028TIP3    H133499   4.831   4.837   3.856  0.1211 -0.6206  1.5081
 4028TIP3    H233500   4.682   4.854   3.837  0.5335  0.6672 -1.0897
 4029TIP3   OH233501   2.989   1.119   3.691 -0.1194  0.0107  0.2628
 4029TIP3    H133502   2.963   1.093   3.603  0.1184  1.8786 -0.3955
 4029TIP3    H233503   3.084   1.114   3.690  0.0766  2.5917 -0.5022
 4030TIP3   OH233504   4.101   6.631   4.205 -0.0364  0.2229 -0.1231
 4030TIP3    H133505   4.119   6.658   4.115  0.3638  0.6115  0.0712
 4030TIP3    H233506   4.181   6.588   4.234  0.0161  0.5404  0.2132
 4031TIP3   OH233507   2.546   4.235  12.201 -0.0832 -0.0921  0.1235
 4031TIP3    H133508   2.565   4.327  12.217 -0.2770 -0.2101  1.1113
 4031TIP3    H233509   2.452   4.227  12.219 -0.4666 -0.1293 -1.7248
 4032TIP3   OH233510   6.398   1.855  13.730  0.1229  0.2088 -0.1232
 4032TIP3    H133511   6.360   1.907  13.659 -3.1931  1.2945  2.1952
 4032TIP3    H233512   6.343   1.777  13.735  0.4550  0.0378  1.0987
 4033TIP3   OH233513   1.120   4.329   4.415  0.1631  0.1451  0.3376
 4033TIP3    H133514   1.146   4.242   4.386 -1.1402 -0.4351  0.8556
 4033TIP3    H233515   1.120   4.382   4.335 -2.0900 -1.1037 -0.5671
 4034TIP3   OH233516   6.255   3.675   1.768 -0.2905 -0.4830  0.3156
 4034TIP3    H133517   6.241   3.746   1.830 -1.7118 -2.2807  2.1797
 4034TIP3    H233518   6.184   3.613   1.785  2.6641 -3.9865  1.1611
 4035TIP3   OH233519   3.911   2.695   5.795  0.1139  0.1598 -0.0366
 4035TIP3    H133520   3.967   2.676   5.719  1.1530  1.1847  0.4336
 4035TIP3    H233521   3.849   2.622   5.798  1.2816 -0.9093 -0.7244
 4036TIP3   OH233522   1.238   6.629  13.635 -0.0731  0.3416  0.1079
 4036TIP3    H133523   1.147   6.646  13.610 -0.7852 -1.0244  1.5909
 4036TIP3    H233524   1.280   6.715  13.632 -0.7953  0.6962 -2.7751
 4037TIP3   OH233525   5.553   2.671  13.035 -0.4019 -0.0698 -0.4806
 4037TIP3    H133526   5.524   2.680  12.944 -1.1087 -1.6725 -0.4513
 4037TIP3    H233527   5.477   2.635  13.081  0.3896 -0.6021  0.4574
 4038TIP3   OH233528   6.662   3.572   4.681  0.4233 -0.1970  0.2505
 4038TIP3    H133529   6.578   3.583   4.638  0.6918  1.7256  0.1153
 4038TIP3    H233530   6.645   3.593   4.773  0.8776  1.0367  0.0763
 4039TIP3   OH233531   5.479   0.690   3.332 -0.2551  0.0198  0.4874
 4039TIP3    H133532   5.394   0.657   3.365 -0.4472  0.3609  0.3364
 4039TIP3    H233533   5.497   0.767   3.387 -0.4981  0.4976 -0.0925
 4040TIP3   OH233534   0.928   5.930   3.682 -0.4484  0.0122 -0.0635
 4040TIP3    H133535   0.833   5.919   3.688 -0.4424 -0.5648 -0.8136
 4040TIP3    H233536   0.949   5.906   3.591  0.8542 -3.4076  0.9926
 4041TIP3   OH233537   4.158   4.864   5.304 -0.7630  0.1646  0.1087
 4041TIP3    H133538   4.182   4.844   5.394 -0.6176  0.4153  0.1263
 4041TIP3    H233539   4.226   4.924   5.274 -0.6470 -0.1450 -0.2609
 4042TIP3   OH233540   5.881   4.456  16.388 -0.2228 -0.1626  0.7815
 4042TIP3    H133541   5.807   4.494  16.341 -0.4539 -0.2079  1.1091
 4042TIP3    H233542   5.870   4.362  16.378 -0.0336 -0.1641  0.5645
 4043TIP3   OH233543   5.466   3.150  14.613 -0.4588 -0.1392 -0.0043
 4043TIP3    H133544   5.467   3.080  14.549 -0.6377 -1.4544  1.3781
 4043TIP3    H233545   5.551   3.143  14.657 -1.3506 -1.0501  1.7058
 4044TIP3   OH233546   3.825   2.723  14.795 -0.2937  0.2508  0.3618
 4044TIP3    H133547   3.858   2.809  14.766  1.6246 -0.1483  1.2054
 4044TIP3    H233548   3.731   2.726  14.776  0.2562  1.2049 -2.8809
 4045TIP3   OH233549   3.084   6.353   3.504 -0.1618 -0.3503 -0.0554
 4045TIP3    H133550   3.050   6.421   3.445  0.3177 -0.9218 -1.0036
 4045TIP3    H233551   3.130   6.292   3.447 -0.8109 -1.6304  0.7427
 4046TIP3   OH233552   4.099   6.451   6.030 -0.0022 -0.2076  0.1103
 4046TIP3    H133553   4.094   6.423   6.121  3.2054  2.2608  1.2371
 4046TIP3    H233554   4.160   6.389   5.989 -1.0286 -0.9936 -0.2733
 4047TIP3   OH233555   4.230   1.414  15.309 -0.3954  0.2171  0.5243
 4047TIP3    H133556   4.243   1.399  15.403 -0.0173  1.3862  0.6716
 4047TIP3    H233557   4.259   1.333  15.268  1.1759  0.3550  1.3035
 4048TIP3   OH233558   5.219   6.287  14.234  0.4127 -0.4583  0.2844
 4048TIP3    H133559   5.187   6.208  14.278 -1.3568 -1.2151 -2.1158
 4048TIP3    H233560   5.146   6.348  14.238  0.9803  0.2336  0.1989
 4049TIP3   OH233561   5.939   5.497   4.528 -0.2460  0.1503 -0.0349
 4049TIP3    H133562   5.986   5.523   4.448  0.4227  2.5483  1.0285
 4049TIP3    H233563   6.009   5.472   4.588 -0.5986  0.2131  0.4003
 4050TIP3   OH233564   3.458   6.252  15.520 -0.6446  0.4737  0.0340
 4050TIP3    H133565   3.392   6.320  15.538 -0.9715  0.1393  0.1014
 4050TIP3    H233566   3.534   6.279  15.572 -1.3401 -0.0954  1.4180
 4051TIP3   OH233567   2.723   4.231  15.365 -0.2327  0.2178 -0.0705
 4051TIP3    H133568   2.787   4.227  15.437  0.8894  0.8952 -0.9983
 4051TIP3    H233569   2.758   4.297  15.305 -1.6518  0.3712 -0.7766
 4052TIP3   OH233570   3.424   4.362  13.265  0.3134  0.0856  0.1773
 4052TIP3    H133571   3.509   4.406  13.264  0.1649  0.3650 -0.8336
 4052TIP3    H233572   3.418   4.324  13.353  0.9896  1.0151  0.6434
 4053TIP3   OH233573   5.159   2.641  13.373  0.7657 -0.4570 -0.2040
 4053TIP3    H133574   5.160   2.629  13.468 -1.6316  0.0687 -0.0296
 4053TIP3    H233575   5.111   2.723  13.360  0.9797 -0.5595 -1.8712
 4054TIP3   OH233576   6.647   3.545  11.794 -0.1814  0.4942 -0.6345
 4054TIP3    H133577   6.568   3.531  11.741  0.4032 -1.1705 -1.1505
 4054TIP3    H233578   6.646   3.638  11.815 -2.6494  0.3933 -0.0117
 4055TIP3   OH233579   3.353   3.359   5.529  0.0380 -0.4773  0.2605
 4055TIP3    H133580   3.262   3.379   5.508  0.7068 -0.2162 -2.8379
 4055TIP3    H233581   3.349   3.270   5.566 -1.5128 -0.2249  0.7872
 4056TIP3   OH233582   3.262   5.228  11.682 -0.2540  0.1334 -0.0780
 4056TIP3    H133583   3.201   5.296  11.653 -0.4409  0.8520  1.8592
 4056TIP3    H233584   3.207   5.163  11.724  0.3062  1.7433  3.5327
 4057TIP3   OH233585   4.306   6.674   5.284 -0.1944 -0.1027 -0.5528
 4057TIP3    H133586   4.358   6.751   5.304 -1.8116  1.6595 -2.6399
 4057TIP3    H233587   4.216   6.705   5.287 -0.8316 -1.5592 -2.7101
 4058TIP3   OH233588   2.103   4.622   0.011  0.2824  0.5564 -0.7578
 4058TIP3    H133589   2.195   4.622  -0.016  0.6589  0.7153  0.4370
 4058TIP3    H233590   2.104   4.659   0.100 -0.8508 -0.0420 -0.4684
 4059TIP3   OH233591   2.693   6.644  13.005  0.6421 -0.2922  0.0462
 4059TIP3    H133592   2.747   6.609  12.933  0.2307 -2.5824  0.7541
 4059TIP3    H233593   2.735   6.611  13.084  0.3770  1.1609  0.8212
 4060TIP3   OH233594   6.451   1.182   6.159 -0.5836 -0.1973  0.1698
 4060TIP3    H133595   6.372   1.143   6.198 -1.3991  2.1103  1.0267
 4060TIP3    H233596   6.417   1.243   6.093  0.4703  0.6594  0.3848
 4061TIP3   OH233597   4.110   6.644   2.816 -0.1559  0.1624  0.3371
 4061TIP3    H133598   4.164   6.634   2.894  0.8053 -0.4660 -0.3860
 4061TIP3    H233599   4.078   6.556   2.797 -1.0861  0.4537  0.4971
 4062TIP3   OH233600   1.356   2.833   1.306 -0.6112 -0.2686  0.2925
 4062TIP3    H133601   1.269   2.816   1.342 -0.9852  0.6190 -0.1536
 4062TIP3    H233602   1.358   2.928   1.290  0.5001 -0.2468  0.4568
 4063TIP3   OH233603   6.391   1.080  16.767 -0.3519  0.0017  0.4948
 4063TIP3    H133604   6.337   1.024  16.822  2.0703 -1.4759  1.5102
 4063TIP3    H233605   6.406   1.158  16.820  0.2010 -0.4977  1.0954
 4064TIP3   OH233606   0.131   3.737   3.020  0.6315 -0.2394  0.0441
 4064TIP3    H133607   0.055   3.748   3.077 -0.4478 -2.4132 -0.8212
 4064TIP3    H233608   0.203   3.714   3.079  0.0899 -0.2302  0.7186
 4065TIP3   OH233609   6.021   6.494  13.636 -0.5958  0.4675  0.0042
 4065TIP3    H133610   6.001   6.476  13.728 -0.0416 -0.2784 -0.0125
 4065TIP3    H233611   6.077   6.422  13.609 -1.5079  0.1649 -1.1923
 4066TIP3   OH233612   1.542   3.132  13.607  0.0351  0.4483  0.5804
 4066TIP3    H133613   1.526   3.041  13.632  1.5668 -0.8795 -2.6840
 4066TIP3    H233614   1.633   3.148  13.632  0.7502 -0.0338 -1.5304
 4067TIP3   OH233615   1.568   2.955  14.434  0.5649 -0.1907  0.2038
 4067TIP3    H133616   1.474   2.941  14.443  0.6527  0.0636  1.8340
 4067TIP3    H233617   1.592   3.008  14.510  2.1740 -1.0413  0.3461
 4068TIP3   OH233618   4.859   4.093   2.212 -0.0431 -0.2892 -0.2564
 4068TIP3    H133619   4.820   4.026   2.269  0.7042 -0.2380  0.3312
 4068TIP3    H233620   4.894   4.158   2.273  2.1723 -1.0088 -0.6972
 4069TIP3   OH233621   4.689   2.362   1.499 -0.4059  0.7064 -0.1839
 4069TIP3    H133622   4.761   2.348   1.561 -0.6146  0.0780 -0.0772
 4069TIP3    H233623   4.689   2.284   1.444  0.0298  1.4440 -1.2387
 4070TIP3   OH233624   1.489   5.666   5.942  0.1820 -0.1533 -0.3523
 4070TIP3    H133625   1.486   5.572   5.961 -0.7433  0.0506  0.5858
 4070TIP3    H233626   1.533   5.705   6.017  2.0341  0.0279 -1.4579
 4071TIP3   OH233627   3.471   1.714   5.462 -0.3572  0.5571 -0.3771
 4071TIP3    H133628   3.479   1.629   5.505 -0.3096  0.9754  0.4505
 4071TIP3    H233629   3.543   1.715   5.398 -0.4784 -0.0974 -0.5331
 4072TIP3   OH233630   6.516   5.359   5.404 -0.1454  0.3369  0.3284
 4072TIP3    H133631   6.435   5.310   5.417 -0.0229  0.0396 -0.0212
 4072TIP3    H233632   6.558   5.359   5.490  0.1505 -0.7133  0.2059
 4073TIP3   OH233633   2.892   5.782  14.113  0.6219  0.2800  0.2483
 4073TIP3    H133634   2.860   5.864  14.150 -3.5691 -1.2390  0.5123
 4073TIP3    H233635   2.888   5.795  14.019 -2.1781 -0.2115  0.2366
 4074TIP3   OH233636   1.332   1.513  16.075 -1.1338 -0.3596 -0.3766
 4074TIP3    H133637   1.249   1.476  16.044 -0.4958 -2.6334  0.4275
 4074TIP3    H233638   1.335   1.488  16.167  0.9264 -1.3484 -0.6547
 4075TIP3   OH233639   5.422   4.874   2.487  0.3897 -0.1811 -0.2019
 4075TIP3    H133640   5.370   4.794   2.498 -1.3642  0.5388 -2.4742
 4075TIP3    H233641   5.496   4.847   2.432 -0.0050 -0.3178 -0.6729
 4076TIP3   OH233642   2.362   5.446  16.719 -0.4955  0.1860  0.4413
 4076TIP3    H133643   2.361   5.516  16.783  0.5937  0.7133 -0.0932
 4076TIP3    H233644   2.405   5.373  16.763  2.8626  1.4232 -0.4831
 4077TIP3   OH233645   5.108   3.180   3.731 -0.0384  0.1003 -0.1321
 4077TIP3    H133646   5.178   3.114   3.737 -0.5235 -0.3937  0.1400
 4077TIP3    H233647   5.091   3.188   3.637  1.6880  1.6179 -0.3647
 4078TIP3   OH233648   5.715   2.988  16.349  0.3700 -0.0540 -0.3094
 4078TIP3    H133649   5.795   3.029  16.382 -0.0141  1.2374 -0.8885
 4078TIP3    H233650   5.646   3.052  16.368  0.0753  0.6310 -3.1729
 4079TIP3   OH233651   4.801   1.431   3.103  0.0095  0.1680 -0.1506
 4079TIP3    H133652   4.714   1.391   3.106  0.0648 -0.0066 -0.7118
 4079TIP3    H233653   4.861   1.357   3.088  0.1237  0.4421 -1.0846
 4080TIP3   OH233654   2.346   0.002   4.710  0.1322  0.7854 -0.3038
 4080TIP3    H133655   2.293   0.041   4.641 -0.5101 -0.1524 -0.3604
 4080TIP3    H233656   2.342  -0.093   4.694  1.6841  0.6653 -0.1996
 4081TIP3   OH233657   2.832   6.605  16.015  0.0564 -0.2337 -0.1974
 4081TIP3    H133658   2.776   6.612  15.937 -2.7039  1.1075  1.7393
 4081TIP3    H233659   2.832   6.512  16.036 -1.1969 -0.3164 -0.4685
 4082TIP3   OH233660   6.000   4.655  11.393 -0.3490  0.0723  0.4552
 4082TIP3    H133661   6.086   4.672  11.354 -0.7672 -1.1303 -1.0855
 4082TIP3    H233662   5.947   4.730  11.368  0.0595  0.4968  0.8425
 4083TIP3   OH233663   5.488   0.518   0.254 -0.5137  0.2080  0.7385
 4083TIP3    H133664   5.525   0.596   0.213 -0.8800  0.4865  0.9274
 4083TIP3    H233665   5.457   0.465   0.181 -0.9004  0.5668  0.6367
 4084TIP3   OH233666   0.272   3.311  16.082 -0.3971  0.0062 -0.0841
 4084TIP3    H133667   0.342   3.246  16.091  1.5821  1.6461 -2.3921
 4084TIP3    H233668   0.247   3.332  16.172  3.0456  0.2856  0.9641
 4085TIP3   OH233669   5.577   4.425  14.456 -0.1679 -0.1349 -0.2064
 4085TIP3    H133670   5.516   4.456  14.524  0.1014  0.2296 -0.1280
 4085TIP3    H233671   5.663   4.453  14.487 -0.2870  2.8264 -2.1681
 4086TIP3   OH233672   3.161   0.398   4.474 -0.0975 -0.5416 -0.3324
 4086TIP3    H133673   3.079   0.365   4.435 -0.1224  1.0043 -1.6946
 4086TIP3    H233674   3.181   0.477   4.424  1.4128 -0.0209  1.0222
 4087TIP3   OH233675   2.483   6.774  13.493 -0.6855  0.4647 -0.4840
 4087TIP3    H133676   2.563   6.778  13.442  0.4526  0.3366  1.2086
 4087TIP3    H233677   2.497   6.702  13.554 -1.8901  0.7329  0.1460
 4088TIP3   OH233678   6.438   0.438   0.322 -0.0247 -0.1458  0.3650
 4088TIP3    H133679   6.464   0.402   0.407  0.5231  1.0011  0.6989
 4088TIP3    H233680   6.456   0.531   0.329 -0.4616  0.0430 -0.8409
 4089TIP3   OH233681   0.601   6.465   1.104  0.6417 -0.4143 -0.8834
 4089TIP3    H133682   0.522   6.470   1.157  0.3959 -2.0455 -1.0660
 4089TIP3    H233683   0.598   6.545   1.050  0.5660  0.9429  1.0222
 4090TIP3   OH233684   1.516   1.887  12.887 -0.3170 -0.5430 -0.0553
 4090TIP3    H133685   1.505   1.835  12.808  1.1467 -0.1444 -0.5479
 4090TIP3    H233686   1.542   1.973  12.856  0.0202 -0.3081  0.8434
 4091TIP3   OH233687   1.020   6.512  16.507  0.3145  0.1128  0.1440
 4091TIP3    H133688   0.959   6.546  16.572  0.7346  2.1018 -0.4426
 4091TIP3    H233689   1.087   6.580  16.499  1.6737 -1.2404 -0.4980
 4092TIP3   OH233690   3.238   4.073  13.274 -0.0383 -0.5628  0.2340
 4092TIP3    H133691   3.214   4.030  13.356  0.5207  0.3853  0.9171
 4092TIP3    H233692   3.179   4.148  13.269  1.0810  0.3797  0.6809
 4093TIP3   OH233693   2.197   4.528   0.475 -0.7862  0.6060 -0.1971
 4093TIP3    H133694   2.145   4.488   0.405  0.5873 -1.6261 -0.0169
 4093TIP3    H233695   2.285   4.536   0.438 -0.3883  0.8187  0.7836
 4094TIP3   OH233696   2.460   1.026  14.482 -0.6804 -0.0818  0.1378
 4094TIP3    H133697   2.380   1.050  14.435 -0.6985  0.4473  0.4334
 4094TIP3    H233698   2.480   1.102  14.535  0.1632 -0.1206 -0.1145
 4095TIP3   OH233699   0.539   0.421  15.925  0.1959 -0.1460  0.2499
 4095TIP3    H133700   0.628   0.459  15.928  0.8743 -1.6895  0.5201
 4095TIP3    H233701   0.517   0.405  16.017 -1.2004  1.9688  0.3664
 4096TIP3   OH233702   3.198   4.524  14.028 -0.1732 -0.2126  0.0633
 4096TIP3    H133703   3.227   4.433  14.022  1.6683  0.4091 -1.0406
 4096TIP3    H233704   3.197   4.555  13.937 -0.0376  1.0997  0.4928
 4097TIP3   OH233705   0.070   6.665   0.875  0.0599  0.7310  0.0005
 4097TIP3    H133706  -0.006   6.718   0.898  0.6654  1.8754 -0.5457
 4097TIP3    H233707   0.039   6.607   0.804 -0.7629 -0.0968  1.0099
 4098TIP3   OH233708   2.811   4.874  14.921 -0.2909 -0.2310  0.2805
 4098TIP3    H133709   2.869   4.937  14.879 -0.1275  0.4173  1.4616
 4098TIP3    H233710   2.723   4.910  14.909 -0.0755  1.2660  2.5775
 4099TIP3   OH233711   0.103   1.125  11.261 -0.0665  0.2264 -0.5701
 4099TIP3    H133712   0.069   1.171  11.185 -0.9149  3.4570  1.5902
 4099TIP3    H233713   0.171   1.183  11.297  1.2588 -1.8139  0.4484
 4100TIP3   OH233714   3.769   0.827   5.184  0.5336 -0.2076 -0.5272
 4100TIP3    H133715   3.772   0.835   5.089  1.1219  0.8241 -0.4314
 4100TIP3    H233716   3.739   0.737   5.199  1.3221 -0.6906 -1.6791
 4101TIP3   OH233717   6.169   0.612  13.011 -0.8226  0.1462 -0.5706
 4101TIP3    H133718   6.216   0.533  12.987 -0.7853 -0.8409  2.3487
 4101TIP3    H233719   6.237   0.671  13.044 -1.1822  0.0889  0.3126
 4102TIP3   OH233720   5.721   3.092  15.571 -0.0184 -0.5809 -0.1621
 4102TIP3    H133721   5.754   3.003  15.560  0.2263 -0.4958 -0.1338
 4102TIP3    H233722   5.798   3.142  15.597 -0.3767 -0.5737  0.8972
 4103TIP3   OH233723   1.288   1.750   1.270  0.1886 -0.5778  0.0574
 4103TIP3    H133724   1.195   1.736   1.254 -0.3250  3.8741 -2.4933
 4103TIP3    H233725   1.329   1.666   1.248 -3.0011 -2.0669 -0.7901
 4104TIP3   OH233726   5.395   2.373  13.051 -0.8319 -0.3552 -1.0264
 4104TIP3    H133727   5.331   2.397  12.984  0.2389  0.1431 -1.9127
 4104TIP3    H233728   5.479   2.406  13.017 -0.2121 -0.3511  0.4302
 4105TIP3   OH233729   0.038   4.331   5.271  0.1811  0.7743 -0.3533
 4105TIP3    H133730   0.039   4.412   5.323 -1.3710  1.9848 -2.0724
 4105TIP3    H233731  -0.049   4.328   5.232  0.7790 -0.8329 -1.7151
 4106TIP3   OH233732   0.330   5.493  10.468 -0.3460 -0.3177  0.6371
 4106TIP3    H133733   0.339   5.570  10.524 -0.1260  0.2688 -0.1883
 4106TIP3    H233734   0.379   5.515  10.388  0.2069 -1.5310  0.6080
 4107TIP3   OH233735   5.052   2.860  16.855 -0.1944 -0.3340 -0.0054
 4107TIP3    H133736   5.019   2.789  16.800  0.5043 -1.5124  1.0646
 4107TIP3    H233737   5.116   2.905  16.799 -1.7928  0.4821 -1.2462
 4108TIP3   OH233738   0.515   5.783  13.378 -0.3323  0.3897 -0.5789
 4108TIP3    H133739   0.439   5.795  13.434 -0.3237 -1.2214 -0.1619
 4108TIP3    H233740   0.544   5.872  13.356 -0.6968  1.0643  1.4662
 4109TIP3   OH233741   1.308   1.970  14.195  0.1796  1.1029  0.2884
 4109TIP3    H133742   1.344   1.897  14.246  0.7552 -0.0366 -1.6651
 4109TIP3    H233743   1.347   1.960  14.108 -2.4779  1.6695 -1.0540
 4110TIP3   OH233744   2.006   0.200   0.922 -0.6614  0.0994 -0.4014
 4110TIP3    H133745   1.998   0.215   1.016  0.3916  0.2287 -0.3175
 4110TIP3    H233746   2.029   0.285   0.886  3.1933 -0.6566 -0.1884
 4111TIP3   OH233747   6.670   5.377  11.700 -0.2272 -0.0101  0.1100
 4111TIP3    H133748   6.751   5.340  11.665 -0.6600  0.2082 -1.1772
 4111TIP3    H233749   6.641   5.439  11.633 -1.6214 -0.3248  0.3810
 4112TIP3   OH233750   4.978   0.656  11.457 -0.1806  0.0371  0.4848
 4112TIP3    H133751   4.992   0.602  11.534  0.1616  0.9536  1.0800
 4112TIP3    H233752   5.034   0.616  11.390  0.6439  0.0776  1.1251
 4113TIP3   OH233753   4.036   2.599   3.471  0.3609 -0.3704 -0.0318
 4113TIP3    H133754   4.017   2.652   3.394  0.9316  0.4149  0.3532
 4113TIP3    H233755   4.064   2.515   3.435  1.8030  0.3728 -0.7475
 4114TIP3   OH233756   2.985   6.477  12.932  0.0005  0.1564  0.3054
 4114TIP3    H133757   2.983   6.455  13.025  0.7018  0.6797  0.4493
 4114TIP3    H233758   2.960   6.396  12.888  1.2744 -0.5691  0.8694
 4115TIP3   OH233759   2.854   4.397   5.154 -1.4892  0.1857  0.2824
 4115TIP3    H133760   2.828   4.392   5.246 -1.7858 -0.7430  0.1509
 4115TIP3    H233761   2.841   4.309   5.120  0.5625  0.0116 -0.1389
 4116TIP3   OH233762   4.877   4.028  15.867  0.6703  0.6684  0.8856
 4116TIP3    H133763   4.819   4.062  15.798  0.8906 -1.4739 -0.4280
 4116TIP3    H233764   4.817   4.000  15.936  0.3447  1.3553  0.8912
 4117TIP3   OH233765   2.050   2.635  13.756 -0.4598 -0.2150 -0.4671
 4117TIP3    H133766   2.116   2.639  13.687 -1.0622 -1.3189 -1.1448
 4117TIP3    H233767   1.969   2.611  13.710 -1.1921  0.4483  0.4375
 4118TIP3   OH233768   1.997   3.686   5.875 -0.1873 -0.3582  0.1716
 4118TIP3    H133769   1.989   3.660   5.967  0.7837 -0.3779  0.2610
 4118TIP3    H233770   2.036   3.610   5.832  1.3185  0.3796  0.1630
 4119TIP3   OH233771   2.550   5.188  15.649  0.6693  0.5578  0.3168
 4119TIP3    H133772   2.525   5.198  15.557 -2.5094  0.2729  1.0167
 4119TIP3    H233773   2.581   5.275  15.675  1.6953  0.6136 -1.0066
 4120TIP3   OH233774   4.748   5.297  15.363 -0.0826  0.0245 -0.4389
 4120TIP3    H133775   4.687   5.365  15.393  0.2678  0.9535 -1.7214
 4120TIP3    H233776   4.697   5.216  15.367 -0.5060  0.3385  1.1366
 4121TIP3   OH233777   6.446   4.439   1.988  0.4090  0.7525 -0.0456
 4121TIP3    H133778   6.514   4.408   2.047  0.6494  3.3575  1.1715
 4121TIP3    H233779   6.366   4.443   2.042  0.3794  2.0704 -0.1353
 4122TIP3   OH233780   0.421   3.247  12.885 -0.0399  0.1607 -0.4272
 4122TIP3    H133781   0.445   3.157  12.905 -0.2218  0.1363 -0.3120
 4122TIP3    H233782   0.330   3.254  12.914  0.9967  1.4026  2.9933
 4123TIP3   OH233783   5.534   3.467  14.148 -0.2005  0.1837 -0.3290
 4123TIP3    H133784   5.606   3.405  14.160  0.3483  0.7560 -0.5987
 4123TIP3    H233785   5.481   3.430  14.078  0.4409  0.2985 -0.8801
 4124TIP3   OH233786   5.967   3.318  12.818 -0.0841 -0.1104 -0.0596
 4124TIP3    H133787   5.934   3.396  12.862  2.3401 -0.1339  2.0008
 4124TIP3    H233788   5.979   3.346  12.727  0.0115  1.6817  0.4639
 4125TIP3   OH233789   5.839   2.461   5.230 -0.1235  0.2490  0.2029
 4125TIP3    H133790   5.774   2.394   5.253  1.3847 -0.8849  1.3934
 4125TIP3    H233791   5.872   2.434   5.145  0.2579 -0.3703  0.5399
 4126TIP3   OH233792   1.822   5.799  10.986  0.1382  0.5580  0.0555
 4126TIP3    H133793   1.813   5.820  10.893 -0.4739 -1.5667 -0.4240
 4126TIP3    H233794   1.848   5.707  10.987  1.5053  0.9059  1.9854
 4127TIP3   OH233795   0.776   6.506  11.254  0.2919 -0.3794 -0.4027
 4127TIP3    H133796   0.728   6.424  11.268  1.3171 -0.7674  1.0896
 4127TIP3    H233797   0.713   6.563  11.211 -0.8539 -1.5332 -0.3250
 4128TIP3   OH233798   3.734   4.739   2.402  0.1375 -0.5229 -0.0018
 4128TIP3    H133799   3.645   4.718   2.433  0.1400 -0.7297 -0.1272
 4128TIP3    H233800   3.786   4.663   2.429 -0.1841 -1.5045 -1.9245
 4129TIP3   OH233801   0.312   6.540   0.935 -0.1380 -0.0710  0.3604
 4129TIP3    H133802   0.223   6.569   0.916 -0.9968 -2.6548  0.0738
 4129TIP3    H233803   0.328   6.468   0.874  2.7980  1.3250 -0.6987
 4130TIP3   OH233804   4.182   0.411  12.446  0.2351  0.2922 -0.3574
 4130TIP3    H133805   4.177   0.505  12.465 -0.3928  0.1184  0.3408
 4130TIP3    H233806   4.103   0.374  12.484  0.6647 -0.5849 -0.2944
 4131TIP3   OH233807   1.864   3.407  12.967 -0.0394 -0.0513  0.4120
 4131TIP3    H133808   1.856   3.312  12.974 -1.2240  0.0360  0.5284
 4131TIP3    H233809   1.787   3.434  12.916  0.9626  0.7331 -0.7320
 4132TIP3   OH233810   6.690   3.704   4.231 -0.4073 -0.0646 -0.2507
 4132TIP3    H133811   6.677   3.664   4.145 -0.6007 -0.5912  0.0196
 4132TIP3    H233812   6.781   3.681   4.254 -0.5732 -0.5141 -0.0191
 4133TIP3   OH233813   0.740   0.606  15.987  0.0578  0.1498 -0.4198
 4133TIP3    H133814   0.786   0.560  16.057  0.3043 -0.4984 -0.9913
 4133TIP3    H233815   0.768   0.697  15.995 -0.7667  0.3071  1.0067
 4134TIP3   OH233816   6.444   1.197   5.700 -0.3269 -0.4012  0.6779
 4134TIP3    H133817   6.442   1.166   5.610 -3.8629 -2.0181  1.1345
 4134TIP3    H233818   6.532   1.176   5.731  1.0447  0.3121 -2.3377
 4135TIP3   OH233819   1.020   3.925  11.305 -0.5188 -0.0615 -0.1573
 4135TIP3    H133820   1.023   3.850  11.244  0.1862 -1.0260  1.0233
 4135TIP3    H233821   1.100   3.974  11.287  0.6776 -1.4018  1.2373
 4136TIP3   OH233822   0.536   0.494   0.944 -0.4728  0.5211 -0.1778
 4136TIP3    H133823   0.598   0.551   0.897  1.2083 -0.5107  0.7166
 4136TIP3    H233824   0.552   0.513   1.036 -1.4378  0.1459  0.0727
 4137TIP3   OH233825   4.189   2.341   0.094  0.1594 -0.5558  0.1945
 4137TIP3    H133826   4.120   2.406   0.101 -0.1115 -0.7571 -0.5297
 4137TIP3    H233827   4.204   2.331   0.000  0.5487 -1.1687  0.3117
 4138TIP3   OH233828   3.670   1.094   2.600  0.5699  0.0113  0.3779
 4138TIP3    H133829   3.725   1.173   2.605  1.2695 -0.4081 -0.4303
 4138TIP3    H233830   3.723   1.031   2.551 -0.8097 -0.2698 -0.7944
 4139TIP3   OH233831   1.259   3.504   1.266 -0.1276 -0.0358 -0.3780
 4139TIP3    H133832   1.331   3.471   1.320  0.4173  0.7012 -0.6379
 4139TIP3    H233833   1.266   3.599   1.272 -1.8923  0.0817  0.6674
 4140TIP3   OH233834   0.397   2.908   6.107 -0.1036 -0.1789  0.8692
 4140TIP3    H133835   0.405   2.999   6.133 -0.4932  1.0500 -2.7380
 4140TIP3    H233836   0.466   2.863   6.156  0.9104  2.2578  1.8371
 4141TIP3   OH233837   3.162   5.823   4.845 -0.4739  0.2469 -0.3082
 4141TIP3    H133838   3.143   5.894   4.906 -0.2233 -1.0770  1.3713
 4141TIP3    H233839   3.230   5.859   4.787  0.2504  1.1164  1.0319
 4142TIP3   OH233840   6.714   3.433  12.157  0.1282  0.6961  0.1338
 4142TIP3    H133841   6.790   3.486  12.133  0.8530 -0.0536  0.7145
 4142TIP3    H233842   6.686   3.393  12.075  0.5412  0.7575 -0.0404
 4143TIP3   OH233843   0.932   2.265  15.780  0.4476  0.2206  0.3080
 4143TIP3    H133844   0.853   2.242  15.731 -0.6716  0.2794  2.0099
 4143TIP3    H233845   0.938   2.199  15.849  0.3423  1.7260  1.8379
 4144TIP3   OH233846   2.859   5.223  11.603  0.4611  0.3159  0.0921
 4144TIP3    H133847   2.780   5.172  11.585 -0.2627  1.0853  1.0038
 4144TIP3    H233848   2.930   5.159  11.602 -0.3336 -0.5858  0.4882
 4145TIP3   OH233849   3.408   5.798   3.446 -0.3207  0.2761 -0.0425
 4145TIP3    H133850   3.437   5.786   3.356  0.0743  0.6566  0.0303
 4145TIP3    H233851   3.313   5.787   3.443 -0.2901  0.1360 -0.4764
 4146TIP3   OH233852   3.761   1.551   3.746 -0.5447 -0.0752  0.0501
 4146TIP3    H133853   3.807   1.471   3.771  2.0596  1.1478 -0.4922
 4146TIP3    H233854   3.826   1.601   3.695 -2.2535  2.1309 -0.1023
 4147TIP3   OH233855   4.797   5.995  11.549 -0.1437 -0.6521  0.4974
 4147TIP3    H133856   4.816   5.919  11.603 -1.7789 -1.6949 -0.3335
 4147TIP3    H233857   4.737   5.963  11.481  0.6575  0.9325 -1.0527
 4148TIP3   OH233858   1.793   1.449   5.782 -0.5978  0.5215 -0.3868
 4148TIP3    H133859   1.860   1.510   5.814 -0.4447  0.0244  0.2669
 4148TIP3    H233860   1.833   1.363   5.793  0.2775  0.3371 -3.7607
 4149TIP3   OH233861   3.415   3.548   3.475  0.2195  0.0506 -0.2392
 4149TIP3    H133862   3.369   3.468   3.501  2.5111 -1.6320 -1.0196
 4149TIP3    H233863   3.405   3.551   3.380  2.0368 -0.6885 -0.5175
 4150TIP3   OH233864   4.954   4.614  11.935  0.3871  0.6657 -0.0974
 4150TIP3    H133865   4.889   4.567  11.987  2.1091 -2.9845 -0.8999
 4150TIP3    H233866   4.916   4.617  11.847  0.7834 -0.4345 -0.3182
 4151TIP3   OH233867   1.913   0.607   3.317 -0.5486 -0.3250 -0.1312
 4151TIP3    H133868   2.000   0.613   3.279  0.4383 -0.1544  2.0099
 4151TIP3    H233869   1.874   0.693   3.302  1.5549  1.3606  3.0331
 4152TIP3   OH233870   6.199   3.910  10.752  0.2910  0.2601  0.0103
 4152TIP3    H133871   6.285   3.923  10.792  0.1710  2.4864 -0.3003
 4152TIP3    H233872   6.176   3.996  10.717 -2.4491 -0.0191  0.8579
 4153TIP3   OH233873   1.413   6.747   1.216  0.6124 -0.3458  0.1713
 4153TIP3    H133874   1.345   6.717   1.155  2.0382 -1.3210 -1.0101
 4153TIP3    H233875   1.398   6.841   1.224 -0.8665 -0.5340 -0.0648
 4154TIP3   OH233876   5.611   2.964  13.399 -0.1166  0.4888 -0.2831
 4154TIP3    H133877   5.594   3.052  13.432 -1.6496 -0.0751  0.5264
 4154TIP3    H233878   5.526   2.920  13.402  0.8535 -1.4666  0.6618
 4155TIP3   OH233879   2.431   2.921   2.413 -0.3457  0.1512 -0.0274
 4155TIP3    H133880   2.395   2.843   2.456  0.0068  0.4827  0.8955
 4155TIP3    H233881   2.358   2.956   2.363 -1.0492  0.2614  1.0388
 4156TIP3   OH233882   4.115   1.954   9.873  0.0705 -0.5073  0.2547
 4156TIP3    H133883   4.047   2.021   9.870  0.4853 -0.1081 -0.3269
 4156TIP3    H233884   4.129   1.938   9.967 -1.3853 -1.1855  0.3872
 4157TIP3   OH233885   3.024   5.098   2.098  0.0667  0.3286 -0.0274
 4157TIP3    H133886   3.005   5.190   2.081 -2.5638  0.2473  1.8021
 4157TIP3    H233887   2.953   5.050   2.055  0.2770 -0.6689  0.6951
 4158TIP3   OH233888   4.159   3.629  14.422  0.2588  0.5198  0.0512
 4158TIP3    H133889   4.198   3.689  14.358  1.7058  0.1757  0.5864
 4158TIP3    H233890   4.226   3.564  14.438 -0.7984 -0.4875  0.5183
 4159TIP3   OH233891   6.791   4.934  10.270  0.3367 -0.4366 -0.0302
 4159TIP3    H133892   6.716   4.895  10.314  0.0967 -0.9524 -0.8568
 4159TIP3    H233893   6.866   4.909  10.323  0.0176 -0.7140  0.2967
 4160TIP3   OH233894   6.228   3.624   3.343  0.1629 -0.2972  0.4776
 4160TIP3    H133895   6.306   3.568   3.338  1.2881  1.3061 -1.6744
 4160TIP3    H233896   6.248   3.688   3.411 -0.9359 -2.0730  2.6120
 4161TIP3   OH233897   1.157   5.952   5.066 -0.3311 -0.2467  1.3707
 4161TIP3    H133898   1.218   6.008   5.114 -0.2186 -1.3571  2.5934
 4161TIP3    H233899   1.130   5.886   5.130 -1.3440 -0.9072  0.3058
 4162TIP3   OH233900   5.765   0.394  15.285  0.2941 -0.4893 -0.4387
 4162TIP3    H133901   5.745   0.342  15.362 -0.6842 -1.1169 -1.0947
 4162TIP3    H233902   5.852   0.431  15.302  1.0573 -2.4055  0.0277
 4163TIP3   OH233903   2.997   4.642  17.039 -0.0837  0.1485 -0.2311
 4163TIP3    H133904   3.081   4.602  17.063  1.5888  3.2072 -0.4859
 4163TIP3    H233905   3.004   4.658  16.945 -0.3442  1.6549 -0.0155
 4164TIP3   OH233906   2.141   5.103  12.345  0.0390 -0.0768 -0.1602
 4164TIP3    H133907   2.071   5.100  12.411 -1.3002 -0.3453 -1.5397
 4164TIP3    H233908   2.216   5.062  12.388 -1.2625 -1.7156  0.6838
 4165TIP3   OH233909   5.936   5.179   2.119  0.2021 -0.3915 -0.2188
 4165TIP3    H133910   5.986   5.167   2.039  2.4440 -0.2550  1.0626
 4165TIP3    H233911   5.974   5.257   2.160 -0.2087 -0.9978  1.4185
 4166TIP3   OH233912   6.223   4.508  12.657  0.2809  0.1931  0.2442
 4166TIP3    H133913   6.156   4.556  12.608  2.6839  1.3408 -2.1865
 4166TIP3    H233914   6.203   4.527  12.749 -3.2421 -0.3901 -0.2300
 4167TIP3   OH233915   1.924   5.752   0.064 -0.3909 -0.7393 -0.4845
 4167TIP3    H133916   1.950   5.661   0.077  1.8512 -0.5120 -2.5929
 4167TIP3    H233917   1.831   5.747   0.042 -0.0893 -2.6826 -1.5986
 4168TIP3   OH233918   4.978   2.073   0.933 -0.7252  0.6251  0.6291
 4168TIP3    H133919   5.019   2.159   0.922 -2.6305  1.3345 -1.8546
 4168TIP3    H233920   4.916   2.067   0.861 -0.0671 -3.2193  0.1759
 4169TIP3   OH233921   2.109   4.932   1.680 -0.2606  0.0350 -0.2282
 4169TIP3    H133922   2.033   4.877   1.703 -0.4036 -0.2630 -1.3495
 4169TIP3    H233923   2.089   4.965   1.593  0.3003  1.0581  0.0215
 4170TIP3   OH233924   1.153   2.049  11.472  0.0750  0.7520 -0.2800
 4170TIP3    H133925   1.117   1.972  11.517 -2.2535 -0.2854 -3.5015
 4170TIP3    H233926   1.196   2.013  11.394  0.8792  2.5939 -0.7443
 4171TIP3   OH233927   0.956   3.302  13.902 -0.0536  0.1853 -0.0131
 4171TIP3    H133928   0.894   3.271  13.836 -0.2433 -1.7639  1.0060
 4171TIP3    H233929   0.901   3.329  13.976  0.2477 -0.0409  0.2976
 4172TIP3   OH233930   6.527   4.537  12.789  0.1907 -1.1753 -0.4789
 4172TIP3    H133931   6.469   4.502  12.856  0.2605 -0.8839 -0.2644
 4172TIP3    H233932   6.473   4.539  12.710 -0.8239  1.1077  0.1773
 4173TIP3   OH233933   3.874   0.392   3.299  0.2939  0.4595  0.1776
 4173TIP3    H133934   3.894   0.307   3.260 -0.1921  1.3995 -2.3949
 4173TIP3    H233935   3.956   0.441   3.293 -0.3306  1.4174 -2.2052
 4174TIP3   OH233936   3.115   2.724  12.311  0.5777  0.3836 -0.0843
 4174TIP3    H133937   3.153   2.639  12.288 -0.9526 -0.7895  1.4057
 4174TIP3    H233938   3.173   2.788  12.271  2.0045 -1.3538 -0.9491
 4175TIP3   OH233939   6.360   3.127   2.157 -0.5027 -0.1828 -0.0687
 4175TIP3    H133940   6.391   3.115   2.247 -1.4237  0.7390  0.3958
 4175TIP3    H233941   6.410   3.064   2.106  0.4732 -0.3082  0.9938
 4176TIP3   OH233942   4.766   2.371   0.282  0.2717  0.0885 -0.7045
 4176TIP3    H133943   4.675   2.339   0.282 -0.0656  0.9651  1.1903
 4176TIP3    H233944   4.767   2.438   0.213 -0.9046  1.0486  0.1631
 4177TIP3   OH233945   2.829   5.665  15.003 -0.1062 -0.3198 -0.3580
 4177TIP3    H133946   2.745   5.658  14.957 -0.3247  0.5446 -0.0992
 4177TIP3    H233947   2.807   5.701  15.089  0.2009 -2.5657  0.7467
 4178TIP3   OH233948   3.012   5.287   1.858  0.0088 -0.6721 -0.1209
 4178TIP3    H133949   3.004   5.362   1.918  0.2959 -0.1915 -0.6655
 4178TIP3    H233950   2.922   5.263   1.837 -0.1165  0.7769 -1.4496
 4179TIP3   OH233951   3.657   3.597  11.665 -0.3493  0.2102 -0.4980
 4179TIP3    H133952   3.668   3.544  11.586 -1.8329  1.6366 -1.7507
 4179TIP3    H233953   3.566   3.582  11.691 -0.0150  0.1255  0.7007
 4180TIP3   OH233954   2.807   0.630   3.750 -0.0691  0.6938 -0.1091
 4180TIP3    H133955   2.846   0.651   3.835  2.2803  1.6490 -1.3208
 4180TIP3    H233956   2.865   0.564   3.712 -2.5943 -1.7963  0.0516
 4181TIP3   OH233957   1.011   6.510  15.564 -0.0036  0.4892  0.0890
 4181TIP3    H133958   1.041   6.589  15.519  1.7236  1.1018  2.1494
 4181TIP3    H233959   0.991   6.449  15.493  2.3036  1.4812 -1.5620
 4182TIP3   OH233960   5.752   0.944  16.165  0.2349 -0.3725 -0.0183
 4182TIP3    H133961   5.784   0.907  16.248 -1.1552  0.1360  0.7803
 4182TIP3    H233962   5.781   1.035  16.167 -2.8199  0.7079  1.6994
 4183TIP3   OH233963   4.353   1.011  11.159 -0.3014 -0.8967  0.1564
 4183TIP3    H133964   4.392   0.943  11.104  0.8902  0.7285 -1.1136
 4183TIP3    H233965   4.259   1.005  11.141 -0.0755 -1.3228 -0.9904
 4184TIP3   OH233966   3.498   5.052   3.933  0.4494  0.1537 -0.1467
 4184TIP3    H133967   3.593   5.042   3.925  0.3088 -0.2777 -1.4370
 4184TIP3    H233968   3.465   5.038   3.845 -0.9158 -0.7566  0.4744
 4185TIP3   OH233969   1.345   3.732  15.231  0.2759  0.3159 -0.5845
 4185TIP3    H133970   1.385   3.676  15.164  2.4281  1.5362 -0.4263
 4185TIP3    H233971   1.387   3.817  15.219  1.6439  0.3258  2.9589
 4186TIP3   OH233972   3.334   4.864  15.411 -0.3994 -0.2535 -0.9606
 4186TIP3    H133973   3.336   4.892  15.319  1.6064 -0.2135 -0.9453
 4186TIP3    H233974   3.387   4.929  15.456  1.0299 -1.8568 -0.2533
 4187TIP3   OH233975   5.612   4.708  13.896  0.4251  0.1098  0.4975
 4187TIP3    H133976   5.520   4.734  13.897  0.5882  0.8222 -0.7283
 4187TIP3    H233977   5.612   4.623  13.853  0.5439  1.1405 -1.6250
 4188TIP3   OH233978   1.393   3.759  14.918 -0.3444  0.1095  0.1705
 4188TIP3    H133979   1.306   3.778  14.882  0.5121 -0.6633 -2.4659
 4188TIP3    H233980   1.414   3.836  14.972 -1.6883  1.3564 -1.0116
 4189TIP3   OH233981   1.763   2.511  16.397  0.0073  0.6635 -0.6651
 4189TIP3    H133982   1.670   2.527  16.415 -0.5579 -0.3352 -2.4139
 4189TIP3    H233983   1.771   2.415  16.395  1.6292  0.6527  1.8477
 4190TIP3   OH233984   3.313   3.468   5.097 -0.4319  0.3814  0.3574
 4190TIP3    H133985   3.377   3.479   5.027 -0.8297  2.4048  0.2751
 4190TIP3    H233986   3.360   3.421   5.166  0.3605 -0.4146 -0.6954
 4191TIP3   OH233987   4.710   1.067   3.533 -0.2499 -0.1238  0.4414
 4191TIP3    H133988   4.697   0.979   3.499 -1.3103  0.4126 -0.6308
 4191TIP3    H233989   4.630   1.086   3.582  1.3611 -1.0021  3.7143
 4192TIP3   OH233990   6.208   0.145   4.592 -0.6054  0.2447  0.3218
 4192TIP3    H133991   6.192   0.051   4.593 -1.4767  0.3739  1.9885
 4192TIP3    H233992   6.274   0.158   4.524 -1.3193 -1.4155 -0.7472
 4193TIP3   OH233993   1.661   3.866   6.337  0.3789 -0.1726  0.0394
 4193TIP3    H133994   1.688   3.931   6.274  0.6166 -0.1063  0.2084
 4193TIP3    H233995   1.626   3.916   6.411  1.3377 -0.1976  0.5316
 4194TIP3   OH233996   4.707   0.759   3.967 -0.1373 -0.4588 -0.5006
 4194TIP3    H133997   4.627   0.744   4.018 -0.0010  1.1435  0.2447
 4194TIP3    H233998   4.778   0.736   4.026 -0.0191 -0.8553 -0.7933
 4195TIP3   OH233999   0.706   0.136   4.757  0.4209  0.1522  0.2239
 4195TIP3    H134000   0.701   0.129   4.852 -1.5433  0.8146  0.2327
 4195TIP3    H234001   0.691   0.047   4.726  1.4321 -0.1309  0.5304
 4196TIP3   OH234002   0.224   1.215  11.002  0.4618  0.0977  0.1850
 4196TIP3    H134003   0.186   1.284  10.947  1.5529  1.2862  0.8506
 4196TIP3    H234004   0.311   1.201  10.966 -0.0066 -1.5018 -0.3942
 4197TIP3   OH234005   1.823   1.211   1.605 -0.6803 -0.1305  0.7375
 4197TIP3    H134006   1.904   1.160   1.601 -0.7227 -0.1796  0.5189
 4197TIP3    H234007   1.756   1.154   1.568 -0.5212  0.4914 -0.5615
 4198TIP3   OH234008   2.443   0.819  14.225  0.2367 -0.2831  0.0074
 4198TIP3    H134009   2.538   0.808  14.213  0.1727  0.5150 -1.5542
 4198TIP3    H234010   2.420   0.756  14.293  1.9597 -0.1807  0.7470
 4199TIP3   OH234011   4.407   0.217  11.396  0.0911 -0.0700 -0.3493
 4199TIP3    H134012   4.455   0.299  11.411 -0.4065  0.0274  0.8294
 4199TIP3    H234013   4.432   0.161  11.471 -2.3518  0.3401  0.8634
 4200TIP3   OH234014   0.343   6.546  16.543 -0.7707  0.0659 -0.2498
 4200TIP3    H134015   0.393   6.628  16.543 -0.8078  0.0890 -0.5089
 4200TIP3    H234016   0.260   6.569  16.583 -1.3557  0.5106 -1.6716
 4201TIP3   OH234017   4.557   4.386  12.822 -0.3504  0.3342  0.4944
 4201TIP3    H134018   4.581   4.386  12.914 -0.7373 -1.3404  0.6292
 4201TIP3    H234019   4.471   4.428  12.819  0.0496  1.2103  0.7449
 4202TIP3   OH234020   5.612   1.379  14.581  0.3102  0.4432 -0.2628
 4202TIP3    H134021   5.542   1.386  14.517  0.1320 -0.0863 -0.1314
 4202TIP3    H234022   5.574   1.328  14.653  0.8567  0.0586 -0.2372
 4203TIP3   OH234023   4.296   2.411   2.498 -0.1046  0.2136  0.1091
 4203TIP3    H134024   4.298   2.373   2.586  2.7267 -0.4822 -0.1502
 4203TIP3    H234025   4.270   2.339   2.441  2.9406 -0.8756 -0.1020
 4204TIP3   OH234026   5.889   5.451   5.049  0.0160 -0.0109 -0.8074
 4204TIP3    H134027   5.878   5.464   5.143  0.3004  1.2736 -0.9371
 4204TIP3    H234028   5.984   5.448   5.035 -0.0046 -1.8243 -0.8759
 4205TIP3   OH234029   6.779   1.099  14.086  0.0661  0.1807 -0.1698
 4205TIP3    H134030   6.849   1.107  14.151  0.9709 -0.8604 -0.9884
 4205TIP3    H234031   6.721   1.032  14.121  1.6392 -1.8795 -1.3336
 4206TIP3   OH234032   3.515   4.486  12.557  0.0669 -0.8558  0.1746
 4206TIP3    H134033   3.531   4.567  12.606  0.1113 -0.4656 -0.4820
 4206TIP3    H234034   3.426   4.461  12.581  0.1875 -0.8264  0.6757
 4207TIP3   OH234035   6.090   3.128   5.169 -0.6555 -0.2759 -0.6564
 4207TIP3    H134036   6.053   3.133   5.257  0.1150 -1.3242 -0.2455
 4207TIP3    H234037   6.069   3.040   5.138 -0.5874 -0.0516 -1.3703
 4208TIP3   OH234038   1.805   2.205   1.422  0.2548  0.0508 -0.3020
 4208TIP3    H134039   1.759   2.267   1.366 -0.3303 -1.0302 -1.0530
 4208TIP3    H234040   1.737   2.167   1.477  0.7832  0.8872  0.9677
 4209TIP3   OH234041   1.126   3.492  14.535  0.0087 -0.7426 -0.6020
 4209TIP3    H134042   1.044   3.541  14.541  0.0041 -0.7709 -0.4361
 4209TIP3    H234043   1.132   3.444  14.617  1.2714  0.9416  0.3575
 4210TIP3   OH234044   2.730   2.882  17.010 -0.0239 -0.0509  0.5004
 4210TIP3    H134045   2.690   2.802  17.046  2.3975 -1.6578 -0.1134
 4210TIP3    H234046   2.769   2.854  16.927  0.6200  1.8742  0.1068
 4211TIP3   OH234047   6.308   4.995   3.717  0.2614 -0.7301 -1.0474
 4211TIP3    H134048   6.395   4.970   3.685  0.2223 -0.8397 -1.0679
 4211TIP3    H234049   6.318   4.999   3.812  0.7724  1.0760 -1.1516
 4212TIP3   OH234050   4.585   5.686   3.442 -0.4342 -0.5432  0.0197
 4212TIP3    H134051   4.530   5.706   3.367  0.6938  0.1929 -0.6353
 4212TIP3    H234052   4.605   5.592   3.433  0.1296 -0.3455 -0.9162
 4213TIP3   OH234053   5.214   2.855   3.980  0.0339  0.3144  0.0041
 4213TIP3    H134054   5.202   2.938   4.026  0.7735  0.2611  0.3013
 4213TIP3    H234055   5.227   2.790   4.049 -0.7205 -0.0873 -0.2206
 4214TIP3   OH234056   5.581   6.691   2.428  0.0334 -0.8616  0.1356
 4214TIP3    H134057   5.641   6.756   2.466 -0.0105 -1.4282  1.2186
 4214TIP3    H234058   5.494   6.722   2.452  0.0202 -1.4075  0.8273
 4215TIP3   OH234059   3.760   1.353   2.636  0.5054  0.7264 -0.1251
 4215TIP3    H134060   3.848   1.367   2.601  0.4370  0.1462 -0.5480
 4215TIP3    H234061   3.769   1.367   2.730  1.4099 -0.8825  0.0678
 4216TIP3   OH234062   1.044   4.208   2.763  0.4532 -0.2645 -0.3019
 4216TIP3    H134063   1.134   4.211   2.732  0.2855 -0.8219 -0.8609
 4216TIP3    H234064   1.026   4.115   2.777  0.3165 -0.0856  0.8790
 4217TIP3   OH234065   5.805   2.393  16.221 -0.3168  0.8505 -0.4880
 4217TIP3    H134066   5.801   2.466  16.283 -0.1817 -0.6370  1.3816
 4217TIP3    H234067   5.898   2.385  16.199  0.0261 -0.0946  1.0960
 4218TIP3   OH234068   5.019   2.311   1.047 -0.4054  0.1383  0.3945
 4218TIP3    H134069   4.996   2.293   1.138 -0.4934 -1.8777  0.0118
 4218TIP3    H234070   4.944   2.358   1.011  0.6977  3.4498  2.0064
 4219TIP3   OH234071   0.188   2.266  16.394  0.0103 -0.3415 -0.1729
 4219TIP3    H134072   0.277   2.302  16.384 -0.8080  2.0258  0.5196
 4219TIP3    H234073   0.190   2.222  16.479  0.3446  0.3616  0.2012
 4220TIP3   OH234074   5.432   1.632  13.114 -0.2327  0.6202  0.1912
 4220TIP3    H134075   5.507   1.680  13.079 -0.9407  0.0544 -2.2870
 4220TIP3    H234076   5.403   1.685  13.189  1.5514  1.7573  0.1383
 4221TIP3   OH234077   3.302   4.705  11.053 -0.4913  0.6267  0.5346
 4221TIP3    H134078   3.333   4.754  10.977 -0.2827 -0.9710 -0.4524
 4221TIP3    H234079   3.242   4.640  11.017 -1.3089  0.5937  1.8881
 4222TIP3   OH234080   4.578   3.332  12.964  0.5183 -0.9898 -0.2779
 4222TIP3    H134081   4.665   3.322  13.003  1.2701  1.1075 -1.2772
 4222TIP3    H234082   4.553   3.422  12.982 -1.7085 -1.6783  0.3991
 4223TIP3   OH234083   5.265   1.903   0.796  0.3078  0.2217 -0.3102
 4223TIP3    H134084   5.181   1.870   0.766 -0.5283 -0.0590  2.1415
 4223TIP3    H234085   5.248   1.993   0.823  0.6627  0.0121  0.6512
 4224TIP3   OH234086   4.661   5.211   3.202  0.2855 -0.7064  0.1146
 4224TIP3    H134087   4.752   5.223   3.228 -0.1438 -0.5935  1.6460
 4224TIP3    H234088   4.638   5.124   3.234 -0.2136 -0.6408 -0.0649
 4225TIP3   OH234089   3.794   5.388   4.216  0.1231  0.3609 -0.0908
 4225TIP3    H134090   3.818   5.469   4.262 -1.2147  0.1174  1.1215
 4225TIP3    H234091   3.723   5.414   4.157 -1.4842 -0.1734  1.5162
 4226TIP3   OH234092   1.834   4.166  13.535 -0.3330  0.1770 -0.2252
 4226TIP3    H134093   1.817   4.143  13.627 -0.8613  0.1130 -0.3380
 4226TIP3    H234094   1.766   4.230  13.513  1.1298  1.9112  0.0843
 4227TIP3   OH234095   0.747   3.908   0.387  0.8999  0.2043 -0.1335
 4227TIP3    H134096   0.794   3.980   0.429 -1.8473  1.5232  0.8832
 4227TIP3    H234097   0.815   3.858   0.341  3.2635  1.8639  1.3802
 4228TIP3   OH234098   5.328   3.818   2.502 -0.1595 -0.0182  0.2110
 4228TIP3    H134099   5.298   3.864   2.580 -1.2998  1.3999 -1.0250
 4228TIP3    H234100   5.420   3.798   2.521  0.2778  2.3868  0.9973
 4229TIP3   OH234101   2.755   0.026  13.352 -0.0229 -0.1998  0.6427
 4229TIP3    H134102   2.775   0.059  13.440  1.6755 -0.2632  0.3171
 4229TIP3    H234103   2.753   0.105  13.297  0.3453 -0.2794  0.5083
 4230TIP3   OH234104   1.261   2.485   4.591  0.5029 -0.3025  0.4530
 4230TIP3    H134105   1.223   2.401   4.565 -0.8050  0.2615  0.4562
 4230TIP3    H234106   1.282   2.529   4.509 -0.2879 -0.0015  0.3982
 4231TIP3   OH234107   5.298   4.998   2.274  0.1767 -0.0820 -0.4807
 4231TIP3    H134108   5.232   4.942   2.232 -1.3800  1.6955 -0.5277
 4231TIP3    H234109   5.314   4.955   2.358  0.2936 -1.4929 -1.1949
 4232TIP3   OH234110   2.884   5.284  15.655  0.1392  0.1236 -0.0249
 4232TIP3    H134111   2.894   5.343  15.581  1.6253  0.3460  0.3160
 4232TIP3    H234112   2.965   5.233  15.657 -0.9786 -1.7527 -0.1309
 4233TIP3   OH234113   3.521   5.184   2.711 -0.5401 -0.2558  0.1890
 4233TIP3    H134114   3.502   5.090   2.709  0.0064 -0.4005  1.0570
 4233TIP3    H234115   3.451   5.224   2.660 -0.1889 -1.2225 -1.0994
 4234TIP3   OH234116   3.476   1.307  11.662  0.1305 -0.1369  0.2453
 4234TIP3    H134117   3.422   1.341  11.733  0.2353 -1.3434  0.9414
 4234TIP3    H234118   3.558   1.282  11.705 -0.3016 -2.1664 -0.0011
 4235TIP3   OH234119   1.050   6.097  12.390  0.1222  0.0956 -0.2668
 4235TIP3    H134120   0.975   6.104  12.331  0.4103 -0.2503 -0.6757
 4235TIP3    H234121   1.035   6.165  12.456 -0.3808  0.2467 -0.5343
 4236TIP3   OH234122   0.801   2.140   5.561 -0.5075  0.3297 -0.2540
 4236TIP3    H134123   0.879   2.189   5.586  0.8408 -1.9461  0.2795
 4236TIP3    H234124   0.772   2.099   5.643 -1.1316 -0.4001 -0.8296
 4237TIP3   OH234125   0.354   5.059  16.176 -0.4221  0.2044  0.3250
 4237TIP3    H134126   0.382   4.981  16.224 -0.7382 -2.3114 -3.2183
 4237TIP3    H234127   0.435   5.100  16.147 -0.2498  1.3788  2.3148
 4238TIP3   OH234128   5.630   4.905   1.961  0.3101  0.1031 -0.2657
 4238TIP3    H134129   5.703   4.856   1.923  2.1023  0.2466  2.6817
 4238TIP3    H234130   5.637   4.992   1.923  1.9955  0.2303  0.2414
 4239TIP3   OH234131   6.271   6.783   6.456  0.1125  0.5938 -0.2222
 4239TIP3    H134132   6.337   6.713   6.461  0.0540  0.3801 -1.9393
 4239TIP3    H234133   6.322   6.864   6.457  0.3096  0.4710 -0.1971
 4240TIP3   OH234134   4.656   3.662  17.002 -0.6478 -0.2356 -0.2426
 4240TIP3    H134135   4.567   3.635  16.982 -0.4087 -1.7028  0.4613
 4240TIP3    H234136   4.648   3.751  17.035 -1.9754 -0.6524  0.6495
 4241TIP3   OH234137   2.331   0.384   5.670 -0.2566 -0.3620 -0.0304
 4241TIP3    H134138   2.286   0.434   5.602  1.2578  0.7830 -0.2275
 4241TIP3    H234139   2.423   0.408   5.661  0.0109 -0.2559  2.3326
 4242TIP3   OH234140   0.248   5.158   0.446  0.0164  0.3320  0.2441
 4242TIP3    H134141   0.172   5.180   0.392  0.4054  0.2499 -0.3527
 4242TIP3    H234142   0.218   5.169   0.536 -0.0949  2.4531  0.0163
 4243TIP3   OH234143   0.844   2.984  15.230 -0.5465 -0.6075  0.2193
 4243TIP3    H134144   0.757   3.018  15.251 -1.0436 -0.9635 -1.1502
 4243TIP3    H234145   0.844   2.976  15.135  0.6966 -1.4215  0.2645
 4244TIP3   OH234146   3.859   5.478  12.884  0.1652 -0.1782  0.4040
 4244TIP3    H134147   3.797   5.416  12.846  1.7204 -0.5266 -1.7601
 4244TIP3    H234148   3.884   5.535  12.811 -0.3139  2.2994  2.0531
 4245TIP3   OH234149   1.956   3.239   3.826 -0.0302 -0.1019  0.1642
 4245TIP3    H134150   1.946   3.211   3.917 -0.2983 -1.7804 -0.3423
 4245TIP3    H234151   1.902   3.318   3.819 -0.4583 -0.2767  1.3067
 4246TIP3   OH234152   4.782   4.758  11.419  0.1726 -0.0538  0.3812
 4246TIP3    H134153   4.769   4.737  11.511  2.1249 -1.3928  0.4052
 4246TIP3    H234154   4.815   4.677  11.380 -1.2435  0.2743 -1.6736
 4247TIP3   OH234155   1.311   5.488   2.624  0.2731  0.3529  0.4477
 4247TIP3    H134156   1.232   5.478   2.679  0.7637  0.0864  1.1241
 4247TIP3    H234157   1.286   5.450   2.540 -0.8937  1.8545  0.0680
 4248TIP3   OH234158   1.847   0.174  15.111 -0.0027 -0.0731 -0.1193
 4248TIP3    H134159   1.932   0.132  15.118 -0.5560 -1.0211  1.2195
 4248TIP3    H234160   1.784   0.108  15.142 -0.9927  1.3822  1.1327
 4249TIP3   OH234161   3.152   0.410   3.466 -0.4899 -0.3562  0.0772
 4249TIP3    H134162   3.232   0.462   3.472 -0.4110 -0.3718 -0.7078
 4249TIP3    H234163   3.182   0.323   3.439 -0.5145 -1.1384  2.4084
 4250TIP3   OH234164   1.714   1.692  14.858 -0.3796  0.5961  0.5766
 4250TIP3    H134165   1.781   1.626  14.872  0.3349  0.9236 -1.0689
 4250TIP3    H234166   1.733   1.760  14.923  2.1981  1.6283 -1.0801
 4251TIP3   OH234167   1.635   4.742   1.381 -0.0839 -0.6078 -0.0730
 4251TIP3    H134168   1.660   4.712   1.469 -0.3050  0.0360  0.2143
 4251TIP3    H234169   1.560   4.688   1.358 -1.4748  0.7405  1.0956
 4252TIP3   OH234170   3.912   1.383   0.382 -0.2152  0.6887  0.0545
 4252TIP3    H134171   3.979   1.314   0.378 -0.4367  0.4773 -0.0734
 4252TIP3    H234172   3.949   1.448   0.441  0.2200  0.7002 -0.2210
 4253TIP3   OH234173   0.177   5.249  15.887  0.1238  0.2420  0.3721
 4253TIP3    H134174   0.256   5.294  15.918 -0.7169  2.3104 -0.3557
 4253TIP3    H234175   0.106   5.284  15.941 -0.4848 -0.6907  0.2027
 4254TIP3   OH234176   1.113   0.323  14.247 -0.3669  0.6420 -0.5220
 4254TIP3    H134177   1.139   0.330  14.155 -1.7648  0.8308 -0.9263
 4254TIP3    H234178   1.083   0.411  14.270  0.3371  0.6958  0.2439
 4255TIP3   OH234179   1.494   4.808   2.666  0.0013  0.1464 -0.2466
 4255TIP3    H134180   1.585   4.826   2.642  0.6631  0.3896  2.1052
 4255TIP3    H234181   1.487   4.712   2.664  0.1117  0.1489 -1.0069
 4256TIP3   OH234182   1.759   4.537  11.436 -0.1957 -0.4438 -0.3022
 4256TIP3    H134183   1.743   4.501  11.349  0.6360 -1.5676 -0.0146
 4256TIP3    H234184   1.794   4.463  11.486 -1.1846  0.0311  1.1504
 4257TIP3   OH234185   4.736   3.939   5.143  0.2877  0.1495  0.5085
 4257TIP3    H134186   4.813   3.990   5.168 -0.4275  0.7894  1.4720
 4257TIP3    H234187   4.683   3.999   5.090 -0.0664  0.0646  0.7655
 4258TIP3   OH234188   3.719   5.691  15.145  0.4066 -0.6762 -0.3386
 4258TIP3    H134189   3.765   5.619  15.101  0.6887 -1.4308  1.1396
 4258TIP3    H234190   3.768   5.705  15.226 -0.5031  0.2094  0.0770
 4259TIP3   OH234191   0.143   3.345  13.905  0.0254  0.1516 -0.0023
 4259TIP3    H134192   0.219   3.329  13.849 -0.4088 -0.1365 -0.5285
 4259TIP3    H234193   0.073   3.295  13.863 -0.6232  0.9780  0.0734
 4260TIP3   OH234194   0.204   0.475   1.435  0.1040 -0.1093  0.7471
 4260TIP3    H134195   0.192   0.551   1.379  1.6412 -0.6603 -0.4154
 4260TIP3    H234196   0.228   0.512   1.520 -1.0461  0.7153  0.7417
 4261TIP3   OH234197   3.175   0.478   3.001  0.3249 -0.0449 -0.4093
 4261TIP3    H134198   3.121   0.533   2.944  0.8638  0.9170 -0.0037
 4261TIP3    H234199   3.229   0.539   3.051  0.3486 -0.8984  0.6613
 4262TIP3   OH234200   1.702   0.185  14.552 -0.2997 -0.1955  0.2917
 4262TIP3    H134201   1.719   0.092  14.537 -0.7503 -0.0503 -1.3278
 4262TIP3    H234202   1.714   0.197  14.646  1.0165 -1.6174  0.3425
 4263TIP3   OH234203   1.910   0.870   3.545 -0.1468  0.7583  0.1698
 4263TIP3    H134204   1.887   0.882   3.453  0.9570  1.5467 -0.0201
 4263TIP3    H234205   1.850   0.802   3.576 -0.4730  0.4186 -1.1499
 4264TIP3   OH234206   1.195   5.821  15.362 -0.0635  0.0179 -0.2337
 4264TIP3    H134207   1.181   5.739  15.315 -0.4449  0.1140 -0.2960
 4264TIP3    H234208   1.241   5.796  15.442 -2.2341 -0.5941  0.9102
 4265TIP3   OH234209   2.597   1.714  11.364 -0.0951  0.3903 -0.4022
 4265TIP3    H134210   2.648   1.782  11.319 -1.5979  0.4570 -2.1160
 4265TIP3    H234211   2.610   1.635  11.311 -0.5940  0.0440 -0.0183
 4266TIP3   OH234212   5.590   0.560  14.426 -0.4340 -0.7243 -0.3963
 4266TIP3    H134213   5.564   0.473  14.456 -4.5969  0.0448 -1.1820
 4266TIP3    H234214   5.663   0.543  14.365 -0.9252 -3.6083 -0.3178
 4267TIP3   OH234215   2.893   1.711   4.073 -0.2590  0.1220 -0.3664
 4267TIP3    H134216   2.837   1.704   3.995 -2.0110 -2.7261  0.9751
 4267TIP3    H234217   2.843   1.765   4.134 -0.9990 -1.3000  0.3337
 4268TIP3   OH234218   3.442   2.106   4.048 -0.2158  0.0783 -0.1836
 4268TIP3    H134219   3.361   2.158   4.043 -0.2058  0.5704  2.8460
 4268TIP3    H234220   3.502   2.160   4.098  1.3264 -1.1418 -0.6356
 4269TIP3   OH234221   5.296   2.882  11.851 -0.0093  0.1715  0.2019
 4269TIP3    H134222   5.279   2.788  11.843  1.2782  0.1011 -3.8238
 4269TIP3    H234223   5.380   2.886  11.897 -0.1001 -0.6377  0.4597
 4270TIP3   OH234224   5.671   3.639  11.962  0.0134 -0.1817  0.5080
 4270TIP3    H134225   5.712   3.631  11.875 -0.3824 -2.3608  0.4573
 4270TIP3    H234226   5.741   3.670  12.019  0.3864  0.9075 -0.4981
 4271TIP3   OH234227   3.704   5.598   4.576 -0.6169  0.8222  0.2588
 4271TIP3    H134228   3.768   5.527   4.565  0.8605  1.9762  0.9458
 4271TIP3    H234229   3.757   5.673   4.603 -2.4201  1.5240  2.0816
 4272TIP3   OH234230   3.931   1.810  12.109 -0.4519  0.1538 -0.1826
 4272TIP3    H134231   3.873   1.885  12.096 -2.0495 -0.7707  1.1334
 4272TIP3    H234232   3.973   1.828  12.194 -0.6418 -0.2983  0.0085
 4273TIP3   OH234233   0.102   2.548  13.690  0.4080  0.7345  0.4017
 4273TIP3    H134234   0.048   2.607  13.638 -0.3096  0.9437  1.3597
 4273TIP3    H234235   0.071   2.560  13.779  2.7510  1.6263  1.1526
 4274TIP3   OH234236   1.042   3.404  11.722  0.2577 -0.1627  0.0324
 4274TIP3    H134237   1.100   3.421  11.647 -0.9660  1.5203 -0.5911
 4274TIP3    H234238   0.992   3.485  11.731  0.0469 -0.5127  2.4006
 4275TIP3   OH234239   5.619   3.114   1.504  0.2525  0.0506 -0.6118
 4275TIP3    H134240   5.625   3.193   1.557  1.0753  0.2243 -0.9540
 4275TIP3    H234241   5.556   3.058   1.550  1.3696 -0.0505  0.8532
 4276TIP3   OH234242   2.720   4.059  16.462 -0.3545  0.4297  0.1556
 4276TIP3    H134243   2.750   4.147  16.441  0.1547  0.4880  1.0658
 4276TIP3    H234244   2.779   4.001  16.413 -2.4562  0.5655 -2.7584
 4277TIP3   OH234245   4.206   4.588  11.320  0.1351  0.2461  0.0045
 4277TIP3    H134246   4.251   4.509  11.289  0.1728 -0.3727  1.5892
 4277TIP3    H234247   4.187   4.637  11.239  2.0160 -0.3345 -0.8513
 4278TIP3   OH234248   2.843   0.627   4.495 -0.0746  0.0177  0.0747
 4278TIP3    H134249   2.899   0.657   4.423 -1.3630 -1.2729 -1.5762
 4278TIP3    H234250   2.782   0.700   4.509  1.7221  1.2920  1.6561
 4279TIP3   OH234251   1.171   3.484   3.421  0.2309  0.2911 -0.2066
 4279TIP3    H134252   1.246   3.443   3.465 -1.6302 -0.1971  2.7441
 4279TIP3    H234253   1.121   3.411   3.385 -0.5231  0.3114  0.7573
 4280TIP3   OH234254   4.300   4.397   2.636  0.3624 -0.5357  0.1434
 4280TIP3    H134255   4.280   4.343   2.713  0.7595  0.1235  0.7205
 4280TIP3    H234256   4.221   4.450   2.623  1.0598  0.8499  1.3864
 4281TIP3   OH234257   2.744   2.855   0.993  0.6708 -0.7394 -0.6743
 4281TIP3    H134258   2.804   2.793   0.954  0.4804 -0.4592 -1.4386
 4281TIP3    H234259   2.790   2.889   1.070  1.7576 -0.0834 -1.5737
 4282TIP3   OH234260   6.090   2.826  16.590  0.0935  0.4771 -0.4540
 4282TIP3    H134261   6.051   2.893  16.534 -0.0205 -0.6846 -1.8388
 4282TIP3    H234262   6.125   2.874  16.665 -0.3420  2.0188 -1.1982
 4283TIP3   OH234263   5.501   6.586  11.749 -0.1352  0.2422  0.0052
 4283TIP3    H134264   5.430   6.596  11.686 -0.9275 -0.3962  0.7752
 4283TIP3    H234265   5.471   6.518  11.809  1.3167 -0.3751  0.0900
 4284TIP3   OH234266   3.752   4.802   1.949 -0.1528 -0.1129  0.5653
 4284TIP3    H134267   3.723   4.875   1.895 -0.8305 -0.4566  0.4504
 4284TIP3    H234268   3.793   4.741   1.886  0.0336 -0.0221  0.5989
 4285TIP3   OH234269   0.439   6.176  16.537 -0.5105  0.5742  0.2057
 4285TIP3    H134270   0.388   6.257  16.547  0.1831  1.0077  0.3263
 4285TIP3    H234271   0.426   6.129  16.619 -1.5793  0.1648 -0.1830
 4286TIP3   OH234272   1.886   6.168  13.253 -0.1417 -0.0894  0.3958
 4286TIP3    H134273   1.932   6.162  13.337 -0.9527 -1.2126  0.7775
 4286TIP3    H234274   1.847   6.081  13.241  1.8588 -0.7287 -2.2663
 4287TIP3   OH234275   4.349   6.476   6.517  0.2076  0.4259  0.4872
 4287TIP3    H134276   4.378   6.478   6.426  0.1478 -0.6437  0.4244
 4287TIP3    H234277   4.257   6.500   6.514 -0.5018 -2.0528 -0.0906
 4288TIP3   OH234278   4.439   1.613   2.578 -0.2122  0.5889  0.2427
 4288TIP3    H134279   4.344   1.611   2.572 -0.1300  0.4561 -1.4639
 4288TIP3    H234280   4.459   1.567   2.660 -1.5555 -1.1239 -0.3420
 4289TIP3   OH234281   0.391   0.227   0.076  0.1897  0.7585  0.6776
 4289TIP3    H134282   0.320   0.196   0.132 -0.9858 -1.2373 -1.6597
 4289TIP3    H234283   0.458   0.158   0.082 -0.1628  0.2630 -0.6373
 4290TIP3   OH234284   4.263   0.810   0.923  0.2067  0.1551  0.1588
 4290TIP3    H134285   4.295   0.862   0.850 -1.6202  0.0600 -0.7817
 4290TIP3    H234286   4.279   0.719   0.898  2.5037  0.1648  1.3646
 4291TIP3   OH234287   0.816   0.743   2.725 -0.2201 -0.0336  0.4970
 4291TIP3    H134288   0.911   0.742   2.738 -0.0457  0.2547 -0.5928
 4291TIP3    H234289   0.805   0.727   2.631 -1.2393  0.1472  0.5728
 4292TIP3   OH234290   1.928   0.672   2.149 -0.1675  0.1600  0.0019
 4292TIP3    H134291   1.876   0.732   2.203 -0.6252  2.4228 -2.6972
 4292TIP3    H234292   1.865   0.605   2.121 -0.7132  0.7422 -0.1981
 4293TIP3   OH234293   3.725   0.690   5.778  0.4223  0.3129  0.1088
 4293TIP3    H134294   3.631   0.679   5.771  0.4141 -0.5897  1.2999
 4293TIP3    H234295   3.749   0.745   5.704 -0.9906  0.2880 -0.3839
 4294TIP3   OH234296   1.811   0.797  13.166  0.0967  0.5978 -0.0552
 4294TIP3    H134297   1.812   0.885  13.204 -1.8506  1.7139 -2.3591
 4294TIP3    H234298   1.901   0.766  13.176  0.0384  1.1220  4.3938
 4295TIP3   OH234299   5.555   5.537   5.815 -0.1701  0.1712  0.1495
 4295TIP3    H134300   5.482   5.517   5.874 -0.2519 -0.7242 -0.2441
 4295TIP3    H234301   5.516   5.591   5.747 -0.2346  0.5921  0.5168
 4296TIP3   OH234302   2.937   5.603  11.623  0.2373  0.2564  0.3388
 4296TIP3    H134303   3.015   5.570  11.578  0.4309  0.2809  0.6555
 4296TIP3    H234304   2.914   5.535  11.686 -0.5135 -0.1396 -0.3410
 4297TIP3   OH234305   0.913   5.242   6.333  0.5202 -0.0284 -0.0605
 4297TIP3    H134306   0.852   5.272   6.265  0.7488  0.5037 -0.0417
 4297TIP3    H234307   0.871   5.165   6.371  0.3275 -0.2521 -0.7140
 4298TIP3   OH234308   5.585   6.159  12.853  0.0185 -0.3932 -0.1037
 4298TIP3    H134309   5.492   6.141  12.846  0.1862 -1.2417 -0.2261
 4298TIP3    H234310   5.615   6.167  12.763  0.1482 -0.5883 -0.0794
 4299TIP3   OH234311   4.953   0.921  16.734 -0.1457 -0.1651  0.5994
 4299TIP3    H134312   4.887   0.860  16.768 -0.3601  0.5511  1.5028
 4299TIP3    H234313   4.950   0.908  16.639 -0.5337 -1.2033  0.7402
 4300TIP3   OH234314   2.411   3.145   1.435  0.3909  0.5074 -0.1405
 4300TIP3    H134315   2.469   3.219   1.420  2.0930 -0.5617  0.9047
 4300TIP3    H234316   2.400   3.141   1.530 -0.3043 -0.1287 -0.2312
 4301TIP3   OH234317   5.974   0.503   5.457  0.0749  0.3129 -0.5923
 4301TIP3    H134318   5.967   0.570   5.525  1.9833  0.8521 -0.8704
 4301TIP3    H234319   6.067   0.483   5.452 -0.4699 -2.9773  0.0216
 4302TIP3   OH234320   6.641   1.627  13.179  0.6738  0.0908  0.8008
 4302TIP3    H134321   6.633   1.705  13.124 -0.0319  0.9957  2.1131
 4302TIP3    H234322   6.712   1.648  13.240  0.1407 -0.0657  1.4903
 4303TIP3   OH234323   1.670   5.145  12.824 -1.1193  0.6758 -0.6805
 4303TIP3    H134324   1.667   5.081  12.895 -0.1222  1.1628 -0.1794
 4303TIP3    H234325   1.648   5.094  12.745 -2.1974  0.1229 -0.0496
 4304TIP3   OH234326   5.263   5.671   5.213 -0.0509 -0.3398 -0.2759
 4304TIP3    H134327   5.356   5.659   5.197  0.0718 -1.6554  1.1413
 4304TIP3    H234328   5.259   5.729   5.289 -0.3817 -0.2975 -0.3229
 4305TIP3   OH234329   4.416   5.399  12.856 -0.7358 -0.1755  0.5817
 4305TIP3    H134330   4.486   5.378  12.794 -0.2813  0.5771  0.8278
 4305TIP3    H234331   4.457   5.393  12.942 -0.5482  1.7377  0.6719
 4306TIP3   OH234332   6.086   2.417  14.859  1.0803  0.0309 -0.1821
 4306TIP3    H134333   6.045   2.478  14.798  0.8052 -1.7671 -1.8503
 4306TIP3    H234334   6.014   2.365  14.894  1.5293 -0.7592 -0.4133
 4307TIP3   OH234335   3.600   5.321  11.868  0.3861 -0.2507 -0.9141
 4307TIP3    H134336   3.633   5.397  11.917 -0.5550 -0.9573  0.9020
 4307TIP3    H234337   3.537   5.358  11.806 -0.0584  0.4589 -0.0554
 4308TIP3   OH234338   1.088   4.881  14.851  0.0916  0.2948 -0.1358
 4308TIP3    H134339   1.119   4.874  14.942  2.4322  0.3564 -0.8613
 4308TIP3    H234340   1.133   4.810  14.806 -1.0846  0.2392 -1.2780
 4309TIP3   OH234341   3.896   0.359   1.790 -0.1746  1.0156 -0.0721
 4309TIP3    H134342   3.815   0.316   1.816 -0.0965 -0.2550 -1.7781
 4309TIP3    H234343   3.869   0.421   1.722  0.5277 -1.8662 -3.2959
 4310TIP3   OH234344   5.220   5.672  15.246  0.5391 -0.2363  0.4483
 4310TIP3    H134345   5.161   5.666  15.321 -0.2247 -0.1126 -0.1299
 4310TIP3    H234346   5.301   5.709  15.282  0.1842 -0.1761  1.2061
 4311TIP3   OH234347   1.957   0.938  14.345 -0.1615 -0.0668  0.1336
 4311TIP3    H134348   1.962   1.029  14.317 -1.0214 -0.2835 -0.7770
 4311TIP3    H234349   2.024   0.930  14.414 -0.8327  1.5182  1.0094
 4312TIP3   OH234350   3.484   2.929   3.391 -0.6713 -0.1680 -0.1750
 4312TIP3    H134351   3.535   3.006   3.368 -0.3845 -0.3956 -0.3165
 4312TIP3    H234352   3.478   2.879   3.309 -0.3251 -0.5948  0.0509
 4313TIP3   OH234353   6.255   5.377   2.676  0.2543 -0.6581  0.4676
 4313TIP3    H134354   6.197   5.304   2.698 -0.3034 -0.0463  1.0708
 4313TIP3    H234355   6.283   5.358   2.586  0.2537 -1.6953  0.6690
 4314TIP3   OH234356   3.276   0.262  11.696 -0.3994 -0.0331 -0.2439
 4314TIP3    H134357   3.307   0.184  11.741 -1.3266  0.0432  0.5551
 4314TIP3    H234358   3.189   0.238  11.663 -0.5926  0.5762 -0.1981
 4315TIP3   OH234359   4.364   1.600   6.711  0.2695 -0.1198  0.1841
 4315TIP3    H134360   4.319   1.563   6.635 -0.2052 -0.8707  0.8202
 4315TIP3    H234361   4.299   1.657   6.751  0.3495 -0.1284  0.3259
 4316TIP3   OH234362   5.144   0.747   1.634 -0.4438  0.2300  0.4325
 4316TIP3    H134363   5.136   0.658   1.669 -1.7296  0.3567  0.5016
 4316TIP3    H234364   5.153   0.802   1.712  0.2281  0.1822  0.3947
 4317TIP3   OH234365   0.344   5.851   3.478  0.6394  0.1648  0.0710
 4317TIP3    H134366   0.300   5.886   3.556  0.5429 -1.1244  0.6282
 4317TIP3    H234367   0.276   5.800   3.433  1.4068 -1.5390  0.7413
 4318TIP3   OH234368   6.683   6.001   3.168  0.1219  0.0560  0.1965
 4318TIP3    H134369   6.639   5.918   3.190 -1.1945  1.0740  1.6116
 4318TIP3    H234370   6.708   5.991   3.076  0.1672 -1.9785  0.3819
 4319TIP3   OH234371   4.642   6.391   4.324  0.5389 -0.4197 -0.1002
 4319TIP3    H134372   4.725   6.370   4.280  0.9847  0.9555  0.0241
 4319TIP3    H234373   4.651   6.483   4.350 -0.1653 -0.8448  1.8640
 4320TIP3   OH234374   1.887   6.122  12.299  0.1949  0.0543  0.4243
 4320TIP3    H134375   1.815   6.123  12.236 -0.6969 -0.6161  1.3822
 4320TIP3    H234376   1.955   6.177  12.260 -0.8127  0.6532 -0.5356
 4321TIP3   OH234377   2.272   1.980   7.007  0.4034  0.0255  0.6796
 4321TIP3    H134378   2.266   2.075   6.998  1.3600  0.0139 -0.2502
 4321TIP3    H234379   2.235   1.946   6.926  0.6036 -0.3799  0.7568
 4322TIP3   OH234380   0.350   1.906  14.366  0.6730 -0.2192 -0.1596
 4322TIP3    H134381   0.281   1.940  14.308  1.8395  0.1569 -1.3651
 4322TIP3    H234382   0.392   1.836  14.316  1.5875 -0.0095  0.2949
 4323TIP3   OH234383   2.534   0.294  13.819  0.0324  0.1131  0.0457
 4323TIP3    H134384   2.570   0.363  13.876 -0.4846  0.5059 -0.0900
 4323TIP3    H234385   2.443   0.286  13.848 -0.0013 -0.2708 -0.1752
 4324TIP3   OH234386   2.758   3.579   1.869  0.4202 -0.2401 -0.3185
 4324TIP3    H134387   2.751   3.518   1.795 -1.4152 -1.1263  0.5427
 4324TIP3    H234388   2.682   3.561   1.923  2.0344 -0.0482  2.1663
 4325TIP3   OH234389   2.233   4.477  11.011  0.4832  0.0267  0.3379
 4325TIP3    H134390   2.285   4.443  10.939 -0.9086 -0.0474 -0.6708
 4325TIP3    H234391   2.285   4.548  11.047  0.9253  0.4935 -1.1648
 4326TIP3   OH234392   5.566   3.977  14.599 -0.3163 -0.5436  0.1412
 4326TIP3    H134393   5.508   4.040  14.641 -2.4842 -1.6959 -0.9198
 4326TIP3    H234394   5.601   4.023  14.523 -2.8342 -0.8518 -1.3257
 4327TIP3   OH234395   6.486   0.752   4.179  0.1560  0.2708 -0.6878
 4327TIP3    H134396   6.497   0.847   4.190  0.8265 -0.0602  2.6308
 4327TIP3    H234397   6.574   0.719   4.162 -0.0336  0.2009 -1.5544
 4328TIP3   OH234398   0.402   0.535  16.793 -0.2218  0.3868 -0.0280
 4328TIP3    H134399   0.461   0.476  16.839 -0.8211  0.2569  0.5900
 4328TIP3    H234400   0.430   0.623  16.819  0.7575  0.4099 -1.0566
 4329TIP3   OH234401   2.962   4.505   1.036 -0.7853  0.2865  0.6548
 4329TIP3    H134402   3.009   4.497   1.119  1.2494 -5.1436 -0.5608
 4329TIP3    H234403   2.870   4.513   1.061 -0.1282  0.3014  3.3782
 4330TIP3   OH234404   6.783   1.853   1.630 -0.8489  0.4538  0.8077
 4330TIP3    H134405   6.875   1.835   1.650 -1.0552 -1.7806  0.0587
 4330TIP3    H234406   6.755   1.917   1.696  0.9233  0.3055  1.7443
 4331TIP3   OH234407   4.338   4.487   6.163 -0.4007  0.5911 -0.3085
 4331TIP3    H134408   4.400   4.415   6.174 -0.9752  0.1319 -0.0340
 4331TIP3    H234409   4.333   4.528   6.249 -1.0066  0.1831 -0.1393
 4332TIP3   OH234410   0.855   4.838   2.504 -0.2176 -0.0287  0.0789
 4332TIP3    H134411   0.796   4.910   2.484 -0.7044 -0.0434  1.3356
 4332TIP3    H234412   0.810   4.790   2.574 -0.4701 -2.2407 -1.4839
 4333TIP3   OH234413   6.202   5.463  12.352 -0.4535  0.2930 -0.1288
 4333TIP3    H134414   6.220   5.550  12.317  0.8237 -0.1704 -0.6740
 4333TIP3    H234415   6.111   5.445  12.328 -0.0901  0.6327 -1.8513
 4334TIP3   OH234416   1.132   3.335   2.404 -0.4466 -0.6123  0.6519
 4334TIP3    H134417   1.056   3.368   2.453 -0.2362  0.2820  0.3961
 4334TIP3    H234418   1.112   3.357   2.313 -0.1250 -0.8707  0.5204
 4335TIP3   OH234419   3.328   2.124   0.101 -0.4115 -0.2375  0.1771
 4335TIP3    H134420   3.408   2.125   0.048 -1.0501 -1.0853 -0.8130
 4335TIP3    H234421   3.316   2.216   0.126  0.2254  0.0809 -0.6308
 4336TIP3   OH234422   3.140   5.252   5.338 -0.0554 -0.1412 -0.5004
 4336TIP3    H134423   3.144   5.264   5.243 -1.7170 -1.2576 -0.7509
 4336TIP3    H234424   3.126   5.340   5.373 -0.2248  0.1786 -1.3507
 4337TIP3   OH234425   4.834   4.803   0.467 -0.5188 -0.1706 -0.2061
 4337TIP3    H134426   4.753   4.818   0.417  0.6014 -1.0869 -2.4376
 4337TIP3    H234427   4.818   4.722   0.515 -1.1063 -0.0558 -0.1968
 4338TIP3   OH234428   2.772   6.491  17.096 -0.3139 -0.0447  0.3189
 4338TIP3    H134429   2.782   6.396  17.099  1.6218  0.0789 -0.8558
 4338TIP3    H234430   2.770   6.512  17.003 -3.9519  0.8551  0.4472
 4339TIP3   OH234431   6.699   0.821  13.901  0.4222 -0.3259  0.7676
 4339TIP3    H134432   6.705   0.911  13.869  0.0879 -0.6345 -0.2006
 4339TIP3    H234433   6.763   0.772  13.849 -0.7256 -1.0010 -0.0592
 4340TIP3   OH234434   5.882   4.882   2.436 -0.2912  0.5334  0.6340
 4340TIP3    H134435   5.877   4.952   2.370  0.4269 -1.4005 -1.6105
 4340TIP3    H234436   5.791   4.863   2.457 -0.5662  0.6947 -0.3588
 4341TIP3   OH234437   4.015   1.556  15.745 -0.6981  0.3698  0.2824
 4341TIP3    H134438   3.973   1.586  15.826 -0.9161  0.6612  0.0591
 4341TIP3    H234439   3.980   1.612  15.677  0.4185  0.9392  0.1603
 4342TIP3   OH234440   3.940   0.098  13.249 -0.4640  0.0707  0.1889
 4342TIP3    H134441   3.987   0.127  13.171  1.5365 -0.2066  1.2162
 4342TIP3    H234442   3.879   0.169  13.268  1.2550  1.6417  0.1494
 4343TIP3   OH234443   3.475   6.094  15.288 -0.0417 -0.1953 -0.3200
 4343TIP3    H134444   3.464   6.158  15.357 -0.4523  0.1197 -0.6721
 4343TIP3    H234445   3.387   6.078  15.256 -0.1482 -2.0244  0.7248
 4344TIP3   OH234446   4.747   0.992  13.625 -0.3093  0.2294 -0.0721
 4344TIP3    H134447   4.768   1.002  13.718 -0.3526 -0.1012 -0.0273
 4344TIP3    H234448   4.731   0.899  13.614 -1.2955  0.4091 -0.2095
 4345TIP3   OH234449   2.154   4.240  13.366 -0.3168 -0.5636 -0.2350
 4345TIP3    H134450   2.104   4.168  13.403 -0.0318  0.4022  2.2189
 4345TIP3    H234451   2.103   4.318  13.388  1.8992  0.4039  1.8691
 4346TIP3   OH234452   5.607   3.647  15.719  0.5785 -0.3443  0.5930
 4346TIP3    H134453   5.549   3.574  15.743  1.6320 -1.3744  0.0695
 4346TIP3    H234454   5.688   3.631  15.767  0.6841  0.7166  0.7924
 4347TIP3   OH234455   2.484   6.666  14.235  0.5548 -0.5784  0.4312
 4347TIP3    H134456   2.439   6.631  14.312  0.5929 -1.2338  0.1612
 4347TIP3    H234457   2.576   6.672  14.261  0.7300 -1.7471  0.1150
 4348TIP3   OH234458   2.090   4.165  16.832  0.0644 -0.5855 -0.3269
 4348TIP3    H134459   2.086   4.261  16.828 -0.7882 -0.6347 -1.0301
 4348TIP3    H234460   2.145   4.146  16.908  0.2733  0.4596 -0.2036
 4349TIP3   OH234461   4.657   5.262   1.202 -0.2873  0.0803 -0.4795
 4349TIP3    H134462   4.660   5.190   1.139  1.1402 -0.1786 -0.1641
 4349TIP3    H234463   4.564   5.271   1.224 -0.6708 -0.6102 -1.7029
 4350TIP3   OH234464   0.182   1.537  15.715 -0.1630 -0.4450  0.3143
 4350TIP3    H134465   0.120   1.578  15.775  0.8858  2.0395 -0.1527
 4350TIP3    H234466   0.128   1.486  15.655 -1.7587  1.4923  0.0157
 4351TIP3   OH234467   6.289   4.022  14.868  0.0319 -0.1935  0.0117
 4351TIP3    H134468   6.269   4.062  14.783  4.0034  0.8156 -0.6224
 4351TIP3    H234469   6.276   4.093  14.931  0.0533 -0.0252 -0.1714
 4352TIP3   OH234470   6.045   5.571  14.736 -0.3527  0.2878  0.4005
 4352TIP3    H134471   6.080   5.528  14.814  2.2174  1.7891  0.2131
 4352TIP3    H234472   5.982   5.635  14.770  0.3892  0.5957  1.2210
 4353TIP3   OH234473   0.956   4.828  11.696 -0.0028  0.3964 -0.2989
 4353TIP3    H134474   1.020   4.887  11.655 -1.2305  2.7229  0.9134
 4353TIP3    H234475   0.931   4.768  11.626  2.3243  0.4144 -1.2205
 4354TIP3   OH234476   2.582   6.292   4.219  0.1200  0.0987 -0.1589
 4354TIP3    H134477   2.677   6.295   4.221  0.1605  3.3675  2.3254
 4354TIP3    H234478   2.556   6.380   4.194 -2.4098 -1.4197 -3.6126
 4355TIP3   OH234479   4.103   3.813  10.527  0.0988  0.0207  0.2788
 4355TIP3    H134480   4.103   3.909  10.533  0.8469  0.2647 -2.2808
 4355TIP3    H234481   4.195   3.789  10.537  0.1008 -0.2808 -0.4231
 4356TIP3   OH234482   3.989   6.063   0.425 -0.0129 -0.3148  0.2879
 4356TIP3    H134483   4.000   6.115   0.505 -2.7941 -0.0109  0.5688
 4356TIP3    H234484   3.952   5.981   0.454 -1.4243 -0.0535 -0.6923
 4357TIP3   OH234485   0.930   2.559  11.946  0.0642  0.3377  0.4519
 4357TIP3    H134486   0.898   2.513  11.868 -0.5112  0.2376  0.7480
 4357TIP3    H234487   0.855   2.609  11.978  0.4524  0.8159  0.6250
 4358TIP3   OH234488   1.804   0.470  14.580 -0.2151 -0.3896  0.1497
 4358TIP3    H134489   1.748   0.394  14.562  0.3405 -1.2363  1.7356
 4358TIP3    H234490   1.747   0.545  14.567 -0.6224 -1.0184 -2.0482
 4359TIP3   OH234491   0.325   5.547  12.072 -0.2076  0.3060 -0.0400
 4359TIP3    H134492   0.231   5.561  12.056 -0.7052 -1.7556  0.7044
 4359TIP3    H234493   0.337   5.573  12.163 -0.3256 -0.4491  0.2019
 4360TIP3   OH234494   2.548   3.618  11.718 -0.6451  0.1629 -0.3356
 4360TIP3    H134495   2.520   3.708  11.699 -0.1541  0.1647 -1.1218
 4360TIP3    H234496   2.619   3.602  11.655  0.2772 -0.2679  0.7817
 4361TIP3   OH234497   0.902   0.765   6.550  0.1357  0.6803  0.8126
 4361TIP3    H134498   0.993   0.785   6.526 -0.4155  0.3233 -1.9503
 4361TIP3    H234499   0.860   0.850   6.559 -0.1121  0.9572 -1.9696
 4362TIP3   OH234500   5.639   0.697   1.821  0.5257 -0.1443 -0.2489
 4362TIP3    H134501   5.679   0.683   1.907  1.9354 -0.5331 -0.9262
 4362TIP3    H234502   5.584   0.774   1.833  1.0372  0.0702  0.9022
 4363TIP3   OH234503   0.206   2.544   5.578  0.0195 -0.0448  0.0313
 4363TIP3    H134504   0.148   2.614   5.607 -0.2738 -0.1279 -0.3506
 4363TIP3    H234505   0.175   2.521   5.490  0.7442  0.0414 -0.2608
 4364TIP3   OH234506   4.972   0.360   2.443  0.4157  0.0977 -0.0767
 4364TIP3    H134507   4.981   0.356   2.348 -0.9917  1.0440 -0.2683
 4364TIP3    H234508   5.024   0.436   2.469  3.7451 -2.1111  0.3862
 4365TIP3   OH234509   5.226   5.334  15.250  0.0932 -0.2883 -0.1123
 4365TIP3    H134510   5.149   5.289  15.217  0.1585 -0.3609 -0.1671
 4365TIP3    H234511   5.206   5.427  15.241 -0.4862 -0.2882  1.0283
 4366TIP3   OH234512   4.894   1.709  11.064 -0.0346  0.0095 -0.2728
 4366TIP3    H134513   4.978   1.676  11.095 -0.6170  1.2910  3.2051
 4366TIP3    H234514   4.832   1.682  11.132 -1.7555  2.1779 -0.8787
 4367TIP3   OH234515   3.103   3.426  13.470  0.3993 -0.1149 -0.2711
 4367TIP3    H134516   3.045   3.491  13.430 -0.3685 -0.6430 -0.0579
 4367TIP3    H234517   3.105   3.354  13.407  0.2347 -0.3992  0.0428
 4368TIP3   OH234518   0.500   0.529   6.195  0.1286  0.4020  0.6062
 4368TIP3    H134519   0.440   0.558   6.264 -0.8726 -1.6921  0.6883
 4368TIP3    H234520   0.539   0.449   6.229 -1.6762 -1.6854 -1.8177
 4369TIP3   OH234521   4.946   4.721  14.959 -0.5700 -0.0398 -0.1671
 4369TIP3    H134522   4.905   4.678  14.884 -0.4510 -0.2013 -0.1404
 4369TIP3    H234523   4.981   4.803  14.923 -0.5660 -0.0882 -0.2749
 4370TIP3   OH234524   5.556   3.868   1.764 -0.1463  0.0942 -0.1576
 4370TIP3    H134525   5.567   3.775   1.779  0.5318  0.0464 -0.8808
 4370TIP3    H234526   5.533   3.875   1.671 -1.7609  0.5403  0.2351
 4371TIP3   OH234527   4.771   1.262  12.372 -0.2812 -0.5718  0.2797
 4371TIP3    H134528   4.693   1.304  12.409 -3.0643 -3.0445 -2.1731
 4371TIP3    H234529   4.820   1.333  12.332 -2.8205  0.8584 -0.5368
 4372TIP3   OH234530   1.417   0.490   5.379  0.0158 -0.3612 -0.1286
 4372TIP3    H134531   1.364   0.556   5.424  1.5611  1.8258 -1.3291
 4372TIP3    H234532   1.503   0.497   5.421  0.5385 -0.7147 -1.1132
 4373TIP3   OH234533   6.778   1.217   4.705 -0.0896 -0.2203  0.1960
 4373TIP3    H134534   6.848   1.157   4.678 -0.1716 -1.2743  2.1219
 4373TIP3    H234535   6.814   1.304   4.691  1.3609 -0.7406  0.4772
 4374TIP3   OH234536   1.643   6.043   6.640  0.1411  0.0641  0.2409
 4374TIP3    H134537   1.675   6.090   6.716  0.2467 -0.9782  0.8623
 4374TIP3    H234538   1.553   6.071   6.629  0.2521  0.5184  0.5027
 4375TIP3   OH234539   6.769   0.435  13.982 -0.0423  0.3220  0.1504
 4375TIP3    H134540   6.799   0.484  14.058  0.7722 -0.0199  0.0553
 4375TIP3    H234541   6.674   0.430  13.993  0.1403 -0.5145  1.6197
 4376TIP3   OH234542   4.505   6.108  17.114  0.1771  0.5788  0.0402
 4376TIP3    H134543   4.440   6.083  17.048 -1.2973 -1.8211  2.2010
 4376TIP3    H234544   4.466   6.183  17.158 -0.6235 -0.1038  0.5317
 4377TIP3   OH234545   5.018   4.838   3.221  0.1822  0.3192  0.2137
 4377TIP3    H134546   5.077   4.876   3.156  0.5654  0.6102  0.7276
 4377TIP3    H234547   5.073   4.823   3.298 -0.2231 -0.2108  0.4014
 4378TIP3   OH234548   4.329   6.294   0.025 -0.3986 -0.3246  0.1128
 4378TIP3    H134549   4.263   6.300  -0.044 -0.3089 -3.0126 -0.3064
 4378TIP3    H234550   4.278   6.279   0.105 -0.3494 -1.7702 -0.1122
 4379TIP3   OH234551   1.458   0.400  12.789  0.5868 -0.7232 -0.6979
 4379TIP3    H134552   1.537   0.347  12.784  1.9805  1.2864 -1.4041
 4379TIP3    H234553   1.486   0.487  12.760 -1.8209  0.1378 -0.6627
 4380TIP3   OH234554   1.457   5.938  11.905  0.5319  0.2945 -0.1973
 4380TIP3    H134555   1.403   6.005  11.863 -2.8762 -2.1042  0.0207
 4380TIP3    H234556   1.452   5.957  11.999  1.6544  1.0785 -0.2656
 4381TIP3   OH234557   4.261   6.542   3.031  0.3996  0.3820 -0.6763
 4381TIP3    H134558   4.339   6.594   3.051  0.5794 -0.0197 -0.3128
 4381TIP3    H234559   4.289   6.452   3.043 -0.2945  0.2557  0.0561
 4382TIP3   OH234560   0.264   3.452   5.134  0.0130  0.3651  0.5290
 4382TIP3    H134561   0.326   3.390   5.171  0.7107  0.3331 -0.6431
 4382TIP3    H234562   0.306   3.483   5.054 -0.4584  2.0980  0.9068
 4383TIP3   OH234563   3.731   6.177   4.772  0.0484  0.2180  0.0116
 4383TIP3    H134564   3.745   6.085   4.792 -1.3074 -0.3757 -1.5077
 4383TIP3    H234565   3.809   6.222   4.805  1.6637 -1.7353 -0.9366
 4384TIP3   OH234566   6.606   2.294   3.054 -0.4763 -0.0242  0.2886
 4384TIP3    H134567   6.634   2.322   2.967 -0.3366 -2.2769 -0.4579
 4384TIP3    H234568   6.686   2.259   3.094 -0.9267 -0.6986  0.6075
 4385TIP3   OH234569   4.773   2.042   0.734 -0.8688 -0.4205  0.9124
 4385TIP3    H134570   4.686   2.002   0.731 -1.3398  0.6203 -0.1561
 4385TIP3    H234571   4.810   2.023   0.648 -0.2107 -0.4721  1.2051
 4386TIP3   OH234572   3.746   5.875   3.474  0.1432  0.1447 -0.4370
 4386TIP3    H134573   3.814   5.929   3.514  0.9974  0.0385 -1.6673
 4386TIP3    H234574   3.793   5.817   3.414 -0.8948 -0.9996 -0.1947
 4387TIP3   OH234575   5.089   3.879   5.715 -0.0078  0.0223 -0.4172
 4387TIP3    H134576   5.157   3.942   5.692  0.3989 -0.7738 -1.4657
 4387TIP3    H234577   5.133   3.795   5.713 -0.6057 -0.3390  0.7315
 4388TIP3   OH234578   6.030   2.909  15.223 -0.4577  0.6339 -0.0836
 4388TIP3    H134579   6.040   2.835  15.284 -1.9666  0.1198 -0.4129
 4388TIP3    H234580   6.101   2.969  15.246  0.5961 -0.7524  0.4340
 4389TIP3   OH234581   0.155   0.069  14.332 -0.0339  0.1103 -0.1271
 4389TIP3    H134582   0.170  -0.024  14.346 -0.5228  0.1637  0.8443
 4389TIP3    H234583   0.209   0.113  14.398 -0.2674  0.4834 -0.1739
 4390TIP3   OH234584   4.756   0.504  15.493 -0.6135  0.0109  0.6394
 4390TIP3    H134585   4.698   0.429  15.504 -0.1730 -0.3923  0.2776
 4390TIP3    H234586   4.843   0.471  15.518 -0.1328 -0.0721 -0.9858
 4391TIP3   OH234587   1.924   6.080   3.302  0.0408 -0.3028 -0.0346
 4391TIP3    H134588   1.908   6.174   3.295 -2.1597 -0.5866  0.4477
 4391TIP3    H234589   1.871   6.042   3.232 -0.3698 -1.2896  0.7968
 4392TIP3   OH234590   1.385   3.034  15.342 -0.4947 -0.3277  0.5468
 4392TIP3    H134591   1.446   2.963  15.364  0.3572  0.7391  1.7513
 4392TIP3    H234592   1.334   3.048  15.422 -0.9376  0.1491  0.1891
 4393TIP3   OH234593   4.911   4.951  14.795 -0.0167 -0.0340 -0.1145
 4393TIP3    H134594   4.963   5.018  14.750  0.5820 -0.5073 -0.1439
 4393TIP3    H234595   4.844   4.926  14.731 -2.2912  2.7502  0.9594
 4394TIP3   OH234596   3.966   0.244  15.889  0.5148  0.6159  0.2418
 4394TIP3    H134597   3.908   0.189  15.836 -0.6552  2.6785 -0.7414
 4394TIP3    H234598   4.033   0.276  15.827  1.2116  0.2740  0.8061
 4395TIP3   OH234599   1.988   0.518   4.385 -0.0743  0.4015 -0.4133
 4395TIP3    H134600   2.065   0.470   4.416  0.0409  0.4607 -0.6068
 4395TIP3    H234601   1.921   0.502   4.452  0.9286  2.6268  1.2416
 4396TIP3   OH234602   5.161   3.725  17.052  0.0865  0.7110 -0.2533
 4396TIP3    H134603   5.175   3.650  16.995  0.1995  2.2455 -2.3494
 4396TIP3    H234604   5.238   3.727  17.108  0.9759  0.3145 -1.4237
 4397TIP3   OH234605   0.764   3.547   0.511 -0.2483  0.3149 -0.5801
 4397TIP3    H134606   0.798   3.635   0.496  0.6789 -0.1720 -1.4364
 4397TIP3    H234607   0.777   3.502   0.428 -0.9844 -0.5483 -0.2379
 4398TIP3   OH234608   3.507   5.621  15.367 -0.0371 -0.7441 -0.0677
 4398TIP3    H134609   3.550   5.675  15.434 -0.9696  1.5439 -1.1870
 4398TIP3    H234610   3.563   5.630  15.290 -0.0268 -1.7202 -0.1843
 4399TIP3   OH234611   3.473   2.276  13.083  0.1981 -0.7328 -0.3792
 4399TIP3    H134612   3.411   2.311  13.147 -0.2431 -2.2047  0.0294
 4399TIP3    H234613   3.423   2.270  13.002 -0.3384 -2.2235  0.0271
 4400TIP3   OH234614   5.134   0.707   0.217 -0.6141  0.6910 -0.2129
 4400TIP3    H134615   5.177   0.648   0.279 -0.5376 -0.7127 -1.5453
 4400TIP3    H234616   5.202   0.768   0.190 -0.0938 -0.0007 -0.4873
 4401TIP3   OH234617   4.452   0.020  15.650  0.5447 -0.2531 -0.1070
 4401TIP3    H134618   4.444   0.009  15.745  0.0936  0.3373 -0.0752
 4401TIP3    H234619   4.397  -0.049  15.613 -2.1449  1.6450  0.0951
 4402TIP3   OH234620   5.841   3.226   3.399 -0.1882 -0.0822  0.5007
 4402TIP3    H134621   5.794   3.245   3.481 -0.1411 -0.1391  0.5407
 4402TIP3    H234622   5.851   3.312   3.357 -0.9295 -0.1449  0.1637
 4403TIP3   OH234623   6.280   5.961   2.799 -0.0172  0.0148 -0.3575
 4403TIP3    H134624   6.283   5.905   2.877 -1.7358 -1.6253 -1.3805
 4403TIP3    H234625   6.197   5.938   2.756  0.2659  1.7966 -2.0081
 4404TIP3   OH234626   1.544   3.590  13.616  0.0937 -0.1309  0.0124
 4404TIP3    H134627   1.457   3.580  13.578  0.4468 -1.3082 -0.5292
 4404TIP3    H234628   1.601   3.608  13.541  0.5020 -0.5962  0.2084
 4405TIP3   OH234629   3.537   1.112  15.928  0.0562 -0.2189 -0.1478
 4405TIP3    H134630   3.552   1.024  15.962  0.9227  0.4144  1.1606
 4405TIP3    H234631   3.487   1.156  15.997  0.3367  0.5631 -0.4321
 4406TIP3   OH234632   1.427   2.351  14.075  0.6816  0.3609  0.4646
 4406TIP3    H134633   1.349   2.393  14.113 -0.8103 -0.9087 -1.0033
 4406TIP3    H234634   1.487   2.423  14.057 -1.2517  1.7843 -0.7680
 4407TIP3   OH234635   0.119   1.028   3.431 -0.0437 -0.2414 -0.4088
 4407TIP3    H134636   0.064   1.083   3.485 -0.9451  1.5521 -2.9653
 4407TIP3    H234637   0.098   0.938   3.458 -1.8963  0.5055  0.7873
 4408TIP3   OH234638   4.619   4.519   0.058 -0.2936 -0.4363  0.2041
 4408TIP3    H134639   4.634   4.505  -0.036  0.9797  0.8113  0.1867
 4408TIP3    H234640   4.696   4.569   0.087 -2.1535  2.0322  1.2370
 4409TIP3   OH234641   0.141   1.853   4.822 -0.0382  0.1911 -0.1674
 4409TIP3    H134642   0.098   1.769   4.837  0.5017  0.0750  0.8138
 4409TIP3    H234643   0.069   1.916   4.818 -0.3691 -0.1466  0.3539
 4410TIP3   OH234644   5.865   2.828   3.639  0.4384 -0.0982  0.1313
 4410TIP3    H134645   5.783   2.780   3.635  1.4254 -1.9843  1.3076
 4410TIP3    H234646   5.927   2.774   3.590  0.9629  1.4038 -0.9266
 4411TIP3   OH234647   2.872   1.143   5.013 -0.1125 -0.0771  0.3650
 4411TIP3    H134648   2.826   1.131   5.096 -0.2060 -0.3353  0.2768
 4411TIP3    H234649   2.809   1.188   4.957 -0.4695 -0.9236  0.0623
 4412TIP3   OH234650   6.544   1.746   3.386  0.4799 -0.1022 -0.6651
 4412TIP3    H134651   6.510   1.720   3.471  2.3576 -0.6417 -0.0377
 4412TIP3    H234652   6.500   1.829   3.367  0.2519  0.1869  0.9670
 4413TIP3   OH234653   2.612   2.860   2.625  0.4053 -0.4004  0.1330
 4413TIP3    H134654   2.517   2.848   2.612  0.4274  0.2460 -0.6915
 4413TIP3    H234655   2.652   2.815   2.550  0.8536 -2.1240  1.3380
 4414TIP3   OH234656   1.975   3.088   1.713  0.0256 -0.0417 -0.1842
 4414TIP3    H134657   1.909   3.033   1.756  0.1737  0.4168  0.6365
 4414TIP3    H234658   1.941   3.177   1.720  1.4154  0.3882  1.5819
 4415TIP3   OH234659   3.678   0.453   0.066 -0.4413  0.6112  0.2945
 4415TIP3    H134660   3.596   0.454   0.017 -0.5237  1.4876  0.4195
 4415TIP3    H234661   3.746   0.469  -0.000 -0.4078  0.2469  0.2424
 4416TIP3   OH234662   2.955   4.597  14.083  0.5928 -0.1298  0.3524
 4416TIP3    H134663   2.943   4.659  14.155  0.4650 -0.0775  0.2867
 4416TIP3    H234664   3.043   4.560  14.097  0.6848  0.0963  0.3665
 4417TIP3   OH234665   2.342   0.205  16.503 -0.0884 -0.4504  0.7093
 4417TIP3    H134666   2.255   0.202  16.543 -0.3069  4.2393  1.1771
 4417TIP3    H234667   2.333   0.156  16.421 -2.7477 -1.2402  1.3900
 4418TIP3   OH234668   5.482   2.011   1.690  0.5743  0.0665 -0.3707
 4418TIP3    H134669   5.570   2.044   1.669  0.1685  0.6937 -1.1331
 4418TIP3    H234670   5.483   1.921   1.658  0.3073  0.6836 -2.2817
 4419TIP3   OH234671   2.694   6.728   3.289  0.0043 -0.8084 -0.3098
 4419TIP3    H134672   2.758   6.761   3.226  1.3275 -2.3712  0.1666
 4419TIP3    H234673   2.632   6.678   3.235 -0.8823  0.6937 -0.7669
 4420TIP3   OH234674   1.327   0.881  15.190 -0.5776 -0.4930 -0.5972
 4420TIP3    H134675   1.312   0.886  15.095 -0.8022 -0.3104 -0.5530
 4420TIP3    H234676   1.255   0.827  15.222  0.3909 -1.9091 -0.7361
 4421TIP3   OH234677   0.137   3.842   2.549  0.2262 -0.1366 -0.2181
 4421TIP3    H134678   0.186   3.833   2.631  1.1491  1.7222 -0.5283
 4421TIP3    H234679   0.115   3.934   2.544 -0.7069 -0.4112 -1.5886
 4422TIP3   OH234680   3.643   3.082  12.659  0.0391  0.2302 -0.2407
 4422TIP3    H134681   3.636   3.078  12.563  0.3299 -0.9199 -0.2255
 4422TIP3    H234682   3.735   3.065  12.678  0.2217  1.5612  0.2188
 4423TIP3   OH234683   2.172   5.696   4.519 -0.5123 -0.2266 -0.2683
 4423TIP3    H134684   2.242   5.630   4.521 -0.1915  0.1242  1.0182
 4423TIP3    H234685   2.094   5.647   4.493 -0.3138 -1.1852  0.8337
 4424TIP3   OH234686   1.159   0.904  10.675 -0.1273  0.3820  0.1792
 4424TIP3    H134687   1.172   0.941  10.588 -1.1027  1.2049  0.3612
 4424TIP3    H234688   1.243   0.917  10.719  0.2636  0.2799 -0.5182
 4425TIP3   OH234689   2.798   4.827  15.620 -0.1909 -0.3093  0.2634
 4425TIP3    H134690   2.876   4.879  15.638 -0.2567 -0.5219  1.2015
 4425TIP3    H234691   2.765   4.802  15.706 -1.1278 -0.4717 -0.1251
 4426TIP3   OH234692   6.743   5.405  16.048 -0.3398 -0.5111  0.2037
 4426TIP3    H134693   6.731   5.499  16.055  0.1060 -0.4741  0.5160
 4426TIP3    H234694   6.670   5.375  15.993 -0.3587  0.0411 -0.0760
 4427TIP3   OH234695   3.477   2.173  12.420  0.4119  0.4170  0.1169
 4427TIP3    H134696   3.500   2.266  12.419  1.4579  0.1730 -0.2421
 4427TIP3    H234697   3.458   2.154  12.512 -0.0169  1.0276  0.1618
 4428TIP3   OH234698   1.075   0.760   3.080 -0.6536 -0.6049 -0.6071
 4428TIP3    H134699   0.984   0.744   3.051 -0.4967 -2.4900 -0.2066
 4428TIP3    H234700   1.094   0.686   3.138  0.8623  0.2447  0.0110
 4429TIP3   OH234701   4.103   2.200  16.492 -0.5709 -0.6651  0.4390
 4429TIP3    H134702   4.075   2.235  16.408  0.5766 -0.8603 -0.0282
 4429TIP3    H234703   4.063   2.260  16.556  0.7047  1.0803 -0.3093
 4430TIP3   OH234704   0.028   2.372  11.899  0.2839  0.0619  0.6310
 4430TIP3    H134705  -0.055   2.407  11.931  0.2585  1.0147 -0.4378
 4430TIP3    H234706   0.081   2.361  11.978 -0.9413 -0.8651  1.3709
 4431TIP3   OH234707   3.857   6.667  17.186  0.5186  0.6520 -0.3477
 4431TIP3    H134708   3.853   6.676  17.281  1.6364 -1.1833 -0.0856
 4431TIP3    H234709   3.769   6.638  17.162 -0.0164  1.9098 -0.0131
 4432TIP3   OH234710   1.121   6.793   5.536 -0.2966  0.4824  0.3447
 4432TIP3    H134711   1.112   6.888   5.545  1.5949  0.7046  0.4328
 4432TIP3    H234712   1.216   6.778   5.541 -0.5125 -1.3473 -0.3328
 4433TIP3   OH234713   0.670   0.067  12.960  0.5212 -0.6526  0.2750
 4433TIP3    H134714   0.716   0.072  12.876  0.1536 -1.9790 -0.0262
 4433TIP3    H234715   0.638   0.156  12.975  1.2234 -0.2286 -0.6163
 4434TIP3   OH234716   5.270   1.687   2.306  0.1161 -0.4464 -0.6120
 4434TIP3    H134717   5.347   1.731   2.342 -0.3817 -0.8942  1.1416
 4434TIP3    H234718   5.304   1.620   2.248  0.9995  0.1208 -0.7607
 4435TIP3   OH234719   5.644   5.178  15.445  0.0252  0.7501 -0.0339
 4435TIP3    H134720   5.711   5.181  15.514  0.3239  0.5282 -0.3106
 4435TIP3    H234721   5.570   5.226  15.482 -0.1075 -0.0365  0.7539
 4436TIP3   OH234722   4.834   3.421  16.047 -0.0409  0.3321  0.5028
 4436TIP3    H134723   4.799   3.342  16.007 -0.2088 -0.5596  2.3523
 4436TIP3    H234724   4.775   3.491  16.018  0.0998 -0.1821 -1.1330
 4437TIP3   OH234725   2.912   4.235  12.598 -0.5833 -0.3358 -0.5261
 4437TIP3    H134726   2.843   4.196  12.652  0.9108 -1.6592  0.4882
 4437TIP3    H234727   2.957   4.161  12.557  0.9564  0.4140 -0.2672
 4438TIP3   OH234728   2.317   0.053  15.929 -0.1624 -0.1571 -0.2613
 4438TIP3    H134729   2.311   0.058  16.024  0.5219 -0.5745 -0.1901
 4438TIP3    H234730   2.394   0.107  15.907 -1.9861  2.3824 -0.8461
 4439TIP3   OH234731   0.967   3.161  12.651 -0.6255 -0.0479 -0.2117
 4439TIP3    H134732   1.003   3.104  12.719 -0.0220  0.6911  0.1000
 4439TIP3    H234733   0.988   3.250  12.680  0.0751  0.2663 -1.6073
 4440TIP3   OH234734   0.964   4.347  14.700 -0.2538  0.1220  0.0858
 4440TIP3    H134735   1.054   4.324  14.720 -0.2058  1.3162  1.3666
 4440TIP3    H234736   0.912   4.273  14.730  0.0512  0.7806  2.4177
 4441TIP3   OH234737   6.686   3.401  15.004  0.3642 -0.1814  0.1535
 4441TIP3    H134738   6.621   3.444  14.949  2.7479  2.0766 -1.1286
 4441TIP3    H234739   6.673   3.308  14.988 -1.6177  0.2499 -1.0979
 4442TIP3   OH234740   0.153   5.995  16.601 -0.1131 -0.1116  0.0994
 4442TIP3    H134741   0.232   5.944  16.579 -0.1829  1.2703 -4.4847
 4442TIP3    H234742   0.083   5.930  16.603  0.5289 -0.8456 -0.3734
 4443TIP3   OH234743   5.623   4.174   3.909  0.4061 -0.3301  0.3493
 4443TIP3    H134744   5.588   4.257   3.942 -1.2202 -0.5150 -0.7806
 4443TIP3    H234745   5.709   4.196   3.874 -0.1166  0.9522 -0.1934
 4444TIP3   OH234746   2.537   5.633  13.444  0.3830 -0.0288  1.4224
 4444TIP3    H134747   2.537   5.577  13.521  0.7366 -1.1845  0.5972
 4444TIP3    H234748   2.454   5.614  13.400  1.4330 -1.5463  0.0015
 4445TIP3   OH234749   3.146   1.287   0.498  0.1047 -0.1657  0.0371
 4445TIP3    H134750   3.102   1.204   0.515 -2.7307  0.6522 -2.4280
 4445TIP3    H234751   3.101   1.350   0.555 -0.0398  0.1887 -0.4528
 4446TIP3   OH234752   3.476   6.636  11.111 -0.1696  0.3079 -0.0464
 4446TIP3    H134753   3.452   6.632  11.018  0.3778  3.2763 -0.4265
 4446TIP3    H234754   3.393   6.653  11.156 -0.5130 -1.6137  0.1260
 4447TIP3   OH234755   5.402   3.024   3.465 -0.2888 -0.3252 -0.7574
 4447TIP3    H134756   5.336   3.093   3.469 -0.3133 -0.3037 -1.4146
 4447TIP3    H234757   5.466   3.056   3.402  0.9772  0.1755  0.7157
 4448TIP3   OH234758   2.276   4.555  12.480  0.9869  0.1341 -0.4961
 4448TIP3    H134759   2.294   4.470  12.520 -0.2405 -0.1955 -0.5979
 4448TIP3    H234760   2.322   4.618  12.537  1.5027 -0.5474 -0.1415
 4449TIP3   OH234761   1.211   0.722  16.618  0.2611 -0.0330  0.3080
 4449TIP3    H134762   1.182   0.680  16.699  0.2597  0.5049  0.5976
 4449TIP3    H234763   1.297   0.759  16.640  0.4587 -0.2677 -0.0698
 4450TIP3   OH234764   1.580   0.550   6.397  0.3249 -0.1837  0.3801
 4450TIP3    H134765   1.610   0.529   6.486 -1.3686 -0.1707  0.9928
 4450TIP3    H234766   1.520   0.623   6.409  0.9476  0.5884 -0.9386
 4451TIP3   OH234767   6.527   6.014  13.324 -0.0361 -0.4612  0.1997
 4451TIP3    H134768   6.452   5.984  13.375  0.0966 -0.9848  0.0900
 4451TIP3    H234769   6.489   6.051  13.244 -0.1439 -1.5529 -0.2742
 4452TIP3   OH234770   3.452   1.071   3.434 -0.0650  0.0038 -0.2887
 4452TIP3    H134771   3.398   1.149   3.421  0.1050 -0.2337 -3.0617
 4452TIP3    H234772   3.412   1.005   3.378  0.0310 -1.8429  1.7033
 4453TIP3   OH234773   1.382   3.382   2.511 -0.4202  0.1692  0.1089
 4453TIP3    H134774   1.448   3.378   2.442  1.1488 -2.3942  1.6078
 4453TIP3    H234775   1.301   3.351   2.470  0.6767 -2.1293 -0.4901
 4454TIP3   OH234776   0.967   3.358  13.611 -0.6712 -0.0182 -0.1517
 4454TIP3    H134777   0.925   3.438  13.643 -1.2205 -0.4673  0.2740
 4454TIP3    H234778   0.903   3.289  13.629  0.7685 -0.9624  1.8096
 4455TIP3   OH234779   2.598   3.529  14.715  0.3265 -0.1779 -0.5782
 4455TIP3    H134780   2.563   3.616  14.733  0.9950 -0.1230  0.5580
 4455TIP3    H234781   2.633   3.499  14.799  0.0380 -1.5824 -0.9299
 4456TIP3   OH234782   5.224   4.133   1.216  0.3426 -0.3154 -0.0976
 4456TIP3    H134783   5.271   4.192   1.157 -0.2925  1.7072  1.3338
 4456TIP3    H234784   5.132   4.147   1.196  0.1218  0.2934  1.2309
 4457TIP3   OH234785   6.143   5.719   1.655  0.1227  0.0855 -0.0395
 4457TIP3    H134786   6.164   5.637   1.700 -0.7300 -0.2683 -0.2661
 4457TIP3    H234787   6.226   5.765   1.649  1.3887 -2.2754 -3.0663
 4458TIP3   OH234788   4.304   2.894   3.230  0.0909 -0.5384 -0.1487
 4458TIP3    H134789   4.366   2.864   3.296 -0.4658 -2.3614 -0.3857
 4458TIP3    H234790   4.243   2.950   3.278  1.8094  1.2415  0.0953
 4459TIP3   OH234791   2.388   1.512  16.094 -0.6288 -0.0481 -0.6956
 4459TIP3    H134792   2.431   1.435  16.058 -0.1018  0.7790 -1.9043
 4459TIP3    H234793   2.383   1.573  16.021 -0.8663  1.1353  0.2745
 4460TIP3   OH234794   2.839   2.234   6.583  0.1239 -0.2448  0.0674
 4460TIP3    H134795   2.841   2.177   6.507  0.5418 -1.4185  0.9407
 4460TIP3    H234796   2.782   2.307   6.557 -1.4624 -1.6788 -0.6276
 4461TIP3   OH234797   5.697   2.153   4.168 -0.4734 -0.2814 -0.1602
 4461TIP3    H134798   5.609   2.118   4.182 -0.7705 -0.3589 -2.0245
 4461TIP3    H234799   5.695   2.189   4.079  1.6548 -1.1732 -0.6345
 4462TIP3   OH234800   0.601   0.741   5.508  0.0933 -0.5398 -0.4585
 4462TIP3    H134801   0.554   0.707   5.584  2.1805 -1.4085  0.5065
 4462TIP3    H234802   0.586   0.675   5.440 -0.8726 -0.3031 -0.4931
 4463TIP3   OH234803   2.369   3.242  12.973 -0.1811 -0.5260  0.2699
 4463TIP3    H134804   2.277   3.268  12.970 -0.1381  0.0114  2.1632
 4463TIP3    H234805   2.369   3.159  13.020  0.3121 -0.5616  0.2088
 4464TIP3   OH234806   4.321   2.974   0.487  0.5091 -0.1173  0.3576
 4464TIP3    H134807   4.390   2.933   0.435 -0.9001 -0.6063 -1.2287
 4464TIP3    H234808   4.367   3.019   0.557  2.2802 -2.9014  1.1700
 4465TIP3   OH234809   1.973   4.939   5.908 -0.2044  0.2991 -0.5984
 4465TIP3    H134810   1.956   4.984   5.825  0.1731  1.4187 -0.0870
 4465TIP3    H234811   2.067   4.950   5.922 -0.2173 -0.1295 -0.1573
 4466TIP3   OH234812   6.708   5.620   3.828  0.0192 -0.4391 -0.2445
 4466TIP3    H134813   6.657   5.595   3.751 -1.2355 -0.1702  0.4665
 4466TIP3    H234814   6.779   5.556   3.832  1.8425  1.1553 -3.1989
 4467TIP3   OH234815   3.533   0.080   5.436  0.0863  0.0348 -0.5805
 4467TIP3    H134816   3.600   0.016   5.462  1.0310  1.5626  0.9336
 4467TIP3    H234817   3.583   0.156   5.407 -1.0264  0.4562 -1.4466
 4468TIP3   OH234818   4.947   3.178  16.371  0.0822  0.0939  0.0174
 4468TIP3    H134819   4.851   3.173  16.378  0.2014 -1.2746  1.0621
 4468TIP3    H234820   4.966   3.148  16.282 -0.4359 -0.3027  0.0326
 4469TIP3   OH234821   1.074   0.826   5.678 -0.2731 -0.1756 -0.3088
 4469TIP3    H134822   1.083   0.896   5.614  2.1339 -0.6547 -0.5789
 4469TIP3    H234823   1.000   0.774   5.646  0.1516  0.2363 -2.0921
 4470TIP3   OH234824   4.187   4.315  16.471 -0.0420  0.1950  0.4512
 4470TIP3    H134825   4.280   4.314  16.495 -0.0376 -0.0902  0.4299
 4470TIP3    H234826   4.188   4.331  16.376  0.0378 -0.8367  0.2599
 4471TIP3   OH234827   1.435   2.245   6.236  0.5699 -0.0974  0.1593
 4471TIP3    H134828   1.439   2.164   6.184 -0.1626  0.2533 -0.4624
 4471TIP3    H234829   1.450   2.315   6.172  1.2268  0.2624  0.6986
 4472TIP3   OH234830   4.475   1.985   0.767  0.1490 -0.3875 -0.0419
 4472TIP3    H134831   4.456   1.966   0.859  0.2877 -4.4390 -0.6516
 4472TIP3    H234832   4.389   1.986   0.725 -0.0598  3.0334  0.2138
 4473TIP3   OH234833   3.673   5.942   2.524 -0.1630  0.2357 -0.0376
 4473TIP3    H134834   3.659   5.957   2.617 -0.9139 -3.2282  0.5246
 4473TIP3    H234835   3.768   5.942   2.513 -0.0626  0.4237  0.7662
 4474TIP3   OH234836   2.977   4.905  12.855  0.4213 -0.0433  0.1447
 4474TIP3    H134837   3.044   4.868  12.800 -0.0366 -0.1301 -0.3622
 4474TIP3    H234838   2.932   4.968  12.799 -0.0933 -0.1853  0.3898
 4475TIP3   OH234839   5.655   1.211  14.296 -0.6374 -0.0908  0.2135
 4475TIP3    H134840   5.597   1.151  14.249 -1.1673  1.1635 -0.8215
 4475TIP3    H234841   5.624   1.298  14.270  1.6808  0.6267 -0.3545
 4476TIP3   OH234842   5.797   3.006  11.682  1.0755 -0.1973 -0.0854
 4476TIP3    H134843   5.810   2.923  11.727  1.0415 -0.4098 -0.4606
 4476TIP3    H234844   5.706   3.028  11.698  1.3633  0.3020  0.8987
 4477TIP3   OH234845   6.136   5.337  16.485  0.3824  0.6225  0.2100
 4477TIP3    H134846   6.084   5.370  16.558  0.2000  3.5762 -1.1412
 4477TIP3    H234847   6.094   5.254  16.462 -0.5849  0.4513  2.3370
 4478TIP3   OH234848   0.559   5.403   1.075 -0.2454  0.0189  0.2324
 4478TIP3    H134849   0.493   5.341   1.044  1.3564 -0.7029 -1.9394
 4478TIP3    H234850   0.629   5.348   1.110  0.9883  0.5759 -1.2724
 4479TIP3   OH234851   3.527   5.776   3.092  0.7944 -0.3871  0.1753
 4479TIP3    H134852   3.569   5.858   3.116  0.0777 -0.4313  1.7411
 4479TIP3    H234853   3.460   5.802   3.028  0.1169  0.3782  1.1556
 4480TIP3   OH234854   0.464   1.226   5.232  0.0306 -0.7037  0.4550
 4480TIP3    H134855   0.472   1.317   5.204 -0.2097 -0.5105  1.0223
 4480TIP3    H234856   0.489   1.175   5.154  0.5104 -0.1554  0.2452
 4481TIP3   OH234857   4.292   6.147   4.102  0.6023 -0.3484 -0.6251
 4481TIP3    H134858   4.297   6.108   4.189  3.1977 -1.0962 -1.0325
 4481TIP3    H234859   4.360   6.213   4.101  0.4745 -0.2085 -2.0330
 4482TIP3   OH234860   3.312   2.466  13.247  0.5611  0.6396  0.1522
 4482TIP3    H134861   3.237   2.502  13.292 -0.4606  0.1875 -1.1113
 4482TIP3    H234862   3.341   2.536  13.188  0.4356  0.4391 -0.1514
 4483TIP3   OH234863   1.812   0.761   5.748  0.3757 -0.0602  0.0965
 4483TIP3    H134864   1.729   0.806   5.728 -0.9199 -2.3384  0.0311
 4483TIP3    H234865   1.800   0.672   5.714  2.8322 -0.4980  0.2041
 4484TIP3   OH234866   0.060   4.387   4.594  0.1983  0.1765 -0.6496
 4484TIP3    H134867   0.060   4.381   4.690 -2.1745 -0.7317 -0.6286
 4484TIP3    H234868   0.021   4.304   4.565 -1.7870  1.5754 -2.2353
 4485TIP3   OH234869   1.076   1.012  16.923  0.3348  0.2633  0.2992
 4485TIP3    H134870   1.065   1.102  16.892 -0.8522 -0.3301 -1.1253
 4485TIP3    H234871   1.169   0.994  16.908  0.4365  1.0216 -0.0688
 4486TIP3   OH234872   2.637   3.076   0.832  0.3374  0.9172 -0.5032
 4486TIP3    H134873   2.658   2.994   0.877  0.0566  1.1214  0.0030
 4486TIP3    H234874   2.568   3.052   0.770  1.0626  0.5352 -1.1831
 4487TIP3   OH234875   4.918   3.388   5.813  0.4007  0.3014 -0.4136
 4487TIP3    H134876   4.832   3.431   5.817  0.2018  0.0777 -1.6478
 4487TIP3    H234877   4.974   3.440   5.869 -0.3962  0.8245 -0.0815
 4488TIP3   OH234878   1.669   6.695  12.015 -0.4991  0.3159  0.0295
 4488TIP3    H134879   1.635   6.631  12.077  1.5757 -0.8810  0.0192
 4488TIP3    H234880   1.649   6.780  12.054 -0.4459 -0.3896  1.6746
 4489TIP3   OH234881   3.806   3.247   5.664 -0.6350 -0.3324  0.2070
 4489TIP3    H134882   3.757   3.184   5.611 -0.8682 -1.8532  2.1522
 4489TIP3    H234883   3.825   3.202   5.745  1.0090  1.4268  0.8910
 4490TIP3   OH234884   4.670   5.653   4.894 -0.1274  0.0639  0.3479
 4490TIP3    H134885   4.736   5.593   4.860  0.8539  0.4622  1.4762
 4490TIP3    H234886   4.682   5.733   4.843  0.2340  0.1217  0.5243
 4491TIP3   OH234887   0.305   0.633   1.646  0.3057 -0.5187  0.0347
 4491TIP3    H134888   0.392   0.671   1.633  0.0362  0.2069  0.2560
 4491TIP3    H234889   0.298   0.623   1.741  0.3460 -1.0649 -0.0194
 4492TIP3   OH234890   6.498   2.286  16.700 -0.3274 -0.5817 -0.2692
 4492TIP3    H134891   6.432   2.335  16.749  1.6821  2.1588 -0.0499
 4492TIP3    H234892   6.449   2.218  16.655 -3.2441  1.1051  0.1107
 4493TIP3   OH234893   2.291   6.701   2.103 -0.1546 -0.1533  0.3342
 4493TIP3    H134894   2.317   6.657   2.184  0.9439  0.7664  0.5076
 4493TIP3    H234895   2.374   6.715   2.056 -0.6105  0.6584 -0.2557
 4494TIP3   OH234896   2.421   4.551   1.612 -0.3346  0.4346  0.0751
 4494TIP3    H134897   2.331   4.580   1.628 -0.5546  0.8975 -1.7956
 4494TIP3    H234898   2.416   4.499   1.532  0.9376 -0.3299  0.4612
 4495TIP3   OH234899   0.101   6.221  15.132 -0.1385  0.4187  0.0799
 4495TIP3    H134900   0.132   6.251  15.047 -0.3319  3.0245  0.8407
 4495TIP3    H234901   0.132   6.287  15.194 -4.5704  1.7004  1.2871
 4496TIP3   OH234902   1.147   3.855   0.993  0.2056  0.0811 -0.2398
 4496TIP3    H134903   1.127   3.776   0.944  2.3739 -1.9746  1.8918
 4496TIP3    H234904   1.243   3.859   0.994  0.1618  2.0903  0.6929
 4497TIP3   OH234905   4.588   4.947  11.362  0.2741 -0.1895  0.2674
 4497TIP3    H134906   4.662   4.895  11.393 -0.1768 -0.3795  1.0399
 4497TIP3    H234907   4.621   5.037  11.362  0.1743 -0.1336  1.6872
 4498TIP3   OH234908   5.621   6.319  13.107  0.0801 -0.2365 -0.4722
 4498TIP3    H134909   5.690   6.254  13.119 -0.7012 -1.0591 -0.3620
 4498TIP3    H234910   5.598   6.312  13.014  2.1876  2.1545 -1.3016
 4499TIP3   OH234911   0.140   0.739   1.289 -0.7265  0.1781 -0.1882
 4499TIP3    H134912   0.219   0.792   1.297 -0.3477 -0.3454 -0.3630
 4499TIP3    H234913   0.092   0.778   1.216  0.2876 -0.6106 -1.3346
 4500TIP3   OH234914   1.527   5.054  11.859 -0.2837 -0.2636  0.2985
 4500TIP3    H134915   1.486   4.983  11.810  1.7205 -0.5761 -1.0986
 4500TIP3    H234916   1.514   5.032  11.951 -2.4672 -0.7102 -0.0863
 4501TIP3   OH234917   1.953   0.781   0.720 -0.1199  0.1450 -0.0562
 4501TIP3    H134918   2.048   0.784   0.708  0.0204  2.0734  1.0367
 4501TIP3    H234919   1.942   0.763   0.814 -0.8243  0.2008 -0.1228
 4502TIP3   OH234920   4.484   2.871   1.713  0.0182  0.3735  0.1329
 4502TIP3    H134921   4.546   2.804   1.740 -2.4321 -2.0510  0.2193
 4502TIP3    H234922   4.537   2.938   1.671  2.7474 -1.0001  1.1694
 4503TIP3   OH234923   1.958   5.076  11.851 -0.7219 -0.1027 -0.0179
 4503TIP3    H134924   1.935   5.049  11.940 -0.2784  0.5504  0.3063
 4503TIP3    H234925   1.886   5.134  11.825 -0.3487  0.5216  0.3143
 4504TIP3   OH234926   0.222   3.259  15.738  0.1903 -0.2493  0.0010
 4504TIP3    H134927   0.229   3.192  15.806 -3.5591 -2.1626 -1.2565
 4504TIP3    H234928   0.140   3.304  15.757 -0.1249  0.2633 -2.2932
 4505TIP3   OH234929   1.017   0.077  11.597 -0.1238 -0.2235 -0.4528
 4505TIP3    H134930   1.051   0.080  11.507 -1.8161 -1.3895 -1.1869
 4505TIP3    H234931   0.949   0.145  11.598  0.6371  0.5450  0.3086
 4506TIP3   OH234932   3.978   5.952   2.659 -0.3123  0.2646  0.3314
 4506TIP3    H134933   3.921   5.943   2.735 -0.6215 -1.9913 -0.1015
 4506TIP3    H234934   4.060   5.987   2.694 -2.3834  5.6720  0.7099
 4507TIP3   OH234935   2.925   1.509   5.863 -0.2000 -0.2183 -0.4363
 4507TIP3    H134936   2.936   1.437   5.925 -0.6818 -0.7003 -0.9054
 4507TIP3    H234937   2.993   1.494   5.798 -0.0036  0.0152 -0.2857
 4508TIP3   OH234938   6.593   2.334   1.241  0.1022 -0.1814 -0.0040
 4508TIP3    H134939   6.614   2.423   1.211  0.0015  0.2856  1.2410
 4508TIP3    H234940   6.599   2.280   1.162 -0.1540  0.9824 -0.8533
 4509TIP3   OH234941   5.403   0.797   2.114  0.4804  0.1817 -0.4786
 4509TIP3    H134942   5.413   0.855   2.038  2.2773 -0.0040 -0.4446
 4509TIP3    H234943   5.476   0.821   2.171  0.9822 -1.7595 -0.2258
 4510TIP3   OH234944   1.503   2.227   1.447  0.3997  0.3783 -0.4725
 4510TIP3    H134945   1.515   2.134   1.466  1.5918  0.5028 -0.5315
 4510TIP3    H234946   1.550   2.272   1.517  0.7006  0.9203 -1.0116
 4511TIP3   OH234947   2.314   6.291  13.752 -0.1988 -0.2297 -0.4099
 4511TIP3    H134948   2.309   6.226  13.822  2.4011 -1.5883 -1.3562
 4511TIP3    H234949   2.320   6.239  13.671  0.1529  1.2362 -1.3586
 4512TIP3   OH234950   4.206   2.502  15.900 -0.5511 -0.1821 -0.2860
 4512TIP3    H134951   4.206   2.584  15.851 -0.4217 -1.1534 -1.9796
 4512TIP3    H234952   4.200   2.434  15.833 -0.8579 -1.5630  1.0878
 4513TIP3   OH234953   1.691   5.771   4.257 -0.1473 -0.2494 -0.4479
 4513TIP3    H134954   1.724   5.690   4.218  1.9108  0.8178 -1.0537
 4513TIP3    H234955   1.700   5.836   4.188 -1.4399  0.6039  0.1458
 4514TIP3   OH234956   4.814   3.064  16.838 -0.0608  0.1344 -0.2557
 4514TIP3    H134957   4.888   3.008  16.816  0.9132  1.3213 -0.1290
 4514TIP3    H234958   4.823   3.139  16.779 -0.5148  0.8073  0.5144
 4515TIP3   OH234959   5.094   1.462   3.463  0.2941 -0.2029 -0.0223
 4515TIP3    H134960   5.005   1.460   3.428 -0.5052  1.7827  1.7029
 4515TIP3    H234961   5.102   1.548   3.504  3.2868 -0.0029 -0.7663
 4516TIP3   OH234962   3.793   1.766  13.235  0.1368 -0.0177 -0.7604
 4516TIP3    H134963   3.716   1.746  13.288  2.4720 -0.4389  2.8422
 4516TIP3    H234964   3.800   1.692  13.175 -0.5377 -1.6938  1.1026
 4517TIP3   OH234965   6.107   4.742   4.442 -0.0706  0.1361  0.1552
 4517TIP3    H134966   6.097   4.761   4.535 -0.8005 -0.7063  0.2700
 4517TIP3    H234967   6.018   4.722   4.412 -0.2587  2.6587 -1.2724
 4518TIP3   OH234968   0.308   2.774  14.264  0.0749  0.1913  0.3561
 4518TIP3    H134969   0.385   2.756  14.319 -0.5834 -0.9209  0.9317
 4518TIP3    H234970   0.280   2.861  14.291  0.2556 -0.0029  1.1987
 4519TIP3   OH234971   3.815   6.189   3.233 -0.4985 -0.1641  0.2190
 4519TIP3    H134972   3.771   6.273   3.221 -0.1147  0.2111  1.2996
 4519TIP3    H234973   3.898   6.212   3.276  0.3006 -0.9510 -0.8436
 4520TIP3   OH234974   1.310   6.343   0.598  0.2405 -0.1477 -0.0452
 4520TIP3    H134975   1.366   6.269   0.572  0.3902  0.6844 -2.3435
 4520TIP3    H234976   1.233   6.335   0.541  0.6616  1.9073 -0.9933
 4521TIP3   OH234977   4.353   2.660   5.324  0.2067 -0.1091  0.1062
 4521TIP3    H134978   4.329   2.735   5.379  0.3540 -0.0832  0.1347
 4521TIP3    H234979   4.361   2.587   5.386 -0.2286 -0.2141  0.0410
 4522TIP3   OH234980   2.781   4.332   2.033 -0.5600 -0.3400 -0.1315
 4522TIP3    H134981   2.743   4.417   2.012 -0.0985 -0.4934 -1.7819
 4522TIP3    H234982   2.772   4.324   2.128 -1.7246  0.9998 -0.0901
 4523TIP3   OH234983   3.530   0.400  12.779 -0.1214 -0.6337  0.9780
 4523TIP3    H134984   3.567   0.463  12.841  0.5321  0.4145 -0.4077
 4523TIP3    H234985   3.453   0.444  12.744  0.6534 -0.3246 -0.4087
 4524TIP3   OH234986   5.393   3.247   2.118  0.7893  0.3090  0.5896
 4524TIP3    H134987   5.312   3.199   2.100  0.9147 -0.4211  1.8425
 4524TIP3    H234988   5.403   3.243   2.213  3.6006 -1.8548  0.3348
 4525TIP3   OH234989   1.193   4.717   5.206 -0.5544  0.3220  0.1475
 4525TIP3    H134990   1.119   4.777   5.208 -2.6553 -2.1120  1.4157
 4525TIP3    H234991   1.170   4.648   5.268  1.4763 -2.0486 -1.5266
 4526TIP3   OH234992   3.079   6.648  16.541 -0.2745 -0.7540  0.3311
 4526TIP3    H134993   3.167   6.678  16.567  0.1905 -1.0352 -0.8683
 4526TIP3    H234994   3.075   6.663  16.447 -2.8525  2.5564  0.7910
 4527TIP3   OH234995   0.321   3.657  15.213  0.2140 -0.0101  0.7273
 4527TIP3    H134996   0.376   3.633  15.287 -0.9907  0.4624  1.8024
 4527TIP3    H234997   0.370   3.626  15.136  2.1893  0.7899  1.5940
 4528TIP3   OH234998   3.898   0.027  16.790 -0.2493 -0.7867 -0.2389
 4528TIP3    H134999   3.888  -0.027  16.712 -0.2118 -1.1194 -0.0180
 4528TIP3    H235000   3.813   0.020  16.835 -0.5618  0.0827 -0.6704
 4529TIP3   OH235001   6.597   4.285   1.405  0.2179  0.1434 -0.3228
 4529TIP3    H135002   6.538   4.221   1.446  2.4344 -2.2334 -0.5757
 4529TIP3    H235003   6.547   4.317   1.329 -2.0673  0.9997  1.4176
 4530TIP3   OH235004   0.456   4.690  14.022 -0.1669 -0.6430  0.5216
 4530TIP3    H135005   0.361   4.695  14.024 -0.1315  1.8604  0.1089
 4530TIP3    H235006   0.485   4.780  14.042  2.0819 -1.1517 -0.1056
 4531TIP3   OH235007   3.853   3.178   3.102  0.3405 -0.5154 -0.3373
 4531TIP3    H135008   3.860   3.273   3.114 -0.4851 -0.4764 -0.0787
 4531TIP3    H235009   3.943   3.147   3.102  0.5901  0.1910  0.2468
 4532TIP3   OH235010   2.526   1.651   1.236 -0.3313  0.0862  0.1514
 4532TIP3    H135011   2.493   1.734   1.271 -2.5554 -1.5020  2.2594
 4532TIP3    H235012   2.453   1.616   1.184  0.2196 -0.8892 -0.0001
 4533TIP3   OH235013   3.685   1.623   1.261 -0.5355  0.0717  0.2878
 4533TIP3    H135014   3.615   1.578   1.214  1.8929 -1.0467 -2.5733
 4533TIP3    H235015   3.657   1.714   1.267 -2.0712 -0.2851 -1.0864
 4534TIP3   OH235016   2.906   2.112  11.486  0.2814  0.3461  0.8440
 4534TIP3    H135017   2.900   2.119  11.391 -1.2291  1.6193  0.9898
 4534TIP3    H235018   2.985   2.161  11.509 -0.4202  1.7462  0.3712
 4535TIP3   OH235019   4.474   5.975  12.973 -0.1768 -0.4211  0.5761
 4535TIP3    H135020   4.427   5.922  13.038  2.8014 -1.2728  2.2596
 4535TIP3    H235021   4.555   5.999  13.017  0.2677  2.4078 -1.5321
 4536TIP3   OH235022   4.191   6.191   1.233 -0.3791  0.5360 -0.0487
 4536TIP3    H135023   4.274   6.155   1.204 -1.1818 -0.5977 -1.0616
 4536TIP3    H235024   4.149   6.222   1.152 -3.0278 -3.4179 -0.4440
 4537TIP3   OH235025   1.903   1.307  14.050 -0.2898 -0.0606  0.4272
 4537TIP3    H135026   1.915   1.402  14.041  4.7447 -0.5180 -0.1885
 4537TIP3    H235027   1.899   1.275  13.960  0.1253 -0.5852  0.5900
 4538TIP3   OH235028   6.788   0.195   0.131 -0.5614 -0.6429  0.3863
 4538TIP3    H135029   6.692   0.189   0.132 -0.6819  0.7284 -0.8048
 4538TIP3    H235030   6.816   0.121   0.077 -1.0715  0.0021 -0.7921
 4539TIP3   OH235031   1.561   2.609  13.338 -0.4060  0.2428 -0.2041
 4539TIP3    H135032   1.535   2.625  13.247 -3.2704 -0.6709  0.3730
 4539TIP3    H235033   1.571   2.514  13.344 -2.1353  0.0922  0.8433
 4540TIP3   OH235034   5.132   0.440  16.656  0.1316 -0.4470 -0.2926
 4540TIP3    H135035   5.090   0.504  16.712  2.0811 -0.7961  1.6829
 4540TIP3    H235036   5.128   0.478  16.568  0.1754  1.7886  0.6296
 4541TIP3   OH235037   3.002   4.145   3.250 -0.2850  0.3367  0.2796
 4541TIP3    H135038   3.035   4.151   3.160 -2.3986 -0.8132 -0.6586
 4541TIP3    H235039   2.907   4.153   3.241 -0.8729 -2.9335  1.9928
 4542TIP3   OH235040   6.686   4.192   4.443  0.0754 -0.4384 -0.3937
 4542TIP3    H135041   6.718   4.149   4.363 -0.6074 -0.6874 -0.5453
 4542TIP3    H235042   6.634   4.266   4.411  0.8032  0.1822 -0.1429
 4543TIP3   OH235043   1.452   3.744   2.702  0.4205 -0.2146  0.0340
 4543TIP3    H135044   1.388   3.727   2.771  0.6193  0.9391  0.5161
 4543TIP3    H235045   1.399   3.768   2.625  0.1436 -2.4668 -0.5693
 4544TIP3   OH235046   3.461   1.966  14.718 -0.3998  0.3144  0.0360
 4544TIP3    H135047   3.419   1.909  14.783  0.7193 -0.8396 -0.1950
 4544TIP3    H235048   3.487   2.044  14.767 -0.6775  0.0019  0.6958
 4545TIP3   OH235049   3.384   2.984   2.257 -0.1133  0.2039 -0.1204
 4545TIP3    H135050   3.344   2.903   2.226  0.9522 -0.7561  0.9298
 4545TIP3    H235051   3.310   3.039   2.284 -0.8648 -0.2076 -1.3015
 4546TIP3   OH235052   1.211   6.709   4.650 -0.7786  0.1659  0.4475
 4546TIP3    H135053   1.306   6.709   4.636 -0.7903  0.3868  0.3624
 4546TIP3    H235054   1.200   6.669   4.736 -0.4410  2.1988  1.5053
 4547TIP3   OH235055   3.209   4.141  15.242  0.0883 -0.1095 -0.1495
 4547TIP3    H135056   3.124   4.168  15.208  0.0622 -1.1078 -0.9259
 4547TIP3    H235057   3.259   4.117  15.165  1.0515  0.3722  0.3137
 4548TIP3   OH235058   6.724   5.002  14.427  0.2116 -0.4747  0.0481
 4548TIP3    H135059   6.805   5.008  14.478  0.9593 -1.0785 -1.0272
 4548TIP3    H235060   6.718   5.087  14.382  1.3137 -1.1093 -1.3753
 4549TIP3   OH235061   5.007   4.810  12.650 -0.4408  0.4057 -0.1520
 4549TIP3    H135062   4.923   4.805  12.603 -1.1080  1.3250  0.8857
 4549TIP3    H235063   5.039   4.898  12.631  0.1740  0.1488 -0.3240
 4550TIP3   OH235064   1.871   5.694   0.566  0.1790 -0.2412  0.5001
 4550TIP3    H135065   1.873   5.760   0.635 -2.1270  0.4114  0.0245
 4550TIP3    H235066   1.907   5.738   0.489 -0.7963  0.2897  0.3381
 4551TIP3   OH235067   5.206   1.699  11.807  0.1797  0.6093 -0.3024
 4551TIP3    H135068   5.146   1.745  11.748 -1.5402  0.8694  1.5518
 4551TIP3    H235069   5.254   1.769  11.852  0.7243  0.4438 -0.6181
 4552TIP3   OH235070   1.534   3.659  12.254 -0.6320 -0.6270  0.4086
 4552TIP3    H135071   1.439   3.656  12.245 -0.7068 -1.0024  1.1912
 4552TIP3    H235072   1.551   3.742  12.299 -0.2940  1.0688 -2.5899
 4553TIP3   OH235073   2.767   6.536  13.309 -0.0596 -0.3230  0.1251
 4553TIP3    H135074   2.726   6.621  13.326 -0.4069 -0.6676  1.0944
 4553TIP3    H235075   2.726   6.477  13.371 -0.1658 -1.3169 -0.8607
 4554TIP3   OH235076   1.005   6.131   2.787  0.6699  0.0495 -0.3848
 4554TIP3    H135077   1.038   6.152   2.700  2.0206  0.5886  0.2251
 4554TIP3    H235078   1.054   6.189   2.846  1.3777 -1.7946  0.9468
 4555TIP3   OH235079   6.339   5.897   1.877  0.4678 -0.1545  0.3559
 4555TIP3    H135080   6.389   5.843   1.938 -1.9385  0.3495  2.9619
 4555TIP3    H235081   6.338   5.984   1.917 -0.0722  0.5524 -1.1207
 4556TIP3   OH235082   2.745   1.667   0.099  0.3333  0.6231  0.4040
 4556TIP3    H135083   2.699   1.726   0.040 -0.3142  0.3273  0.6085
 4556TIP3    H235084   2.687   1.660   0.175  1.4441  1.5246  1.3732
 4557TIP3   OH235085   0.650   4.082  17.106  0.7568 -0.3552  0.3705
 4557TIP3    H135086   0.659   4.156  17.166 -0.9452  0.6775 -0.5618
 4557TIP3    H235087   0.565   4.043  17.128 -1.0566  1.4397 -2.6616
 4558TIP3   OH235088   5.953   5.435  12.225 -0.7714  0.1658 -0.2255
 4558TIP3    H135089   5.858   5.436  12.219 -0.6857 -0.2350 -4.1281
 4558TIP3    H235090   5.982   5.391  12.145  2.7127 -0.2705  1.1071
 4559TIP3   OH235091   6.632   0.070  11.044  0.7805  0.6778  0.2352
 4559TIP3    H135092   6.604   0.104  11.129 -0.2639  0.9693 -0.2070
 4559TIP3    H235093   6.550   0.045  11.001  1.4219 -1.0563 -0.0251
 4560TIP3   OH235094   6.493   1.027  11.647  0.5373 -0.3225  0.0047
 4560TIP3    H135095   6.481   1.047  11.740 -0.8697  0.6279 -0.3593
 4560TIP3    H235096   6.425   1.076  11.602  0.6856 -1.3886 -1.4812
 4561TIP3   OH235097   3.279   2.076  16.788  0.5297 -0.3433  0.0319
 4561TIP3    H135098   3.247   2.059  16.877  0.4223 -0.6382 -0.0646
 4561TIP3    H235099   3.364   2.118  16.801  0.8757 -1.1125  0.2662
 4562TIP3   OH235100   5.406   5.754   1.645  0.5600  0.7462  0.0902
 4562TIP3    H135101   5.370   5.669   1.670  4.1582 -0.9138  0.1642
 4562TIP3    H235102   5.397   5.757   1.550 -2.3142  1.7646  0.2950
 4563TIP3   OH235103   2.683   1.470   3.741 -0.1183  0.5286  0.6690
 4563TIP3    H135104   2.682   1.380   3.776  0.5385 -0.3664 -1.4368
 4563TIP3    H235105   2.625   1.519   3.800 -0.8349 -1.3741  1.6446
 4564TIP3   OH235106   1.028   6.416   5.520  0.3344 -0.1180  0.2158
 4564TIP3    H135107   1.101   6.433   5.580  0.3606  0.1788  0.0997
 4564TIP3    H235108   0.994   6.503   5.498 -0.3632 -0.2756  0.6508
 4565TIP3   OH235109   0.428   1.290  14.098 -0.2258 -0.7091 -0.0389
 4565TIP3    H135110   0.366   1.329  14.037 -0.4041 -0.7582  0.1082
 4565TIP3    H235111   0.458   1.211  14.054 -1.4148 -1.5036  0.5082
 4566TIP3   OH235112   1.679   4.667   3.871 -0.0170  0.3211  0.9828
 4566TIP3    H135113   1.758   4.613   3.878 -0.3516 -0.4827 -0.8725
 4566TIP3    H235114   1.607   4.604   3.870 -0.4216  0.7513 -1.0932
 4567TIP3   OH235115   0.695   6.211  16.715 -0.2837 -0.5979  0.0834
 4567TIP3    H135116   0.642   6.248  16.786 -0.4773  0.2402 -0.4899
 4567TIP3    H235117   0.783   6.206  16.752 -0.3337  0.0671  0.3183
 4568TIP3   OH235118   2.964   1.542   0.510 -0.1359  0.1741  0.0136
 4568TIP3    H135119   3.033   1.568   0.571  1.4620  1.5877 -2.2387
 4568TIP3    H235120   2.902   1.615   0.511 -0.0932  0.2114 -0.0831
 4569TIP3   OH235121   4.905   2.968  11.753  0.0975 -0.0745 -0.0442
 4569TIP3    H135122   4.895   3.038  11.689 -0.4163  0.7392  0.8904
 4569TIP3    H235123   4.978   2.997  11.809 -0.6504  0.1277  0.8445
 4570TIP3   OH235124   3.004   1.762  12.069 -0.0410 -0.0400 -0.6659
 4570TIP3    H135125   3.018   1.713  12.150 -0.3598  1.0263  0.0549
 4570TIP3    H235126   2.918   1.733  12.038 -0.0217 -0.2756 -0.4986
 4571TIP3   OH235127   5.257   0.851  16.779  0.1429  0.5249 -0.4534
 4571TIP3    H135128   5.178   0.904  16.766  0.7439  1.8318  1.0384
 4571TIP3    H235129   5.314   0.875  16.706  0.1879  1.5141 -0.0972
 4572TIP3   OH235130   0.705   2.144   4.539 -0.1706  0.1642  0.1757
 4572TIP3    H135131   0.790   2.164   4.579  0.7037 -0.5846 -1.2150
 4572TIP3    H235132   0.727   2.107   4.453 -1.9329  1.7962 -1.0746
 4573TIP3   OH235133   0.651   2.390  11.817 -0.0842 -0.1783 -0.8633
 4573TIP3    H135134   0.695   2.307  11.798 -0.5252 -0.7382  0.4155
 4573TIP3    H235135   0.562   2.378  11.785  0.1880  0.2953 -1.8368
 4574TIP3   OH235136   6.439   5.597   1.335 -0.2620 -0.1782 -0.9814
 4574TIP3    H135137   6.415   5.686   1.359  0.1330 -0.3643  0.1310
 4574TIP3    H235138   6.446   5.550   1.418  0.7009 -0.9552 -1.4781
 4575TIP3   OH235139   1.631   6.012   3.623 -0.0060 -0.2203 -0.2131
 4575TIP3    H135140   1.593   6.043   3.541 -0.4834  0.7323  0.3504
 4575TIP3    H235141   1.692   5.943   3.596 -0.8391 -0.5751 -1.2779
 4576TIP3   OH235142   5.797   2.869   1.456 -0.2738  0.4625  0.2620
 4576TIP3    H135143   5.763   2.958   1.461  1.0528  0.9435  1.4128
 4576TIP3    H235144   5.835   2.853   1.542  1.2435 -0.4973 -0.5349
 4577TIP3   OH235145   0.247   1.124  11.948 -0.0986  0.4045  0.0365
 4577TIP3    H135146   0.217   1.211  11.921 -0.3076  0.3155 -0.0235
 4577TIP3    H235147   0.341   1.125  11.931  0.1734  1.1330  1.4297
 4578TIP3   OH235148   3.551   4.438  16.895 -0.1540 -0.0089  0.8416
 4578TIP3    H135149   3.620   4.371  16.901 -0.0263 -0.2930 -2.1548
 4578TIP3    H235150   3.540   4.470  16.985  3.1743 -0.6440  1.5944
 4579TIP3   OH235151   2.962   5.856   5.905 -0.3633  0.1689 -0.1959
 4579TIP3    H135152   3.029   5.870   5.839 -0.6620  1.0513 -0.3268
 4579TIP3    H235153   3.010   5.835   5.985  0.0645  0.5406 -0.3507
 4580TIP3   OH235154   1.494   6.763   6.458  0.0042 -0.0158  0.3528
 4580TIP3    H135155   1.576   6.729   6.422  1.0341  1.6228  1.0170
 4580TIP3    H235156   1.509   6.766   6.553 -1.4875 -1.2754  0.6722
 4581TIP3   OH235157   3.661   6.355  15.685  0.2498 -0.2710  0.0501
 4581TIP3    H135158   3.724   6.392  15.623  1.1080 -1.6578  0.0374
 4581TIP3    H235159   3.693   6.266  15.700 -1.7064 -1.0214  0.0466
 4582TIP3   OH235160   4.004   1.282   1.408 -0.3968 -0.4549 -0.7335
 4582TIP3    H135161   4.088   1.318   1.437 -0.3345 -0.6316 -0.6955
 4582TIP3    H235162   3.966   1.351   1.354  0.2731 -0.8097 -1.6683
 4583TIP3   OH235163   2.972   3.219   5.793 -0.7307  0.0904  0.7984
 4583TIP3    H135164   3.060   3.181   5.785 -1.2644 -1.0004 -0.4616
 4583TIP3    H235165   2.981   3.308   5.759 -0.0360  0.0997  0.9949
 4584TIP3   OH235166   0.843   0.853  12.540 -0.0824 -0.9113 -0.0942
 4584TIP3    H135167   0.914   0.900  12.585  0.6365 -2.4620  0.4404
 4584TIP3    H235168   0.878   0.836  12.453 -0.0320 -1.1577 -0.0255
 4585TIP3   OH235169   6.031   3.966  16.108 -0.5077 -0.6746  0.1003
 4585TIP3    H135170   6.065   4.034  16.167  1.3594 -1.9520  0.5948
 4585TIP3    H235171   6.083   3.976  16.028  0.9186 -2.4660  0.7480
 4586TIP3   OH235172   6.456   2.673   0.869  0.0867  0.0731 -0.2358
 4586TIP3    H135173   6.401   2.732   0.920 -0.2054 -0.7647  0.4291
 4586TIP3    H235174   6.481   2.725   0.792 -0.4861  0.9255  0.1364
 4587TIP3   OH235175   6.090   0.575  11.878  0.4535  0.1303  0.4059
 4587TIP3    H135176   6.061   0.527  11.801 -0.8161  0.3043  0.7444
 4587TIP3    H235177   6.171   0.531  11.906  1.0464  0.2035 -1.1242
 4588TIP3   OH235178   5.190   0.742   1.010  0.3991  0.0282 -0.3751
 4588TIP3    H135179   5.104   0.732   0.969 -0.0788 -1.8669  0.9628
 4588TIP3    H235180   5.192   0.834   1.037 -1.8844 -0.2148  0.8881
 4589TIP3   OH235181   6.254   6.687   4.530 -0.2569  0.0498 -0.0392
 4589TIP3    H135182   6.237   6.595   4.509 -1.8440  0.1493  0.6763
 4589TIP3    H235183   6.315   6.684   4.603 -1.6401 -0.5222  1.1508
 4590TIP3   OH235184   6.714   0.847  15.940  0.3789  0.4205 -0.5348
 4590TIP3    H135185   6.745   0.899  16.015 -1.4631  0.5015  0.2287
 4590TIP3    H235186   6.786   0.788  15.920  0.4684 -0.5316  2.1913
 4591TIP3   OH235187   4.572   4.663   2.407 -0.6080 -0.0242  0.4083
 4591TIP3    H135188   4.596   4.573   2.428 -0.7147 -0.2092 -0.2544
 4591TIP3    H235189   4.514   4.655   2.331 -1.2394  0.5452  0.8233
 4592TIP3   OH235190   5.926   4.129   6.464 -0.5780 -0.0897 -0.2229
 4592TIP3    H135191   5.844   4.157   6.423 -0.9121 -0.9780 -0.1765
 4592TIP3    H235192   5.994   4.177   6.417 -1.0500 -0.1123 -0.9409
 4593TIP3   OH235193   0.791   4.089  16.679  0.4517 -0.0041 -0.3368
 4593TIP3    H135194   0.786   4.172  16.727  0.2408  0.7019 -1.5451
 4593TIP3    H235195   0.734   4.101  16.604  0.3134 -1.3080 -0.4717
 4594TIP3   OH235196   0.868   1.837  11.724  0.3236  0.4966  0.3648
 4594TIP3    H135197   0.942   1.818  11.665 -1.2935 -0.9736 -1.3324
 4594TIP3    H235198   0.873   1.769  11.790  0.8445  0.8052  0.6558
 4595TIP3   OH235199   4.638   2.859  12.574 -0.4900  0.5583 -0.2098
 4595TIP3    H135200   4.657   2.790  12.637 -3.5146  0.0201  0.2990
 4595TIP3    H235201   4.688   2.836  12.496  0.4062 -0.8705  0.7465
 4596TIP3   OH235202   4.043   4.216   3.589 -0.7552  0.2377 -0.0883
 4596TIP3    H135203   4.085   4.244   3.670 -0.6716 -0.8110  0.2496
 4596TIP3    H235204   3.950   4.239   3.602 -1.0487 -1.3611  1.0208
 4597TIP3   OH235205   5.980   1.166  14.005  0.4023  0.3617 -0.2564
 4597TIP3    H135206   6.053   1.105  13.994  0.0040 -0.2482  0.4324
 4597TIP3    H235207   6.019   1.252  13.996  1.1858  0.0357 -0.0430
 4598TIP3   OH235208   6.328   1.885  15.803  0.2450 -0.7986  0.0926
 4598TIP3    H135209   6.269   1.810  15.803  0.6720 -1.1419  0.6241
 4598TIP3    H235210   6.348   1.899  15.711  0.7261 -1.8024  0.0235
 4599TIP3   OH235211   1.586   0.310   0.415 -0.4630 -0.6121 -0.2192
 4599TIP3    H135212   1.646   0.239   0.437  0.4421  0.4737  0.9265
 4599TIP3    H235213   1.502   0.282   0.452  0.7531  0.6550  4.0328
 4600TIP3   OH235214   5.665   2.985   3.811  0.0750  0.7750 -0.0758
 4600TIP3    H135215   5.581   2.941   3.826  1.4300 -1.7354  0.8020
 4600TIP3    H235216   5.649   3.041   3.735 -2.2343 -0.0577 -0.2921
 4601TIP3   OH235217   6.626   4.280  12.198 -0.0112 -0.0309 -0.3943
 4601TIP3    H135218   6.545   4.268  12.149 -1.2033  1.3383  1.1681
 4601TIP3    H235219   6.656   4.368  12.174  0.8803 -0.4117 -0.7309
 4602TIP3   OH235220   1.064   4.896  13.692 -0.0647 -0.2352 -0.5602
 4602TIP3    H135221   1.132   4.911  13.757 -1.5043 -2.4193  1.6105
 4602TIP3    H235222   0.989   4.865  13.742 -1.4440 -1.5519 -3.2207
 4603TIP3   OH235223   3.810   6.717  14.695 -0.4886 -0.1998 -0.0663
 4603TIP3    H135224   3.827   6.715  14.601 -0.2988 -0.4533 -0.0286
 4603TIP3    H235225   3.780   6.807  14.712 -2.7500 -0.7783 -0.7371
 4604TIP3   OH235226   6.584   1.338  11.993 -0.1408  0.3725  0.1400
 4604TIP3    H135227   6.634   1.419  12.003  0.6056  0.0318 -0.7062
 4604TIP3    H235228   6.642   1.280  11.945 -0.4093 -0.9131  1.3031
 4605TIP3   OH235229   0.600   6.503   4.928 -0.2327 -0.3395 -0.1117
 4605TIP3    H135230   0.521   6.451   4.916  1.0441 -2.5950  0.6124
 4605TIP3    H235231   0.670   6.438   4.936  1.7667  1.5768 -1.1741
 4606TIP3   OH235232   4.890   3.270   2.576  0.2175  0.2648 -0.4261
 4606TIP3    H135233   4.853   3.331   2.641  3.1369  0.5620  1.1398
 4606TIP3    H235234   4.824   3.266   2.507 -2.8191  0.4340  2.2285
 4607TIP3   OH235235   1.238   6.121   1.323 -0.3427 -0.4211  0.4533
 4607TIP3    H135236   1.311   6.131   1.384  0.1895  0.0947 -0.2515
 4607TIP3    H235237   1.224   6.209   1.288  0.2883 -0.9423 -1.2025
 4608TIP3   OH235238   1.977   6.408  12.177 -0.0271  0.0300 -0.0902
 4608TIP3    H135239   1.928   6.408  12.094  0.7114 -3.5455 -0.7010
 4608TIP3    H235240   1.961   6.494  12.214 -1.6367  1.2494 -3.2286
 4609TIP3   OH235241   4.293   2.951  13.388 -0.2902  0.1521 -0.0339
 4609TIP3    H135242   4.306   2.918  13.299 -0.4402 -0.7860  0.2824
 4609TIP3    H235243   4.270   3.043  13.376  0.7735  0.3194 -0.9063
 4610TIP3   OH235244   6.658   3.643  16.505 -0.1694  0.3116  1.3123
 4610TIP3    H135245   6.700   3.656  16.589 -0.5922  0.1850  1.5491
 4610TIP3    H235246   6.719   3.679  16.441  0.3312  0.0425  1.6366
 4611TIP3   OH235247   6.664   5.656   2.169  0.1367  0.4562 -0.4080
 4611TIP3    H135248   6.735   5.595   2.148 -0.0243  1.1640 -3.5685
 4611TIP3    H235249   6.585   5.603   2.162  0.1735  0.3322  0.0899
 4612TIP3   OH235250   2.518   4.406  16.122  0.5235 -0.2317 -0.8636
 4612TIP3    H135251   2.472   4.405  16.206  1.2893  2.1168 -0.3280
 4612TIP3    H235252   2.598   4.355  16.137  0.6074  0.0926 -0.1920
 4613TIP3   OH235253   3.817   1.868  12.467  0.0253 -0.6104  0.0249
 4613TIP3    H135254   3.904   1.848  12.430  0.4990  0.7879  0.3265
 4613TIP3    H235255   3.819   1.962  12.483 -0.8430 -0.8593  1.8807
 4614TIP3   OH235256   5.150   6.075  10.484  0.2193 -0.4678 -0.1862
 4614TIP3    H135257   5.208   6.042  10.416 -0.5659 -1.5005 -0.3734
 4614TIP3    H235258   5.173   6.168  10.493  1.2536 -0.6506 -0.8935
 4615TIP3   OH235259   0.068   0.249  15.357 -0.3866 -0.8286  0.0604
 4615TIP3    H135260   0.123   0.320  15.391 -0.2324 -0.1652 -1.4817
 4615TIP3    H235261   0.007   0.230  15.429  0.4724 -0.1108  1.0136
 4616TIP3   OH235262   3.592   5.477  11.379 -0.5432  0.0365 -0.1403
 4616TIP3    H135263   3.578   5.485  11.285  0.3576  0.1682 -0.2643
 4616TIP3    H235264   3.550   5.554  11.416 -3.1889 -1.2700 -0.1675
 4617TIP3   OH235265   2.686   4.903   5.097 -0.1953 -0.3473 -0.5075
 4617TIP3    H135266   2.601   4.943   5.082 -0.1149  0.6014  1.3084
 4617TIP3    H235267   2.666   4.819   5.139 -0.2748 -1.3099 -2.3418
 4618TIP3   OH235268   4.184   1.495   4.828  0.5075 -0.3489  0.6411
 4618TIP3    H135269   4.253   1.449   4.781  0.5203 -2.0912  2.2436
 4618TIP3    H235270   4.110   1.434   4.828 -0.5589  0.8973  0.1996
 4619TIP3   OH235271   2.167   4.119   3.528  0.4622  0.0380  0.6115
 4619TIP3    H135272   2.232   4.143   3.462 -0.5061  2.1416  0.3447
 4619TIP3    H235273   2.205   4.149   3.611  0.1225  0.6658  0.5411
 4620TIP3   OH235274   4.839   6.416   5.741  0.2086  0.0740 -0.0552
 4620TIP3    H135275   4.880   6.344   5.790 -2.0070 -2.2793 -1.4490
 4620TIP3    H235276   4.848   6.391   5.649  1.1935  2.6958 -0.7828
 4621TIP3   OH235277   6.379   2.979  12.753  0.1680  0.2280 -0.2790
 4621TIP3    H135278   6.401   2.923  12.678  0.8401 -0.0574  0.1224
 4621TIP3    H235279   6.289   3.008  12.735  0.4733  0.5280 -1.4174
 4622TIP3   OH235280   4.609   4.216   1.320 -0.3529  0.0236 -0.1760
 4622TIP3    H135281   4.592   4.294   1.373 -0.7394  0.0392 -0.3204
 4622TIP3    H235282   4.589   4.242   1.230  0.3412  0.0099 -0.3442
 4623TIP3   OH235283   1.077   4.139  13.314 -0.0444 -0.6902  0.6455
 4623TIP3    H135284   1.109   4.199  13.381  1.0482 -1.5308  0.9059
 4623TIP3    H235285   1.013   4.190  13.264  1.0921  0.7822  0.6444
 4624TIP3   OH235286   4.285   4.931  15.343  0.8165  0.0070  0.0080
 4624TIP3    H135287   4.264   4.955  15.252  0.8158  1.5501  0.3790
 4624TIP3    H235288   4.215   4.870  15.368  0.8688 -0.5140 -1.0408
 4625TIP3   OH235289   0.908   1.630   3.077 -0.2921  0.3242  0.0101
 4625TIP3    H135290   0.947   1.596   2.996 -0.4828 -1.3286  0.5791
 4625TIP3    H235291   0.906   1.725   3.064  2.4717  0.3834 -0.7090
 4626TIP3   OH235292   5.767   5.475  17.083  0.2270  0.0254 -0.6841
 4626TIP3    H135293   5.678   5.440  17.087  0.3771 -0.3634 -0.7583
 4626TIP3    H235294   5.823   5.403  17.111  0.5533  0.1374 -1.0393
 4627TIP3   OH235295   3.037   6.367  12.298  0.0043 -0.7797  0.4955
 4627TIP3    H135296   3.032   6.303  12.227 -0.3100  1.3577 -1.5250
 4627TIP3    H235297   3.131   6.381  12.311  0.0553 -0.5562 -0.0992
 4628TIP3   OH235298   0.404   1.720   5.090 -0.3086 -0.2192  0.3349
 4628TIP3    H135299   0.358   1.699   5.008  1.4053  1.0408 -1.0324
 4628TIP3    H235300   0.344   1.777   5.137 -0.4047  1.0209 -1.1962
 4629TIP3   OH235301   3.370   6.461  14.714  0.2155 -0.0760  0.0190
 4629TIP3    H135302   3.412   6.376  14.726 -0.5905 -0.6991 -1.3372
 4629TIP3    H235303   3.434   6.525  14.745  0.0623 -1.2253  3.0692
 4630TIP3   OH235304   2.543   5.703  15.916 -0.1957 -0.1225  0.1845
 4630TIP3    H135305   2.554   5.793  15.885 -0.2190 -0.1760  0.0224
 4630TIP3    H235306   2.454   5.700  15.951 -0.6360 -0.4091 -0.9072
 4631TIP3   OH235307   1.653   1.921   1.445 -0.0711 -0.3998 -0.2375
 4631TIP3    H135308   1.691   1.838   1.416  0.8074 -0.4711  1.0357
 4631TIP3    H235309   1.600   1.897   1.521 -2.6308 -0.2792 -1.8540
 4632TIP3   OH235310   1.290   4.589  11.299  0.8080  0.1913 -0.4545
 4632TIP3    H135311   1.319   4.668  11.255 -0.2909 -0.4406 -2.4508
 4632TIP3    H235312   1.201   4.575  11.267  0.2795 -0.8271  1.3134
 4633TIP3   OH235313   6.397   6.288  11.365  0.4092  0.7221 -0.5495
 4633TIP3    H135314   6.360   6.284  11.277 -0.8167  1.9872 -0.1309
 4633TIP3    H235315   6.463   6.358  11.360  0.1417  0.9890 -0.4120
 4634TIP3   OH235316   5.436   0.052   1.615  0.4265 -0.9593  0.2343
 4634TIP3    H135317   5.409  -0.021   1.670  1.0115 -1.4208 -0.0743
 4634TIP3    H235318   5.458   0.122   1.676 -1.1613 -0.6681  0.4991
 4635TIP3   OH235319   6.275   3.569   5.319 -0.4687 -0.2962 -0.2775
 4635TIP3    H135320   6.268   3.479   5.285 -1.5061 -0.9713  1.6018
 4635TIP3    H235321   6.234   3.565   5.405  1.1068  1.5905  0.6184
 4636TIP3   OH235322   4.013   0.901   2.844  0.0031 -0.1469 -0.4615
 4636TIP3    H135323   4.032   0.991   2.818 -0.2568 -0.5993 -2.3483
 4636TIP3    H235324   3.949   0.910   2.915  1.6507  1.1729  0.9694
 4637TIP3   OH235325   5.431   2.402  16.645  0.0308 -0.2351  0.0628
 4637TIP3    H135326   5.460   2.349  16.571  0.8377  0.3451 -0.0449
 4637TIP3    H235327   5.336   2.401  16.640  0.0729 -0.5532 -0.7324
 4638TIP3   OH235328   1.846   4.578  17.173 -0.2372 -0.0831 -0.1549
 4638TIP3    H135329   1.938   4.604  17.180 -0.4311  0.7104 -0.4660
 4638TIP3    H235330   1.839   4.539  17.086 -0.4104  0.7946 -0.5463
 4639TIP3   OH235331   0.608   3.373   5.572  0.1234  0.4247  0.2047
 4639TIP3    H135332   0.605   3.427   5.651  0.8903  1.5522 -0.5049
 4639TIP3    H235333   0.667   3.420   5.513  1.4020 -1.5547 -0.1853
 4640TIP3   OH235334   5.580   3.056   5.072  0.1665  0.1469 -0.3394
 4640TIP3    H135335   5.515   3.054   5.002 -0.8596 -0.0148  0.5922
 4640TIP3    H235336   5.537   3.104   5.143  0.8934 -0.3714  0.4655
 4641TIP3   OH235337   0.580   1.523   0.674 -0.1587 -0.4229  0.3212
 4641TIP3    H135338   0.660   1.499   0.720  0.2815 -1.0983 -0.7585
 4641TIP3    H235339   0.562   1.448   0.617 -0.2028  0.7328 -1.2393
 4642TIP3   OH235340   3.131   2.220  11.582 -0.1838  0.1881 -0.0028
 4642TIP3    H135341   3.172   2.289  11.529 -0.1525  0.3253  0.1972
 4642TIP3    H235342   3.203   2.161  11.604 -0.5555 -1.0589 -1.9050
 4643TIP3   OH235343   3.638   0.812  12.697  0.3098 -0.0720 -0.2441
 4643TIP3    H135344   3.567   0.875  12.683  0.4251 -0.3349 -2.3332
 4643TIP3    H235345   3.711   0.865  12.729 -0.1458  0.5446 -0.2084
 4644TIP3   OH235346   6.683   4.850  11.878 -0.2259  0.2411 -0.2742
 4644TIP3    H135347   6.757   4.816  11.929 -0.8209 -2.2008 -0.8993
 4644TIP3    H235348   6.720   4.869  11.792  0.0421  0.8606 -0.0276
 4645TIP3   OH235349   6.482   2.826  12.555  0.1103  0.4363  0.1135
 4645TIP3    H135350   6.533   2.824  12.474 -0.6816 -1.8945 -0.4100
 4645TIP3    H235351   6.444   2.738  12.562 -0.3756  0.7607  2.6926
 4646TIP3   OH235352   6.198   4.859  11.771 -0.1017 -0.1999  0.4198
 4646TIP3    H135353   6.277   4.896  11.810  0.1369  0.6129 -0.7883
 4646TIP3    H235354   6.213   4.865  11.676 -1.1631 -1.0135  0.1801
 4647TIP3   OH235355   0.739   5.422   3.622 -0.2294 -0.5538 -0.6949
 4647TIP3    H135356   0.819   5.457   3.583 -0.4741  0.5495 -0.2398
 4647TIP3    H235357   0.676   5.420   3.549 -0.2352  0.0531 -0.7130
 4648TIP3   OH235358   3.486   4.827   4.340  0.3023  0.1721 -0.6727
 4648TIP3    H135359   3.546   4.753   4.350  1.5341  1.4128  2.2638
 4648TIP3    H235360   3.464   4.827   4.247 -0.6058 -4.4491 -0.7266
 4649TIP3   OH235361   6.119   0.217   3.465 -0.3740  0.1828  0.2356
 4649TIP3    H135362   6.169   0.296   3.485  0.1574 -0.5784  2.1155
 4649TIP3    H235363   6.186   0.152   3.444 -0.7231 -0.1654  0.1971
 4650TIP3   OH235364   2.064   4.655  11.850 -0.0945  0.4784 -0.3197
 4650TIP3    H135365   2.106   4.710  11.917 -0.3096  1.1857 -0.7527
 4650TIP3    H235366   1.980   4.697  11.833 -0.5445 -0.3516 -0.2091
 4651TIP3   OH235367   3.774   2.891   0.079 -0.0217 -0.0891 -0.6462
 4651TIP3    H135368   3.840   2.892   0.148 -0.8993 -1.6074  0.2607
 4651TIP3    H235369   3.778   2.978   0.041 -1.0131  1.5811  2.7485
 4652TIP3   OH235370   5.482   4.215   1.134  0.0948  0.3779 -0.1323
 4652TIP3    H135371   5.517   4.138   1.179 -0.1662 -0.0544 -0.6417
 4652TIP3    H235372   5.558   4.269   1.116  0.5900 -0.7147 -1.5486
 4653TIP3   OH235373   3.760   2.791  13.502 -0.0731 -0.2324  0.9613
 4653TIP3    H135374   3.828   2.760  13.562 -0.6039 -1.3546  1.0210
 4653TIP3    H235375   3.774   2.885  13.496  0.5922 -0.2340  2.1000
 4654TIP3   OH235376   4.667   2.710   5.702  0.0352 -0.1619  0.1184
 4654TIP3    H135377   4.634   2.624   5.675 -1.7333  1.0911 -2.1227
 4654TIP3    H235378   4.588   2.761   5.721  1.0621  0.8799  1.7989
 4655TIP3   OH235379   0.213   2.087   6.348  0.3690 -0.1639  0.0931
 4655TIP3    H135380   0.169   2.162   6.307 -0.4275 -1.2110 -1.0466
 4655TIP3    H235381   0.146   2.049   6.406  0.2847 -0.7890 -0.3934
 4656TIP3   OH235382   4.041   6.724   5.356 -0.2458  0.0608 -0.1165
 4656TIP3    H135383   3.992   6.768   5.425  0.7581 -0.3284  0.8905
 4656TIP3    H235384   3.994   6.642   5.340 -0.6381  0.2825 -0.0987
 4657TIP3   OH235385   0.184   3.066  11.406  0.1509 -0.2574 -0.4256
 4657TIP3    H135386   0.251   3.117  11.359  0.6186  0.1325  0.6220
 4657TIP3    H235387   0.152   3.126  11.473 -0.3836 -0.8600 -0.1356
 4658TIP3   OH235388   6.526   1.933   1.244 -0.4459 -0.6163 -0.2120
 4658TIP3    H135389   6.553   1.912   1.155  0.9951 -1.2623  0.3489
 4658TIP3    H235390   6.607   1.934   1.294 -1.2910 -0.9215  1.2258
 4659TIP3   OH235391   6.066   2.818   1.602  0.5968 -0.3421  0.0557
 4659TIP3    H135392   6.047   2.725   1.613  1.2516 -0.4606  0.2006
 4659TIP3    H235393   6.095   2.827   1.512 -1.6361  0.1075 -0.6986
 4660TIP3   OH235394   5.094   1.841   4.416  0.4794 -0.6372 -0.4282
 4660TIP3    H135395   5.040   1.770   4.449  0.9915 -1.7361 -1.8575
 4660TIP3    H235396   5.081   1.839   4.321  1.8819  0.0334 -0.6604
 4661TIP3   OH235397   6.526   3.222  10.347 -0.1835 -0.1990  0.1296
 4661TIP3    H135398   6.595   3.271  10.302 -1.7236  0.4320 -1.6874
 4661TIP3    H235399   6.572   3.169  10.412  1.9171  0.7425 -0.5120
 4662TIP3   OH235400   4.468   2.028   4.563 -0.2517 -0.0507  0.2367
 4662TIP3    H135401   4.446   1.980   4.483  0.9473 -1.5867  0.7695
 4662TIP3    H235402   4.437   2.117   4.547 -2.4130 -0.9301 -0.8857
 4663TIP3   OH235403   0.998   4.344   0.594 -0.0406 -0.2056 -0.1636
 4663TIP3    H135404   1.026   4.254   0.610 -0.3407  0.1434  2.7941
 4663TIP3    H235405   1.063   4.398   0.639 -1.9384  0.8474  1.4986
 4664TIP3   OH235406   4.243   3.554  12.586 -0.2099 -0.0917  0.2863
 4664TIP3    H135407   4.267   3.508  12.506  0.7524  2.6925 -1.1552
 4664TIP3    H235408   4.189   3.628  12.557  0.1503  0.9945  2.1856
 4665TIP3   OH235409   3.780   4.826   0.619 -0.2585 -0.4967 -0.5515
 4665TIP3    H135410   3.821   4.743   0.644  0.7564 -0.2367 -1.2933
 4665TIP3    H235411   3.686   4.806   0.614 -0.0947 -1.4396 -0.1208
 4666TIP3   OH235412   3.211   1.028   5.111  0.4836 -0.4354  0.0330
 4666TIP3    H135413   3.280   0.973   5.073  1.1789  0.2957  0.2046
 4666TIP3    H235414   3.224   1.113   5.070 -0.0438 -0.1778  0.3963
 4667TIP3   OH235415   4.615   3.100   1.060 -0.1181 -0.5017  0.6815
 4667TIP3    H135416   4.567   3.179   1.085  0.4685 -0.5162  1.9381
 4667TIP3    H235417   4.667   3.127   0.984  1.7497  1.0119  2.3709
 4668TIP3   OH235418   4.833   4.663   1.675  0.4565  0.0053 -0.2053
 4668TIP3    H135419   4.806   4.737   1.729 -3.3809 -0.8171 -0.7021
 4668TIP3    H235420   4.866   4.599   1.738 -0.6059  0.4015  0.7976
 4669TIP3   OH235421   3.664   1.589   6.344  0.2257 -0.3830 -0.4480
 4669TIP3    H135422   3.614   1.630   6.273 -1.5648 -0.6090  0.6125
 4669TIP3    H235423   3.603   1.588   6.418  1.7696 -0.8677  0.8677
 4670TIP3   OH235424   3.029   2.348  11.202  0.5313  0.3390 -0.4543
 4670TIP3    H135425   3.006   2.432  11.243 -2.5690 -0.2135 -0.8328
 4670TIP3    H235426   3.097   2.312  11.259 -1.3163  1.0490  2.4382
 4671TIP3   OH235427   4.212   1.148  17.010 -0.3111  0.3301  0.8371
 4671TIP3    H135428   4.254   1.087  17.070 -2.4826 -2.5398 -0.2820
 4671TIP3    H235429   4.141   1.187  17.061 -2.0828 -2.0189  0.3812
 4672TIP3   OH235430   0.125   6.167  13.948 -0.6591  0.1744  0.7609
 4672TIP3    H135431   0.110   6.171  13.853 -0.6977  0.0543  0.7621
 4672TIP3    H235432   0.049   6.212  13.985 -0.5210  0.4438  0.7271
 4673TIP3   OH235433   4.547   0.780   5.941  0.2483 -0.0239  0.2252
 4673TIP3    H135434   4.573   0.854   5.887  3.4302 -1.8825 -1.0974
 4673TIP3    H235435   4.570   0.806   6.030  0.3384  0.9774 -0.0847
 4674TIP3   OH235436   0.696   1.027  17.100  0.2954 -0.1723 -0.2990
 4674TIP3    H135437   0.735   0.946  17.066 -1.2296 -0.2620 -1.9960
 4674TIP3    H235438   0.723   1.095  17.038  1.1290  0.5539  0.8267
 4675TIP3   OH235439   3.276   1.094   3.724 -0.6324 -0.1010 -0.2571
 4675TIP3    H135440   3.346   1.155   3.701 -0.9705  0.6412  0.6376
 4675TIP3    H235441   3.306   1.054   3.806 -0.8628 -0.4217 -0.3283
 4676TIP3   OH235442   5.845   1.830   2.325 -0.4580 -0.7721 -0.5707
 4676TIP3    H135443   5.859   1.735   2.324 -1.1694 -0.9710  1.9059
 4676TIP3    H235444   5.783   1.844   2.397  0.5618  1.6874 -0.0913
 4677TIP3   OH235445   1.282   2.781  16.604  0.0368 -0.2382 -0.2024
 4677TIP3    H135446   1.330   2.786  16.521 -0.2023 -0.4148 -0.3509
 4677TIP3    H235447   1.295   2.866  16.644  0.3029 -0.2127 -0.3405
 4678TIP3   OH235448   4.759   3.138  10.802 -0.3259 -0.0463 -0.1373
 4678TIP3    H135449   4.763   3.173  10.713 -0.3872 -1.2340 -0.6299
 4678TIP3    H235450   4.666   3.141  10.824 -0.1218  2.0660  0.6794
 4679TIP3   OH235451   0.613   0.593   4.044  0.4195 -0.1466  0.1901
 4679TIP3    H135452   0.634   0.674   3.996 -0.8052 -0.4404 -0.9179
 4679TIP3    H235453   0.529   0.611   4.086  0.7136 -0.4505  0.9261
 4680TIP3   OH235454   6.653   6.392   6.167 -0.2005 -0.3073 -0.1699
 4680TIP3    H135455   6.701   6.474   6.181  1.2874 -1.1591 -0.1078
 4680TIP3    H235456   6.562   6.420   6.155  0.1731  1.3057  0.4271
 4681TIP3   OH235457   0.294   6.675  15.371  0.4657  0.1720  0.9432
 4681TIP3    H135458   0.285   6.709  15.460 -0.9426  1.1451  0.4651
 4681TIP3    H235459   0.377   6.628  15.371 -0.2318 -1.1927  3.1974
 4682TIP3   OH235460   6.370   3.608   4.955  0.4452 -0.2570 -0.8522
 4682TIP3    H135461   6.371   3.618   5.050 -2.1617  0.9990 -0.8883
 4682TIP3    H235462   6.337   3.519   4.941 -0.8794  0.1716 -0.5559
 4683TIP3   OH235463   5.604   3.177  15.880  0.1787 -0.2661 -0.3673
 4683TIP3    H135464   5.546   3.104  15.901  0.2152  0.3740  2.4408
 4683TIP3    H235465   5.674   3.138  15.827 -1.7262 -1.4302 -2.1656
 4684TIP3   OH235466   6.518   3.717   0.195 -0.4929 -0.1863  0.3269
 4684TIP3    H135467   6.518   3.785   0.128 -1.2455 -1.0840 -0.6158
 4684TIP3    H235468   6.609   3.687   0.199 -0.6381 -0.9000 -1.1280
 4685TIP3   OH235469   5.104   2.690   1.091  0.0481 -0.1632 -0.1426
 4685TIP3    H135470   5.039   2.690   1.162 -0.7145 -0.9200 -0.8099
 4685TIP3    H235471   5.084   2.768   1.040  0.7116  0.4785  0.5648
 4686TIP3   OH235472   4.780   2.150   1.327 -0.0234 -0.0781 -0.5248
 4686TIP3    H135473   4.851   2.175   1.386 -1.5893  1.0624  0.9846
 4686TIP3    H235474   4.746   2.068   1.363 -0.8747  0.5330  0.1044
 4687TIP3   OH235475   5.016   6.369   2.914  0.1198 -0.2632  0.1868
 4687TIP3    H135476   5.037   6.286   2.957 -0.7204 -0.3885  0.3734
 4687TIP3    H235477   4.944   6.405   2.966  1.1631  1.0991  0.7420
 4688TIP3   OH235478   6.394   2.940  13.160 -0.8045  0.0499  0.1612
 4688TIP3    H135479   6.301   2.925  13.142 -1.3348  0.6585  2.1682
 4688TIP3    H235480   6.395   3.005  13.229  1.1849  1.1780 -0.8440
 4689TIP3   OH235481   2.356   1.473  11.873 -0.3590 -0.3367 -0.3006
 4689TIP3    H135482   2.292   1.497  11.805 -0.6521 -0.8366 -0.2040
 4689TIP3    H235483   2.386   1.557  11.908 -1.0318 -0.0968 -0.2815
 4690TIP3   OH235484   4.977   0.594   5.039  0.3406 -0.6613  0.0805
 4690TIP3    H135485   4.948   0.582   5.129  1.2111 -0.7053  0.3665
 4690TIP3    H235486   4.913   0.546   4.987 -0.0231 -0.8546  0.6954
 4691TIP3   OH235487   5.485   0.339  14.252  0.4783  0.6701 -0.9657
 4691TIP3    H135488   5.413   0.391  14.217  1.4679  4.0505  1.5377
 4691TIP3    H235489   5.564   0.391  14.235  2.0710 -1.6324 -1.2213
 4692TIP3   OH235490   5.674   0.305   3.908 -0.0733 -0.4651 -0.3447
 4692TIP3    H135491   5.726   0.239   3.954 -1.2772 -1.7524 -0.7587
 4692TIP3    H235492   5.616   0.341   3.975 -0.1560 -0.5890 -0.3507
 4693TIP3   OH235493   2.632   2.344   3.158 -0.2568  0.3825 -0.4171
 4693TIP3    H135494   2.602   2.253   3.148 -0.3542  0.4021 -0.3056
 4693TIP3    H235495   2.683   2.344   3.238 -0.5455  0.5003 -0.2331
 4694TIP3   OH235496   0.881   2.264  12.751 -0.4097  0.8253 -0.0060
 4694TIP3    H135497   0.914   2.332  12.692 -0.5298  0.4910 -0.4669
 4694TIP3    H235498   0.898   2.182  12.704  0.5694  0.4704  0.9279
 4695TIP3   OH235499   1.952   2.077  10.750 -0.2272  0.0301  0.5059
 4695TIP3    H135500   1.923   2.165  10.773 -0.3009 -0.3701  2.0802
 4695TIP3    H235501   1.880   2.041  10.698 -0.5960  0.5943  0.6206
 4696TIP3   OH235502   0.724   4.415   4.768 -0.0600  0.5929  0.0377
 4696TIP3    H135503   0.780   4.440   4.842 -0.1347 -0.6861  0.5442
 4696TIP3    H235504   0.784   4.384   4.701 -0.1441 -1.5313  0.8722
 4697TIP3   OH235505   4.721   1.827  15.166 -0.5894 -0.1979  0.4853
 4697TIP3    H135506   4.660   1.754  15.171 -1.3113  0.3442 -0.2553
 4697TIP3    H235507   4.706   1.877  15.247 -1.7961  0.4407 -0.1158
 4698TIP3   OH235508   1.421   5.396  10.994 -0.0492 -0.2100  0.2448
 4698TIP3    H135509   1.395   5.307  10.969  1.4128 -0.6116  0.0374
 4698TIP3    H235510   1.489   5.419  10.931  0.5078  0.5467  1.1018
 4699TIP3   OH235511   2.622   2.056   2.480 -0.0937  0.0568  0.0039
 4699TIP3    H135512   2.572   2.094   2.552  0.6650  0.1785  0.4767
 4699TIP3    H235513   2.556   2.034   2.414 -0.6103  1.6888 -0.0675
 4700TIP3   OH235514   5.350   2.421  13.307 -0.2804 -0.7685 -0.4093
 4700TIP3    H135515   5.376   2.401  13.218  0.1041  1.2490 -0.8043
 4700TIP3    H235516   5.274   2.478  13.298  0.1543 -0.0092  0.4975
 4701TIP3   OH235517   2.057   3.672  16.990 -0.0846 -0.1898  0.1466
 4701TIP3    H135518   2.004   3.724  16.930 -1.0617 -1.5986 -0.2370
 4701TIP3    H235519   2.063   3.726  17.069  0.3493  1.2265 -0.8071
 4702TIP3   OH235520   0.167   4.378   2.749 -0.1052 -0.3130 -0.2854
 4702TIP3    H135521   0.193   4.382   2.657  1.1237 -0.2768  0.0473
 4702TIP3    H235522   0.120   4.460   2.764  0.9219  0.3481 -0.5447
 4703TIP3   OH235523   2.406   1.904   6.423 -0.0997  0.0340 -0.7663
 4703TIP3    H135524   2.364   1.823   6.393  1.1674 -0.2456 -1.9322
 4703TIP3    H235525   2.394   1.905   6.517  1.9873 -2.8468 -0.3396
 4704TIP3   OH235526   0.635   4.058   0.683  0.2111  0.5130 -0.0217
 4704TIP3    H135527   0.679   4.081   0.765  1.4066  1.8328 -0.9852
 4704TIP3    H235528   0.579   4.133   0.664 -1.2110 -0.4280  0.3139
 4705TIP3   OH235529   1.255   3.666  12.233 -0.1220  0.1533  0.1036
 4705TIP3    H135530   1.278   3.712  12.152 -0.2481 -1.7749 -1.0794
 4705TIP3    H235531   1.209   3.588  12.204  2.6122 -2.3009  1.7750
 4706TIP3   OH235532   3.078   3.720   5.158 -0.2734  0.0014  0.1761
 4706TIP3    H135533   3.063   3.627   5.175  0.8633  0.2063  2.6557
 4706TIP3    H235534   3.147   3.721   5.091 -1.6544 -0.8740 -1.3465
 4707TIP3   OH235535   5.672   1.541  14.886 -0.7131  0.0823 -0.1021
 4707TIP3    H135536   5.629   1.568  14.967 -0.0865 -0.4376  0.4193
 4707TIP3    H235537   5.717   1.459  14.909 -0.9323 -0.3417 -1.1021
 4708TIP3   OH235538   3.929   4.966   4.773  0.0438 -0.6165  0.6714
 4708TIP3    H135539   3.841   4.934   4.753 -0.3895  0.8968  0.0086
 4708TIP3    H235540   3.916   5.028   4.846  0.3955  0.3371 -0.0510
 4709TIP3   OH235541   2.353   5.273   3.663  0.0070  0.0603  0.3887
 4709TIP3    H135542   2.433   5.231   3.633  0.3055  0.1012  1.1001
 4709TIP3    H235543   2.331   5.336   3.594  1.3361  1.0051  0.7898
 4710TIP3   OH235544   5.653   3.294   6.509 -0.1911  0.1315 -0.3065
 4710TIP3    H135545   5.726   3.323   6.455  0.0332 -2.9174 -1.8856
 4710TIP3    H235546   5.685   3.301   6.599  1.7351 -0.2544 -0.9235
 4711TIP3   OH235547   0.310   2.514   3.049 -0.4456  0.0823 -0.0320
 4711TIP3    H135548   0.347   2.428   3.031 -1.9219 -0.8219  1.0459
 4711TIP3    H235549   0.217   2.497   3.067 -0.5922  1.7915  1.0351
 4712TIP3   OH235550   4.587   1.992  14.513  0.4428 -0.4738 -0.8384
 4712TIP3    H135551   4.601   1.897  14.520  0.2668 -0.5776 -1.8281
 4712TIP3    H235552   4.576   2.008  14.420 -0.3597  0.4081 -0.6055
 4713TIP3   OH235553   2.144   0.431  11.885  0.2740  0.0877 -0.2086
 4713TIP3    H135554   2.091   0.501  11.848  1.2602  0.8304 -0.2646
 4713TIP3    H235555   2.096   0.350  11.865 -1.5943  0.8233  1.0566
 4714TIP3   OH235556   1.858   6.160   4.207  0.3348 -0.5455 -0.4896
 4714TIP3    H135557   1.891   6.078   4.244  0.0513 -0.5745 -0.3013
 4714TIP3    H235558   1.887   6.159   4.116  0.4015 -0.8176 -0.4655
 4715TIP3   OH235559   4.347   3.907  12.500  0.2837  0.2291  0.2643
 4715TIP3    H135560   4.380   3.984  12.454 -1.3826  0.4215 -0.7021
 4715TIP3    H235561   4.412   3.839  12.483  3.0537  1.8998  3.1125
 4716TIP3   OH235562   1.874   2.845  17.012  0.4147  0.3093 -0.1849
 4716TIP3    H135563   1.865   2.750  17.007  0.0440  0.3712 -0.9842
 4716TIP3    H235564   1.816   2.878  16.943 -0.2388  1.1586  0.7373
 4717TIP3   OH235565   1.846   6.430   5.085 -0.8600 -0.1893  0.1170
 4717TIP3    H135566   1.870   6.521   5.105  2.3187 -0.9615  0.3738
 4717TIP3    H235567   1.770   6.437   5.028  0.1950  2.7138 -1.1182
 4718TIP3   OH235568   2.379   1.249   5.891 -0.0557 -0.2347  0.3903
 4718TIP3    H135569   2.367   1.317   5.958 -1.9108  0.6825 -0.7905
 4718TIP3    H235570   2.472   1.251   5.871  0.2794  0.4614  1.9166
 4719TIP3   OH235571   3.538   5.810  11.797  0.0758 -0.3484 -0.5212
 4719TIP3    H135572   3.501   5.839  11.881 -0.1918 -1.4739 -0.2255
 4719TIP3    H235573   3.470   5.754  11.759  0.0917  0.3495 -1.6228
 4720TIP3   OH235574   1.564   3.365   2.929 -0.0652  0.7564 -0.1257
 4720TIP3    H135575   1.643   3.383   2.981  0.6109 -0.0777 -0.8148
 4720TIP3    H235576   1.492   3.400   2.981  0.7543  1.5040  0.5455
 4721TIP3   OH235577   5.349   1.048   6.444  0.5084  0.1675 -0.1877
 4721TIP3    H135578   5.340   1.071   6.351 -0.7506 -2.7154 -0.8895
 4721TIP3    H235579   5.265   1.011   6.468  0.6063  1.3778  2.3552
 4722TIP3   OH235580   6.106   2.397   5.387  0.2582  0.3104  0.2295
 4722TIP3    H135581   6.186   2.369   5.341  0.7636  2.3832 -0.2518
 4722TIP3    H235582   6.044   2.416   5.318  0.3442  1.4955  0.4532
 4723TIP3   OH235583   0.338   3.330   0.616 -0.2053  0.4692 -0.9779
 4723TIP3    H135584   0.389   3.405   0.587  0.3313  0.2090 -0.7373
 4723TIP3    H235585   0.343   3.268   0.543  0.1454  0.2922 -0.8063
 4724TIP3   OH235586   4.076   1.018   0.093 -0.1040  1.0391 -0.1295
 4724TIP3    H135587   4.165   0.984   0.094 -0.0303  1.2323 -0.1506
 4724TIP3    H235588   4.067   1.067   0.175 -0.9153 -0.8289  0.9585
 4725TIP3   OH235589   1.602   1.450   3.035  0.0371  0.2030  0.5456
 4725TIP3    H135590   1.692   1.431   3.060 -0.9459 -2.0739  2.8699
 4725TIP3    H235591   1.564   1.494   3.111 -0.8963  0.9337 -0.3140
 4726TIP3   OH235592   5.944   3.569   3.436 -0.2769 -0.1545 -0.3374
 4726TIP3    H135593   6.013   3.542   3.496 -1.5072 -0.2988  1.0961
 4726TIP3    H235594   5.989   3.594   3.355  1.3133 -1.5470  0.0703
 4727TIP3   OH235595   5.759   2.931   3.096  0.1393 -0.6956 -0.2068
 4727TIP3    H135596   5.669   2.964   3.106  0.4843  0.5333 -0.8566
 4727TIP3    H235597   5.805   2.967   3.171  0.0958 -1.3031  0.1108
 4728TIP3   OH235598   4.281   6.630   1.081  0.3960  0.2495  0.3039
 4728TIP3    H135599   4.357   6.572   1.084  1.5642  1.7528  1.6293
 4728TIP3    H235600   4.304   6.698   1.018  0.0945  0.6320  0.5978
 4729TIP3   OH235601   3.904   3.748  14.416  0.5978 -0.1967 -0.0538
 4729TIP3    H135602   3.977   3.689  14.401  1.4561  0.9727 -0.6701
 4729TIP3    H235603   3.850   3.740  14.338  0.3356 -0.6667  0.1700
 4730TIP3   OH235604   1.483   0.740   2.451  0.8964 -0.5771 -0.1127
 4730TIP3    H135605   1.418   0.810   2.461  0.3033 -0.6336 -2.6857
 4730TIP3    H235606   1.557   0.768   2.503  0.3521  1.5884 -0.4052
 4731TIP3   OH235607   4.612   3.484   1.587  0.0639  0.0826  0.3909
 4731TIP3    H135608   4.568   3.436   1.516 -1.6141  1.7680  0.2035
 4731TIP3    H235609   4.557   3.469   1.664  0.6818  0.0324  0.8288
 4732TIP3   OH235610   3.335   1.667  14.785 -0.1842 -0.4234 -0.6407
 4732TIP3    H135611   3.250   1.710  14.788  0.4691  1.0134 -1.7751
 4732TIP3    H235612   3.317   1.580  14.748 -1.3239 -0.6997  0.4581
 4733TIP3   OH235613   2.357   0.215  13.473 -0.0649  0.0580 -0.0305
 4733TIP3    H135614   2.389   0.127  13.491  0.6247  0.6730  2.0505
 4733TIP3    H235615   2.433   0.271  13.490 -0.1460  1.0145 -2.4329
 4734TIP3   OH235616   2.787   1.604  11.999 -0.2959  0.1246 -0.3467
 4734TIP3    H135617   2.815   1.515  11.980 -2.8210 -0.5266 -1.3564
 4734TIP3    H235618   2.731   1.596  12.076  0.8668  1.1369  0.6455
 4735TIP3   OH235619   2.370   3.938   3.648 -0.3979 -0.0400  0.1992
 4735TIP3    H135620   2.407   4.027   3.648  0.0555 -0.2253  0.4482
 4735TIP3    H235621   2.446   3.881   3.636 -0.2519 -0.5523  2.8818
 4736TIP3   OH235622   3.097   2.486  13.442 -0.4296 -0.3824 -0.2523
 4736TIP3    H135623   3.032   2.433  13.396  0.4605 -0.3455 -1.6183
 4736TIP3    H235624   3.070   2.484  13.534 -2.5462 -0.0702 -0.8278
 4737TIP3   OH235625   6.432   0.643   1.008  0.2709  0.2740  0.3482
 4737TIP3    H135626   6.417   0.653   1.102  1.0872 -1.0044  0.6405
 4737TIP3    H235627   6.351   0.606   0.974  0.9855 -2.1869  1.1146
 4738TIP3   OH235628   5.010   4.056   3.356 -0.1257  0.3884  0.0937
 4738TIP3    H135629   5.018   3.992   3.285 -0.5916  0.0422  0.3541
 4738TIP3    H235630   4.918   4.054   3.380  0.0954  0.2430  0.9529
 4739TIP3   OH235631   1.903   2.112  16.222  0.0223 -0.3620  0.0288
 4739TIP3    H135632   1.950   2.195  16.212  0.6226 -0.5936  0.8039
 4739TIP3    H235633   1.963   2.056  16.270 -0.9235 -0.7769  0.7681
 4740TIP3   OH235634   3.441   6.178   1.934 -0.1667  0.5281 -0.1230
 4740TIP3    H135635   3.489   6.259   1.951  2.1375 -0.2323 -2.3206
 4740TIP3    H235636   3.401   6.191   1.848 -3.3386  0.7673  1.2323
 4741TIP3   OH235637   0.584   0.214   0.926  0.6643  0.2201  0.3515
 4741TIP3    H135638   0.648   0.196   0.995 -1.4842 -0.2932  2.3481
 4741TIP3    H235639   0.557   0.304   0.941  1.2488  0.6065 -0.8071
 4742TIP3   OH235640   4.507   0.465   0.791 -0.5010  0.4031 -0.1570
 4742TIP3    H135641   4.463   0.421   0.864 -0.7019  1.7165  0.5413
 4742TIP3    H235642   4.459   0.436   0.713 -1.1695  0.0638  0.3702
 4743TIP3   OH235643   2.774   0.534  15.787  0.5565  0.2729 -0.4043
 4743TIP3    H135644   2.692   0.527  15.836  0.6245 -0.9302 -0.4371
 4743TIP3    H235645   2.766   0.616  15.739 -1.8950 -1.1369 -2.6723
 4744TIP3   OH235646   0.574   3.344   3.768 -0.1342  0.2627 -0.7128
 4744TIP3    H135647   0.494   3.311   3.728 -0.8971  2.3174 -1.0080
 4744TIP3    H235648   0.597   3.421   3.715  0.3003  1.5134  1.1795
 4745TIP3   OH235649   6.580   5.264   0.624 -0.6098  0.1730  0.0699
 4745TIP3    H135650   6.588   5.333   0.690 -0.3010  0.9491 -0.7533
 4745TIP3    H235651   6.490   5.272   0.592 -0.0201  1.5058 -1.3857
 4746TIP3   OH235652   0.772   2.040  13.868  0.2578 -0.5358  0.1806
 4746TIP3    H135653   0.712   2.111  13.848  0.4962 -0.1879  0.6655
 4746TIP3    H235654   0.742   2.006  13.953 -0.3568 -1.5608 -0.4285
 4747TIP3   OH235655   1.872   2.872   5.335  0.5856  0.1886 -0.3390
 4747TIP3    H135656   1.846   2.817   5.261  0.3551  2.0064 -1.6813
 4747TIP3    H235657   1.873   2.961   5.299 -1.9062  1.4909  2.4185
 4748TIP3   OH235658   0.054   4.339   6.537 -0.0786  0.5707 -0.1254
 4748TIP3    H135659   0.006   4.281   6.596 -0.2884  0.1625 -0.6805
 4748TIP3    H235660   0.130   4.287   6.509  0.6975  1.2108  0.7465
 4749TIP3   OH235661   5.890   4.687   1.389  0.5417  0.4472 -0.2575
 4749TIP3    H135662   5.904   4.744   1.464  2.6414  0.4736 -0.6075
 4749TIP3    H235663   5.976   4.683   1.346 -0.3647 -0.3286 -2.1068
 4750TIP3   OH235664   0.058   2.211  14.246  0.5021  0.2827  0.5001
 4750TIP3    H135665   0.151   2.227  14.256  0.4627 -0.0165  1.4120
 4750TIP3    H235666   0.051   2.118  14.225  0.5277  0.7221 -1.7535
 4751TIP3   OH235667   2.959   0.493  10.884  0.2218 -0.8297  0.2059
 4751TIP3    H135668   3.027   0.560  10.869  0.0460 -1.0762 -1.9846
 4751TIP3    H235669   3.006   0.410  10.876 -0.2814 -1.0000 -1.2869
 4752TIP3   OH235670   1.599   4.557  11.662 -0.1717  0.0555  0.0149
 4752TIP3    H135671   1.624   4.571  11.571 -0.1680  1.7616  0.2457
 4752TIP3    H235672   1.673   4.512  11.701 -0.2544 -0.8703 -0.8585
 4753TIP3   OH235673   4.932   6.755   4.624 -0.4959  0.2752  0.2929
 4753TIP3    H135674   4.883   6.679   4.654  0.8966 -0.3446  1.0742
 4753TIP3    H235675   4.868   6.805   4.573 -1.2771 -1.7766 -0.8997
 4754TIP3   OH235676   2.688   5.725  14.329 -0.0004  0.2285  0.4120
 4754TIP3    H135677   2.748   5.749  14.258 -1.8542  1.6012 -0.7742
 4754TIP3    H235678   2.635   5.654  14.293 -0.0992  0.0515  0.8969
 4755TIP3   OH235679   3.346   4.252  15.678  0.0719 -0.0409 -0.1680
 4755TIP3    H135680   3.339   4.175  15.622  0.3904  0.5597 -1.0640
 4755TIP3    H235681   3.286   4.316  15.638  0.5841  0.5215 -0.0453
 4756TIP3   OH235682   6.607   4.669  12.505  0.0797  0.0118  0.2862
 4756TIP3    H135683   6.606   4.635  12.594  0.1738  0.1765  0.3500
 4756TIP3    H235684   6.689   4.635  12.468  0.8586  1.2928  0.7909
 4757TIP3   OH235685   0.624   3.858  13.661  0.7150 -0.1190  0.1273
 4757TIP3    H135686   0.633   3.884  13.569  0.5272 -1.8315 -0.4143
 4757TIP3    H235687   0.646   3.936  13.710  0.2633  1.0101 -1.3855
 4758TIP3   OH235688   5.655   2.482   2.573  0.0303 -0.3447 -0.1056
 4758TIP3    H135689   5.642   2.390   2.551  0.9966 -0.3338 -0.7751
 4758TIP3    H235690   5.741   2.504   2.537 -0.5441  1.0490 -0.7174
 4759TIP3   OH235691   2.611   5.205  10.477  0.6514  0.1002 -0.3080
 4759TIP3    H135692   2.571   5.149  10.543  0.1457  1.0530  0.1932
 4759TIP3    H235693   2.687   5.243  10.520 -0.3882  1.7189  0.1680
 4760TIP3   OH235694   6.746   1.283   3.032  0.0487 -0.1103 -0.6126
 4760TIP3    H135695   6.788   1.285   2.946 -1.7286  0.9885 -1.5110
 4760TIP3    H235696   6.747   1.190   3.057 -0.6866 -0.6721 -2.5046
 4761TIP3   OH235697   6.464   2.869   2.703  0.0315 -0.5924 -0.4879
 4761TIP3    H135698   6.386   2.921   2.686  0.3042  0.8405  2.1413
 4761TIP3    H235699   6.537   2.929   2.686  0.3435  0.2257  2.9662
 4762TIP3   OH235700   3.160   5.122  12.332  0.2937 -0.1126 -0.8224
 4762TIP3    H135701   3.141   5.147  12.242 -0.2688  0.5776 -0.5235
 4762TIP3    H235702   3.238   5.068  12.326  1.7775  1.9959 -1.4848
 4763TIP3   OH235703   0.145   0.583  16.722 -0.2054 -0.0558 -0.1778
 4763TIP3    H135704   0.116   0.641  16.792  1.3089  1.8609 -1.0487
 4763TIP3    H235705   0.238   0.568  16.740 -0.1116 -0.6154 -1.0601
 4764TIP3   OH235706   6.176   0.159  10.893  0.7124  0.1866  0.5634
 4764TIP3    H135707   6.131   0.239  10.868 -0.4720 -0.0514  1.7972
 4764TIP3    H235708   6.199   0.116  10.811  1.4347  1.8032 -0.1176
 4765TIP3   OH235709   0.499   3.920  12.302  0.1252  0.2826  0.1589
 4765TIP3    H135710   0.556   3.927  12.379  0.9502  0.2086 -0.4288
 4765TIP3    H235711   0.545   3.969  12.234 -0.1187 -0.4417 -0.5442
 4766TIP3   OH235712   2.847   0.283  12.911  0.5928 -0.3247 -0.3990
 4766TIP3    H135713   2.893   0.316  12.988  0.8204  0.2072 -0.7565
 4766TIP3    H235714   2.754   0.289  12.934  0.6740 -1.6532  0.4317
 4767TIP3   OH235715   3.582   2.727  13.714  0.0095  0.0184  0.6743
 4767TIP3    H135716   3.559   2.667  13.644 -1.1378  0.7038  0.4365
 4767TIP3    H235717   3.667   2.762  13.688 -0.2064 -0.0529 -0.1655
 4768TIP3   OH235718   1.122   3.521   5.008 -0.2384  0.2872 -0.2771
 4768TIP3    H135719   1.071   3.441   5.022 -0.2411  0.2592 -0.4535
 4768TIP3    H235720   1.147   3.549   5.097  0.4880 -0.3739 -0.2645
 4769TIP3   OH235721   2.063   3.009  14.783  0.3523 -0.6086 -0.2227
 4769TIP3    H135722   2.096   3.033  14.870  0.9742 -0.2136 -0.5657
 4769TIP3    H235723   2.093   2.919  14.771  0.7458 -0.4744 -0.2595
 4770TIP3   OH235724   6.349   1.423  15.839 -0.8912 -0.1733 -0.6542
 4770TIP3    H135725   6.277   1.440  15.900 -2.3859  0.3876 -2.4715
 4770TIP3    H235726   6.320   1.348  15.787 -0.3200  0.2514 -1.6158
 4771TIP3   OH235727   5.822   1.348   2.784 -0.2992 -0.0374 -0.4111
 4771TIP3    H135728   5.887   1.340   2.854 -0.1170  1.7065 -0.3257
 4771TIP3    H235729   5.808   1.259   2.754  1.4744 -0.5694  0.1883
 4772TIP3   OH235730   0.334   0.568   2.641 -0.2706 -0.3187 -0.3264
 4772TIP3    H135731   0.291   0.627   2.578 -0.7263 -0.6828 -0.3685
 4772TIP3    H235732   0.387   0.510   2.586  0.5033  0.3045 -0.2537
 4773TIP3   OH235733   4.343   3.069   4.970  0.0840  0.2452  0.0996
 4773TIP3    H135734   4.288   3.089   4.895  1.0777  0.0144 -0.7134
 4773TIP3    H235735   4.308   3.123   5.041  1.7471  3.8823 -1.5836
 4774TIP3   OH235736   1.097   3.668   3.000  0.5693  0.7574 -0.3803
 4774TIP3    H135737   1.088   3.573   2.989  1.6574  0.7085 -1.0679
 4774TIP3    H235738   1.092   3.703   2.911  0.3347  1.3237 -0.1446
 4775TIP3   OH235739   5.544   6.297   5.755 -0.1956  0.1093 -0.8681
 4775TIP3    H135740   5.551   6.311   5.850 -0.9055 -1.3516 -0.5614
 4775TIP3    H235741   5.550   6.202   5.745  0.4865  0.2923 -2.3657
 4776TIP3   OH235742   4.580   3.195   5.398  0.2332 -0.0575 -0.0731
 4776TIP3    H135743   4.647   3.161   5.339 -0.6592 -1.4724 -0.3374
 4776TIP3    H235744   4.624   3.263   5.448  1.4544  0.0459 -1.2390
 4777TIP3   OH235745   2.412   5.363   2.057 -0.1761 -0.4393  0.0170
 4777TIP3    H135746   2.365   5.437   2.095  0.5537 -0.5924  1.3087
 4777TIP3    H235747   2.475   5.403   1.996  1.0717  0.1639  1.6087
 4778TIP3   OH235748   6.070   2.012   5.289 -1.0012 -0.4082  0.0755
 4778TIP3    H135749   5.988   1.967   5.269 -0.4336 -1.2489 -0.4325
 4778TIP3    H235750   6.105   1.965   5.364  0.3235 -1.8278 -1.3651
 4779TIP3   OH235751   4.229   4.106  13.748 -0.1898 -0.2228  0.0842
 4779TIP3    H135752   4.188   4.193  13.743 -1.0116 -0.4299  2.0298
 4779TIP3    H235753   4.227   4.085  13.842  0.3106 -2.1885 -0.3117
 4780TIP3   OH235754   3.881   6.463  16.745 -0.3620 -0.3121 -0.0357
 4780TIP3    H135755   3.826   6.532  16.710 -1.1246  0.1387  1.9045
 4780TIP3    H235756   3.970   6.490  16.724 -0.5689  1.8947  1.6128
 4781TIP3   OH235757   5.007   2.190   3.171 -0.3188  0.0185  0.4557
 4781TIP3    H135758   4.961   2.232   3.244 -0.5484  1.5052 -0.5098
 4781TIP3    H235759   5.086   2.242   3.159  1.6357 -2.4112  1.9801
 4782TIP3   OH235760   2.881   5.722  14.614  0.3791  0.3040  0.1515
 4782TIP3    H135761   2.916   5.672  14.541  0.6791  0.0240  0.4814
 4782TIP3    H235762   2.948   5.715  14.682 -0.0899  0.1759  0.6111
 4783TIP3   OH235763   2.128   6.341  13.410 -0.5724  0.3508  0.2896
 4783TIP3    H135764   2.160   6.289  13.336 -1.7597 -0.1969  0.1267
 4783TIP3    H235765   2.075   6.280  13.461 -0.0420  0.8189  1.4137
 4784TIP3   OH235766   4.707   4.508  16.920  0.1261  0.4106 -0.4386
 4784TIP3    H135767   4.781   4.517  16.860  0.9082  0.1290  0.4601
 4784TIP3    H235768   4.653   4.438  16.881  1.8006 -1.3867  0.3250
 4785TIP3   OH235769   0.755   0.003   0.398 -0.0036 -0.2456  0.4482
 4785TIP3    H135770   0.785   0.029   0.485  1.1845 -2.8559  0.9348
 4785TIP3    H235771   0.661  -0.014   0.409 -0.1602  0.8217  0.8349
 4786TIP3   OH235772   2.764   6.198   5.260  0.0151  0.0435 -0.1058
 4786TIP3    H135773   2.762   6.277   5.313 -0.0109  1.0148 -1.5083
 4786TIP3    H235774   2.672   6.172   5.252 -0.0123  0.1093 -0.0008
 4787TIP3   OH235775   3.496   2.625   3.380 -0.5782  0.0888  0.4736
 4787TIP3    H135776   3.433   2.694   3.399  0.0938  0.8181  0.0972
 4787TIP3    H235777   3.454   2.573   3.311 -1.7653 -0.8441  1.8447
 4788TIP3   OH235778   4.963   6.679  15.408 -0.5036 -0.0925  0.0426
 4788TIP3    H135779   4.998   6.657  15.494  0.6261  3.0232  0.5413
 4788TIP3    H235780   4.869   6.666  15.415 -0.1566 -2.5670  0.7880
 4789TIP3   OH235781   1.169   2.123  11.066 -0.3594 -0.0747 -0.4320
 4789TIP3    H135782   1.169   2.217  11.049 -0.4570  0.2009  1.0085
 4789TIP3    H235783   1.154   2.083  10.980 -0.9991  1.2354 -0.9515
 4790TIP3   OH235784   6.564   6.778   4.451  0.8707  0.6255 -0.3302
 4790TIP3    H135785   6.649   6.735   4.457  0.4642 -0.5001 -2.0437
 4790TIP3    H235786   6.502   6.707   4.435 -0.8180  1.1058  3.1284
 4791TIP3   OH235787   1.744   4.654   3.300 -0.0142 -0.1464 -0.0506
 4791TIP3    H135788   1.723   4.667   3.207 -1.1760 -1.4672 -0.0019
 4791TIP3    H235789   1.784   4.567   3.304  2.5700  0.9737  0.3540
 4792TIP3   OH235790   5.834   5.057   0.929  0.2915 -0.1345 -0.4193
 4792TIP3    H135791   5.862   5.144   0.899  0.7123  0.5442  1.7836
 4792TIP3    H235792   5.909   5.022   0.976  0.1083 -1.7114 -1.2232
 4793TIP3   OH235793   0.572   5.797   3.709 -0.6015  0.0675 -0.3193
 4793TIP3    H135794   0.521   5.868   3.747  1.5622  2.1770 -1.0740
 4793TIP3    H235795   0.553   5.801   3.615 -0.6322 -0.4987 -0.3413
 4794TIP3   OH235796   5.961   4.349   0.363  0.1088 -0.3738 -0.5437
 4794TIP3    H135797   5.955   4.435   0.405 -0.0389  0.0196 -1.3472
 4794TIP3    H235798   5.958   4.287   0.435 -3.7727  0.1133 -0.0904
 4795TIP3   OH235799   5.738   2.767  11.348  0.0104  0.9707  0.3345
 4795TIP3    H135800   5.787   2.818  11.283 -0.2549  1.2850  0.3769
 4795TIP3    H235801   5.801   2.704  11.381  0.2980  1.1591  0.1533
 4796TIP3   OH235802   0.380   3.432  13.208 -0.6773  0.2526 -0.2656
 4796TIP3    H135803   0.291   3.401  13.225 -0.6164  0.4278  0.3905
 4796TIP3    H235804   0.437   3.367  13.250 -0.5510  1.3095  1.2890
 4797TIP3   OH235805   6.209   4.380   3.725  0.3343 -0.2941  0.3070
 4797TIP3    H135806   6.229   4.411   3.814  1.7156 -3.5881  1.3032
 4797TIP3    H235807   6.293   4.388   3.678 -0.5123  1.9602 -1.0163
 4798TIP3   OH235808   4.314   0.223  14.022  0.6623 -0.2257 -0.0065
 4798TIP3    H135809   4.331   0.312  14.054 -1.8481  0.1901  0.4166
 4798TIP3    H235810   4.271   0.179  14.096 -2.6981 -0.1330 -1.7127
 4799TIP3   OH235811   2.079   2.349   5.698  0.4505  0.1429  0.1927
 4799TIP3    H135812   2.154   2.377   5.750  0.3886  0.2679  0.2144
 4799TIP3    H235813   2.012   2.415   5.714  0.4857  0.2684 -0.1668
 4800TIP3   OH235814   6.586   1.194  11.420  0.3685 -0.1656  0.0853
 4800TIP3    H135815   6.678   1.189  11.446  0.4193  2.8172  0.8631
 4800TIP3    H235816   6.538   1.188  11.502 -0.1926 -1.6369 -0.3121
 4801TIP3   OH235817   5.698   2.864   2.606  0.5521 -0.0281  0.3844
 4801TIP3    H135818   5.689   2.832   2.696 -3.3057  1.8661  0.8702
 4801TIP3    H235819   5.649   2.801   2.553  0.0510  0.5608  0.1319
 4802TIP3   OH235820   2.879   1.651   1.400 -0.1720 -0.0084 -0.5073
 4802TIP3    H135821   2.825   1.730   1.410 -1.3127 -0.3548 -2.9329
 4802TIP3    H235822   2.880   1.611   1.487 -0.5852  2.0259  0.5002
 4803TIP3   OH235823   5.617   6.476  14.317  0.4054 -0.3230 -0.2501
 4803TIP3    H135824   5.525   6.492  14.297  0.0527 -0.5547  1.1072
 4803TIP3    H235825   5.616   6.427  14.399  1.7278 -0.6271 -0.3924
 4804TIP3   OH235826   2.633   1.521  15.326  0.3151 -0.1338 -0.1715
 4804TIP3    H135827   2.574   1.464  15.374 -1.5709  1.9058  0.0960
 4804TIP3    H235828   2.709   1.530  15.383 -1.6547  1.8295  2.3800
 4805TIP3   OH235829   1.084   1.975   5.742  0.1471 -0.2929  0.0410
 4805TIP3    H135830   1.080   1.955   5.836  1.8751 -0.2454  0.1622
 4805TIP3    H235831   1.148   2.046   5.736 -1.4738  1.1475 -0.9910
 4806TIP3   OH235832   2.849   2.360  10.993 -0.3874  0.7334 -0.1475
 4806TIP3    H135833   2.923   2.340  10.937 -0.6664 -0.5542 -0.0817
 4806TIP3    H235834   2.887   2.367  11.081 -0.5446 -1.8262  0.2003
 4807TIP3   OH235835   0.802   0.121  16.454  0.7034 -0.3619 -0.2454
 4807TIP3    H135836   0.862   0.056  16.417 -1.2604 -2.2442 -0.2910
 4807TIP3    H235837   0.859   0.193  16.480  2.8800 -1.6871 -1.0440
 4808TIP3   OH235838   0.001   6.055  16.886  0.1241 -0.3589  0.1158
 4808TIP3    H135839   0.022   5.961  16.886  0.9971 -0.1799  0.8360
 4808TIP3    H235840  -0.090   6.059  16.914 -0.5058 -1.0881 -1.6795
 4809TIP3   OH235841   5.674   3.459   2.932  0.3136  0.2255  0.3002
 4809TIP3    H135842   5.698   3.529   2.993  1.5579 -0.0449  0.1452
 4809TIP3    H235843   5.706   3.489   2.848  1.0487 -0.6278  0.2699
 4810TIP3   OH235844   1.526   3.872  12.394  0.5954 -0.3331 -0.2847
 4810TIP3    H135845   1.620   3.883  12.406  0.6907 -1.0506 -0.3372
 4810TIP3    H235846   1.488   3.895  12.479  0.8633 -0.5523 -0.1028
 4811TIP3   OH235847   4.426   3.182  17.087 -0.0999 -0.8092 -0.2148
 4811TIP3    H135848   4.443   3.093  17.117 -0.5971  0.0980  3.0690
 4811TIP3    H235849   4.491   3.236  17.132 -1.3915  0.7597 -0.1299
 4812TIP3   OH235850   2.801   0.178  12.159 -0.1104 -0.1283  0.0519
 4812TIP3    H135851   2.852   0.103  12.128 -0.5167 -0.0023 -0.9706
 4812TIP3    H235852   2.785   0.230  12.080 -2.7057 -0.6881  0.1388
 4813TIP3   OH235853   5.462   4.760  14.338 -0.0573 -0.1784  0.4717
 4813TIP3    H135854   5.457   4.713  14.421  0.6651 -0.0793  0.5829
 4813TIP3    H235855   5.375   4.797  14.325 -1.1190 -2.7472 -0.3537
 4814TIP3   OH235856   6.697   3.376   1.587  0.4793 -0.1657 -0.0805
 4814TIP3    H135857   6.613   3.400   1.626  0.5490 -0.1213  0.0459
 4814TIP3    H235858   6.681   3.375   1.493  0.3350 -0.1655 -0.0559
 4815TIP3   OH235859   3.747   0.838   0.162 -0.6943 -0.4075 -0.1501
 4815TIP3    H135860   3.711   0.831   0.251 -1.9630 -1.9908 -0.7453
 4815TIP3    H235861   3.839   0.815   0.171 -0.6096  0.2482  0.8598
 4816TIP3   OH235862   1.112   2.820   1.790  0.8787  0.5388 -0.1002
 4816TIP3    H135863   1.060   2.749   1.828  2.2889 -1.1347 -1.1621
 4816TIP3    H235864   1.063   2.847   1.712  0.3020  0.7850  0.3454
 4817TIP3   OH235865   6.163   3.426   1.213  0.3444 -0.2575  0.3494
 4817TIP3    H135866   6.187   3.345   1.258  0.2001  0.6193  2.1005
 4817TIP3    H235867   6.068   3.430   1.219  0.2917 -0.2999 -0.3762
 4818TIP3   OH235868   2.051   4.454   3.665  0.6871  0.1465  0.9180
 4818TIP3    H135869   1.987   4.506   3.714  0.3357 -1.3542  2.1447
 4818TIP3    H235870   2.015   4.365   3.667  1.4964 -0.2431 -0.7151
 4819TIP3   OH235871   2.875   6.331   0.827  0.7225 -0.2335 -0.0192
 4819TIP3    H135872   2.780   6.315   0.829  0.5986  0.5751  1.1586
 4819TIP3    H235873   2.909   6.281   0.901  0.9845  0.8230  0.5929
 4820TIP3   OH235874   5.228   6.646   4.754  0.3935  0.5693  0.0150
 4820TIP3    H135875   5.184   6.730   4.768 -0.4760 -0.0481  1.1470
 4820TIP3    H235876   5.196   6.616   4.668 -3.1976 -0.8444  1.6287
 4821TIP3   OH235877   6.364   3.779  11.515  0.6356  0.1384  1.3953
 4821TIP3    H135878   6.302   3.782  11.588 -0.6531 -0.1402  0.3429
 4821TIP3    H235879   6.330   3.711  11.457 -0.3086  2.6270 -1.1522
 4822TIP3   OH235880   0.034   2.044  14.639  0.0934  0.2318 -0.0906
 4822TIP3    H135881   0.022   2.063  14.732  0.2321 -0.6426  0.1073
 4822TIP3    H235882   0.076   2.123  14.605 -2.5553  1.8159 -0.0287
 4823TIP3   OH235883   5.807   5.334  14.558 -0.3852  0.0482 -0.7143
 4823TIP3    H135884   5.805   5.344  14.653  0.0135 -1.3976 -0.5387
 4823TIP3    H235885   5.719   5.359  14.530 -0.4678  0.6238  0.0050
 4824TIP3   OH235886   6.463   5.680   5.601 -0.8480 -0.2552  0.2410
 4824TIP3    H135887   6.488   5.747   5.665  1.7587 -0.8307 -0.0690
 4824TIP3    H235888   6.439   5.604   5.655 -0.5937 -0.1134  0.5576
 4825TIP3   OH235889   4.375   3.437  12.348  0.1908 -0.9092  0.3035
 4825TIP3    H135890   4.384   3.412  12.256  2.3288  0.6033  0.0211
 4825TIP3    H235891   4.386   3.355  12.396 -0.2077 -1.6072 -0.7440
 4826TIP3   OH235892   5.689   0.206  16.223  0.3642  0.1922  0.1266
 4826TIP3    H135893   5.747   0.251  16.162  1.9468 -1.2058  0.5176
 4826TIP3    H235894   5.746   0.143  16.267 -1.5530 -1.6319  0.1524
 4827TIP3   OH235895   4.536   1.069  15.172  0.2324  0.6011  0.3142
 4827TIP3    H135896   4.519   1.153  15.214  0.1316  0.3793  0.7217
 4827TIP3    H235897   4.624   1.078  15.135  1.4819 -0.0922  2.8684
 4828TIP3   OH235898   6.729   2.879   3.281  0.2888  0.0126  0.3363
 4828TIP3    H135899   6.671   2.941   3.326 -1.1107  0.6596 -2.1700
 4828TIP3    H235900   6.716   2.796   3.326 -1.4336  0.5004  0.7884
 4829TIP3   OH235901   0.488   0.435   4.385  0.0400 -0.4832 -0.1553
 4829TIP3    H135902   0.482   0.521   4.428  0.8431 -0.9987  1.0341
 4829TIP3    H235903   0.555   0.388   4.434 -0.6020 -1.9170 -0.6001
 4830TIP3   OH235904   2.546   5.603  12.237 -0.0353 -0.0397 -0.2352
 4830TIP3    H135905   2.593   5.683  12.261 -2.7864  1.2386  1.3648
 4830TIP3    H235906   2.610   5.551  12.189  2.2943  2.4882 -0.0955
 4831TIP3   OH235907   0.109   1.556   5.610 -0.4153 -0.5440  0.2599
 4831TIP3    H135908   0.083   1.508   5.689  0.0502 -1.0377  0.1106
 4831TIP3    H235909   0.195   1.592   5.631 -0.4562 -0.3585  0.1109
 4832TIP3   OH235910   3.994   4.262   3.257 -0.9454  0.0474 -0.1130
 4832TIP3    H135911   3.925   4.321   3.287 -3.3542 -1.4457 -2.3413
 4832TIP3    H235912   4.073   4.293   3.302 -2.6411  3.0442  1.0865
 4833TIP3   OH235913   3.401   4.329   0.195 -0.4921  0.1410 -0.0912
 4833TIP3    H135914   3.443   4.247   0.223  2.5125  1.1494 -1.2744
 4833TIP3    H235915   3.347   4.304   0.120 -0.8752 -0.9687  0.5224
 4834TIP3   OH235916   2.561   5.491  14.253  0.3553  0.1014 -0.2516
 4834TIP3    H135917   2.466   5.485  14.263  0.3205  1.2972  0.2621
 4834TIP3    H235918   2.596   5.483  14.342  0.6005  1.5857 -0.1872
 4835TIP3   OH235919   3.030   3.438  16.204  0.2121 -0.6368  0.1761
 4835TIP3    H135920   3.091   3.434  16.130 -0.1915  0.4891 -0.2440
 4835TIP3    H235921   3.071   3.498  16.266 -1.0359  1.2831 -0.7255
 4836TIP3   OH235922   5.798   0.304   5.357  0.0472  0.0861  0.1551
 4836TIP3    H135923   5.779   0.307   5.263 -0.9700  0.5383  0.3570
 4836TIP3    H235924   5.878   0.356   5.367 -1.0748  1.9721 -0.2065
 4837TIP3   OH235925   1.815   0.822   1.560 -0.2181  0.1722  0.3715
 4837TIP3    H135926   1.883   0.888   1.555  1.5320 -1.4649  1.1042
 4837TIP3    H235927   1.846   0.761   1.627 -2.2323 -0.8568  0.4501
 4838TIP3   OH235928   6.306   1.441  16.980 -0.1107 -0.4177  0.1236
 4838TIP3    H135929   6.323   1.510  17.043  1.0149 -0.7921  0.2493
 4838TIP3    H235930   6.258   1.375  17.030 -0.5948 -0.0289  0.1762
 4839TIP3   OH235931   1.301   4.466  15.385  0.6649 -0.4172 -0.5670
 4839TIP3    H135932   1.243   4.539  15.363  0.2305 -1.1227 -1.8935
 4839TIP3    H235933   1.355   4.499  15.456 -2.1422 -0.1053  1.5995
 4840TIP3   OH235934   3.531   3.014  15.476  0.1080 -0.0598 -0.5266
 4840TIP3    H135935   3.478   2.973  15.409  0.6624  0.6939 -1.4538
 4840TIP3    H235936   3.619   2.978  15.464 -0.1130 -1.1403  0.8565
 4841TIP3   OH235937   1.252   3.934  10.473 -0.0015  0.1534  0.3971
 4841TIP3    H135938   1.305   4.011  10.452 -1.0760  0.5547 -1.0389
 4841TIP3    H235939   1.279   3.869  10.408 -0.3744 -0.0652  0.4620
 4842TIP3   OH235940   5.143   1.940  12.135 -0.5702  0.2920  0.4163
 4842TIP3    H135941   5.169   1.848  12.128  0.3816  0.3774  2.0694
 4842TIP3    H235942   5.053   1.943  12.103 -0.4540 -1.1145 -0.1098
 4843TIP3   OH235943   3.672   0.680   3.255 -0.2897 -0.0338 -0.1397
 4843TIP3    H135944   3.721   0.600   3.237  0.7449  0.2902  1.0913
 4843TIP3    H235945   3.721   0.749   3.209 -0.7861  0.0165 -0.6169
 4844TIP3   OH235946   0.670   5.920  14.218 -0.0384 -0.6566 -0.5751
 4844TIP3    H135947   0.747   5.913  14.275 -1.4853  0.1683  1.6251
 4844TIP3    H235948   0.615   5.846  14.244 -1.3065  0.4885  0.0964
 4845TIP3   OH235949   0.931   3.062  12.378 -0.7441 -0.0847  0.0181
 4845TIP3    H135950   0.882   3.130  12.332  2.6730  2.8794  0.3061
 4845TIP3    H235951   0.932   3.090  12.470  1.7756  0.3178 -0.0583
 4846TIP3   OH235952   3.055   1.200   0.816 -0.1349  0.1267 -0.5236
 4846TIP3    H135953   2.961   1.181   0.807 -0.2335  0.4551 -0.2228
 4846TIP3    H235954   3.060   1.295   0.818  0.0149  0.1159  1.1876
 4847TIP3   OH235955   4.989   2.122   1.499  0.1206 -0.1006 -0.1181
 4847TIP3    H135956   5.080   2.091   1.502  0.1584 -0.0468 -0.6267
 4847TIP3    H235957   4.959   2.118   1.590  0.3376 -1.0092 -0.0804
 4848TIP3   OH235958   5.903   4.129  11.341 -0.5392 -0.2240  0.6078
 4848TIP3    H135959   5.884   4.039  11.315  0.6589 -0.1566 -0.5565
 4848TIP3    H235960   5.943   4.121  11.427 -1.4166 -0.7086  0.9872
 4849TIP3   OH235961   3.754   1.192  15.085 -0.0365 -0.3232  0.6428
 4849TIP3    H135962   3.734   1.286  15.086  0.1047 -0.2943  1.0835
 4849TIP3    H235963   3.728   1.162  15.172 -1.0184 -0.8939  0.1690
 4850TIP3   OH235964   6.748   0.900  10.681  0.0161 -0.5789  0.5481
 4850TIP3    H135965   6.808   0.944  10.741 -0.7516  0.5125  0.5409
 4850TIP3    H235966   6.667   0.889  10.731 -0.5977  0.2473 -0.2251
 4851TIP3   OH235967   4.087   0.658   5.201  0.2229  1.0615  0.3921
 4851TIP3    H135968   4.055   0.597   5.134 -1.5097  2.6557 -0.3197
 4851TIP3    H235969   4.177   0.676   5.176  0.8557 -1.2612  0.7084
 4852TIP3   OH235970   5.768   6.081  15.534  0.0377  0.1588  0.4827
 4852TIP3    H135971   5.763   6.102  15.440 -1.0640  0.6843  0.6383
 4852TIP3    H235972   5.721   5.998  15.542  0.9653 -0.3782  0.4397
 4853TIP3   OH235973   3.543   0.061   4.627  0.2077 -0.1658 -0.1795
 4853TIP3    H135974   3.565   0.154   4.635  0.8819 -0.3125 -0.3105
 4853TIP3    H235975   3.611   0.016   4.676  0.7769 -0.6853 -1.4068
 4854TIP3   OH235976   4.820   3.171   2.107  0.2706  0.4360 -0.1466
 4854TIP3    H135977   4.779   3.123   2.035  3.3830 -1.7641 -0.6209
 4854TIP3    H235978   4.852   3.252   2.066 -1.1155  0.9158 -0.3460
 4855TIP3   OH235979   0.240   5.792   2.419 -0.0808  0.1763 -0.0190
 4855TIP3    H135980   0.319   5.826   2.461  0.0867 -0.5077  0.2319
 4855TIP3    H235981   0.180   5.866   2.418  0.2318  0.4506  0.6429
 4856TIP3   OH235982   1.288   5.226   6.134 -0.0463  0.2329  0.3140
 4856TIP3    H135983   1.286   5.130   6.142  0.9405  0.2264  0.5925
 4856TIP3    H235984   1.198   5.249   6.109 -0.0562 -0.8442 -0.7720
 4857TIP3   OH235985   0.188   1.053  16.903  0.2577 -0.2619 -0.4989
 4857TIP3    H135986   0.121   1.065  16.971  1.2491  0.0481  0.4490
 4857TIP3    H235987   0.155   0.981  16.849 -2.0400  1.4671 -1.5854
 4858TIP3   OH235988   5.869   3.406   0.358 -0.5202  0.0085  0.4818
 4858TIP3    H135989   5.818   3.347   0.304  0.6923  0.4734 -1.2564
 4858TIP3    H235990   5.835   3.493   0.338  1.6147  0.4498 -1.5979
 4859TIP3   OH235991   5.551   4.433   4.012  0.0792  0.5882  0.2168
 4859TIP3    H135992   5.511   4.488   3.945 -0.1284  3.0585  2.2120
 4859TIP3    H235993   5.561   4.491   4.088  0.5827 -1.9543  2.2390
 4860TIP3   OH235994   3.602   5.373   1.925  0.1932  0.0336 -0.5829
 4860TIP3    H135995   3.642   5.454   1.957  1.2494 -0.9554  0.7153
 4860TIP3    H235996   3.522   5.402   1.881  1.6556  1.9606 -2.1274
 4861TIP3   OH235997   2.798   4.148  14.179 -0.1259 -0.3679 -1.1763
 4861TIP3    H135998   2.714   4.192  14.193 -0.4824 -1.3200 -0.2084
 4861TIP3    H235999   2.863   4.213  14.204 -0.5279  0.5456 -2.3610
 4862TIP3   OH236000   1.695   6.655  14.419 -0.2365 -0.2967 -0.0454
 4862TIP3    H136001   1.691   6.593  14.346  0.8407  1.2847 -1.5331
 4862TIP3    H236002   1.787   6.684  14.421 -1.3467  4.6613 -2.5758
 4863TIP3   OH236003   1.359   3.750  10.306  0.2345  0.1343 -0.3848
 4863TIP3    H136004   1.313   3.669  10.329 -0.4085  0.5135 -0.3204
 4863TIP3    H236005   1.348   3.758  10.211  0.9458 -0.2389 -0.5097
 4864TIP3   OH236006   1.113   1.313  13.779  0.9109 -0.2344  0.2515
 4864TIP3    H136007   1.143   1.225  13.802 -0.2414 -0.1418  2.4509
 4864TIP3    H236008   1.142   1.367  13.853 -0.0396  0.8425 -0.1436
 4865TIP3   OH236009   1.522   0.396  13.386  0.2562 -1.0043  0.1673
 4865TIP3    H136010   1.551   0.334  13.320  1.2091 -1.0112  0.5813
 4865TIP3    H236011   1.599   0.410  13.441  0.7148  2.1542 -1.1218
 4866TIP3   OH236012   4.143   1.555  12.307  0.4133 -0.1327 -0.6321
 4866TIP3    H136013   4.201   1.521  12.240 -1.1172  0.5007 -2.3636
 4866TIP3    H236014   4.057   1.517  12.286 -0.1710  0.2891  0.8257
 4867TIP3   OH236015   2.856   3.572   1.577 -0.0229 -0.1419 -0.0709
 4867TIP3    H136016   2.865   3.572   1.481  0.0834 -1.1183 -0.0696
 4867TIP3    H236017   2.894   3.489   1.605 -0.8141 -0.2471  0.7480
 4868TIP3   OH236018   0.938   2.995  14.525  0.3544 -0.1990 -0.0810
 4868TIP3    H136019   1.007   2.967  14.584 -2.1183 -2.4721  1.9798
 4868TIP3    H236020   0.875   3.040  14.581 -1.5007 -1.3608 -1.1089
 4869TIP3   OH236021   4.298   2.608   5.993  0.7591 -0.2818 -0.1556
 4869TIP3    H136022   4.299   2.704   5.991  1.6193 -0.2867 -2.6473
 4869TIP3    H236023   4.329   2.585   6.081 -1.0848  1.6760  1.1145
 4870TIP3   OH236024   1.154   5.258   2.754  0.3927 -0.3084  0.3147
 4870TIP3    H136025   1.199   5.174   2.743 -1.0850 -0.8137 -3.3636
 4870TIP3    H236026   1.066   5.244   2.719 -0.2517  2.5062  0.5108
 4871TIP3   OH236027   2.596   5.497   3.447  0.4346  0.2163 -0.3064
 4871TIP3    H136028   2.683   5.460   3.432  0.9490 -0.0714  2.8620
 4871TIP3    H236029   2.590   5.570   3.385  3.7638  1.5497  0.7515
 4872TIP3   OH236030   6.218   6.648  14.120 -0.2087 -0.5037  0.6249
 4872TIP3    H136031   6.179   6.694  14.194  0.8272  1.3321  0.0956
 4872TIP3    H236032   6.156   6.660  14.049  1.2486  2.6084 -0.2806
 4873TIP3   OH236033   2.782   1.630  16.519  0.7336  0.3837 -0.0417
 4873TIP3    H136034   2.871   1.596  16.516  1.1542  1.2094  1.7733
 4873TIP3    H236035   2.726   1.552  16.525  1.2489 -0.1660 -1.9108
 4874TIP3   OH236036   5.779   1.297  15.655 -0.2727 -0.1658  0.8172
 4874TIP3    H136037   5.785   1.244  15.576 -2.0041  1.4941 -0.5114
 4874TIP3    H236038   5.870   1.316  15.679  0.2852 -1.2835 -0.3444
 4875TIP3   OH236039   6.509   1.506   5.518  0.2169  0.4885 -0.2208
 4875TIP3    H136040   6.503   1.508   5.423  0.9843  2.5393 -0.2942
 4875TIP3    H236041   6.509   1.599   5.543 -0.4765 -0.0221  1.8112
 4876TIP3   OH236042   5.596   3.870   5.135 -0.1699 -0.2391  0.1337
 4876TIP3    H136043   5.594   3.937   5.066 -0.8161 -0.4416 -0.0434
 4876TIP3    H236044   5.573   3.918   5.215 -0.0791 -0.1416  0.1024
 4877TIP3   OH236045   3.981   2.510   0.141  1.2474 -0.4648 -0.6357
 4877TIP3    H136046   3.906   2.505   0.201 -0.4729  1.2151 -2.4930
 4877TIP3    H236047   4.045   2.564   0.188  0.8136 -0.8715  0.4768
 4878TIP3   OH236048   2.648   2.052  12.806  0.2384 -0.4406  0.3775
 4878TIP3    H136049   2.659   2.135  12.853 -2.1950  0.4755 -0.4892
 4878TIP3    H236050   2.689   2.067  12.721  0.1490 -0.2663  0.3651
 4879TIP3   OH236051   6.742   2.938   1.792  0.3646  0.1790  0.4322
 4879TIP3    H136052   6.784   3.022   1.814 -0.5994  0.6093  0.6793
 4879TIP3    H236053   6.791   2.873   1.842 -0.5217  0.9102  2.3656
 4880TIP3   OH236054   3.308   5.973  16.835 -0.6592 -0.4407 -0.1563
 4880TIP3    H136055   3.334   5.991  16.745  1.5639  1.3852  0.7435
 4880TIP3    H236056   3.226   5.924  16.827 -0.9445  0.3129 -3.1291
 4881TIP3   OH236057   5.787   5.431   5.304  0.8612  0.0222 -0.1868
 4881TIP3    H136058   5.710   5.399   5.351  1.3292 -1.8077 -0.5680
 4881TIP3    H236059   5.848   5.458   5.373  1.1269 -1.6462  0.2922
 4882TIP3   OH236060   2.884   2.169   1.114  0.7655  0.2405  0.2395
 4882TIP3    H136061   2.899   2.193   1.206 -0.7408 -1.1287  0.9141
 4882TIP3    H236062   2.851   2.079   1.119 -0.6858  0.6256 -1.5218
 4883TIP3   OH236063   3.288   6.042  17.159 -0.1400  0.1162  0.4534
 4883TIP3    H136064   3.264   6.125  17.200 -1.3143 -0.6935  1.4854
 4883TIP3    H236065   3.236   6.039  17.079  1.1033  1.0720 -0.4192
 4884TIP3   OH236066   1.082   6.446   3.864 -0.1383  0.4911  0.0288
 4884TIP3    H136067   1.053   6.537   3.871 -0.1064  0.4575  0.6730
 4884TIP3    H236068   1.022   6.397   3.920 -0.9765 -0.0918 -1.3236
 4885TIP3   OH236069   0.330   2.305   5.681  0.5418 -0.2100 -0.3934
 4885TIP3    H136070   0.278   2.369   5.632 -2.3869 -1.7033  0.5462
 4885TIP3    H236071   0.374   2.253   5.613 -0.2801  0.2439 -1.2905
 4886TIP3   OH236072   2.312   2.719   1.838  0.0691  0.3154  0.4076
 4886TIP3    H136073   2.319   2.632   1.799 -2.7858  0.4276 -0.5694
 4886TIP3    H236074   2.350   2.778   1.773  1.0944 -0.0796  0.6346
 4887TIP3   OH236075   1.899   2.007   2.136 -0.5570  0.1299  0.5360
 4887TIP3    H136076   1.902   2.012   2.231  0.0335 -0.5421  0.5596
 4887TIP3    H236077   1.821   2.058   2.111 -0.6195  0.4416  1.3586
 4888TIP3   OH236078   2.444   6.245  12.671 -0.4495  0.1754 -0.1350
 4888TIP3    H136079   2.502   6.221  12.599 -0.0104 -1.9554  0.8583
 4888TIP3    H236080   2.400   6.164  12.695 -2.1023  1.2656  0.6862
 4889TIP3   OH236081   4.301   6.183   1.559  0.2973  0.1868 -0.2789
 4889TIP3    H136082   4.309   6.119   1.630 -0.4627  0.0184 -0.3284
 4889TIP3    H236083   4.232   6.146   1.503  0.8603  0.3372 -1.0790
 4890TIP3   OH236084   0.662   6.734   3.138  0.0809 -0.3368 -0.0437
 4890TIP3    H136085   0.676   6.810   3.081  0.0406  0.4163  0.9065
 4890TIP3    H236086   0.568   6.737   3.159 -0.2027 -1.4515 -1.0687
 4891TIP3   OH236087   1.205   4.990   1.787 -0.2096 -0.3302  0.5181
 4891TIP3    H136088   1.250   4.937   1.721  0.0237 -0.0290  0.4295
 4891TIP3    H236089   1.175   4.927   1.852 -0.9221 -0.6948 -0.1491
 4892TIP3   OH236090   5.661   2.291   1.842 -0.6764 -0.4217 -0.0686
 4892TIP3    H136091   5.718   2.363   1.866 -1.5828  0.2753  0.0610
 4892TIP3    H236092   5.707   2.212   1.871  0.0526  0.1436  0.3261
 4893TIP3   OH236093   0.890   1.519   5.585  0.4180  0.2230  0.6887
 4893TIP3    H136094   0.944   1.442   5.599 -1.2788 -0.9743  1.0280
 4893TIP3    H236095   0.809   1.500   5.634 -1.0011  1.1342 -1.1822
 4894TIP3   OH236096   5.453   1.722  11.967 -0.4984 -0.5858  0.2618
 4894TIP3    H136097   5.433   1.723  12.061  0.5596  0.4813  0.4977
 4894TIP3    H236098   5.411   1.801  11.933  1.9535  0.9185  0.5073
 4895TIP3   OH236099   6.212   6.232  14.946 -0.0749  0.4401 -0.5148
 4895TIP3    H136100   6.257   6.226  15.031 -0.0394  2.3319 -0.3414
 4895TIP3    H236101   6.281   6.214  14.882  0.2521  0.4522 -0.1722
 4896TIP3   OH236102   5.470   4.972   4.207 -0.3984  0.2941 -0.5803
 4896TIP3    H136103   5.497   4.989   4.297  0.9277  2.9588 -1.3908
 4896TIP3    H236104   5.378   4.947   4.214 -0.9663  2.5732  1.3737
 4897TIP3   OH236105   6.510   5.522   4.747 -0.1509  0.3012 -0.3742
 4897TIP3    H136106   6.513   5.573   4.666  0.9658 -1.5640 -1.5817
 4897TIP3    H236107   6.418   5.494   4.754 -0.2422  0.4002 -1.0647
 4898TIP3   OH236108   6.760   4.574   3.862 -0.4756  0.2631  0.2179
 4898TIP3    H136109   6.781   4.524   3.941 -1.7216  0.2080  0.5351
 4898TIP3    H236110   6.728   4.658   3.894  2.2714  1.6272 -0.3219
 4899TIP3   OH236111   5.972   1.391   4.080  0.0495  0.6743  0.4567
 4899TIP3    H136112   5.988   1.385   4.174  1.8993  1.5652  0.2385
 4899TIP3    H236113   5.951   1.301   4.054 -1.0942  0.5198  1.7844
 4900TIP3   OH236114   3.851   4.436  11.795 -0.5221  0.1679 -0.1550
 4900TIP3    H136115   3.934   4.483  11.792 -0.7378  0.6909  1.2823
 4900TIP3    H236116   3.786   4.504  11.814 -0.8539 -0.6540  1.8664
 4901TIP3   OH236117   6.122   2.508   1.891  0.5572 -0.8227 -0.1215
 4901TIP3    H136118   6.125   2.582   1.830  1.2405  0.9583  1.9370
 4901TIP3    H236119   6.181   2.533   1.962 -1.9603 -1.6788  2.4680
 4902TIP3   OH236120   3.291   5.280   3.867 -0.5122  0.0888  0.3304
 4902TIP3    H136121   3.244   5.260   3.786  0.0345 -0.0624  0.0479
 4902TIP3    H236122   3.275   5.205   3.924 -0.9845  0.2425  0.4073
 4903TIP3   OH236123   5.045   5.764  14.533 -0.0103 -0.0984 -0.0679
 4903TIP3    H136124   4.998   5.694  14.488 -1.3861  0.2452  0.7749
 4903TIP3    H236125   5.094   5.718  14.601 -0.8804 -0.2751  0.4616
 4904TIP3   OH236126   6.692   5.526   3.372  0.2286 -0.2366 -0.5309
 4904TIP3    H136127   6.706   5.440   3.332 -2.9286 -0.7939 -0.7227
 4904TIP3    H236128   6.646   5.577   3.305 -1.6607  0.1327  0.9420
 4905TIP3   OH236129   3.345   1.887   4.998 -0.1501  0.6306  0.1286
 4905TIP3    H136130   3.337   1.939   5.078 -1.4167 -1.7699  1.6697
 4905TIP3    H236131   3.435   1.855   4.999 -0.0647  0.8726  0.4076
 4906TIP3   OH236132   0.715   1.264   1.959 -0.3113  0.3622  0.4108
 4906TIP3    H136133   0.623   1.275   1.935 -0.6523  1.6010  2.1291
 4906TIP3    H236134   0.749   1.354   1.966  0.0826  0.0788  3.1729
 4907TIP3   OH236135   3.100   4.177  11.935  0.0856 -0.0358 -0.1607
 4907TIP3    H136136   3.017   4.131  11.924  0.1465  0.1518 -1.7229
 4907TIP3    H236137   3.167   4.112  11.915  0.3672 -0.3511  1.6911
 4908TIP3   OH236138   3.020   2.765  17.085 -0.0366 -0.0980  0.5402
 4908TIP3    H136139   2.952   2.707  17.120  0.0113 -0.6414 -0.2417
 4908TIP3    H236140   2.986   2.793  17.000  1.2671 -1.4371 -0.4788
 4909TIP3   OH236141   3.858   5.834   4.664 -0.0493 -0.4778  0.4360
 4909TIP3    H136142   3.806   5.848   4.743 -1.2708 -3.0642  0.1835
 4909TIP3    H236143   3.815   5.887   4.597  0.3375  0.8567  1.1994
 4910TIP3   OH236144   0.835   0.978   4.114  0.4632 -0.2227 -0.1552
 4910TIP3    H136145   0.807   0.938   4.197  0.0772 -0.3831 -0.3571
 4910TIP3    H236146   0.901   1.042   4.139 -0.5003  0.5881  0.4081
 4911TIP3   OH236147   2.659   6.217   4.831  0.2808  0.3099 -0.0187
 4911TIP3    H136148   2.572   6.257   4.824  0.3118  0.6388  1.3550
 4911TIP3    H236149   2.708   6.256   4.758 -0.1783  1.5690  0.3061
 4912TIP3   OH236150   1.609   1.286   2.177  0.1978  0.2282 -0.8693
 4912TIP3    H136151   1.538   1.225   2.156 -0.4532  0.2483  1.0546
 4912TIP3    H236152   1.689   1.239   2.154 -0.3811 -0.2190 -2.0589
 4913TIP3   OH236153   3.351   4.291  13.872  0.7449  0.3562 -0.0150
 4913TIP3    H136154   3.356   4.257  13.962 -1.5136 -1.1113 -0.3710
 4913TIP3    H236155   3.373   4.215  13.817 -0.4086  0.5242 -0.7374
 4914TIP3   OH236156   6.129   5.350   4.153  0.4791 -0.9716 -0.0708
 4914TIP3    H136157   6.166   5.368   4.239  0.4530  1.5702 -0.5394
 4914TIP3    H236158   6.064   5.281   4.169 -0.3112  0.2101  2.1427
 4915TIP3   OH236159   2.484   0.483   3.380 -0.3904  0.4354  0.0737
 4915TIP3    H136160   2.512   0.437   3.301  2.1437  1.0674  0.5506
 4915TIP3    H236161   2.520   0.571   3.372 -0.2920  0.5867  1.8169
 4916TIP3   OH236162   5.182   5.302  14.801  0.3584  0.0002  0.6710
 4916TIP3    H136163   5.214   5.222  14.841  1.4900  1.4207  2.8213
 4916TIP3    H236164   5.259   5.358  14.794 -0.5238  1.1791 -0.0642
 4917TIP3   OH236165   0.154   3.581   1.017 -0.0415  0.4676  0.0560
 4917TIP3    H136166   0.061   3.563   1.002 -0.0474  0.6272 -0.0926
 4917TIP3    H236167   0.181   3.633   0.942  0.3745 -0.2907 -0.3359
 4918TIP3   OH236168   0.648   1.721  14.789 -0.2461  0.0282 -0.0954
 4918TIP3    H136169   0.610   1.724  14.701 -1.6686 -1.7331  0.4010
 4918TIP3    H236170   0.741   1.701  14.774 -0.9855 -3.1899 -1.1875
 4919TIP3   OH236171   5.575   3.603   1.748  0.2153 -0.2010 -0.4739
 4919TIP3    H136172   5.654   3.558   1.778  0.1658 -0.1974 -0.3364
 4919TIP3    H236173   5.504   3.562   1.797  0.1774  0.0771 -0.2911
 4920TIP3   OH236174   2.823   5.423   0.500  0.6509 -0.2505 -0.1012
 4920TIP3    H136175   2.773   5.341   0.502 -0.6695  0.5200  1.5997
 4920TIP3    H236176   2.757   5.490   0.481  1.6382  0.4767 -1.0666
 4921TIP3   OH236177   3.669   2.613  11.047 -0.0607 -0.4939 -0.5824
 4921TIP3    H136178   3.709   2.559  10.978  2.2774  1.3621 -0.8114
 4921TIP3    H236179   3.735   2.615  11.117 -0.6024  1.0485 -0.0782
 4922TIP3   OH236180   3.713   0.019   5.818 -0.0894  0.1368  0.4206
 4922TIP3    H136181   3.700  -0.015   5.906 -1.1616 -0.5363  0.0161
 4922TIP3    H236182   3.680   0.109   5.821 -3.2286 -0.9020 -0.0752
 4923TIP3   OH236183   3.657   3.374  15.277  0.4160  0.0041  0.4455
 4923TIP3    H136184   3.620   3.448  15.325  0.1788  1.0820 -1.3149
 4923TIP3    H236185   3.581   3.323  15.249  0.5181 -0.3061  0.7369
 4924TIP3   OH236186   2.110   2.226   2.321 -0.1029  0.0953 -0.5423
 4924TIP3    H136187   2.106   2.263   2.233 -2.4403 -0.8324 -0.9029
 4924TIP3    H236188   2.044   2.157   2.321  0.1618 -0.2468  1.8176
 4925TIP3   OH236189   5.137   1.476   5.340 -0.6850 -0.5005  0.3125
 4925TIP3    H136190   5.154   1.518   5.425  0.1548 -0.3494  0.0769
 4925TIP3    H236191   5.210   1.415   5.328 -1.2133 -1.0923  0.0518
 4926TIP3   OH236192   6.272   2.186   6.079 -0.1427 -0.4824 -0.2127
 4926TIP3    H136193   6.183   2.206   6.108  1.1193  2.4193  2.0630
 4926TIP3    H236194   6.297   2.110   6.131 -0.2127  0.7093  1.6634
 4927TIP3   OH236195   1.320   1.654   2.352 -0.0415  0.0809 -0.0828
 4927TIP3    H136196   1.353   1.593   2.419  0.7034 -1.8616 -2.0887
 4927TIP3    H236197   1.225   1.642   2.354 -0.0861  0.4356  0.9255
 4928TIP3   OH236198   2.834   6.414   3.076 -0.5621  0.5722  0.0186
 4928TIP3    H136199   2.847   6.416   3.171  0.6383  0.9328 -0.1382
 4928TIP3    H236200   2.739   6.425   3.064 -0.8389 -0.3351  1.1947
 4929TIP3   OH236201   1.016   1.522  13.657 -0.1220 -0.1284 -0.3248
 4929TIP3    H136202   0.969   1.521  13.574 -1.5803 -1.5295  0.4499
 4929TIP3    H236203   1.055   1.435  13.664 -0.6513 -0.2993  0.7691
 4930TIP3   OH236204   2.953   1.199   1.849 -0.5275 -0.0403 -0.2023
 4930TIP3    H136205   2.972   1.145   1.925  0.1004  0.9822  0.3936
 4930TIP3    H236206   2.901   1.272   1.883 -0.0319  0.5592 -0.6991
 4931TIP3   OH236207   3.142   4.449  15.604  0.2887 -0.1947 -0.1671
 4931TIP3    H136208   3.131   4.504  15.526  3.6638  0.9076 -0.0316
 4931TIP3    H236209   3.159   4.512  15.674 -0.6523 -1.2722  1.0654
 4932TIP3   OH236210   5.904   1.841   4.878 -0.5778  0.2705  0.0312
 4932TIP3    H136211   5.831   1.902   4.871 -0.9101 -0.2287 -1.0637
 4932TIP3    H236212   5.965   1.869   4.810  0.1355  0.5191  0.7608
 4933TIP3   OH236213   6.227   4.937   1.698 -0.7272 -0.6098  0.0833
 4933TIP3    H136214   6.272   4.889   1.629 -2.6543 -2.0112 -0.2827
 4933TIP3    H236215   6.221   4.875   1.771 -2.1605 -0.5502  0.0477
 4934TIP3   OH236216   0.284   2.060  13.087 -0.5940 -0.2682  0.0404
 4934TIP3    H136217   0.209   2.096  13.040 -0.9752  0.4022  1.1143
 4934TIP3    H236218   0.343   2.134  13.098 -0.0167 -0.6689 -0.3249
 4935TIP3   OH236219   2.791   3.276   3.906  0.0348  0.0021 -0.5126
 4935TIP3    H136220   2.852   3.322   3.848  0.0325 -0.0889 -0.5858
 4935TIP3    H236221   2.712   3.264   3.854  0.4852 -1.2463 -0.9285
 4936TIP3   OH236222   4.358   5.539  12.412 -0.5811 -0.0191 -0.3205
 4936TIP3    H136223   4.427   5.592  12.453 -0.3354 -0.0429 -0.6976
 4936TIP3    H236224   4.356   5.458  12.463  1.4021 -1.0777 -1.7916
 4937TIP3   OH236225   4.277   5.765   0.055 -0.1455  0.2426 -0.9860
 4937TIP3    H136226   4.259   5.746  -0.037  1.6859  0.2178 -1.3761
 4937TIP3    H236227   4.369   5.790   0.057 -0.1113  0.1138  0.8655
 4938TIP3   OH236228   1.250   3.825   2.003  0.5115  0.2887  0.0005
 4938TIP3    H136229   1.249   3.882   1.926 -0.2225  0.3903  0.0766
 4938TIP3    H236230   1.284   3.880   2.074 -0.1587  0.6230  0.0654
 4939TIP3   OH236231   6.585   0.417  13.011  0.1493 -0.2754  0.0827
 4939TIP3    H136232   6.621   0.331  12.989  1.3676  0.2896 -0.2066
 4939TIP3    H236233   6.555   0.408  13.101 -0.3501 -1.1878 -0.1537
 4940TIP3   OH236234   0.435   0.650  13.238 -0.1830  0.1634 -0.1096
 4940TIP3    H136235   0.353   0.699  13.243  1.0401  2.3677 -0.1459
 4940TIP3    H236236   0.426   0.581  13.303 -1.5092  1.2762  0.9464
 4941TIP3   OH236237   0.084   0.065  10.670 -0.0377  0.2248  0.1350
 4941TIP3    H136238   0.122   0.119  10.601  1.9413 -0.5739  0.5507
 4941TIP3    H236239  -0.011   0.073  10.656  0.2090  2.5512 -0.7365
 4942TIP3   OH236240   2.882   2.660  16.030 -0.1079  0.4876 -0.5987
 4942TIP3    H136241   2.878   2.741  15.978 -3.9579  1.3838  0.7440
 4942TIP3    H236242   2.848   2.592  15.971 -1.8101  0.9590 -0.2222
 4943TIP3   OH236243   6.077   4.724  15.133 -0.2813 -0.1944 -0.2211
 4943TIP3    H136244   6.141   4.689  15.196  1.2215  0.4683 -1.3205
 4943TIP3    H236245   6.130   4.772  15.070 -2.0127  1.5320 -0.4366
 4944TIP3   OH236246   2.935   0.294  14.513 -0.0905 -0.6751 -0.2347
 4944TIP3    H136247   3.019   0.313  14.472  0.1627 -1.4840 -0.1096
 4944TIP3    H236248   2.881   0.371  14.495  1.3612  0.8585  1.5747
 4945TIP3   OH236249   3.180   6.714  13.368  0.0664  0.1343  0.3739
 4945TIP3    H136250   3.100   6.713  13.316 -0.4450 -0.3955  1.1424
 4945TIP3    H236251   3.244   6.666  13.315 -0.9785 -2.0793  0.9986
 4946TIP3   OH236252   4.310   0.695   5.865 -0.1307 -0.5229 -0.3002
 4946TIP3    H136253   4.401   0.720   5.876 -0.9662  2.1503  1.3304
 4946TIP3    H236254   4.299   0.620   5.924  0.4394  0.7687  1.5317
 4947TIP3   OH236255   0.074   3.255   4.161  0.2657  0.1396  0.1436
 4947TIP3    H136256   0.149   3.314   4.148  0.8506 -0.3907  1.0308
 4947TIP3    H236257   0.028   3.290   4.237  0.0975 -0.0189  0.1162
 4948TIP3   OH236258   3.048   4.957   6.000 -0.1876 -0.0882 -0.3270
 4948TIP3    H136259   3.079   4.866   6.004  2.2545  0.7217  1.1603
 4948TIP3    H236260   2.971   4.953   5.943 -0.2898 -3.1055 -0.1619
 4949TIP3   OH236261   5.791   6.765   0.450  0.0128 -0.4471  0.0234
 4949TIP3    H136262   5.826   6.684   0.485  1.4661  0.5354  0.9339
 4949TIP3    H236263   5.757   6.742   0.363  0.8575 -1.9018  0.0641
 4950TIP3   OH236264   1.767   2.439   1.174 -0.0065 -0.4313  0.1311
 4950TIP3    H136265   1.792   2.354   1.137 -1.8037 -1.3762  0.9530
 4950TIP3    H236266   1.807   2.503   1.116  2.4588 -1.7962  0.1775
 4951TIP3   OH236267   0.807   5.101  16.919 -0.3713  0.6522 -0.3663
 4951TIP3    H136268   0.777   5.011  16.935 -0.4453  1.0943  2.4772
 4951TIP3    H236269   0.892   5.091  16.875 -1.7993 -0.6857 -3.0684
 4952TIP3   OH236270   4.701   6.600  15.539 -0.1895 -0.1542  0.4801
 4952TIP3    H136271   4.783   6.571  15.579  0.3524  0.4454 -0.1594
 4952TIP3    H236272   4.656   6.650  15.608  1.0502  1.4629  0.1809
 4953TIP3   OH236273   4.609   1.328   1.299 -0.3062 -0.5306  0.4551
 4953TIP3    H136274   4.633   1.351   1.209 -1.3677 -1.0186  0.0293
 4953TIP3    H236275   4.653   1.393   1.353 -0.2800  0.2401 -0.4677
 4954TIP3   OH236276   4.435   4.559   2.864  0.0035 -0.2782 -0.4675
 4954TIP3    H136277   4.389   4.527   2.786  2.7583 -1.0840 -1.8990
 4954TIP3    H236278   4.514   4.506   2.868  1.4670  1.8677  1.0761
 4955TIP3   OH236279   2.894   1.782   4.717 -0.1382  0.5312 -0.0933
 4955TIP3    H136280   2.859   1.858   4.764 -0.3591 -0.3824  1.2815
 4955TIP3    H236281   2.817   1.728   4.698  0.1463  0.0658  0.0548
 4956TIP3   OH236282   5.680   1.589  11.488 -0.1719 -0.1552  0.1830
 4956TIP3    H136283   5.724   1.544  11.416 -0.0572  1.2470 -0.6728
 4956TIP3    H236284   5.610   1.639  11.446 -0.5843  0.1014  1.1409
 4957TIP3   OH236285   3.035   1.738  15.077  0.3973  0.0019 -0.4380
 4957TIP3    H136286   3.105   1.753  15.013  0.7310 -0.8567 -0.2933
 4957TIP3    H236287   3.017   1.645  15.070 -1.4512  0.3775 -1.1777
 4958TIP3   OH236288   6.443   2.055  13.300 -0.9447  0.0188 -0.8149
 4958TIP3    H136289   6.526   2.063  13.254  0.2312  0.7300  1.2995
 4958TIP3    H236290   6.381   2.107  13.248  0.5757  1.7272 -0.9996
 4959TIP3   OH236291   4.827   5.685  16.408  0.5488  0.7616  1.0305
 4959TIP3    H136292   4.779   5.604  16.391  1.3044  0.5543 -0.3032
 4959TIP3    H236293   4.762   5.754  16.398  0.1680  0.3900  0.9169
 4960TIP3   OH236294   3.907   5.611  11.210  0.2777 -0.0450  0.0019
 4960TIP3    H136295   3.866   5.660  11.139 -0.3023 -0.8741 -0.2617
 4960TIP3    H236296   3.919   5.674  11.280 -0.1449  0.5385 -0.4464
 4961TIP3   OH236297   2.033   3.812  15.053  0.0539  0.2835  0.2114
 4961TIP3    H136298   2.030   3.774  14.966 -0.8041 -0.7541  0.6860
 4961TIP3    H236299   2.121   3.850  15.059  0.2941 -0.0691 -0.9152
 4962TIP3   OH236300   0.222   6.695   3.856  0.0581  0.0415  0.2868
 4962TIP3    H136301   0.274   6.703   3.775  1.9172 -2.2731  1.1267
 4962TIP3    H236302   0.269   6.748   3.920  0.0762 -0.2252  0.4936
 4963TIP3   OH236303   1.339   6.065   1.044  0.0334 -0.0941 -0.6965
 4963TIP3    H136304   1.315   6.054   1.136  1.7398  1.5117  0.0085
 4963TIP3    H236305   1.268   6.117   1.007 -1.0186 -1.3436 -0.5175
 4964TIP3   OH236306   3.147   0.079   0.059  0.3475  0.3860  0.0842
 4964TIP3    H136307   3.203   0.156   0.068  0.3707  0.3002  0.7274
 4964TIP3    H236308   3.173   0.040  -0.024  1.8525 -0.1400  0.7665
 4965TIP3   OH236309   1.633   2.420  16.115  0.2762 -0.5449  0.2569
 4965TIP3    H136310   1.621   2.384  16.202  1.1021 -1.7005 -0.0859
 4965TIP3    H236311   1.716   2.467  16.119 -0.0339  0.0120  0.2754
 4966TIP3   OH236312   5.395   0.182  13.996  0.1259 -0.0747 -0.4465
 4966TIP3    H136313   5.360   0.164  14.084  0.4926  0.1710 -0.2474
 4966TIP3    H236314   5.484   0.213  14.012 -0.5137  2.1363 -0.7482
 4967TIP3   OH236315   5.895   0.289  13.174  0.2124  0.4493 -0.2317
 4967TIP3    H136316   5.831   0.238  13.224  1.3034  0.8923  1.7040
 4967TIP3    H236317   5.876   0.380  13.198  0.1053  0.7647 -1.4559
 4968TIP3   OH236318   2.328   4.838   1.264 -0.7317  0.7186  0.5401
 4968TIP3    H136319   2.278   4.914   1.235 -1.8395  0.3804  1.4807
 4968TIP3    H236320   2.267   4.764   1.256  0.1508  0.0035  0.1505
 4969TIP3   OH236321   0.285   2.482   4.003  0.0834 -0.4645 -0.8179
 4969TIP3    H136322   0.271   2.413   4.068 -0.8336  0.7897  0.3689
 4969TIP3    H236323   0.270   2.563   4.051 -1.2080  0.5022 -2.7258
 4970TIP3   OH236324   6.427   2.917  14.593  0.4362 -0.3441  0.5682
 4970TIP3    H136325   6.365   2.987  14.572 -0.0578 -0.2537  2.1746
 4970TIP3    H236326   6.504   2.961  14.628 -0.1950 -0.5747  2.3702
 4971TIP3   OH236327   0.590   5.191   1.356  0.0396 -0.9352  0.7012
 4971TIP3    H136328   0.644   5.121   1.392  0.2864 -1.3015 -0.3340
 4971TIP3    H236329   0.500   5.157   1.361  0.1629 -1.3562  0.1570
 4972TIP3   OH236330   5.609   4.861   5.517  0.3738 -0.1526 -0.1184
 4972TIP3    H136331   5.647   4.918   5.451 -0.5609 -0.6932 -1.1700
 4972TIP3    H236332   5.517   4.888   5.522  0.1912 -0.8118  0.1900
 4973TIP3   OH236333   5.286   0.948   5.604  0.3005  0.8823  0.1554
 4973TIP3    H136334   5.289   1.040   5.578 -0.8235  0.9814  0.3063
 4973TIP3    H236335   5.229   0.947   5.681  0.2024  0.0396  0.0835
 4974TIP3   OH236336   5.887   1.857  15.694  0.1738  0.6398 -0.1673
 4974TIP3    H136337   5.798   1.893  15.695  0.3541  1.0783  1.4143
 4974TIP3    H236338   5.880   1.774  15.741 -0.0235 -1.0351 -2.8799
 4975TIP3   OH236339   3.042   3.044  10.952 -0.2398  0.4719  0.0405
 4975TIP3    H136340   3.031   2.979  11.022  0.2528  0.5944  0.2385
 4975TIP3    H236341   3.012   3.000  10.873 -1.1139  0.4431  0.3845
 4976TIP3   OH236342   2.641   1.195  16.218 -0.6274 -0.9090  0.5022
 4976TIP3    H136343   2.592   1.166  16.141 -0.6145  0.2456  0.0262
 4976TIP3    H236344   2.575   1.207  16.286 -0.8636 -0.4148  0.1924
 4977TIP3   OH236345   1.346   5.338  11.751  0.4002 -0.2176  0.7085
 4977TIP3    H136346   1.313   5.345  11.841 -1.2811  0.7945  0.0618
 4977TIP3    H236347   1.332   5.246  11.728  2.2807 -0.8701  1.9525
 4978TIP3   OH236348   2.688   1.624  14.787  0.0722 -0.6078 -0.7008
 4978TIP3    H136349   2.649   1.540  14.762 -0.2467 -0.2380 -1.4980
 4978TIP3    H236350   2.681   1.627  14.882  0.6498 -1.7535 -0.6091
 4979TIP3   OH236351   3.223   6.335  13.225 -0.2826  0.2199  0.6338
 4979TIP3    H136352   3.129   6.354  13.223 -0.5974 -0.9159 -3.5107
 4979TIP3    H236353   3.229   6.240  13.216  1.3161  0.2573  0.9007
 4980TIP3   OH236354   3.993   1.969  14.507  0.1656 -0.3553 -0.3226
 4980TIP3    H136355   3.919   1.984  14.565  1.4706  0.8375  1.1249
 4980TIP3    H236356   4.029   1.884  14.533  1.0968  0.4290  1.1056
 4981TIP3   OH236357   6.052   1.779  15.501  0.2080 -0.2248 -0.5279
 4981TIP3    H136358   6.008   1.785  15.586 -0.7107 -0.5415 -0.9642
 4981TIP3    H236359   6.145   1.782  15.522  0.0146 -1.0590  0.5591
 4982TIP3   OH236360   0.597   5.062  11.594 -0.4373  0.2839  0.2392
 4982TIP3    H136361   0.596   5.100  11.682 -0.3204  0.6807  0.0731
 4982TIP3    H236362   0.615   5.136  11.536 -1.7112  0.2480 -0.2307
 4983TIP3   OH236363   3.629   6.076  15.662  0.2721  0.0992 -0.2350
 4983TIP3    H136364   3.548   6.118  15.633  0.2123  0.2722  0.1752
 4983TIP3    H236365   3.615   6.058  15.755  0.6371 -0.0285 -0.2026
 4984TIP3   OH236366   1.584   1.149  17.035 -0.4385 -0.2095 -0.3552
 4984TIP3    H136367   1.579   1.063  16.994  1.2471  0.0671 -1.1953
 4984TIP3    H236368   1.533   1.140  17.116 -1.0542 -1.7061 -0.8759
 4985TIP3   OH236369   4.995   2.471  15.343 -0.2451 -0.1552 -0.3797
 4985TIP3    H136370   5.074   2.467  15.290 -0.0721  2.3802 -0.4684
 4985TIP3    H236371   5.013   2.414  15.418  1.2277 -0.4489 -0.9255
 4986TIP3   OH236372   4.739   1.307   4.647  0.0999 -0.1475 -0.3038
 4986TIP3    H136373   4.743   1.295   4.552  0.1660 -0.2330 -0.2898
 4986TIP3    H236374   4.824   1.345   4.670  0.0819 -0.1221 -0.2801
 4987TIP3   OH236375   4.417   4.791  13.271 -0.1130  0.3609  0.2520
 4987TIP3    H136376   4.382   4.810  13.184 -1.2379  1.2956  0.8710
 4987TIP3    H236377   4.492   4.735  13.255  0.3467  1.3564 -1.3927
 4988TIP3   OH236378   5.468   5.399  11.475  0.4015  0.5022 -0.6287
 4988TIP3    H136379   5.376   5.414  11.453  0.1105 -0.9373 -0.5323
 4988TIP3    H236380   5.466   5.374  11.568  1.0296  1.5804 -0.3143
 4989TIP3   OH236381   1.991   6.385  10.713  0.4700 -0.0589 -0.2991
 4989TIP3    H136382   2.020   6.375  10.622 -1.6504 -2.1478 -0.8553
 4989TIP3    H236383   1.906   6.427  10.706 -0.4722 -1.7139  0.5105
 4990TIP3   OH236384   3.010   3.742   0.274  0.4921 -0.4051 -0.0554
 4990TIP3    H136385   2.955   3.678   0.319 -0.4338  0.8586  0.6843
 4990TIP3    H236386   2.971   3.749   0.186  1.2214 -1.5679 -0.4970
 4991TIP3   OH236387   4.445   2.131   1.611  0.1986 -0.2507 -0.2229
 4991TIP3    H136388   4.361   2.172   1.591  0.0917  0.3830  1.3833
 4991TIP3    H236389   4.427   2.037   1.606  0.2088 -0.1675 -2.9765
 4992TIP3   OH236390   2.117   6.590  10.458  0.3721  0.1830  0.5001
 4992TIP3    H136391   2.055   6.520  10.437  0.4309  0.7269 -1.6791
 4992TIP3    H236392   2.063   6.669  10.466  0.5060  0.2102  1.2033
 4993TIP3   OH236393   6.446   4.009   0.081  0.4115  0.0537  0.1786
 4993TIP3    H136394   6.391   4.047   0.012  1.7674 -0.9166 -1.5201
 4993TIP3    H236395   6.517   4.072   0.092  2.0087 -1.2591 -1.7883
 4994TIP3   OH236396   5.606   2.511  15.230 -0.1774  0.1872  0.1067
 4994TIP3    H136397   5.625   2.568  15.304  0.1457 -1.6622  1.5292
 4994TIP3    H236398   5.692   2.481  15.201 -0.3537  0.2759 -0.5340
 4995TIP3   OH236399   6.103   6.352   5.620 -0.2303 -0.2000  0.4239
 4995TIP3    H136400   6.188   6.369   5.661 -1.3352 -0.5239  3.0675
 4995TIP3    H236401   6.123   6.293   5.547  1.7353 -0.8062  1.3868
 4996TIP3   OH236402   2.297   0.921   1.025  0.5914  0.0030  0.6499
 4996TIP3    H136403   2.362   0.976   0.982  0.3784 -0.5915 -0.4754
 4996TIP3    H236404   2.337   0.896   1.108  1.3728  0.4717  0.4203
 4997TIP3   OH236405   4.619   0.743  13.116  0.1557  0.0946 -0.2381
 4997TIP3    H136406   4.601   0.771  13.206 -0.5034 -0.8291 -0.0748
 4997TIP3    H236407   4.647   0.823  13.072 -0.7799  0.8392  0.4607
 4998TIP3   OH236408   4.462   4.048   0.761 -0.1745 -0.7113 -0.3703
 4998TIP3    H136409   4.546   4.017   0.795 -0.8689 -1.3830  0.7890
 4998TIP3    H236410   4.417   4.083   0.838  0.3633  2.8552 -1.4964
 4999TIP3   OH236411   6.334   2.157   1.374  0.7212  0.5299  0.1118
 4999TIP3    H136412   6.404   2.223   1.374  0.6708  0.6488 -2.2258
 4999TIP3    H236413   6.374   2.078   1.339 -0.6047  1.0509 -2.8678
 5000TIP3   OH236414   5.780   4.923  13.777 -0.0822  0.4504  0.0771
 5000TIP3    H136415   5.737   4.866  13.840 -0.7731  0.1949 -0.6127
 5000TIP3    H236416   5.871   4.892  13.774  0.5365  1.7993  2.4901
 5001TIP3   OH236417   1.296   0.411   1.499  0.2139  0.5659 -0.0966
 5001TIP3    H136418   1.372   0.459   1.467  1.1839  0.2605  1.6670
 5001TIP3    H236419   1.331   0.351   1.565 -1.3910 -0.4351 -0.1005
 5002TIP3   OH236420   2.628   3.192  12.037  0.5710 -0.2726  0.6865
 5002TIP3    H136421   2.634   3.106  12.079  0.2755 -1.2711 -1.2256
 5002TIP3    H236422   2.679   3.250  12.094  2.0402 -2.0117  1.2217
 5003TIP3   OH236423   1.560   6.354   0.867  0.2501  0.5969 -0.0343
 5003TIP3    H136424   1.470   6.387   0.864 -0.3031 -0.6284  1.3934
 5003TIP3    H236425   1.611   6.419   0.820 -1.2745  1.6988 -0.2535
 5004TIP3   OH236426   5.707   4.335  15.052 -0.1067 -0.0513 -0.2203
 5004TIP3    H136427   5.801   4.319  15.051  0.0813  0.8044 -2.5322
 5004TIP3    H236428   5.693   4.391  15.129  1.1121 -0.9120  0.6507
 5005TIP3   OH236429   0.687   3.527   4.250 -1.1913  0.1446  0.8446
 5005TIP3    H136430   0.677   3.451   4.193  0.3524  0.6178 -0.1284
 5005TIP3    H236431   0.662   3.602   4.195  1.1725  0.6944  0.3905
 5006TIP3   OH236432   3.834   2.042   0.072  0.0535 -0.7525  0.3371
 5006TIP3    H136433   3.868   2.105   0.135  0.0043 -0.3040 -0.0813
 5006TIP3    H236434   3.906   1.980   0.058  0.2367 -0.5656  0.4535
 5007TIP3   OH236435   0.639   4.030  13.857  0.0030  0.8241  0.1505
 5007TIP3    H136436   0.713   3.976  13.885  1.1779  1.9783 -0.6513
 5007TIP3    H236437   0.674   4.119  13.852 -1.0027  1.1666 -1.7805
 5008TIP3   OH236438   1.765   4.615   4.373 -0.3083 -0.1806 -0.2356
 5008TIP3    H136439   1.816   4.665   4.309 -0.9273 -2.9533 -3.1598
 5008TIP3    H236440   1.830   4.567   4.424  0.1501 -0.4835 -1.0890
 5009TIP3   OH236441   5.448   2.736  16.058 -0.2272  0.0790  0.4951
 5009TIP3    H136442   5.414   2.663  16.006 -0.5025 -0.2103  1.0589
 5009TIP3    H236443   5.543   2.726  16.055 -0.0638  1.5669 -2.0606
 5010TIP3   OH236444   4.486   4.686   1.566 -0.3624 -0.0099  0.0172
 5010TIP3    H136445   4.407   4.725   1.606  0.4365 -0.2013  1.8969
 5010TIP3    H236446   4.558   4.723   1.617  0.5187 -2.9192  1.0683
 5011TIP3   OH236447   5.331   2.090   2.119 -0.6414 -0.3232 -0.2297
 5011TIP3    H136448   5.296   2.108   2.031 -1.0101 -2.6867 -0.6407
 5011TIP3    H236449   5.386   2.013   2.107  1.1825  0.6578  1.2446
 5012TIP3   OH236450   0.465   2.387  16.396  0.0741  0.5164 -0.1252
 5012TIP3    H136451   0.477   2.295  16.371  1.2151  0.6886 -0.2963
 5012TIP3    H236452   0.551   2.413  16.431 -0.8288  0.9126  1.9560
 5013TIP3   OH236453   6.121   3.209  17.095 -0.0009 -0.6215  0.3797
 5013TIP3    H136454   6.082   3.272  17.155 -1.2397 -0.0962 -0.9313
 5013TIP3    H236455   6.059   3.136  17.094 -1.1699  0.3198 -1.9043
 5014TIP3   OH236456   3.233   0.150  16.348  0.0460 -0.1625  0.3854
 5014TIP3    H136457   3.203   0.237  16.374 -1.0812 -0.7638  1.1597
 5014TIP3    H236458   3.316   0.137  16.394  1.4955  1.4290 -1.5943
 5015TIP3   OH236459   0.185   3.612  12.539 -0.3666 -0.2126 -0.0243
 5015TIP3    H136460   0.126   3.588  12.467 -0.7529 -0.5876  0.4179
 5015TIP3    H236461   0.178   3.708  12.544 -0.8365 -0.2447 -0.0575
 5016TIP3   OH236462   4.946   6.599   1.420 -0.6681  0.4339 -0.5508
 5016TIP3    H136463   4.986   6.553   1.493 -1.3527  1.4271  0.4706
 5016TIP3    H236464   4.991   6.683   1.416  1.2600 -0.5564 -3.0226
 5017TIP3   OH236465   2.031   0.390   3.995 -0.2629 -0.4301  0.1312
 5017TIP3    H136466   2.045   0.297   4.012  0.2185 -0.5431 -0.8004
 5017TIP3    H236467   2.119   0.428   3.993 -0.4513  0.0288  0.4003
 5018TIP3   OH236468   3.971   4.115  11.637  0.7728  0.2656 -0.0221
 5018TIP3    H136469   3.987   4.185  11.700  0.1422  0.5330 -0.1555
 5018TIP3    H236470   4.052   4.064  11.637  0.5266 -0.2077  1.5934
 5019TIP3   OH236471   6.376   4.550  15.163  0.2057  0.1156 -0.3458
 5019TIP3    H136472   6.340   4.468  15.197  1.3513 -0.1973  0.1469
 5019TIP3    H236473   6.375   4.609  15.239  0.1674  0.3000 -0.4895
 5020TIP3   OH236474   5.185   3.029   5.219  0.4529 -0.5290  0.2359
 5020TIP3    H136475   5.191   2.941   5.183  3.9768 -0.9349  1.4214
 5020TIP3    H236476   5.176   3.016   5.314  1.1038  0.3632  0.4330
 5021TIP3   OH236477   1.088   4.114  15.185 -0.1813  0.3535  0.6014
 5021TIP3    H136478   1.117   4.121  15.275 -0.4348  0.6168  0.6644
 5021TIP3    H236479   0.999   4.079  15.191  0.5542 -1.7346  0.3577
 5022TIP3   OH236480   4.540   3.013  16.751  0.6206  0.5377  0.4055
 5022TIP3    H136481   4.633   2.991  16.752  0.4838 -0.1185 -0.2702
 5022TIP3    H236482   4.524   3.050  16.664  0.3419  1.0569  0.6741
 5023TIP3   OH236483   2.474   2.728  15.410 -0.2194 -0.8453  0.0674
 5023TIP3    H136484   2.458   2.777  15.329 -0.1225 -1.3314 -0.2519
 5023TIP3    H236485   2.409   2.762  15.471  0.3801  0.2558  0.1115
 5024TIP3   OH236486   0.830   5.749  16.628 -0.5055 -0.7512 -0.5557
 5024TIP3    H136487   0.831   5.715  16.718  1.8811 -0.9331 -0.5900
 5024TIP3    H236488   0.777   5.829  16.633  0.6389 -0.0411  1.3309
 5025TIP3   OH236489   0.246   5.889   0.395  0.4156 -0.1531  0.5382
 5025TIP3    H136490   0.284   5.804   0.419  0.0255 -0.1160  1.3337
 5025TIP3    H236491   0.155   5.869   0.372  0.9159 -0.2616 -1.4946
 5026TIP3   OH236492   3.732   5.553  16.636  0.3279  0.2996 -0.1948
 5026TIP3    H136493   3.650   5.509  16.612 -0.9416  2.0484  0.6703
 5026TIP3    H236494   3.739   5.541  16.731  0.1591  1.5436 -0.0024
 5027TIP3   OH236495   3.147   2.897  14.173 -0.2185  0.2400  0.6723
 5027TIP3    H136496   3.145   2.858  14.260 -1.2215  0.2752  0.6839
 5027TIP3    H236497   3.221   2.855  14.129 -1.1985 -1.6481  0.7089
 5028TIP3   OH236498   0.483   0.385  17.041  0.0690 -0.1112 -0.3358
 5028TIP3    H136499   0.454   0.331  17.115 -0.3839  1.1408  0.4256
 5028TIP3    H236500   0.578   0.374  17.040  0.3707  1.5707  1.8702
 5029TIP3   OH236501   3.322   2.123   0.649 -0.3641  0.3762  0.7062
 5029TIP3    H136502   3.238   2.080   0.666  0.0304 -0.3613  0.8349
 5029TIP3    H236503   3.337   2.178   0.726 -0.7766  0.5858  0.6380
 5030TIP3   OH236504   2.132   4.577  15.762 -0.4882 -0.2487 -0.6284
 5030TIP3    H136505   2.221   4.548  15.782 -1.1286 -3.0282 -1.3354
 5030TIP3    H236506   2.109   4.636  15.834  2.3703  1.7730 -1.1947
 5031TIP3   OH236507   5.551   1.866   2.153 -0.1161  0.2246 -0.6509
 5031TIP3    H136508   5.538   1.867   2.248  1.1313  0.5002 -0.4716
 5031TIP3    H236509   5.617   1.932   2.136 -0.5381  0.3919 -1.7649
 5032TIP3   OH236510   4.099   5.856  12.413  0.3405  0.3622 -0.0217
 5032TIP3    H136511   4.147   5.811  12.343  0.2843  0.0157  0.1661
 5032TIP3    H236512   4.143   5.830  12.494  0.6925  1.1233  0.0383
 5033TIP3   OH236513   0.715   2.458  12.337 -0.4569 -0.1610  0.1187
 5033TIP3    H136514   0.714   2.365  12.359 -0.4693 -0.1093  0.3476
 5033TIP3    H236515   0.653   2.467  12.264 -1.0907 -0.2097  0.6368
 5034TIP3   OH236516   3.297   1.252   2.275 -0.3198 -0.0148  0.7356
 5034TIP3    H136517   3.341   1.238   2.191  0.7473  0.1799  1.2474
 5034TIP3    H236518   3.353   1.208   2.339 -0.4255  0.9393  1.5071
 5035TIP3   OH236519   2.233   2.287  11.034 -0.5976  0.6347  0.9141
 5035TIP3    H136520   2.272   2.345  11.099  1.6611  0.1583  0.0761
 5035TIP3    H236521   2.290   2.295  10.957 -1.8986 -0.5040 -0.2262
 5036TIP3   OH236522   1.532   3.618  11.236  0.0477 -0.0044  0.1871
 5036TIP3    H136523   1.464   3.679  11.264 -0.1345 -0.9425  1.9576
 5036TIP3    H236524   1.604   3.632  11.297  0.5911 -0.5214 -0.3102
 5037TIP3   OH236525   4.897   1.674  13.254  0.1652  0.1053 -0.2407
 5037TIP3    H136526   4.961   1.610  13.223  0.2997  0.0487  0.1537
 5037TIP3    H236527   4.864   1.715  13.174  0.5967  0.0421 -0.4564
 5038TIP3   OH236528   4.309   3.526   3.990  0.4267  0.2455  0.0043
 5038TIP3    H136529   4.227   3.545   4.035 -1.3462 -1.9589 -2.0039
 5038TIP3    H236530   4.320   3.598   3.927 -0.8606 -0.1865 -0.7608
 5039TIP3   OH236531   4.956   1.586  15.337  0.1532  0.3183 -0.0267
 5039TIP3    H136532   5.029   1.530  15.364  0.7404  0.6712 -0.8121
 5039TIP3    H236533   4.980   1.614  15.248 -0.8413  0.6157 -0.2063
 5040TIP3   OH236534   4.986   6.784   0.592  0.7512 -0.1887  0.2857
 5040TIP3    H136535   5.003   6.691   0.604  1.3747 -0.2637 -0.9953
 5040TIP3    H236536   5.028   6.806   0.509 -1.7505  0.6145 -0.8844
 5041TIP3   OH236537   0.077   4.055   5.309 -0.2880 -0.3506  0.5526
 5041TIP3    H136538   0.058   4.147   5.291 -2.7218 -0.7189  0.9201
 5041TIP3    H236539   0.134   4.058   5.386 -0.0962  0.8380  0.3916
 5042TIP3   OH236540   5.238   6.619   1.628  0.0820  0.4000  0.3218
 5042TIP3    H136541   5.182   6.546   1.654 -0.1219 -0.4539 -2.2219
 5042TIP3    H236542   5.176   6.689   1.604  0.0174 -0.3936 -2.0660
 5043TIP3   OH236543   2.781   4.629   3.528  0.0978 -0.2070  0.1312
 5043TIP3    H136544   2.804   4.670   3.611  2.4753  2.8975 -1.8182
 5043TIP3    H236545   2.719   4.690   3.487 -0.3594 -1.2350 -0.7922
 5044TIP3   OH236546   3.151   3.675  12.435 -0.7404 -0.0486 -0.6770
 5044TIP3    H136547   3.067   3.652  12.475 -0.5175 -2.4924 -1.4313
 5044TIP3    H236548   3.131   3.748  12.377 -2.1682 -0.0470 -0.2192
 5045TIP3   OH236549   1.506   5.933   3.124  0.5242  0.1751  0.0291
 5045TIP3    H136550   1.559   5.856   3.148  1.4098  1.1649  1.4463
 5045TIP3    H236551   1.485   5.974   3.208 -3.5281 -0.7415 -0.3445
 5046TIP3   OH236552   2.512   2.287   2.292 -0.1928  0.3403 -0.6055
 5046TIP3    H136553   2.473   2.248   2.370 -0.9264  1.6188 -0.3239
 5046TIP3    H236554   2.597   2.320   2.321 -0.3499  0.5729 -0.4093
 5047TIP3   OH236555   0.838   2.620  13.741  0.1200 -0.1744  0.0813
 5047TIP3    H136556   0.863   2.532  13.711 -0.8066 -1.2057  2.1791
 5047TIP3    H236557   0.750   2.609  13.777  0.8877  1.0864  2.5310
 5048TIP3   OH236558   2.809   5.988   5.594  0.0612 -0.1675 -0.1115
 5048TIP3    H136559   2.731   6.042   5.579  0.7200  0.8044 -0.1112
 5048TIP3    H236560   2.774   5.901   5.614 -1.0717  0.5656  1.2489
 5049TIP3   OH236561   5.477   2.489  16.927 -0.4802  0.0633  0.0327
 5049TIP3    H136562   5.566   2.455  16.939 -0.5077 -0.1519 -0.3783
 5049TIP3    H236563   5.444   2.444  16.850 -0.7426  0.5643 -0.1522
 5050TIP3   OH236564   3.847   1.550   5.184 -0.0829  0.4614  0.5058
 5050TIP3    H136565   3.812   1.462   5.199  0.1588 -0.0698 -1.7225
 5050TIP3    H236566   3.942   1.537   5.175  0.2393  1.2917  2.2391
 5051TIP3   OH236567   3.880   2.144  12.445 -0.2119 -0.5674 -0.1133
 5051TIP3    H136568   3.867   2.172  12.536  1.0778  0.0689 -0.1036
 5051TIP3    H236569   3.973   2.118  12.441  0.1152  0.6584 -1.5588
 5052TIP3   OH236570   1.182   6.528   3.425  0.2986 -0.1375  0.0535
 5052TIP3    H136571   1.113   6.524   3.358 -0.1279  1.3661  0.3529
 5052TIP3    H236572   1.232   6.607   3.402  0.1455  0.3947  1.4819
 5053TIP3   OH236573   1.410   2.510  15.993 -0.0485  0.8229  0.8099
 5053TIP3    H136574   1.468   2.474  16.061  0.5172  0.4438  0.1413
 5053TIP3    H236575   1.470   2.550  15.930 -0.4566 -0.0685 -0.1823
 5054TIP3   OH236576   0.253   4.295  16.083  0.8411 -0.5136  0.1483
 5054TIP3    H136577   0.226   4.386  16.084  2.7186  0.1111 -1.0965
 5054TIP3    H236578   0.347   4.297  16.104  0.9537 -2.1508 -0.0120
 5055TIP3   OH236579   4.578   6.789  14.036 -0.4295 -0.2365 -0.1593
 5055TIP3    H136580   4.504   6.760  13.983 -1.5722 -0.1842  1.3294
 5055TIP3    H236581   4.538   6.819  14.118  1.2386 -0.1812  0.6739
 5056TIP3   OH236582   0.382   4.804   2.911 -0.9134  0.1703 -0.3156
 5056TIP3    H136583   0.314   4.871   2.918 -0.7238  0.3260  0.0603
 5056TIP3    H236584   0.443   4.824   2.982 -1.7773 -1.4573  0.9479
 5057TIP3   OH236585   0.300   0.202  14.517 -0.1818  0.2986 -0.6036
 5057TIP3    H136586   0.316   0.295  14.535 -1.4061  0.1062  2.0139
 5057TIP3    H236587   0.368   0.156  14.565 -1.8622 -0.1769  1.5096
 5058TIP3   OH236588   2.340   5.253   4.671 -0.4412  0.1564  0.0848
 5058TIP3    H136589   2.316   5.329   4.724  0.8897  1.7602 -1.4668
 5058TIP3    H236590   2.282   5.258   4.595 -0.2474 -0.2922 -0.0937
 5059TIP3   OH236591   1.690   5.630  16.247 -0.2302 -0.1864  0.1934
 5059TIP3    H136592   1.720   5.540  16.257 -2.6721 -0.9115  2.2001
 5059TIP3    H236593   1.732   5.679  16.318  0.8971  0.2305 -0.7410
 5060TIP3   OH236594   4.501   2.414   6.339  0.1231 -0.2113  0.2318
 5060TIP3    H136595   4.467   2.378   6.257  1.0475 -0.6438  0.0311
 5060TIP3    H236596   4.541   2.339   6.384  0.1929  0.1497  0.7855
 5061TIP3   OH236597   2.426   0.274   2.449  0.0676  0.2825 -0.0508
 5061TIP3    H136598   2.506   0.228   2.426  0.4232 -0.0892  1.7529
 5061TIP3    H236599   2.436   0.361   2.410  1.2178  0.1372 -0.1156
 5062TIP3   OH236600   4.635   3.688   2.133  0.3467  0.5371 -0.1486
 5062TIP3    H136601   4.617   3.781   2.148  1.9774  0.9743 -0.7563
 5062TIP3    H236602   4.606   3.671   2.044  2.2489  1.1003 -0.9198
 5063TIP3   OH236603   6.651   3.206  14.166  0.1783 -0.4150 -0.2309
 5063TIP3    H136604   6.713   3.255  14.221  0.0201 -1.0700  0.5627
 5063TIP3    H236605   6.576   3.191  14.223  0.8874 -3.0142  0.1530
 5064TIP3   OH236606   1.731   4.462   4.680 -0.4002  0.4517  0.0976
 5064TIP3    H136607   1.763   4.532   4.738 -2.0941 -0.2882  2.0588
 5064TIP3    H236608   1.638   4.482   4.667 -0.4134 -0.2867 -1.0856
 5065TIP3   OH236609   0.732   3.137  15.807  0.0608 -0.5635  0.0162
 5065TIP3    H136610   0.709   3.057  15.854 -1.5399  0.6479  1.4239
 5065TIP3    H236611   0.826   3.130  15.791  0.0746 -2.3875  0.7369
 5066TIP3   OH236612   2.225   2.270   1.919 -0.0827 -0.1606  0.1722
 5066TIP3    H136613   2.237   2.321   1.839  1.4720 -0.3756  0.2215
 5066TIP3    H236614   2.134   2.282   1.943  0.3915  3.2794  0.6463
 5067TIP3   OH236615   1.936   5.057  10.355 -0.2387 -0.6930 -0.3555
 5067TIP3    H136616   1.868   5.013  10.406 -1.7371  1.9579  0.0964
 5067TIP3    H236617   1.898   5.068  10.268 -0.8130  1.4436  0.0906
 5068TIP3   OH236618   3.985   2.984   5.536 -0.2786 -0.8697  0.3792
 5068TIP3    H136619   3.941   3.026   5.609  0.8471  1.5916 -0.2186
 5068TIP3    H236620   3.915   2.961   5.475 -0.9835 -0.0529  0.8657
 5069TIP3   OH236621   2.842   2.151   1.920 -0.7037 -0.3231  0.0776
 5069TIP3    H136622   2.829   2.221   1.984 -1.2056 -1.8232  1.7025
 5069TIP3    H236623   2.905   2.186   1.858  0.1906  1.0378  1.6764
 5070TIP3   OH236624   4.567   3.041   5.963 -0.3482 -0.0713  0.8125
 5070TIP3    H136625   4.637   3.039   6.029  0.8539 -0.5387 -0.4288
 5070TIP3    H236626   4.584   3.120   5.912 -0.4694 -0.3989  0.2530
 5071TIP3   OH236627   6.338   2.718   5.734 -0.0104  0.2445  0.0036
 5071TIP3    H136628   6.400   2.646   5.747  1.5009  1.3442 -0.7506
 5071TIP3    H236629   6.302   2.705   5.647 -0.0876  0.1464  0.0502
 5072TIP3   OH236630   0.086   1.014  13.231  0.2077  0.3042 -0.2490
 5072TIP3    H136631   0.167   0.999  13.279  0.3482  1.3811 -0.1364
 5072TIP3    H236632   0.022   1.037  13.298 -1.2861 -4.2049  0.2271
 5073TIP3   OH236633   6.035   1.409  11.982  0.4562  0.4513  0.7188
 5073TIP3    H136634   6.061   1.332  12.033  3.5944 -0.6625 -2.1696
 5073TIP3    H236635   5.951   1.384  11.943  0.1008 -0.3579  1.9389
 5074TIP3   OH236636   2.289   6.509   0.802 -0.0872 -0.0404 -0.0600
 5074TIP3    H136637   2.268   6.596   0.767  0.6219  0.6272  1.1293
 5074TIP3    H236638   2.368   6.522   0.854 -0.3871 -1.2666  0.7388
 5075TIP3   OH236639   1.516   1.624  13.559 -0.4465 -0.0543 -0.1443
 5075TIP3    H136640   1.490   1.557  13.496 -2.8300  1.4088 -0.8196
 5075TIP3    H236641   1.461   1.609  13.636  1.8540 -1.3013  1.3968
 5076TIP3   OH236642   1.392   5.571   0.145  0.1874 -0.4561  0.1755
 5076TIP3    H136643   1.418   5.656   0.181  3.1266 -1.4958  0.7506
 5076TIP3    H236644   1.367   5.520   0.222  0.5219 -0.7646  0.0830
 5077TIP3   OH236645   2.753   4.012   0.115  0.3316  0.3784  0.2282
 5077TIP3    H136646   2.781   3.922   0.098  0.5609  0.6782 -1.1405
 5077TIP3    H236647   2.711   4.009   0.200 -0.2545 -1.1571 -0.0913
 5078TIP3   OH236648   1.889   4.752  11.528 -0.0858 -0.2219  0.2622
 5078TIP3    H136649   1.857   4.758  11.618  1.7151  0.2158  0.9247
 5078TIP3    H236650   1.846   4.675  11.492 -0.8880 -0.3658  1.4796
 5079TIP3   OH236651   4.456   1.106   3.646  0.1005  0.2666 -0.0501
 5079TIP3    H136652   4.472   1.190   3.687 -2.6939 -0.0393  1.9159
 5079TIP3    H236653   4.410   1.127   3.565  0.0832  0.6539  0.0590
 5080TIP3   OH236654   5.095   0.135  11.879 -0.3500 -0.4384 -0.9596
 5080TIP3    H136655   5.153   0.064  11.852  0.4636  0.1034 -0.6936
 5080TIP3    H236656   5.051   0.102  11.958 -0.0744 -0.6936 -0.9121
 5081TIP3   OH236657   5.334   3.396   1.149  1.0068  0.1748 -0.7486
 5081TIP3    H136658   5.330   3.490   1.167  0.4840 -0.1013  0.6380
 5081TIP3    H236659   5.360   3.356   1.232  0.7984 -0.9468 -1.2093
 5082TIP3   OH236660   4.594   6.000   2.490 -0.4163 -0.2958  0.2852
 5082TIP3    H136661   4.616   6.087   2.456 -0.0387 -0.8632 -1.0003
 5082TIP3    H236662   4.675   5.949   2.482 -0.8575 -1.0073  0.1926
 5083TIP3   OH236663   1.814   2.163   0.023  0.4107  0.0419 -0.2444
 5083TIP3    H136664   1.901   2.191  -0.008  0.5688 -0.4234 -0.2269
 5083TIP3    H236665   1.772   2.126  -0.054  0.9918 -1.5779  0.1604
 5084TIP3   OH236666   2.073   0.445   5.464 -0.5929 -0.1313  0.0880
 5084TIP3    H136667   2.013   0.421   5.535 -0.5614 -1.8549 -0.4262
 5084TIP3    H236668   2.058   0.539   5.451 -3.2229 -0.4847 -0.0181
 5085TIP3   OH236669   6.192   0.460  14.080  0.0420  0.0194  0.3449
 5085TIP3    H136670   6.217   0.379  14.036  0.8267  0.3452  0.1708
 5085TIP3    H236671   6.130   0.502  14.020 -0.6127 -0.5853  0.5796
 5086TIP3   OH236672   6.738   5.327  14.544 -0.1150  0.1584  0.0360
 5086TIP3    H136673   6.651   5.290  14.527  0.4524 -1.2489  0.1159
 5086TIP3    H236674   6.723   5.390  14.615 -0.9928 -0.4215  0.3863
 5087TIP3   OH236675   0.364   1.607   4.808  0.0977 -0.5115 -0.2539
 5087TIP3    H136676   0.339   1.683   4.755  0.5566  0.9553  1.5023
 5087TIP3    H236677   0.450   1.630   4.843  0.0845 -1.6837  0.6231
 5088TIP3   OH236678   6.117   2.353   1.376 -0.3743 -0.1386  0.1252
 5088TIP3    H136679   6.127   2.389   1.464 -1.4092  1.0599 -0.2180
 5088TIP3    H236680   6.193   2.295   1.364  0.1776  0.2789  1.5042
 5089TIP3   OH236681   4.462   5.735  14.634  0.3056 -0.0358 -0.5394
 5089TIP3    H136682   4.456   5.641  14.652  1.1416  0.1742  0.9688
 5089TIP3    H236683   4.462   5.776  14.720  2.7201  1.1538 -1.0078
 5090TIP3   OH236684   2.336   6.453  15.082 -0.4134  0.0427 -0.3354
 5090TIP3    H136685   2.245   6.440  15.109  0.0144 -2.6900  0.0063
 5090TIP3    H236686   2.359   6.539  15.117 -1.2853 -1.3248  4.2581
 5091TIP3   OH236687   3.166   4.981   0.211  0.4250 -0.1305 -0.6707
 5091TIP3    H136688   3.129   4.903   0.170  1.1670 -1.2503  0.6856
 5091TIP3    H236689   3.261   4.966   0.210  0.5866  0.8373 -0.5657
 5092TIP3   OH236690   6.617   1.854  13.036  0.1472 -0.0263  0.2447
 5092TIP3    H136691   6.634   1.934  13.086  1.5350 -0.6735  0.8736
 5092TIP3    H236692   6.535   1.872  12.989  1.9379  2.9671 -2.1482
 5093TIP3   OH236693   1.404   6.631   0.248 -0.5020 -0.3986  0.7417
 5093TIP3    H136694   1.321   6.679   0.248 -0.8398 -0.9448  0.0168
 5093TIP3    H236695   1.423   6.615   0.340 -1.8131 -1.2565  0.9069
 5094TIP3   OH236696   0.625   0.519   1.994 -0.1216 -0.1345 -0.1533
 5094TIP3    H136697   0.569   0.459   1.945 -1.2578 -0.5748  1.5973
 5094TIP3    H236698   0.640   0.592   1.934 -1.6141 -0.5561 -1.0787
 5095TIP3   OH236699   4.358   5.156  15.130  0.4803 -0.7888  0.6535
 5095TIP3    H136700   4.295   5.088  15.104  0.3617  0.0839 -1.4884
 5095TIP3    H236701   4.313   5.239  15.112  1.7397 -0.1483  0.3320
 5096TIP3   OH236702   0.821   5.171  15.858  0.0810 -0.1811 -0.7479
 5096TIP3    H136703   0.907   5.206  15.879 -0.6950  1.1210  0.4540
 5096TIP3    H236704   0.786   5.232  15.793 -0.1451 -0.3948 -0.8271
 5097TIP3   OH236705   2.311   6.179   2.091  0.6706  0.3954 -0.5254
 5097TIP3    H136706   2.277   6.250   2.036  0.5310 -0.0963 -1.0772
 5097TIP3    H236707   2.393   6.213   2.125  0.0173  1.2942  0.1965
 5098TIP3   OH236708   6.159   0.098  10.604 -0.1295  0.6154 -0.1493
 5098TIP3    H136709   6.237   0.112  10.550  0.1283 -1.0546 -0.2532
 5098TIP3    H236710   6.086   0.125  10.548  0.1720 -0.5941 -1.1858
 5099TIP3   OH236711   0.568   3.377  16.369 -0.2899 -0.3679  1.3312
 5099TIP3    H136712   0.566   3.355  16.463 -2.3889 -1.3114  1.1102
 5099TIP3    H236713   0.482   3.415  16.351  0.3412  0.4776 -0.0920
 5100TIP3   OH236714   1.303   2.627   0.343  0.0493  0.2695  0.8507
 5100TIP3    H136715   1.252   2.597   0.418  1.4625 -1.9360  1.0038
 5100TIP3    H236716   1.370   2.684   0.381  1.2396 -1.4384  1.4626
 5101TIP3   OH236717   4.663   1.904  16.324  0.2802 -0.4968 -0.0840
 5101TIP3    H136718   4.700   1.968  16.385  0.4168  0.4234 -1.1223
 5101TIP3    H236719   4.569   1.921  16.325  0.2064 -0.8749  0.2866
 5102TIP3   OH236720   3.435   0.372   5.930 -0.6335 -0.6438  0.0041
 5102TIP3    H136721   3.397   0.428   5.998  0.4046  0.6118 -0.3955
 5102TIP3    H236722   3.452   0.432   5.857 -0.3225 -1.6731 -0.7894
 5103TIP3   OH236723   1.670   1.113   0.150 -0.5636 -0.0894  0.2466
 5103TIP3    H136724   1.734   1.052   0.187 -1.0589 -0.4262  0.5710
 5103TIP3    H236725   1.586   1.082   0.184 -1.0376 -0.4122 -1.1590
 5104TIP3   OH236726   0.685   3.961  12.504  0.1250 -0.8125  0.1621
 5104TIP3    H136727   0.641   3.981  12.588 -1.0571 -3.2738  0.2216
 5104TIP3    H236728   0.761   3.909  12.529 -0.0548 -1.2821 -0.2453
 5105TIP3   OH236729   4.119   3.972   3.066  0.5851  0.3337  0.1540
 5105TIP3    H136730   4.118   3.893   3.012 -0.8868 -0.2892  1.0192
 5105TIP3    H236731   4.028   4.000   3.069  0.7079  0.6513  1.8420
 5106TIP3   OH236732   6.000   5.590   4.277  0.0230  0.4279  0.2060
 5106TIP3    H136733   5.905   5.585   4.283 -0.0582  1.7705  0.4376
 5106TIP3    H236734   6.021   5.550   4.193 -0.7330  0.0660  0.1768
 5107TIP3   OH236735   5.435   5.773   1.377 -0.5908 -0.2556 -0.2403
 5107TIP3    H136736   5.508   5.717   1.350 -0.6481  0.0998 -1.1705
 5107TIP3    H236737   5.396   5.803   1.295 -1.2251  0.2911  0.2472
 5108TIP3   OH236738   2.197   2.828  13.545  0.0045  0.1259  0.0074
 5108TIP3    H136739   2.144   2.838  13.465  0.8464 -0.4916 -0.6457
 5108TIP3    H236740   2.151   2.881  13.611 -1.9351 -1.1116 -0.2838
 5109TIP3   OH236741   6.418   4.664  15.550  0.1216  0.7339  0.4572
 5109TIP3    H136742   6.422   4.588  15.609 -0.2554  0.0232 -0.4004
 5109TIP3    H236743   6.508   4.677  15.522 -0.1903 -1.8007 -2.2770
 5110TIP3   OH236744   3.168   1.133  14.775  0.3989  0.0824 -0.3118
 5110TIP3    H136745   3.127   1.072  14.714  1.6391 -0.8532 -0.2607
 5110TIP3    H236746   3.109   1.207  14.778 -0.0330 -0.1329 -2.1402
 5111TIP3   OH236747   1.755   5.649   1.470  0.2835  0.6116  0.4663
 5111TIP3    H136748   1.719   5.591   1.404 -1.3070  0.8107  1.1253
 5111TIP3    H236749   1.732   5.737   1.440  0.9905  0.8005  0.4611
 5112TIP3   OH236750   0.234   6.344  11.726  0.0439  0.6128  0.6311
 5112TIP3    H136751   0.321   6.383  11.714 -0.6204  2.2793  0.8891
 5112TIP3    H236752   0.225   6.335  11.820  0.7834 -1.6889  0.5270
 5113TIP3   OH236753   4.608   2.522   2.075 -0.1214  0.6537 -0.1951
 5113TIP3    H136754   4.633   2.485   2.160 -1.9248 -1.5235 -0.5573
 5113TIP3    H236755   4.560   2.602   2.098 -0.3330  0.2532  0.8239
 5114TIP3   OH236756   0.128   5.188  11.675  0.0805  0.2297 -0.1812
 5114TIP3    H136757   0.123   5.233  11.760  0.2876 -2.4116  1.3582
 5114TIP3    H236758   0.209   5.219  11.636  0.1541  1.2636  0.7348
 5115TIP3   OH236759   1.814   4.405  16.930 -0.1025  0.0535 -0.3794
 5115TIP3    H136760   1.752   4.424  16.860  1.2245 -0.3177 -1.7140
 5115TIP3    H236761   1.900   4.416  16.889  0.7136 -0.6765  1.0571
 5116TIP3   OH236762   1.420   1.079   5.045 -0.5036 -0.0215  0.2170
 5116TIP3    H136763   1.326   1.082   5.062 -0.4551  2.2950  0.3708
 5116TIP3    H236764   1.458   1.141   5.107  1.0695 -0.4254 -0.2801
 5117TIP3   OH236765   4.994   5.309  15.073  0.0501 -0.1778 -0.0087
 5117TIP3    H136766   4.980   5.380  15.135 -0.2972  1.3425 -1.7481
 5117TIP3    H236767   5.056   5.344  15.009  0.8129 -1.8778 -0.2765
 5118TIP3   OH236768   0.303   1.528   6.075  0.0230  0.2219 -0.0426
 5118TIP3    H136769   0.310   1.620   6.049 -0.1245  0.0031 -0.8744
 5118TIP3    H236770   0.391   1.493   6.063 -0.2431 -0.1025 -1.1393
 5119TIP3   OH236771   6.763   0.458  13.709  0.3006 -1.2136 -0.4516
 5119TIP3    H136772   6.803   0.454  13.796 -0.3894 -0.6135 -0.0975
 5119TIP3    H236773   6.717   0.375  13.700 -0.0470 -1.0660 -0.0375
 5120TIP3   OH236774   4.190   0.335  10.923 -0.2153 -0.2796  0.3911
 5120TIP3    H136775   4.226   0.250  10.900 -0.1528 -0.5416  1.3838
 5120TIP3    H236776   4.265   0.385  10.956  0.0387  0.6863 -1.4891
 5121TIP3   OH236777   1.461   1.606  11.348  0.8032 -0.2198  0.0666
 5121TIP3    H136778   1.410   1.562  11.279  0.5043  1.0511 -0.5418
 5121TIP3    H236779   1.544   1.627  11.306  0.5090  0.8253 -0.0065
 5122TIP3   OH236780   1.451   3.975   0.186  0.0132 -0.2918  0.2448
 5122TIP3    H136781   1.490   3.988   0.099 -1.7141  1.2183 -0.3654
 5122TIP3    H236782   1.395   3.898   0.176 -0.2702 -0.0532 -0.0281
 5123TIP3   OH236783   3.823   4.140  14.663 -0.1603  0.4184 -0.3816
 5123TIP3    H136784   3.785   4.117  14.578  1.8617  1.0077 -1.5119
 5123TIP3    H236785   3.810   4.235  14.670 -0.0189  0.4243 -0.1964
 5124TIP3   OH236786   4.870   6.566   1.857  0.0839 -0.6794 -0.0524
 5124TIP3    H136787   4.934   6.529   1.796  0.3639 -0.5874  0.1819
 5124TIP3    H236788   4.920   6.584   1.936 -0.1137 -0.0572 -0.0652
 5125TIP3   OH236789   5.708   0.702   2.085  0.2194 -0.1240 -0.7686
 5125TIP3    H136790   5.774   0.643   2.122  0.1491  0.2174 -0.0859
 5125TIP3    H236791   5.662   0.738   2.161  1.1263  1.8215 -1.0955
 5126TIP3   OH236792   4.986   5.720   2.802  0.1279  0.0040 -0.5575
 5126TIP3    H136793   4.994   5.753   2.712 -1.0283  0.2554 -0.5889
 5126TIP3    H236794   5.047   5.647   2.806 -0.1444 -0.3167 -1.7085
 5127TIP3   OH236795   0.944   1.293  12.796 -0.1618 -0.3052  0.7104
 5127TIP3    H136796   1.007   1.358  12.764  0.2489 -1.0309 -0.0089
 5127TIP3    H236797   0.993   1.244  12.862  0.3710 -1.4715 -0.5018
 5128TIP3   OH236798   6.325   3.514   6.302  0.3249 -0.4013 -0.5592
 5128TIP3    H136799   6.340   3.607   6.318  0.2827 -0.5632  0.4262
 5128TIP3    H236800   6.230   3.503   6.304  0.3348 -0.4939 -0.5599
 5129TIP3   OH236801   4.105   1.556   0.256  0.3908  0.3499  0.2215
 5129TIP3    H136802   4.045   1.583   0.187  1.2451 -1.5069 -1.3149
 5129TIP3    H236803   4.058   1.576   0.337 -2.1148 -0.5954 -0.8999
 5130TIP3   OH236804   2.287   1.910   3.324 -0.1575 -0.4473  0.0258
 5130TIP3    H136805   2.345   1.986   3.330 -0.5380 -0.1506 -0.0154
 5130TIP3    H236806   2.343   1.836   3.346  0.7224 -0.3853 -1.8306
 5131TIP3   OH236807   0.102   4.443  13.423  0.1605 -0.2155 -0.0289
 5131TIP3    H136808   0.088   4.385  13.498 -0.3655 -0.0729 -0.0138
 5131TIP3    H236809   0.016   4.480  13.405  0.9605  2.9884  1.9073
 5132TIP3   OH236810   4.725   2.754   2.972 -0.1985 -0.6768 -0.4856
 5132TIP3    H136811   4.775   2.829   3.004  2.0889 -1.5234 -1.8134
 5132TIP3    H236812   4.636   2.786   2.963  0.7890  2.0715 -1.5962
 5133TIP3   OH236813   2.756   0.836  13.639  0.3697 -0.7921  0.1192
 5133TIP3    H136814   2.749   0.844  13.543  1.2526 -1.4542 -0.0116
 5133TIP3    H236815   2.672   0.800  13.666 -0.2216  0.2203 -0.2988
 5134TIP3   OH236816   1.214   0.271  12.722  0.0672  0.4592  0.1393
 5134TIP3    H136817   1.303   0.306  12.727 -0.1432  0.8885  1.1805
 5134TIP3    H236818   1.223   0.179  12.747  0.0984  0.7469  1.2459
 5135TIP3   OH236819   1.831   6.006  13.741 -0.2393 -0.1421  0.0831
 5135TIP3    H136820   1.747   5.960  13.734  0.0194 -0.6642  0.2904
 5135TIP3    H236821   1.842   6.020  13.835 -0.7480  1.1885 -0.0360
 5136TIP3   OH236822   0.898   4.079   1.452  0.1240 -0.0327  0.3501
 5136TIP3    H136823   0.856   4.132   1.520  0.5430  1.5839 -0.6198
 5136TIP3    H236824   0.830   4.064   1.387  0.2393  0.0197  0.2173
 5137TIP3   OH236825   4.388   5.745  14.374  0.5500 -0.0050 -0.0948
 5137TIP3    H136826   4.355   5.655  14.373 -0.3455  0.2773 -1.9109
 5137TIP3    H236827   4.398   5.766  14.466 -0.9269 -1.3713  0.4343
 5138TIP3   OH236828   0.628   1.743   3.896  0.6949  0.4157  0.1789
 5138TIP3    H136829   0.650   1.776   3.809 -1.4318 -2.0346 -1.4428
 5138TIP3    H236830   0.654   1.650   3.893 -0.5696 -0.0263  1.6859
 5139TIP3   OH236831   6.093   3.987  15.330  0.0846  0.5129  0.2832
 5139TIP3    H136832   6.076   4.025  15.244 -1.3808 -2.3697 -0.8479
 5139TIP3    H236833   6.086   3.892  15.317  0.1750 -0.0809  3.5133
 5140TIP3   OH236834   6.061   5.068  14.290 -0.0201  0.1224  0.0704
 5140TIP3    H136835   6.090   4.994  14.237 -0.0986 -0.3955  0.7370
 5140TIP3    H236836   5.989   5.107  14.240  0.5645  0.2644 -0.6807
 5141TIP3   OH236837   5.779   6.112  11.246  0.3673  0.4562  0.1282
 5141TIP3    H136838   5.711   6.130  11.181  1.4778  0.0761 -1.1890
 5141TIP3    H236839   5.856   6.090  11.194  1.6358  1.3129  1.5779
 5142TIP3   OH236840   5.131   3.141   2.276  0.8101  0.2144  0.2296
 5142TIP3    H136841   5.067   3.211   2.268 -0.2343 -0.3554  2.6852
 5142TIP3    H236842   5.163   3.148   2.365  0.7429 -2.3313  0.5259
 5143TIP3   OH236843   6.146   1.564   3.366 -0.1533 -0.2091 -0.8345
 5143TIP3    H136844   6.075   1.526   3.417  0.5313 -0.8249 -0.3143
 5143TIP3    H236845   6.217   1.579   3.429  0.5192 -0.4944 -1.4965
 5144TIP3   OH236846   0.839   2.811   6.146  0.2300 -0.2994  0.0671
 5144TIP3    H136847   0.849   2.883   6.208 -0.2830  1.3164 -1.6236
 5144TIP3    H236848   0.819   2.854   6.063  0.8417 -2.3756 -1.2233
 5145TIP3   OH236849   0.525   5.618   1.284  0.3085  0.0816  0.5623
 5145TIP3    H136850   0.558   5.569   1.359  0.5596 -1.1939 -0.3412
 5145TIP3    H236851   0.549   5.564   1.208 -0.5749  0.9718 -0.3766
 5146TIP3   OH236852   4.178   4.452   1.748  0.1596  0.1778 -0.2299
 5146TIP3    H136853   4.162   4.358   1.746  2.5026 -0.2564 -1.2781
 5146TIP3    H236854   4.175   4.479   1.656 -0.4675  1.1497  0.0595
 5147TIP3   OH236855   1.178   4.907  13.963 -0.1764 -0.3915 -0.8205
 5147TIP3    H136856   1.113   4.976  13.954  0.0870 -0.2692 -2.0305
 5147TIP3    H236857   1.129   4.831  13.991 -0.4522  0.3039  0.6814
 5148TIP3   OH236858   4.970   1.609  16.658  0.4387 -0.0468 -0.1907
 5148TIP3    H136859   4.998   1.565  16.578  0.3284  0.8900 -0.7719
 5148TIP3    H236860   4.888   1.652  16.634  1.1120  1.4191 -0.0224
 5149TIP3   OH236861   5.261   5.356  12.582  0.2823  0.4502  1.0569
 5149TIP3    H136862   5.250   5.423  12.515  0.2768 -0.8888 -0.3559
 5149TIP3    H236863   5.342   5.378  12.627  0.4297  1.2237  0.4231
 5150TIP3   OH236864   4.668   3.908   2.290 -0.4560 -0.7579 -0.2084
 5150TIP3    H136865   4.597   3.894   2.353 -0.4133  0.6190  0.1828
 5150TIP3    H236866   4.632   3.971   2.228 -0.1012 -1.2525 -0.9203
 5151TIP3   OH236867   3.753   5.632  13.097  0.3057 -0.1045 -0.1325
 5151TIP3    H136868   3.780   5.576  13.024  0.5358  0.9221 -0.8650
 5151TIP3    H236869   3.715   5.709  13.055  0.7574  0.6658  0.8188
 5152TIP3   OH236870   2.203   3.924  11.751  0.4773 -0.7728 -0.2778
 5152TIP3    H136871   2.172   3.944  11.839  1.0960  1.7161 -0.5381
 5152TIP3    H236872   2.127   3.885  11.707 -1.0988  1.4381  0.2811
 5153TIP3   OH236873   4.952   2.737   0.691 -0.4071  0.4336  0.1657
 5153TIP3    H136874   5.014   2.674   0.726 -2.0867  0.4400  3.5995
 5153TIP3    H236875   4.923   2.699   0.607  1.2494 -1.4909  0.3969
 5154TIP3   OH236876   2.169   4.568   0.969  0.2063  0.3782  0.0264
 5154TIP3    H136877   2.123   4.526   1.041  1.0177  0.7879  0.7938
 5154TIP3    H236878   2.171   4.661   0.993  0.2143  0.5671 -0.6735
 5155TIP3   OH236879   2.109   4.803  12.070 -0.1231 -0.3737 -0.2931
 5155TIP3    H136880   2.062   4.882  12.098  3.0717  1.7233 -0.3115
 5155TIP3    H236881   2.122   4.753  12.150  1.1373  1.0981  0.4733
 5156TIP3   OH236882   4.251   4.301  15.398  0.3590 -0.1391 -0.5587
 5156TIP3    H136883   4.281   4.377  15.447 -1.2830  0.3730 -0.2825
 5156TIP3    H236884   4.290   4.226  15.444  0.6240  0.4460  0.1825
 5157TIP3   OH236885   0.343   6.094  16.769 -0.1486  0.4674 -0.5771
 5157TIP3    H136886   0.353   6.057  16.857  0.8236  0.7347 -0.5610
 5157TIP3    H236887   0.257   6.064  16.740  0.5404 -1.7828 -0.5352
 5158TIP3   OH236888   6.596   1.567  16.149  0.0098  0.3383 -0.5281
 5158TIP3    H136889   6.561   1.598  16.066 -0.5028  0.4524 -0.2729
 5158TIP3    H236890   6.535   1.600  16.215 -0.1262 -0.5626 -0.1856
 5159TIP3   OH236891   5.139   2.024  15.113  0.0567  0.2067  0.0040
 5159TIP3    H136892   5.061   2.024  15.058  0.5014 -0.5716 -0.6407
 5159TIP3    H236893   5.196   1.957  15.075  1.2349  1.0644  0.1931
 5160TIP3   OH236894   1.851   5.017   0.891 -0.3490 -0.2694 -0.2950
 5160TIP3    H136895   1.828   4.992   0.980  1.5810  1.3044  0.7016
 5160TIP3    H236896   1.875   4.934   0.848  0.0745 -0.8745  1.0673
 5161TIP3   OH236897   0.493   1.042  14.546 -0.2303 -0.6424  0.4653
 5161TIP3    H136898   0.506   1.137  14.541 -2.8148 -0.2543 -1.0823
 5161TIP3    H236899   0.470   1.025  14.637 -2.2203  0.7138  0.2973
 5162TIP3   OH236900   2.045   5.430  13.628 -0.0984  0.0583 -0.0990
 5162TIP3    H136901   1.990   5.352  13.619 -1.0597  0.8900 -2.2763
 5162TIP3    H236902   1.989   5.493  13.673  0.1558 -0.0250  0.3401
 5163TIP3   OH236903   2.656   1.228  12.377  0.0787  0.1079  0.1590
 5163TIP3    H136904   2.583   1.288  12.359  0.9610  1.2863  0.4110
 5163TIP3    H236905   2.653   1.165  12.305  0.8517  2.1464 -1.7953
 5164TIP3   OH236906   3.196   2.155   4.429 -0.0651 -0.2704  0.4355
 5164TIP3    H136907   3.118   2.193   4.470 -0.9237 -1.7139  0.1971
 5164TIP3    H236908   3.171   2.065   4.407  0.5979  0.2114 -2.6551
 5165TIP3   OH236909   2.314   5.349  11.555 -0.2968  0.4442 -0.4999
 5165TIP3    H136910   2.286   5.331  11.645  1.0012 -0.1195 -0.1796
 5165TIP3    H236911   2.298   5.443  11.544  0.3581  0.7212  0.6538
 5166TIP3   OH236912   0.701   0.208  13.484 -0.1677  0.7616  0.7354
 5166TIP3    H136913   0.741   0.190  13.569  1.7121  1.2495  0.0169
 5166TIP3    H236914   0.724   0.133  13.430  0.3070  1.3388  0.1293
 5167TIP3   OH236915   6.367   5.083   0.769 -0.2403 -0.0159 -0.6103
 5167TIP3    H136916   6.372   5.035   0.686  1.9303  1.4522 -1.4045
 5167TIP3    H236917   6.274   5.105   0.778 -0.6819 -1.0857 -2.1283
 5168TIP3   OH236918   1.085   4.222   5.423  0.0397 -0.0907 -0.6745
 5168TIP3    H136919   1.076   4.140   5.373 -1.3331 -1.6234  1.8455
 5168TIP3    H236920   1.156   4.204   5.485 -0.2915  0.5827 -0.0861
 5169TIP3   OH236921   3.605   4.834   3.135 -0.2993 -0.4194 -0.2462
 5169TIP3    H136922   3.659   4.880   3.071 -0.6411  2.3225  1.2567
 5169TIP3    H236923   3.666   4.813   3.206 -0.3729 -1.3542 -0.4484
 5170TIP3   OH236924   0.490   0.619   5.712  0.1451  0.3996 -0.9048
 5170TIP3    H136925   0.513   0.626   5.804 -0.6464  1.0018 -0.7469
 5170TIP3    H236926   0.509   0.528   5.689  0.8782  0.3967 -0.3031
 5171TIP3   OH236927   1.501   0.643  15.287 -0.1876 -0.4043 -0.3055
 5171TIP3    H136928   1.534   0.556  15.263 -1.3219 -0.7769 -0.5627
 5171TIP3    H236929   1.406   0.637  15.275 -0.3360  0.7066  0.2143
 5172TIP3   OH236930   5.910   1.688   1.499  0.2198 -0.3371 -0.4084
 5172TIP3    H136931   5.870   1.721   1.580  1.9620  0.4314  0.1834
 5172TIP3    H236932   5.973   1.755   1.474  0.8172 -1.2911 -1.5663
 5173TIP3   OH236933   6.746   5.774  11.735 -0.0956 -0.0013 -0.2193
 5173TIP3    H136934   6.790   5.809  11.812 -0.1764  0.3447 -0.3314
 5173TIP3    H236935   6.802   5.701  11.708  0.2776  0.2791 -0.2117
 5174TIP3   OH236936   2.160   1.588   1.751 -0.0171 -0.5401  0.0152
 5174TIP3    H136937   2.230   1.604   1.814 -1.4070 -1.1947  1.8011
 5174TIP3    H236938   2.153   1.670   1.702  1.1886 -0.0573  0.6016
 5175TIP3   OH236939   1.034   6.346   3.599  0.0833 -0.4429  0.6691
 5175TIP3    H136940   1.035   6.378   3.689  2.3738 -1.8939  1.2481
 5175TIP3    H236941   1.092   6.406   3.552 -0.6450 -0.0367  0.2754
 5176TIP3   OH236942   3.718   4.561  16.065 -0.3653 -0.0445  0.0354
 5176TIP3    H136943   3.760   4.480  16.037 -0.3949 -0.5577  1.3779
 5176TIP3    H236944   3.762   4.630  16.015  0.0581 -0.8325 -0.6952
 5177TIP3   OH236945   1.901   3.816  15.706 -0.4590 -0.7133  0.8346
 5177TIP3    H136946   1.965   3.815  15.778  1.5702  1.6939 -0.7766
 5177TIP3    H236947   1.836   3.880  15.734  0.5067  0.4749  0.4645
 5178TIP3   OH236948   5.143   5.323   0.352 -0.2898  0.0197 -0.0135
 5178TIP3    H136949   5.120   5.309   0.444  2.1417 -0.0020  0.6557
 5178TIP3    H236950   5.196   5.402   0.353  1.7765 -1.2645 -0.9862
 5179TIP3   OH236951   3.598   1.633   6.049  0.1293 -0.5743  0.0422
 5179TIP3    H136952   3.526   1.631   6.113 -0.4834 -0.1448 -0.6070
 5179TIP3    H236953   3.610   1.726   6.031  0.6919 -0.6612 -0.0395
 5180TIP3   OH236954   1.030   2.035  15.160  0.4330  0.3019  0.1648
 5180TIP3    H136955   1.044   1.974  15.233 -0.2707  0.6776  0.6165
 5180TIP3    H236956   1.116   2.075  15.146  0.0156  2.3839  2.7382
 5181TIP3   OH236957   2.616   4.938   2.459  0.0578  0.1882  0.2813
 5181TIP3    H136958   2.567   4.988   2.394 -0.0325 -0.9543 -0.5569
 5181TIP3    H236959   2.627   4.999   2.533 -2.0213  0.6949  0.2330
 5182TIP3   OH236960   5.981   3.924   6.003 -0.1835  0.1181  0.0023
 5182TIP3    H136961   5.998   3.850   6.061  0.5831  0.3827  0.1217
 5182TIP3    H236962   5.932   3.986   6.057 -0.9394 -0.3444 -0.1349
 5183TIP3   OH236963   6.372   3.175   1.800 -0.3492  0.2384 -0.1528
 5183TIP3    H136964   6.294   3.222   1.770  0.3692  0.2477 -2.0874
 5183TIP3    H236965   6.419   3.239   1.854 -1.4592  0.3426  0.7407
 5184TIP3   OH236966   5.539   6.517   1.600 -0.3981 -0.5851  0.7555
 5184TIP3    H136967   5.444   6.530   1.596 -0.3408  0.0075  1.1675
 5184TIP3    H236968   5.556   6.446   1.538 -0.8700  0.7137 -0.9703
 5185TIP3   OH236969   1.586   4.812   4.429  0.7456  0.1065 -0.1481
 5185TIP3    H136970   1.656   4.747   4.415  0.4080 -0.6981  1.6301
 5185TIP3    H236971   1.520   4.789   4.364  0.2063 -2.0221  1.0444
 5186TIP3   OH236972   1.649   0.361  11.093 -0.1245 -0.0403  0.1884
 5186TIP3    H136973   1.622   0.385  11.005 -1.2863  2.0745  1.0440
 5186TIP3    H236974   1.730   0.312  11.080 -0.8063 -0.7041 -2.0804
 5187TIP3   OH236975   2.137   1.496  14.998  0.0177 -0.3903 -0.1845
 5187TIP3    H136976   2.183   1.579  15.003 -0.0570 -0.3510 -0.1327
 5187TIP3    H236977   2.192   1.435  15.046 -0.0016 -0.3356 -0.0922
 5188TIP3   OH236978   0.256   4.988  12.782  0.1730  0.6094  0.0979
 5188TIP3    H136979   0.325   5.031  12.731 -0.4104 -0.2400 -1.4643
 5188TIP3    H236980   0.281   4.895  12.782 -1.1267  0.2426 -0.7833
 5189TIP3   OH236981   6.560   3.463  15.956  0.6441  0.5419  0.2609
 5189TIP3    H136982   6.489   3.517  15.921  1.3961  0.9491 -0.6624
 5189TIP3    H236983   6.547   3.466  16.051 -0.2657  1.0413  0.1342
 5190TIP3   OH236984   3.290   3.930   4.890 -0.1267  0.5123 -0.0312
 5190TIP3    H136985   3.234   4.002   4.919  0.5530  0.9343  0.2403
 5190TIP3    H236986   3.231   3.855   4.887 -0.8117  1.0454 -0.1836
 5191TIP3   OH236987   0.401   2.255   4.284 -0.0009  0.6913  0.4891
 5191TIP3    H136988   0.322   2.243   4.337  0.6145 -2.7256  0.8156
 5191TIP3    H236989   0.472   2.262   4.347  0.2028  1.8682  0.1546
 5192TIP3   OH236990   3.999   3.474   5.530  1.2235  0.8217 -0.3534
 5192TIP3    H136991   3.960   3.387   5.531  1.0242  0.9082  0.1799
 5192TIP3    H236992   3.942   3.526   5.587  1.1309  1.3950 -0.9524
 5193TIP3   OH236993   1.919   3.834   2.916 -0.0009  0.0597 -0.0062
 5193TIP3    H136994   1.871   3.780   2.853 -2.1547  1.2504  0.5400
 5193TIP3    H236995   1.985   3.775   2.953 -0.4232 -1.3801 -1.4505
 5194TIP3   OH236996   3.151   2.159   0.987  0.7671 -0.5895  0.3858
 5194TIP3    H136997   3.061   2.188   1.005  0.9689 -0.5667  1.3811
 5194TIP3    H236998   3.141   2.066   0.964  0.5561 -0.7615  1.1528
 5195TIP3   OH236999   0.079   4.787  12.655 -0.5442  0.0857 -0.2210
 5195TIP3    H137000   0.114   4.822  12.573  0.0630  0.1823  0.0658
 5195TIP3    H237001   0.125   4.703  12.666  0.2016  0.5732  0.5526
 5196TIP3   OH237002   5.017   3.524   2.893  0.5985 -0.2570 -0.6679
 5196TIP3    H137003   5.008   3.472   2.973  0.5312  0.0066 -0.5035
 5196TIP3    H237004   5.053   3.608   2.923  1.0027 -0.3157 -0.9682
 5197TIP3   OH237005   0.970   3.709  16.046 -0.0320 -0.3709  0.6683
 5197TIP3    H137006   1.037   3.750  16.101  1.0127 -0.9452 -0.1381
 5197TIP3    H237007   0.888   3.725  16.093  0.4355  1.8136  0.8547
 5198TIP3   OH237008   6.151   1.749   4.226  0.1815  0.0766 -0.4750
 5198TIP3    H137009   6.154   1.758   4.322  0.7398  1.2392 -0.5810
 5198TIP3    H237010   6.058   1.744   4.206  0.0944 -1.7262  0.2390
 5199TIP3   OH237011   1.658   2.281  10.970  0.6685  0.8398 -0.5627
 5199TIP3    H137012   1.628   2.373  10.971 -0.2139  0.5814 -1.2341
 5199TIP3    H237013   1.753   2.287  10.969  0.6269  1.7841 -1.3877
 5200TIP3   OH237014   3.979   3.564   3.598  0.0996 -0.2496  0.6280
 5200TIP3    H137015   4.024   3.492   3.643 -1.2875 -0.0490  2.4450
 5200TIP3    H237016   3.927   3.522   3.530  0.5262 -0.7935  0.6355
 5201TIP3   OH237017   3.596   6.238   0.297  0.3562  0.1837  0.7255
 5201TIP3    H137018   3.636   6.240   0.210  0.0442 -0.5217  0.5596
 5201TIP3    H237019   3.572   6.146   0.310  0.7242  0.2184  1.7078
 5202TIP3   OH237020   0.880   5.380  14.889  0.1084  0.2340 -0.0631
 5202TIP3    H137021   0.941   5.429  14.834  0.3866  0.1355  0.1507
 5202TIP3    H237022   0.814   5.347  14.828 -0.0215  0.7798 -0.2234
 5203TIP3   OH237023   4.169   0.935  15.287  0.3595  0.1666  0.4718
 5203TIP3    H137024   4.075   0.921  15.298  0.2749  2.0520  3.0645
 5203TIP3    H237025   4.209   0.888  15.361  1.5057 -0.7129 -0.6661
 5204TIP3   OH237026   1.298   1.722  15.736  0.1363  0.2987 -0.2390
 5204TIP3    H137027   1.367   1.701  15.798 -0.0327 -0.1966 -0.2102
 5204TIP3    H237028   1.236   1.650  15.744 -1.7356  2.0026  1.6397
 5205TIP3   OH237029   0.809   2.840  16.261  0.3022 -0.1603 -0.1014
 5205TIP3    H137030   0.843   2.922  16.298 -0.7914 -0.0454  0.7214
 5205TIP3    H237031   0.749   2.807  16.328 -2.7349  0.6890 -2.1556
 5206TIP3   OH237032   2.579   5.198   4.131 -0.1398 -0.3404 -0.0370
 5206TIP3    H137033   2.524   5.170   4.058 -0.7661 -0.0979  0.3337
 5206TIP3    H237034   2.669   5.190   4.098 -0.4362  0.6798 -1.1542
 5207TIP3   OH237035   4.662   3.565  10.903 -0.2690 -0.2033 -0.0948
 5207TIP3    H137036   4.637   3.502  10.835  0.1143 -0.0218 -0.4067
 5207TIP3    H237037   4.746   3.533  10.935 -0.3258 -0.1415  0.1147
 5208TIP3   OH237038   1.334   5.050   2.605 -0.1772 -0.3512  0.0885
 5208TIP3    H137039   1.401   4.985   2.624 -0.2145 -0.7277 -0.9958
 5208TIP3    H237040   1.255   5.000   2.585 -0.4396  0.0490  0.0993
 5209TIP3   OH237041   0.941   4.041  10.470  0.3827 -0.1044  0.8894
 5209TIP3    H137042   0.895   3.976  10.523  1.7978 -1.0973  0.9472
 5209TIP3    H237043   1.033   4.025  10.487  0.8122  0.8765 -0.3484
 5210TIP3   OH237044   5.754   3.042   2.150  0.2947  0.1790  0.4318
 5210TIP3    H137045   5.846   3.037   2.125  0.0041  0.7502 -0.9103
 5210TIP3    H237046   5.733   2.956   2.184  1.1312 -0.2101  0.0009
 5211TIP3   OH237047   2.684   1.166   5.258  0.2877  0.2036  0.0476
 5211TIP3    H137048   2.594   1.190   5.278 -0.1044 -0.9799 -0.2337
 5211TIP3    H237049   2.733   1.248   5.269 -0.6800  0.6832  0.9776
 5212TIP3   OH237050   4.219   0.276   5.275 -0.3618 -0.8462  0.4521
 5212TIP3    H137051   4.261   0.349   5.320 -0.9513 -0.0941 -0.1901
 5212TIP3    H237052   4.185   0.221   5.346  0.7812 -0.9272  0.9557
 5213TIP3   OH237053   3.866   2.484   5.027  0.8172  0.1858 -0.5158
 5213TIP3    H137054   3.895   2.556   4.970 -0.2783 -0.2946 -1.7387
 5213TIP3    H237055   3.906   2.406   4.989  0.0072 -0.1521 -0.6978
 5214TIP3   OH237056   5.125   2.643  14.236 -0.1829  0.1850  0.1563
 5214TIP3    H137057   5.046   2.589  14.224  0.0708 -0.4031  1.0522
 5214TIP3    H237058   5.129   2.659  14.330 -0.0520  1.4884 -0.0496
 5215TIP3   OH237059   4.439   3.123   3.157  0.4438  0.3107 -1.1942
 5215TIP3    H137060   4.464   3.040   3.196  0.1512  0.6071 -0.3470
 5215TIP3    H237061   4.347   3.110   3.130 -0.2278  0.9365  0.6666
 5216TIP3   OH237062   0.326   2.936   0.395  0.4296 -0.0295 -0.7138
 5216TIP3    H137063   0.359   3.014   0.350  0.3439  0.1219 -0.5139
 5216TIP3    H237064   0.360   2.863   0.343 -0.0286  0.1482 -1.2778
 5217TIP3   OH237065   6.093   3.132  12.275  0.2747  0.5979  0.2513
 5217TIP3    H137066   6.053   3.086  12.348 -1.1118 -0.4626 -1.0901
 5217TIP3    H237067   6.072   3.224  12.290  1.1863  0.5732  1.8508
 5218TIP3   OH237068   1.567   3.501   0.711  0.0417  0.4077 -0.0038
 5218TIP3    H137069   1.657   3.472   0.727 -0.2649  0.1323  1.2809
 5218TIP3    H237070   1.523   3.425   0.674  0.4597  0.6978 -1.1239
 5219TIP3   OH237071   1.537   5.539  17.111  0.4261 -0.2128 -0.0302
 5219TIP3    H137072   1.625   5.517  17.141 -0.0701 -1.7861  0.3903
 5219TIP3    H237073   1.482   5.531  17.189 -0.2648 -0.4329 -0.5240
 5220TIP3   OH237074   2.955   2.643   6.226  0.9362 -0.3552  0.0547
 5220TIP3    H137075   2.920   2.730   6.245  2.6986 -0.0331  2.2210
 5220TIP3    H237076   2.992   2.651   6.137  1.4290  1.2618  0.3619
 5221TIP3   OH237077   1.237   3.544  13.594  0.8149 -0.0176  0.4061
 5221TIP3    H137078   1.243   3.448  13.586  1.5254 -0.1202  1.9261
 5221TIP3    H237079   1.223   3.559  13.687 -1.1993  1.3055 -0.0567
 5222TIP3   OH237080   4.698   4.580   4.085 -0.5500  0.0870 -0.0142
 5222TIP3    H137081   4.705   4.539   4.171  0.8037  1.3210  0.4884
 5222TIP3    H237082   4.675   4.508   4.026 -0.0879 -1.0402  1.1453
 5223TIP3   OH237083   1.237   6.655   1.678  0.0868 -0.1621  0.2303
 5223TIP3    H137084   1.222   6.564   1.653 -0.6692  0.2017 -0.6928
 5223TIP3    H237085   1.149   6.694   1.678  0.4302  0.6269  0.3936
 5224TIP3   OH237086   1.621   6.315   0.067  0.5632 -0.2824 -1.0802
 5224TIP3    H137087   1.689   6.358   0.120 -0.7182 -0.4708  0.8186
 5224TIP3    H237088   1.603   6.234   0.114 -1.3786  0.0391 -1.2148
 5225TIP3   OH237089   0.860   2.750  14.304 -0.5167  0.1489  0.6915
 5225TIP3    H137090   0.919   2.689  14.259  2.6781  2.6212  1.1096
 5225TIP3    H237091   0.877   2.736  14.397  0.0625  1.3507  0.8001
 5226TIP3   OH237092   4.892   4.954   2.082  0.4904 -0.0481 -0.1070
 5226TIP3    H137093   4.831   4.927   2.151  0.6574  0.1437  0.1156
 5226TIP3    H237094   4.948   5.019   2.123  1.2617 -0.6883 -0.1235
 5227TIP3   OH237095   4.434   3.402   4.938 -0.0378 -0.2440 -0.5441
 5227TIP3    H137096   4.462   3.473   4.997 -1.3152 -0.9984  1.0400
 5227TIP3    H237097   4.468   3.323   4.978 -2.2045 -0.9228  0.0470
 5228TIP3   OH237098   5.789   3.691  11.467 -0.2749 -0.3688 -0.0382
 5228TIP3    H137099   5.699   3.656  11.467 -0.9380  1.2434 -0.3243
 5228TIP3    H237100   5.795   3.740  11.386  0.1822  1.1818  0.8890
 5229TIP3   OH237101   6.266   4.807   1.927  0.1961 -0.4398 -0.0781
 5229TIP3    H137102   6.220   4.875   1.976 -0.2337 -0.0277 -1.0289
 5229TIP3    H237103   6.297   4.746   1.994  2.5353  1.7943  1.0542
 5230TIP3   OH237104   5.595   3.728  12.951  0.5224 -0.4203  0.1230
 5230TIP3    H137105   5.626   3.771  12.871 -1.0020  0.1738 -0.1697
 5230TIP3    H237106   5.609   3.793  13.020 -1.0802  0.3264 -0.2004
 5231TIP3   OH237107   3.792   2.346   2.937  0.4401 -0.4177 -0.5613
 5231TIP3    H137108   3.825   2.279   2.996  1.1090  0.6897  0.3731
 5231TIP3    H237109   3.861   2.358   2.872  0.4988 -0.3617 -0.4895
 5232TIP3   OH237110   6.162   4.038   5.825 -0.4062  0.3363  0.1609
 5232TIP3    H137111   6.138   4.130   5.836 -1.5153  0.0281  0.4746
 5232TIP3    H237112   6.083   3.990   5.848  0.8895 -0.8191  2.6807
 5233TIP3   OH237113   6.225   2.339  11.676  0.1199 -0.4873 -0.2580
 5233TIP3    H137114   6.261   2.256  11.644 -1.1255 -0.8545 -0.7704
 5233TIP3    H237115   6.257   2.405  11.616 -2.8272 -1.2524 -2.9454
 5234TIP3   OH237116   2.370   0.615  12.489  0.9100  0.1019  0.1614
 5234TIP3    H137117   2.421   0.672  12.432 -0.1031  1.1765  0.2823
 5234TIP3    H237118   2.355   0.536  12.438 -0.3439  1.2073 -1.2606
 5235TIP3   OH237119   3.614   5.131   2.083 -0.1486 -0.6157  0.1196
 5235TIP3    H137120   3.645   5.087   2.004 -0.7679  0.4759 -0.7665
 5235TIP3    H237121   3.623   5.224   2.064 -0.6823 -0.3246  1.1858
 5236TIP3   OH237122   5.601   0.953   0.663 -0.7131 -0.4256  0.1073
 5236TIP3    H137123   5.541   0.912   0.725  1.0427 -1.4130  1.2352
 5236TIP3    H237124   5.620   0.884   0.599 -0.1471 -0.3882  0.2323
 5237TIP3   OH237125   6.607   6.242  15.776 -0.1574 -1.0436  0.3589
 5237TIP3    H137126   6.596   6.185  15.700  1.9126 -0.4640 -0.4518
 5237TIP3    H237127   6.609   6.331  15.739 -0.0859 -0.6857  1.2008
 5238TIP3   OH237128   4.823   4.114  11.639 -0.8879 -0.0846  0.0104
 5238TIP3    H137129   4.904   4.090  11.592 -1.0664  0.0207 -0.3531
 5238TIP3    H237130   4.780   4.030  11.655 -0.8519 -0.1179 -0.0619
 5239TIP3   OH237131   0.012   1.089  17.139 -0.0623 -0.1258  0.3984
 5239TIP3    H137132  -0.082   1.103  17.126  0.0333 -1.2002 -1.9443
 5239TIP3    H237133   0.043   1.173  17.174 -1.4964  1.1972 -1.2621
 5240TIP3   OH237134   2.649   4.079  12.401 -0.3483 -0.1808  1.0622
 5240TIP3    H137135   2.634   4.164  12.358  0.5302 -0.2552  0.5894
 5240TIP3    H237136   2.700   4.029  12.338 -0.5792 -0.9462  1.4769
 5241TIP3   OH237137   3.100   3.245   4.355 -0.0728 -0.6580 -0.6639
 5241TIP3    H137138   3.138   3.175   4.408 -3.0395 -2.2227 -0.4107
 5241TIP3    H237139   3.103   3.322   4.411  1.8968 -0.8556 -0.4037
 5242TIP3   OH237140   1.208   4.499  12.069  0.2284 -0.1669 -0.5894
 5242TIP3    H137141   1.179   4.590  12.063  0.1824 -0.2333 -1.5433
 5242TIP3    H237142   1.163   4.455  11.996 -3.7097 -2.0640  2.5412
 5243TIP3   OH237143   5.860   4.834   3.082  0.0575  0.1998  0.6959
 5243TIP3    H137144   5.817   4.920   3.087  1.7462  1.0426  1.4012
 5243TIP3    H237145   5.941   4.851   3.033  0.4874 -0.9582  0.9802
 5244TIP3   OH237146   0.535   3.579  16.961 -0.1600  0.0382  0.4928
 5244TIP3    H137147   0.588   3.635  16.904 -0.4093  1.1294  1.3027
 5244TIP3    H237148   0.461   3.634  16.987 -0.9590 -1.0093  0.4975
 5245TIP3   OH237149   2.658   4.902   3.015 -0.7842  0.3940 -0.0242
 5245TIP3    H137150   2.576   4.912   2.968  0.2111  0.2260 -1.8828
 5245TIP3    H237151   2.712   4.847   2.958 -0.4018 -2.0827  2.5083
 5246TIP3   OH237152   0.203   3.077  15.536  0.3761 -0.5834 -0.5234
 5246TIP3    H137153   0.222   3.156  15.587  1.7579 -0.0894 -1.7254
 5246TIP3    H237154   0.132   3.102  15.478 -1.1132 -1.1086  1.0017
 5247TIP3   OH237155   2.972   4.102   2.254  0.2803  0.0822 -0.4589
 5247TIP3    H137156   2.913   4.173   2.279  2.0221  1.3570  0.2394
 5247TIP3    H237157   2.966   4.039   2.326 -0.8026 -0.2227 -0.7872
 5248TIP3   OH237158   1.722   5.201  14.331  0.2428 -0.5466  0.0236
 5248TIP3    H137159   1.817   5.207  14.318  0.0377  0.4650 -1.2331
 5248TIP3    H237160   1.689   5.162  14.250 -0.3481 -1.8597  0.8583
 5249TIP3   OH237161   3.642   5.820  12.473  0.5006 -0.1162 -0.6823
 5249TIP3    H137162   3.709   5.874  12.515  0.5894 -0.0519 -0.8993
 5249TIP3    H237163   3.601   5.879  12.409 -0.3087  0.0675  0.0057
 5250TIP3   OH237164   3.821   2.461   2.092  0.4539 -0.0754 -0.0694
 5250TIP3    H137165   3.868   2.384   2.061  1.3601 -0.0343  1.1360
 5250TIP3    H237166   3.852   2.474   2.182 -2.3985 -0.4653  1.0736
 5251TIP3   OH237167   1.720   5.134   0.633  0.2149 -0.1086 -0.0810
 5251TIP3    H137168   1.692   5.065   0.694 -0.7886 -1.9497 -2.4721
 5251TIP3    H237169   1.815   5.121   0.625  1.0280  2.3004  3.4566
 5252TIP3   OH237170   5.309   1.276   2.032  0.9521 -0.4590  0.4440
 5252TIP3    H137171   5.402   1.258   2.016  0.9797  0.7351 -0.9262
 5252TIP3    H237172   5.284   1.336   1.962 -0.9653 -1.0512  0.5703
 5253TIP3   OH237173   0.534   2.992  12.460 -0.1820  0.1435  0.1286
 5253TIP3    H137174   0.547   2.910  12.413 -1.6560 -0.3341  0.5207
 5253TIP3    H237175   0.599   2.990  12.530  0.2508 -0.3547 -0.2738
 5254TIP3   OH237176   1.985   4.089   0.280 -0.0725  0.5824 -0.3179
 5254TIP3    H137177   1.994   4.184   0.277  0.2326  0.6963  2.2448
 5254TIP3    H237178   1.897   4.074   0.315  0.8471  0.0605  1.9898
 5255TIP3   OH237179   5.291   4.169  14.477 -0.6913 -0.1724 -0.1535
 5255TIP3    H137180   5.260   4.133  14.560  0.0017 -0.2334  0.0861
 5255TIP3    H237181   5.212   4.188  14.427 -1.2023  1.7873  1.3116
 5256TIP3   OH237182   0.340   6.473   5.187 -0.3649 -0.1330  0.1346
 5256TIP3    H137183   0.335   6.542   5.120  1.1030 -0.1842 -0.0514
 5256TIP3    H237184   0.316   6.393   5.141  0.4022 -0.1288 -0.2951
 5257TIP3   OH237185   5.502   4.743   4.693  0.2368 -0.2400  0.3705
 5257TIP3    H137186   5.544   4.829   4.704  0.5297 -0.5751  2.2321
 5257TIP3    H237187   5.408   4.761   4.698  0.2972 -0.1649  2.7275
 5258TIP3   OH237188   1.831   1.167  12.730 -0.0642 -0.1046  0.5690
 5258TIP3    H137189   1.849   1.133  12.643 -1.5192  1.3850 -0.3825
 5258TIP3    H237190   1.807   1.259  12.715 -1.1799 -0.0414  2.4210
 5259TIP3   OH237191   6.240   5.953  15.327  0.5096  0.1976 -0.1740
 5259TIP3    H137192   6.231   6.045  15.302 -0.7744  0.2400  0.3717
 5259TIP3    H237193   6.209   5.950  15.418  1.1450 -0.6685  0.0266
 5260TIP3   OH237194   1.308   4.469   1.835 -0.1929 -0.5953 -0.1428
 5260TIP3    H137195   1.219   4.480   1.869 -0.8733  1.4250 -2.2676
 5260TIP3    H237196   1.363   4.525   1.890 -1.0502  1.6194 -1.4054
 5261TIP3   OH237197   1.353   6.489  15.923  0.3524 -0.6736 -0.4728
 5261TIP3    H137198   1.336   6.494  15.829 -0.7290 -0.4436 -0.2771
 5261TIP3    H237199   1.401   6.407  15.935  2.4200  0.3242 -1.4837
 5262TIP3   OH237200   0.783   6.059  16.251 -0.0681  0.4255  0.3461
 5262TIP3    H137201   0.789   6.030  16.160 -1.6534  0.4838  0.2020
 5262TIP3    H237202   0.703   6.112  16.255 -0.9794 -0.9383  2.1139
 5263TIP3   OH237203   4.504   3.077   3.635  0.4400 -0.4238  0.0070
 5263TIP3    H137204   4.548   3.162   3.631  2.5849 -1.3035  2.2535
 5263TIP3    H237205   4.517   3.048   3.725 -1.8270 -2.3610 -0.2004
 5264TIP3   OH237206   6.644   0.104   0.523 -0.1698  0.2452 -0.3472
 5264TIP3    H137207   6.659   0.164   0.596  0.3291 -2.4555  1.9648
 5264TIP3    H237208   6.732   0.087   0.488  0.3737 -2.3938  1.9503
 5265TIP3   OH237209   5.217   3.975  13.198 -0.3579  0.8869  0.4550
 5265TIP3    H137210   5.271   4.030  13.141  0.8901 -1.2919 -0.6355
 5265TIP3    H237211   5.134   3.966  13.151  1.2539 -2.3561 -2.2368
 5266TIP3   OH237212   4.918   2.747  12.938  0.1196 -0.1768  0.3578
 5266TIP3    H137213   4.853   2.723  12.872 -0.1629  1.1119  0.1486
 5266TIP3    H237214   4.897   2.691  13.013  0.4585 -1.6674 -0.6159
 5267TIP3   OH237215   4.387   1.129   1.156 -0.3950 -0.1750  0.4031
 5267TIP3    H137216   4.347   1.217   1.156 -0.3234 -0.0501 -2.3042
 5267TIP3    H237217   4.480   1.145   1.169 -0.0491  0.4780 -2.1721
 5268TIP3   OH237218   3.259   6.520  11.925 -0.1619  0.0242  0.1127
 5268TIP3    H137219   3.285   6.582  11.994 -0.6956 -1.1474  1.4149
 5268TIP3    H237220   3.337   6.512  11.870  0.0148  1.6150  0.0721
 5269TIP3   OH237221   0.053   5.599  15.849 -0.4248 -0.2231  0.3910
 5269TIP3    H137222   0.020   5.527  15.903 -0.9153 -0.5156 -0.2840
 5269TIP3    H237223   0.122   5.640  15.902 -0.0117 -1.3011  0.7135
 5270TIP3   OH237224   5.517   2.223   5.577  0.2737  0.0786  0.0310
 5270TIP3    H137225   5.494   2.316   5.578  0.3992  0.1249  1.8544
 5270TIP3    H237226   5.452   2.182   5.634  0.7692 -0.8172 -0.0401
 5271TIP3   OH237227   1.103   1.274   4.451  0.4016  0.6008 -0.0010
 5271TIP3    H137228   1.084   1.227   4.370  1.4146  1.3375 -0.6766
 5271TIP3    H237229   1.021   1.319   4.472 -1.2405 -2.7840  1.6639
 5272TIP3   OH237230   4.983   2.701  11.575 -0.4958  0.2411 -0.3252
 5272TIP3    H137231   5.065   2.742  11.547 -0.5808  0.3391 -0.4314
 5272TIP3    H237232   4.951   2.758  11.645  1.6491 -1.9910  2.7642
 5273TIP3   OH237233   1.217   5.651   5.199  1.2969  0.0392 -0.0983
 5273TIP3    H137234   1.264   5.586   5.148  0.2278  1.1436 -2.6517
 5273TIP3    H237235   1.283   5.716   5.224  2.2823 -1.6887  2.0953
 5274TIP3   OH237236   1.109   4.191  16.865  0.3032  0.1486  0.1145
 5274TIP3    H137237   1.111   4.148  16.780 -0.1992 -0.1580  0.2507
 5274TIP3    H237238   1.018   4.219  16.876  0.4105  0.3756  0.4581
 5275TIP3   OH237239   5.306   3.468   3.200  0.2164 -0.0043 -0.0641
 5275TIP3    H137240   5.336   3.427   3.119  2.4066  0.7541  0.2810
 5275TIP3    H237241   5.331   3.560   3.191  0.9832 -0.0006  1.6438
 5276TIP3   OH237242   3.165   6.491   5.185  0.4155  0.2731  0.0749
 5276TIP3    H137243   3.187   6.482   5.092  0.1099  0.5117 -0.0218
 5276TIP3    H237244   3.074   6.522   5.185  0.5505  0.6736  0.4478
 5277TIP3   OH237245   5.028   3.430   3.216 -0.1582 -0.3107  0.0284
 5277TIP3    H137246   5.115   3.462   3.240  0.1495 -0.8343 -0.3738
 5277TIP3    H237247   5.042   3.340   3.188 -0.3408  0.4427 -2.8804
 5278TIP3   OH237248   6.436   3.022   6.369  0.0504  0.6215  0.3045
 5278TIP3    H137249   6.461   3.050   6.457 -0.1146  3.9877 -0.5663
 5278TIP3    H237250   6.518   2.990   6.330  0.6393  1.2886  0.9687
 5279TIP3   OH237251   1.115   3.417   4.180 -0.2487 -0.2243  0.0845
 5279TIP3    H137252   1.027   3.383   4.164 -0.3184 -1.4918  2.6346
 5279TIP3    H237253   1.174   3.346   4.152 -0.0640  0.1839 -0.5909
 5280TIP3   OH237254   4.648   2.382  12.790  0.1356 -0.2383  0.4678
 5280TIP3    H137255   4.738   2.388  12.823  0.4548 -0.9340 -0.2467
 5280TIP3    H237256   4.635   2.289  12.774 -0.3483 -0.0301 -0.4300
 5281TIP3   OH237257   2.066   6.622   6.023  0.0536 -0.6269 -0.1647
 5281TIP3    H137258   2.098   6.653   5.939 -0.1368 -0.1085 -0.0469
 5281TIP3    H237259   2.033   6.534   6.005 -0.9527 -0.1266 -0.8558
 5282TIP3   OH237260   1.141   2.972   0.990  0.1699 -0.1600 -0.4414
 5282TIP3    H137261   1.055   2.998   1.023  0.9536 -0.1348  1.7598
 5282TIP3    H237262   1.132   2.877   0.975  0.6614 -0.9722  3.3377
 5283TIP3   OH237263   3.516   1.745  14.207 -0.1712  0.3608 -0.6790
 5283TIP3    H137264   3.447   1.701  14.157 -1.0659 -0.6609  1.3199
 5283TIP3    H237265   3.471   1.781  14.284  1.2248  1.3805 -0.2937
 5284TIP3   OH237266   5.956   3.253   0.716 -0.0165  0.4116 -0.2491
 5284TIP3    H137267   6.030   3.199   0.692 -0.3842 -0.3912  0.3752
 5284TIP3    H237268   5.885   3.224   0.658  0.0661  0.9710 -0.6418
 5285TIP3   OH237269   2.580   3.318   0.950 -0.1784 -0.4253  0.5870
 5285TIP3    H137270   2.663   3.366   0.944  0.4243 -1.5014  0.0374
 5285TIP3    H237271   2.597   3.235   0.905 -1.7291 -0.4264 -0.0597
 5286TIP3   OH237272   1.985   0.372  13.575 -0.0505  0.0122 -0.1100
 5286TIP3    H137273   2.015   0.350  13.487 -0.6094  0.5972 -0.4600
 5286TIP3    H237274   2.048   0.437  13.606 -1.1475  1.5809 -1.0218
 5287TIP3   OH237275   4.050   3.968  13.577 -0.3729  1.0369  0.3551
 5287TIP3    H137276   4.046   4.004  13.488  1.6666 -0.4060 -0.3968
 5287TIP3    H237277   4.097   4.034  13.627 -3.3809  2.8865  1.0481
 5288TIP3   OH237278   5.405   1.914   2.623 -0.2405 -0.5039 -0.3251
 5288TIP3    H137279   5.416   1.883   2.713  0.7837 -0.1364 -0.2988
 5288TIP3    H237280   5.347   1.989   2.630 -0.6702 -0.8620 -0.0530
 5289TIP3   OH237281   1.516   3.130  15.730 -0.0074  0.2125  0.6702
 5289TIP3    H137282   1.511   3.225  15.721 -1.7908  0.0282 -0.9527
 5289TIP3    H237283   1.568   3.102  15.655 -0.4589 -0.1646  0.4953
 5290TIP3   OH237284   2.453   5.676   0.824  0.6381  0.4492 -0.1836
 5290TIP3    H137285   2.537   5.667   0.868  0.2052  0.1841  0.5976
 5290TIP3    H237286   2.400   5.604   0.858 -0.0941  0.9553 -0.2400
 5291TIP3   OH237287   4.792   3.036   4.968 -0.0722  0.3417  0.2058
 5291TIP3    H137288   4.822   3.100   5.032 -0.3430 -1.4082  2.1642
 5291TIP3    H237289   4.699   3.026   4.986  0.4413 -2.5604  1.8508
 5292TIP3   OH237290   2.916   0.649   4.029 -0.0499  0.1527 -0.5228
 5292TIP3    H137291   2.827   0.680   4.046 -0.6062 -1.6178  0.0164
 5292TIP3    H237292   2.960   0.657   4.114 -0.4165 -1.1219 -0.1848
 5293TIP3   OH237293   5.729   4.933   6.609 -0.3637  0.0395  0.0777
 5293TIP3    H137294   5.798   4.964   6.550  0.0419 -1.2001 -0.1264
 5293TIP3    H237295   5.712   5.008   6.667  1.4530  0.2484  0.4069
 5294TIP3   OH237296   3.633   6.321  16.707  0.2096 -0.0294 -0.2345
 5294TIP3    H137297   3.705   6.374  16.741 -0.2724  0.2038  0.4458
 5294TIP3    H237298   3.653   6.232  16.736 -0.5341  0.2637  1.2831
 5295TIP3   OH237299   1.703   1.454  13.888  0.0888  0.2267  0.5794
 5295TIP3    H137300   1.750   1.410  13.818  1.2326  0.1991  1.3414
 5295TIP3    H237301   1.627   1.398  13.905  0.2500 -0.1985 -0.0643
 5296TIP3   OH237302   6.216   3.792  17.056 -0.1804  0.2987  0.0220
 5296TIP3    H137303   6.154   3.811  17.125 -2.1731 -2.2420 -0.8890
 5296TIP3    H237304   6.165   3.798  16.975  1.6105  1.3385 -1.0917
 5297TIP3   OH237305   5.523   6.551  12.473 -0.4211  0.5677  0.0466
 5297TIP3    H137306   5.458   6.483  12.454  0.0753 -0.3730  1.5412
 5297TIP3    H237307   5.500   6.623  12.415 -0.6070 -1.0881 -2.0573
 5298TIP3   OH237308   0.237   6.237   1.370 -0.3598 -0.0875 -0.0903
 5298TIP3    H137309   0.249   6.331   1.354 -0.1193 -0.3497 -1.5623
 5298TIP3    H237310   0.185   6.206   1.296 -0.0933 -1.1987  0.1677
 5299TIP3   OH237311   0.675   0.464   5.093 -0.0007 -0.6664 -0.4087
 5299TIP3    H137312   0.734   0.540   5.090 -1.7525  0.7585 -0.2312
 5299TIP3    H237313   0.615   0.478   5.020 -1.5456 -0.8195  0.7747
 5300TIP3   OH237314   0.299   2.598  12.583  0.2879  0.3935  0.3561
 5300TIP3    H137315   0.386   2.638  12.579  0.4969 -0.1577 -1.3043
 5300TIP3    H237316   0.252   2.650  12.649  1.2267  1.9755 -0.1621
 5301TIP3   OH237317   2.600   0.355  13.565 -0.3054  0.2181  0.2094
 5301TIP3    H137318   2.567   0.324  13.650 -1.3152  0.5247 -0.0633
 5301TIP3    H237319   2.555   0.438  13.551 -0.6711 -0.1747 -0.9656
 5302TIP3   OH237320   4.564   3.424  14.912 -0.7889 -0.3067 -0.1516
 5302TIP3    H137321   4.541   3.422  15.005  1.7742 -0.9200  0.5531
 5302TIP3    H237322   4.488   3.387  14.868 -2.2830  0.4764  1.6247
 5303TIP3   OH237323   5.955   4.512  11.125 -0.1114 -0.2393  0.1829
 5303TIP3    H137324   5.994   4.426  11.109 -1.0842 -0.9149  1.2492
 5303TIP3    H237325   6.010   4.551  11.192 -0.3680 -0.5538  0.5822
 5304TIP3   OH237326   0.906   0.343   1.998 -0.0395 -0.4948  0.2939
 5304TIP3    H137327   0.826   0.365   1.951 -0.7736 -1.8683  0.8487
 5304TIP3    H237328   0.882   0.269   2.054  1.1639  0.2011  1.8057
 5305TIP3   OH237329   0.028   0.198   2.009  0.6352 -0.3197  0.2784
 5305TIP3    H137330  -0.019   0.281   2.013 -0.4768 -0.8985 -0.4047
 5305TIP3    H237331  -0.038   0.132   2.029  1.8074 -0.9867  2.3274
 5306TIP3   OH237332   6.334   3.317  12.638 -0.0553  0.3431 -0.0280
 5306TIP3    H137333   6.267   3.384  12.628  2.3236  2.6801 -1.7043
 5306TIP3    H237334   6.367   3.302  12.549  0.7857 -1.6883  0.5561
 5307TIP3   OH237335   3.614   6.224   4.357 -0.1817  0.0197 -0.2612
 5307TIP3    H137336   3.529   6.201   4.393 -0.3588  1.6761  0.4748
 5307TIP3    H237337   3.597   6.302   4.303  0.7368 -0.0922 -0.7333
 5308TIP3   OH237338   4.322   0.112  10.877  0.1894 -0.2681  0.1597
 5308TIP3    H137339   4.391   0.097  10.812  0.4507 -0.9815  0.5915
 5308TIP3    H237340   4.266   0.035  10.871  1.0398 -1.0718  1.7750
 5309TIP3   OH237341   2.603   5.436   5.140 -0.2821  0.1428 -0.3797
 5309TIP3    H137342   2.568   5.475   5.060  2.4878  2.0385 -0.8113
 5309TIP3    H237343   2.603   5.507   5.203 -1.5058 -1.0747  1.0809
 5310TIP3   OH237344   4.859   2.951   0.296  0.3601  0.1461  0.1626
 5310TIP3    H137345   4.886   2.975   0.385 -1.8173 -1.7616  1.4569
 5310TIP3    H237346   4.765   2.933   0.304 -0.2872  1.5304 -2.9326
 5311TIP3   OH237347   6.030   4.316   5.420 -0.6172  0.1600  0.3342
 5311TIP3    H137348   6.100   4.254   5.398 -0.1906  0.4082  0.9837
 5311TIP3    H237349   6.032   4.381   5.349  0.3864  0.6484  0.7993
 5312TIP3   OH237350   3.458   5.101  16.388 -0.0785 -0.0263 -0.2755
 5312TIP3    H137351   3.493   5.151  16.462 -0.7426  1.1175 -0.7287
 5312TIP3    H237352   3.503   5.136  16.312  0.9944 -1.5629 -0.4045
 5313TIP3   OH237353   1.178   0.180   3.172 -0.1198 -0.5763 -0.2060
 5313TIP3    H137354   1.083   0.174   3.169 -0.0130 -2.7360 -2.5113
 5313TIP3    H237355   1.207   0.093   3.202  1.1528  0.2525  1.1201
 5314TIP3   OH237356   6.102   3.459  13.686 -0.4152 -0.1515  0.0243
 5314TIP3    H137357   6.145   3.400  13.747 -0.1852  0.0578  0.0649
 5314TIP3    H237358   6.022   3.486  13.730 -0.1173  0.2121  0.3490
 5315TIP3   OH237359   1.500   0.629  15.844  0.3409  0.6887 -0.0201
 5315TIP3    H137360   1.452   0.583  15.912  1.0050  0.9324  0.6353
 5315TIP3    H237361   1.578   0.663  15.889  0.3848  1.5563 -0.7149
 5316TIP3   OH237362   1.862   1.382   5.514 -0.0784 -0.0223  0.0293
 5316TIP3    H137363   1.833   1.411   5.601 -0.6423  0.9389 -0.4595
 5316TIP3    H237364   1.798   1.317   5.487  0.5924 -0.9837  0.6861
 5317TIP3   OH237365   6.534   4.609  11.528 -0.3589 -0.3167  0.0898
 5317TIP3    H137366   6.610   4.607  11.469 -1.1343 -0.7586 -0.9178
 5317TIP3    H237367   6.469   4.661  11.482 -1.2933 -1.3930  0.1569
 5318TIP3   OH237368   4.617   5.480   2.789  0.5745 -0.6344  0.2027
 5318TIP3    H137369   4.522   5.479   2.774  0.7832  0.1635 -1.5493
 5318TIP3    H237370   4.627   5.475   2.884 -1.3556  2.6793  0.7425
 5319TIP3   OH237371   5.261   6.265   1.188 -0.2068  0.5298 -0.5287
 5319TIP3    H137372   5.277   6.174   1.212 -1.2753  0.2115 -0.9809
 5319TIP3    H237373   5.349   6.301   1.172  0.2105 -0.4800 -0.5665
 5320TIP3   OH237374   4.783   1.324  16.682 -0.2612  0.4312  0.0628
 5320TIP3    H137375   4.815   1.414  16.674 -0.2851  0.4990  0.6794
 5320TIP3    H237376   4.703   1.322  16.629 -0.7561  1.0209  0.7657
 5321TIP3   OH237377   2.691   4.838  11.510  0.3109  0.5193 -0.2833
 5321TIP3    H137378   2.707   4.877  11.596 -0.3213  0.4488 -0.1336
 5321TIP3    H237379   2.779   4.828  11.472  0.4920  2.2612 -0.4017
 5322TIP3   OH237380   3.827   4.184  15.671  0.2782 -0.1471  0.2171
 5322TIP3    H137381   3.768   4.254  15.701 -0.8998 -1.3893  0.8975
 5322TIP3    H237382   3.894   4.230  15.620  1.2062  1.8939  2.9696
 5323TIP3   OH237383   0.404   4.711   0.696  0.5939 -0.0763  0.6491
 5323TIP3    H137384   0.393   4.786   0.638  0.7447  0.3083  1.1107
 5323TIP3    H237385   0.357   4.640   0.653 -0.0115  0.4205  0.4758
 5324TIP3   OH237386   5.420   0.538   1.956 -0.2301  0.4113 -0.3132
 5324TIP3    H137387   5.444   0.604   2.021  0.2737  0.2034 -0.2812
 5324TIP3    H237388   5.325   0.527   1.967  0.1714 -1.4936  2.1967
 5325TIP3   OH237389   2.008   2.532   5.039 -0.3563  0.4257 -0.0254
 5325TIP3    H137390   1.937   2.468   5.037 -0.5363  0.6265 -0.1110
 5325TIP3    H237391   2.039   2.536   4.949  1.6457 -1.7382  0.4988
 5326TIP3   OH237392   5.330   5.632   0.960 -0.2946  0.0248 -0.0283
 5326TIP3    H137393   5.293   5.550   0.993 -1.8897  0.8289  0.2755
 5326TIP3    H237394   5.311   5.696   1.029  1.0563  0.6413 -0.1916
 5327TIP3   OH237395   4.793   0.387  15.080 -0.2885 -0.5853  0.1781
 5327TIP3    H137396   4.883   0.396  15.111  0.5093 -0.8155 -1.8780
 5327TIP3    H237397   4.779   0.293  15.075 -0.3237 -0.5555 -0.3332
 5328TIP3   OH237398   4.472   6.320  11.231 -0.0804  0.0359 -0.4415
 5328TIP3    H137399   4.407   6.387  11.252 -0.1099  0.2468 -1.1799
 5328TIP3    H237400   4.441   6.282  11.149  0.6035 -0.0153 -0.6794
 5329TIP3   OH237401   2.317   5.050  15.354  0.0696  0.3996  0.9959
 5329TIP3    H137402   2.370   4.977  15.384 -1.9855 -1.5257  0.2436
 5329TIP3    H237403   2.366   5.128  15.379  1.6206 -1.1832  3.2376
 5330TIP3   OH237404   3.218   6.260  15.883  0.2286  0.1714  0.3124
 5330TIP3    H137405   3.250   6.190  15.827  1.3632  2.0153 -1.5009
 5330TIP3    H237406   3.152   6.304  15.831  0.3847  1.1677  0.9251
 5331TIP3   OH237407   4.485   6.466  13.353 -0.6359 -0.2315 -0.0200
 5331TIP3    H137408   4.495   6.376  13.324 -2.5600 -0.6338  0.4098
 5331TIP3    H237409   4.489   6.518  13.273 -0.7243 -0.8268 -0.4134
 5332TIP3   OH237410   2.421   0.574  13.563  0.7101 -0.1508  0.4098
 5332TIP3    H137411   2.327   0.561  13.579  0.5470  1.0263  0.5193
 5332TIP3    H237412   2.434   0.668  13.577  1.9274 -0.3220  0.4874
 5333TIP3   OH237413   3.235   5.795  11.695  0.3930  0.5230  0.2017
 5333TIP3    H137414   3.176   5.722  11.676  0.0330  1.0357 -0.7133
 5333TIP3    H237415   3.177   5.867  11.722  0.7381  0.5070  1.0264
 5334TIP3   OH237416   2.424   2.580  12.914 -0.0517 -0.3851  0.3266
 5334TIP3    H137417   2.446   2.492  12.884 -0.0607 -1.2828  2.7773
 5334TIP3    H237418   2.358   2.611  12.851  3.3035 -0.1150 -3.4326
 5335TIP3   OH237419   3.138   6.339   4.408  0.1649 -0.5618  0.1036
 5335TIP3    H137420   3.080   6.414   4.418 -0.3423 -0.8580 -0.5727
 5335TIP3    H237421   3.196   6.362   4.335  2.1330  0.4909  1.8730
 5336TIP3   OH237422   6.227   4.213   1.412 -0.3505 -0.5379 -0.4670
 5336TIP3    H137423   6.290   4.190   1.344  0.8712 -0.7876  0.7212
 5336TIP3    H237424   6.216   4.133   1.463  0.5135  0.2312  0.9944
 5337TIP3   OH237425   3.454   4.526  13.034 -0.0386 -0.7193 -0.2906
 5337TIP3    H137426   3.395   4.489  13.101 -0.0820  2.8033  1.8813
 5337TIP3    H237427   3.542   4.500  13.063 -0.0912  0.3771  0.9558
 5338TIP3   OH237428   1.147   5.175   0.654 -0.1910 -0.2222  0.0401
 5338TIP3    H137429   1.242   5.167   0.656  0.2345  3.4073  0.0625
 5338TIP3    H237430   1.122   5.185   0.746 -0.3235  0.9217 -0.1128
 5339TIP3   OH237431   0.601   6.014  12.135  0.0055  0.3600 -0.4944
 5339TIP3    H137432   0.626   6.011  12.043  0.7255 -2.2227 -0.2817
 5339TIP3    H237433   0.620   5.926  12.169 -4.1913 -0.2214  1.0622
 5340TIP3   OH237434   4.007   6.765   1.000 -0.1972 -0.1180 -0.4565
 5340TIP3    H137435   3.994   6.693   1.061  0.9437  1.0320  1.2344
 5340TIP3    H237436   3.919   6.789   0.972 -0.6144 -1.9276 -0.8119
 5341TIP3   OH237437   6.610   6.643  12.461 -0.0843  0.0524 -0.3748
 5341TIP3    H137438   6.596   6.624  12.368  0.5959  0.2006 -0.5112
 5341TIP3    H237439   6.670   6.575  12.491 -0.3447 -0.0244 -0.0304
 5342TIP3   OH237440   0.954   3.614  13.132 -0.3317  0.0540  0.5249
 5342TIP3    H137441   0.963   3.579  13.220 -0.3088  0.9246  0.8825
 5342TIP3    H237442   0.891   3.556  13.089  0.3111 -0.8875  0.8249
 5343TIP3   OH237443   6.056   4.273   5.810  0.0731 -0.6967  0.0246
 5343TIP3    H137444   6.084   4.310   5.726 -1.4625  0.5787  0.0088
 5343TIP3    H237445   6.025   4.349   5.860  0.0411 -1.5637  1.3692
 5344TIP3   OH237446   0.557   0.325  13.020  0.1071  0.6786 -0.2160
 5344TIP3    H137447   0.504   0.377  12.960 -0.1804  1.3141  0.5631
 5344TIP3    H237448   0.637   0.376  13.032  1.9095 -1.1929 -2.9578
 5345TIP3   OH237449   2.741   6.657   0.143 -0.0378 -0.7795 -0.5056
 5345TIP3    H137450   2.748   6.593   0.073  0.4711 -0.3394 -0.8690
 5345TIP3    H237451   2.667   6.712   0.119  1.0042  0.2753 -1.4879
 5346TIP3   OH237452   3.080   5.611  16.175 -0.6426 -0.7060  0.3135
 5346TIP3    H137453   3.174   5.624  16.192 -0.6729  1.7986 -1.0035
 5346TIP3    H237454   3.040   5.614  16.262  0.3979 -1.1713  0.8344
 5347TIP3   OH237455   6.228   0.728  16.439  0.3850 -0.2912  0.0326
 5347TIP3    H137456   6.177   0.802  16.406  0.5970 -0.2042 -0.1004
 5347TIP3    H237457   6.319   0.761  16.442  0.1304  0.4552  2.7253
 5348TIP3   OH237458   1.513   5.175   2.430 -0.6786  0.8768  0.3840
 5348TIP3    H137459   1.446   5.127   2.478 -0.7750  0.2778 -0.3264
 5348TIP3    H237460   1.582   5.192   2.494 -0.1642 -1.1231  0.4495
 5349TIP3   OH237461   2.811   5.147   0.303 -0.1129 -0.7744 -0.8886
 5349TIP3    H137462   2.855   5.093   0.370 -0.1032 -0.0502 -0.3029
 5349TIP3    H237463   2.879   5.208   0.273 -1.0820  1.5241  1.2597
 5350TIP3   OH237464   1.118   0.901  15.508 -0.4892 -0.1811  0.1461
 5350TIP3    H137465   1.138   0.887  15.601 -0.4090 -1.2685 -0.0165
 5350TIP3    H237466   1.203   0.894  15.464  0.4066  5.0890  0.3696
 5351TIP3   OH237467   1.088   5.415  10.664  0.6299 -0.0214  0.3747
 5351TIP3    H137468   1.095   5.332  10.711  1.3280 -1.1462 -1.5936
 5351TIP3    H237469   1.179   5.445  10.655  0.4928  0.2474 -0.1277
 5352TIP3   OH237470   0.028   2.500   3.153 -0.1368  0.0122  0.3434
 5352TIP3    H137471  -0.044   2.531   3.098  1.1565 -0.4256 -1.6986
 5352TIP3    H237472   0.045   2.411   3.122  0.3584 -0.4162  1.7868
 5353TIP3   OH237473   4.969   5.092  16.826 -1.0727 -0.3534 -0.1612
 5353TIP3    H137474   4.916   5.012  16.820 -1.1159 -0.4774  1.5152
 5353TIP3    H237475   4.920   5.156  16.775 -2.1827 -0.8241  0.2714
 5354TIP3   OH237476   6.683   5.629  12.443  0.5600  0.3633 -0.1228
 5354TIP3    H137477   6.735   5.701  12.479 -0.4719  0.1090  2.0055
 5354TIP3    H237478   6.600   5.670  12.418  0.9145  0.3554 -1.3879
 5355TIP3   OH237479   5.401   5.116  13.174  0.6520 -0.2111 -0.1154
 5355TIP3    H137480   5.351   5.072  13.105 -1.0626  0.4744  0.6299
 5355TIP3    H237481   5.346   5.190  13.199  2.0905  0.6006  0.7450
 5356TIP3   OH237482   5.333   0.570  15.836  0.2327 -0.7213  0.3054
 5356TIP3    H137483   5.264   0.621  15.795  1.0976 -1.0078 -1.5872
 5356TIP3    H237484   5.314   0.575  15.930 -1.1456  0.9203 -0.0209
 5357TIP3   OH237485   5.667   1.635  12.266  0.4179 -0.2833  0.1657
 5357TIP3    H137486   5.738   1.674  12.214  1.7682 -0.8552  1.4831
 5357TIP3    H237487   5.609   1.708  12.286  2.1489  0.8414  1.4100
 5358TIP3   OH237488   1.401   5.318   1.772  0.0296 -0.2726  0.6937
 5358TIP3    H137489   1.414   5.276   1.687 -0.2123 -0.0150  0.5263
 5358TIP3    H237490   1.471   5.283   1.827 -0.2062 -0.9380  0.5776
 5359TIP3   OH237491   2.798   6.256   5.753 -0.0292  0.1162  0.0130
 5359TIP3    H137492   2.781   6.174   5.799 -1.1564 -0.0348 -0.6341
 5359TIP3    H237493   2.759   6.323   5.809  0.3869  0.1600  0.2577
 5360TIP3   OH237494   3.905   2.009  13.152  0.3075 -0.0213 -0.1912
 5360TIP3    H137495   3.869   1.937  13.203  0.7056 -2.1907 -2.7431
 5360TIP3    H237496   3.833   2.070  13.142 -0.0743 -0.0410  1.9506
 5361TIP3   OH237497   6.190   4.222  15.464  0.3010 -0.0240  0.4150
 5361TIP3    H137498   6.133   4.147  15.447  0.0798 -0.0472  1.2364
 5361TIP3    H237499   6.267   4.205  15.410 -0.7026  0.3136 -1.1809
 5362TIP3   OH237500   3.513   2.334   3.484  0.6315  0.4220  0.5845
 5362TIP3    H137501   3.603   2.346   3.516  1.1053 -2.1580  0.4428
 5362TIP3    H237502   3.460   2.329   3.563  1.0314 -0.6330  0.8107
 5363TIP3   OH237503   5.387   1.581  16.423  0.2644  0.3811 -0.6127
 5363TIP3    H137504   5.437   1.560  16.344 -1.9201 -2.1303 -1.4857
 5363TIP3    H237505   5.326   1.649  16.395  0.7463  0.8520 -0.5361
 5364TIP3   OH237506   1.750   6.571  13.603  0.1911 -0.5323  0.9194
 5364TIP3    H137507   1.825   6.556  13.546  1.6095 -2.5805  3.1576
 5364TIP3    H237508   1.726   6.662  13.587  2.8495  0.0566 -0.2020
 5365TIP3   OH237509   1.838   4.849  15.259 -0.1751  0.2667  0.7389
 5365TIP3    H137510   1.805   4.766  15.225 -0.9575  0.4924  0.9251
 5365TIP3    H237511   1.793   4.916  15.209  1.4857  0.6039 -0.3798
 5366TIP3   OH237512   0.543   5.470   2.945  0.0646  0.4278 -0.5222
 5366TIP3    H137513   0.583   5.541   2.895  0.1820  0.7331 -0.0110
 5366TIP3    H237514   0.532   5.507   3.033 -0.7735  0.1375 -0.4985
 5367TIP3   OH237515   3.855   0.393   4.217  0.1519 -0.9855  0.0855
 5367TIP3    H137516   3.879   0.471   4.166 -2.5240 -0.9733 -1.3487
 5367TIP3    H237517   3.837   0.326   4.152  0.9039 -2.3767  1.2504
 5368TIP3   OH237518   4.402   0.097  11.977 -0.0203  0.4197 -0.1570
 5368TIP3    H137519   4.349   0.158  11.925 -1.0181 -0.6124 -0.3926
 5368TIP3    H237520   4.337   0.045  12.025  0.8368  0.0790  0.6623
 5369TIP3   OH237521   3.652   4.099  17.145  0.2063  0.4390 -0.0649
 5369TIP3    H137522   3.693   4.059  17.068  0.1131  2.3060 -1.1364
 5369TIP3    H237523   3.717   4.163  17.176 -0.7184  1.3798 -0.0354
 5370TIP3   OH237524   3.548   0.293   3.131 -0.2415 -0.6547  0.5760
 5370TIP3    H137525   3.485   0.364   3.127 -1.3164 -1.5794  0.5804
 5370TIP3    H237526   3.591   0.304   3.216 -0.8737 -0.4042  0.8713
 5371TIP3   OH237527   2.353   4.541  16.643 -0.0900 -0.2900 -0.5324
 5371TIP3    H137528   2.442   4.578  16.650 -0.0613 -0.2088 -1.2035
 5371TIP3    H237529   2.300   4.615  16.614 -0.5237 -0.1547  0.5985
 5372TIP3   OH237530   1.244   4.321   4.659 -0.0658  0.0863 -0.3274
 5372TIP3    H137531   1.220   4.303   4.569  0.5322 -0.1297 -0.4465
 5372TIP3    H237532   1.321   4.378   4.653  0.0945 -0.0878  0.0421
 5373TIP3   OH237533   0.766   4.722  14.679 -0.1076 -0.3875  0.6383
 5373TIP3    H137534   0.833   4.740  14.613 -0.6369  1.0924  0.4594
 5373TIP3    H237535   0.811   4.673  14.747  1.2883  0.9142  0.7050
 5374TIP3   OH237536   4.236   2.873   5.468 -0.1132  0.0988 -0.4103
 5374TIP3    H137537   4.302   2.939   5.493  1.5704 -1.9886  1.0192
 5374TIP3    H237538   4.155   2.905   5.506  1.0119  0.5631  1.7747
 5375TIP3   OH237539   5.215   3.335   5.099  0.7089  0.0598  0.8451
 5375TIP3    H137540   5.185   3.247   5.080  3.1573 -0.4785 -1.1632
 5375TIP3    H237541   5.204   3.345   5.193 -2.8809 -1.0047  0.6766
 5376TIP3   OH237542   2.461   1.153   0.929 -0.4612 -0.2090 -0.2690
 5376TIP3    H137543   2.529   1.220   0.936 -1.6379  1.1085 -1.0166
 5376TIP3    H237544   2.472   1.118   0.840  0.3899 -1.3220  0.2453
 5377TIP3   OH237545   6.509   1.326   2.803  0.1128 -0.0750 -0.2188
 5377TIP3    H137546   6.473   1.244   2.769  1.2526  0.0834 -1.9495
 5377TIP3    H237547   6.566   1.299   2.875 -0.7157 -0.6512  0.2307
 5378TIP3   OH237548   2.759   1.417   2.299 -0.1817 -0.2298 -0.3299
 5378TIP3    H137549   2.707   1.496   2.286 -0.6946 -0.3966  0.5913
 5378TIP3    H237550   2.843   1.436   2.258 -1.0223 -0.0321 -2.0255
 5379TIP3   OH237551   6.458   1.534  10.960  0.0103  0.1005  0.3005
 5379TIP3    H137552   6.554   1.535  10.962  0.1684  3.3073 -1.5489
 5379TIP3    H237553   6.435   1.442  10.946  2.7435 -0.8663  1.3815
 5380TIP3   OH237554   5.138   4.729  10.905  0.3940 -0.0379  0.3499
 5380TIP3    H137555   5.138   4.822  10.927  0.3644 -0.1915  1.0403
 5380TIP3    H237556   5.224   4.713  10.866 -0.0442  0.5202 -0.9036
 5381TIP3   OH237557   6.221   5.394   0.073 -0.7565 -0.0206 -0.4063
 5381TIP3    H137558   6.298   5.451   0.070 -0.1473 -0.8367 -3.2293
 5381TIP3    H237559   6.191   5.399   0.163  0.8921  2.5895  0.1054
 5382TIP3   OH237560   6.535   0.999  13.112 -0.6475  0.1465 -0.7077
 5382TIP3    H137561   6.617   0.950  13.118 -1.1533 -0.6601 -0.0568
 5382TIP3    H237562   6.549   1.077  13.164  0.4602  1.1550 -2.4359
 5383TIP3   OH237563   1.377   4.253   0.605 -0.0510 -0.1795  0.1050
 5383TIP3    H137564   1.457   4.305   0.613  1.1214 -2.0693  1.9622
 5383TIP3    H237565   1.397   4.189   0.537 -1.2252  1.2552 -1.6699
 5384TIP3   OH237566   3.809   5.361   3.852  0.3778  0.0287  0.5780
 5384TIP3    H137567   3.873   5.428   3.827  0.1170  0.3503  0.7772
 5384TIP3    H237568   3.759   5.400   3.923  0.3915 -0.4718  0.8686
 5385TIP3   OH237569   4.838   5.005   4.772  0.6356  0.3152 -0.1755
 5385TIP3    H137570   4.844   4.971   4.861  1.0403  1.3864  0.2258
 5385TIP3    H237571   4.912   5.065   4.764  0.0649  0.9537 -0.8959
 5386TIP3   OH237572   0.573   2.996   4.718 -0.9263 -0.0506 -0.1856
 5386TIP3    H137573   0.512   3.058   4.758 -1.9691 -1.5167  0.6110
 5386TIP3    H237574   0.614   2.951   4.793 -0.9110 -0.9824 -0.7282
 5387TIP3   OH237575   1.235   0.328   3.586 -0.1956 -0.9071 -0.7514
 5387TIP3    H137576   1.232   0.236   3.611 -1.3101 -0.8544 -0.6468
 5387TIP3    H237577   1.199   0.331   3.497 -0.0234 -0.5849 -0.8153
 5388TIP3   OH237578   5.372   1.006   3.345 -0.6379  0.2462 -0.0406
 5388TIP3    H137579   5.455   0.964   3.366 -0.0319  0.6948 -1.4502
 5388TIP3    H237580   5.346   1.049   3.427  0.6243  0.2921  0.3625
 5389TIP3   OH237581   0.332   3.432  10.589 -0.7166  0.0223 -0.1436
 5389TIP3    H137582   0.350   3.447  10.681  1.3499  0.0277 -0.4977
 5389TIP3    H237583   0.274   3.504  10.563 -0.4867  0.5992  0.9032
 5390TIP3   OH237584   2.571   6.150   5.554 -0.5704 -0.2546 -0.0985
 5390TIP3    H137585   2.508   6.201   5.606 -0.2522  0.8248 -0.7363
 5390TIP3    H237586   2.625   6.216   5.510  0.3762 -1.1569 -0.3379
 5391TIP3   OH237587   5.634   0.040  17.001  0.6184  0.2146  0.3157
 5391TIP3    H137588   5.711   0.031  16.944  0.2172  1.0348 -0.3821
 5391TIP3    H237589   5.562   0.061  16.942  0.1562  0.9386  1.1100
 5392TIP3   OH237590   3.128   0.547   2.061  0.3948  0.5888 -0.3022
 5392TIP3    H137591   3.172   0.528   2.144 -0.4477 -1.0826 -0.1830
 5392TIP3    H237592   3.129   0.642   2.054  1.0263  0.7326  1.3320
 5393TIP3   OH237593   6.788   5.725   5.784  0.4011  0.0820 -0.1382
 5393TIP3    H137594   6.795   5.789   5.856  2.9677 -0.4806  0.2305
 5393TIP3    H237595   6.700   5.689   5.792 -0.4960  2.2888  0.7490
 5394TIP3   OH237596   3.143   6.271  11.866  0.1365 -0.5377  0.3493
 5394TIP3    H137597   3.190   6.344  11.906 -0.2358 -0.3686  0.4756
 5394TIP3    H237598   3.195   6.249  11.788  0.9274 -0.9429  0.9737
 5395TIP3   OH237599   4.243   0.045  12.397  0.0881  0.1242 -0.7062
 5395TIP3    H137600   4.191   0.066  12.320 -0.9698  0.0367 -0.0380
 5395TIP3    H237601   4.288   0.127  12.419 -1.4607  0.8450 -0.0389
 5396TIP3   OH237602   2.260   2.071   0.500  0.1272 -0.1402 -0.0592
 5396TIP3    H137603   2.355   2.058   0.496 -0.0178 -1.4282  0.3152
 5396TIP3    H237604   2.228   1.997   0.552 -0.8863  1.3188  1.5126
 5397TIP3   OH237605   3.537   4.596   3.933 -0.2318 -0.5406  0.3274
 5397TIP3    H137606   3.485   4.526   3.892  0.7885 -1.2010  0.1152
 5397TIP3    H237607   3.571   4.647   3.859 -3.5237  2.2458  0.4613
 5398TIP3   OH237608   4.798   0.339  13.106  0.3613  0.1162 -0.4250
 5398TIP3    H137609   4.703   0.334  13.094  0.0409  3.7430 -0.5793
 5398TIP3    H237610   4.829   0.386  13.028  2.1316 -0.1285  0.0986
 5399TIP3   OH237611   1.800   3.118  16.074  0.0454  0.2458  0.7251
 5399TIP3    H137612   1.782   3.072  16.156 -2.4822  0.2926  0.2773
 5399TIP3    H237613   1.881   3.079  16.042 -0.2799 -1.5961  1.9645
 5400TIP3   OH237614   6.731   5.534  15.410  0.0158 -0.0627 -0.2806
 5400TIP3    H137615   6.780   5.561  15.488 -1.1703 -0.0084  0.4586
 5400TIP3    H237616   6.666   5.603  15.397  0.5991  0.2596 -1.7111
 5401TIP3   OH237617   6.570   6.163  15.499 -0.4954 -0.1509 -0.3330
 5401TIP3    H137618   6.572   6.104  15.424  0.1980 -0.1275 -0.3336
 5401TIP3    H237619   6.484   6.205  15.493 -1.3858 -1.7911  0.1667
 5402TIP3   OH237620   1.388   1.624   3.302 -0.1749 -0.3399  0.9737
 5402TIP3    H137621   1.333   1.627   3.224  0.0185  0.6769  0.8641
 5402TIP3    H237622   1.454   1.691   3.287  1.1767 -1.5871  1.0482
 5403TIP3   OH237623   4.960   2.152  14.439  0.4671 -0.3224  0.0387
 5403TIP3    H137624   4.867   2.164  14.459  0.4048 -0.8341  0.0620
 5403TIP3    H237625   4.961   2.089  14.367  0.8754 -1.9337  1.4042
 5404TIP3   OH237626   2.154   6.372  15.499 -0.0339 -0.2179 -0.0400
 5404TIP3    H137627   2.100   6.315  15.554 -1.8952  0.8608 -0.6324
 5404TIP3    H237628   2.122   6.460  15.518 -0.4731  0.2291 -2.5045
 5405TIP3   OH237629   3.803   4.814   4.132 -0.2350 -1.0708 -0.2158
 5405TIP3    H137630   3.728   4.852   4.088 -0.2774 -0.6315  0.2303
 5405TIP3    H237631   3.769   4.737   4.177  0.0185 -2.2036 -1.8571
 5406TIP3   OH237632   5.303   0.401   3.231 -0.2555 -0.3741 -0.1239
 5406TIP3    H137633   5.377   0.412   3.173 -0.2945  0.3250 -0.0454
 5406TIP3    H237634   5.336   0.345   3.301  0.6621  1.1369  0.7082
 5407TIP3   OH237635   4.515   4.001   2.075 -0.0212 -0.0825 -0.1033
 5407TIP3    H137636   4.521   3.950   1.994 -0.0961 -0.2974  0.0258
 5407TIP3    H237637   4.480   4.086   2.047 -3.2122 -1.1948  0.1078
 5408TIP3   OH237638   5.955   4.151   1.420  0.3986  0.2236 -0.1921
 5408TIP3    H137639   5.900   4.145   1.497 -0.3889 -2.6704 -0.8552
 5408TIP3    H237640   6.043   4.165   1.454 -0.0892  0.1523  1.1513
 5409TIP3   OH237641   4.052   3.709  14.057 -0.5020 -0.4717  0.3145
 5409TIP3    H137642   4.090   3.796  14.070 -0.5283 -0.2298 -1.1194
 5409TIP3    H237643   4.103   3.652  14.114 -0.6875  0.5223  1.5205
 5410TIP3   OH237644   4.834   6.541  15.165  0.0500 -0.1577 -0.0776
 5410TIP3    H137645   4.806   6.625  15.128 -0.3090 -0.1982  0.0932
 5410TIP3    H237646   4.840   6.483  15.090 -2.9826 -0.8890  0.1130
 5411TIP3   OH237647   3.405   5.977  16.552  0.3722 -0.2579  0.5038
 5411TIP3    H137648   3.408   6.073  16.552  0.5711 -0.2185  2.3649
 5411TIP3    H237649   3.495   5.951  16.567  0.2285 -0.7201  0.5618
 5412TIP3   OH237650   5.533   5.844  11.056 -0.2302 -0.0112  0.1200
 5412TIP3    H137651   5.531   5.869  10.964  0.2858 -2.8301 -0.7334
 5412TIP3    H237652   5.620   5.870  11.086  0.1369 -0.3808 -0.5978
 5413TIP3   OH237653   1.203   6.245   0.864 -0.1853 -0.0251  0.2423
 5413TIP3    H137654   1.207   6.340   0.865 -1.3044  0.0577  2.5026
 5413TIP3    H237655   1.167   6.223   0.778  0.8032  1.5151 -0.6030
 5414TIP3   OH237656   2.399   3.605   1.497 -0.2001 -0.0961 -0.3603
 5414TIP3    H137657   2.384   3.637   1.587 -1.2774  1.9527 -1.1922
 5414TIP3    H237658   2.469   3.661   1.464 -0.9499  0.2978 -1.3190
 5415TIP3   OH237659   2.097   3.497  16.685  1.1799  0.3454 -0.7473
 5415TIP3    H137660   2.068   3.588  16.689  0.2011  0.0120  0.2839
 5415TIP3    H237661   2.139   3.481  16.769 -1.9709 -1.1640  0.7292
 5416TIP3   OH237662   0.059   1.278  16.389  0.2800  0.1307 -0.0072
 5416TIP3    H137663   0.050   1.373  16.378  1.5018  0.3705  0.7857
 5416TIP3    H237664   0.038   1.263  16.482  1.8332 -0.0919  0.3400
 5417TIP3   OH237665   0.522   6.759  15.118  0.9989 -0.3197 -0.3143
 5417TIP3    H137666   0.532   6.701  15.194 -1.8730 -0.8936 -0.2604
 5417TIP3    H237667   0.506   6.846  15.155  0.0444 -0.5174 -0.2366
 5418TIP3   OH237668   1.489   0.541   0.563  0.0470  0.2520  0.1772
 5418TIP3    H137669   1.555   0.605   0.586  2.2340 -2.4614  2.1703
 5418TIP3    H237670   1.525   0.494   0.487 -0.4361 -0.1050  0.1564
 5419TIP3   OH237671   4.843   2.063   5.117 -0.0447 -0.0394  0.0417
 5419TIP3    H137672   4.758   2.105   5.135  0.1887  1.0547 -1.2257
 5419TIP3    H237673   4.821   1.987   5.063 -0.3095 -0.4775  0.7506
 5420TIP3   OH237674   4.489   0.377   5.672  0.0039  0.4604 -0.5466
 5420TIP3    H137675   4.571   0.329   5.663 -0.5655 -0.8850  0.9945
 5420TIP3    H237676   4.504   0.436   5.746 -0.6402 -0.3873  0.2935
 5421TIP3   OH237677   1.219   0.567   5.665  0.0551 -0.1677 -0.4913
 5421TIP3    H137678   1.200   0.564   5.759  0.5737  0.2131 -0.3727
 5421TIP3    H237679   1.226   0.660   5.645  0.2096 -0.2553 -0.8560
 5422TIP3   OH237680   2.511   0.761  15.664  0.0788  0.2370 -0.2464
 5422TIP3    H137681   2.425   0.719  15.654 -0.2203  0.6533  0.4734
 5422TIP3    H237682   2.541   0.776  15.575 -1.4973  1.8838 -0.5561
 5423TIP3   OH237683   5.846   2.258   1.354 -0.4732 -0.0100  0.0309
 5423TIP3    H137684   5.937   2.283   1.345 -1.1402  1.8218 -2.7932
 5423TIP3    H237685   5.809   2.322   1.415 -0.2526  0.3638 -0.2300
 5424TIP3   OH237686   5.345   2.377  12.785  0.0589  0.2395  0.7256
 5424TIP3    H137687   5.402   2.394  12.710 -0.1192 -0.2018  0.4848
 5424TIP3    H237688   5.268   2.432  12.769 -0.0126  0.0869  0.5447
 5425TIP3   OH237689   6.782   6.063   1.306 -0.1351  0.2787 -0.4246
 5425TIP3    H137690   6.761   5.980   1.349  0.2432  0.5050  0.1977
 5425TIP3    H237691   6.786   6.127   1.377 -1.5996  1.0814 -1.0127
 5426TIP3   OH237692   3.929   4.273   5.706 -0.0131 -0.4498 -0.2369
 5426TIP3    H137693   4.013   4.297   5.744 -0.3639 -1.4390  1.2732
 5426TIP3    H237694   3.892   4.209   5.767 -2.3884  0.8026 -0.2232
 5427TIP3   OH237695   1.738   5.787  11.321  0.2789 -0.1948 -0.1767
 5427TIP3    H137696   1.801   5.857  11.340  1.8186 -1.1616 -1.4566
 5427TIP3    H237697   1.788   5.723  11.270 -1.8390 -0.8260 -1.6108
 5428TIP3   OH237698   5.180   0.807   4.996 -0.3279 -0.1980  0.2993
 5428TIP3    H137699   5.148   0.725   5.032 -0.2741  0.7926  2.8092
 5428TIP3    H237700   5.111   0.837   4.936 -0.7451 -1.5926  0.0633
 5429TIP3   OH237701   1.973   5.017  17.026  0.0034  0.0237 -0.0600
 5429TIP3    H137702   1.984   5.042  17.118 -0.5551  1.9838 -0.4753
 5429TIP3    H237703   1.913   5.083  16.990  1.2718  0.1309 -2.1473
 5430TIP3   OH237704   0.308   1.702  16.013  0.1834  0.0566 -0.2849
 5430TIP3    H137705   0.278   1.757  15.940 -1.1756 -0.2576 -0.0015
 5430TIP3    H237706   0.357   1.762  16.069 -0.6169  0.8128 -0.3685
 5431TIP3   OH237707   0.072   2.773   1.033  0.0636  0.0317 -0.4102
 5431TIP3    H137708   0.156   2.763   0.989 -0.1642 -0.6356 -0.7146
 5431TIP3    H237709   0.043   2.861   1.011  1.5578  1.0066  1.2555
 5432TIP3   OH237710   2.373   5.314  16.364  0.7168  0.0391  0.3878
 5432TIP3    H137711   2.287   5.279  16.388  1.4263 -1.1268  1.3299
 5432TIP3    H237712   2.383   5.391  16.421 -0.1599  0.8723 -0.5377
 5433TIP3   OH237713   6.795   5.700   3.066 -0.4623  0.1666 -0.1113
 5433TIP3    H137714   6.857   5.672   2.999 -0.5875  0.3605 -0.3071
 5433TIP3    H237715   6.709   5.687   3.027 -0.5235  1.5721 -0.5269
 5434TIP3   OH237716   0.774   0.189   5.632 -0.0518  0.0048  0.4254
 5434TIP3    H137717   0.862   0.163   5.606  0.3572  0.7123  1.0568
 5434TIP3    H237718   0.788   0.258   5.697 -1.0417 -0.9473  1.7007
 5435TIP3   OH237719   4.671   1.779   0.971 -0.1091 -0.1859  0.7674
 5435TIP3    H137720   4.707   1.866   0.991 -0.2394  0.3266 -1.0349
 5435TIP3    H237721   4.610   1.762   1.042 -0.7991  1.6632  0.6988
 5436TIP3   OH237722   2.709   2.667   1.897  0.5384  0.3467 -0.5447
 5436TIP3    H137723   2.788   2.679   1.949  1.0531 -0.3907 -1.1269
 5436TIP3    H237724   2.637   2.691   1.956  0.8850 -2.8220  1.4280
 5437TIP3   OH237725   2.486   0.727  10.559 -0.0086 -0.3139 -0.2556
 5437TIP3    H137726   2.551   0.658  10.542  0.5943  0.6273 -1.9493
 5437TIP3    H237727   2.402   0.686  10.537  0.3611 -0.4656 -1.4496
 5438TIP3   OH237728   3.834   6.197   1.871  0.3406  0.4729  0.1190
 5438TIP3    H137729   3.833   6.287   1.839  0.4308  0.2189 -0.6161
 5438TIP3    H237730   3.862   6.145   1.796 -1.8687 -0.4415 -0.1494
 5439TIP3   OH237731   1.730   6.465   5.416 -0.7839  0.0170 -0.3466
 5439TIP3    H137732   1.684   6.382   5.405 -1.6563  0.2014  1.5688
 5439TIP3    H237733   1.703   6.517   5.341  0.4475 -1.6551 -2.0713
 5440TIP3   OH237734   2.478   2.164   0.119  0.8446 -0.4593 -0.6735
 5440TIP3    H137735   2.436   2.101   0.060 -2.9275  2.2347 -1.2580
 5440TIP3    H237736   2.486   2.118   0.202  0.3370 -2.3964 -1.6521
 5441TIP3   OH237737   0.430   1.934   0.119 -0.0612 -0.1290 -0.4605
 5441TIP3    H137738   0.494   1.957   0.186  0.3761 -0.6966 -0.6751
 5441TIP3    H237739   0.403   2.017   0.081 -1.8048  0.4182  1.7360
 5442TIP3   OH237740   3.229   6.176   0.438  0.3223  0.0501 -0.3408
 5442TIP3    H137741   3.243   6.210   0.526 -0.6835  0.3377 -0.2774
 5442TIP3    H237742   3.310   6.131   0.416  1.7604  2.5404 -0.4549
 5443TIP3   OH237743   5.454   5.389   5.000  0.4501 -0.0938  0.3549
 5443TIP3    H137744   5.446   5.368   5.093  0.2943  0.3778  0.4498
 5443TIP3    H237745   5.548   5.383   4.982  0.5400  0.3440  0.6704
 5444TIP3   OH237746   4.810   3.882   3.176  0.1580 -0.5515  0.1154
 5444TIP3    H137747   4.841   3.934   3.102  0.4503 -1.2476 -0.2527
 5444TIP3    H237748   4.749   3.940   3.221  0.5038  0.1268 -0.2728
 5445TIP3   OH237749   2.876   3.411  14.228 -0.3191  0.6482  0.2203
 5445TIP3    H137750   2.899   3.499  14.195  1.6162 -0.0690 -0.5324
 5445TIP3    H237751   2.956   3.360  14.214 -1.4996 -1.3149  0.3771
 5446TIP3   OH237752   3.052   5.643  16.467 -0.1668 -0.3912 -0.3926
 5446TIP3    H137753   3.122   5.578  16.473 -0.3828 -0.5694  0.2496
 5446TIP3    H237754   3.088   5.721  16.508 -0.6509 -0.7590  0.7857
 5447TIP3   OH237755   6.421   0.147  12.095 -0.2258 -0.2292  0.0018
 5447TIP3    H137756   6.377   0.083  12.039 -0.2255  0.9716 -1.4507
 5447TIP3    H237757   6.497   0.101  12.129  0.8678 -0.4911 -2.5644
 5448TIP3   OH237758   0.435   5.293  14.514  0.4609  0.2336 -0.1067
 5448TIP3    H137759   0.426   5.203  14.544 -0.5374 -0.4228 -2.1976
 5448TIP3    H237760   0.351   5.315  14.474  1.1404  1.5961 -0.8875
 5449TIP3   OH237761   5.412   5.119  11.278  0.4277 -0.4018  0.1486
 5449TIP3    H137762   5.349   5.053  11.306  0.2954  0.4788  2.0684
 5449TIP3    H237763   5.389   5.198  11.327  0.6021  1.1061 -2.0564
 5450TIP3   OH237764   4.496   4.162   1.745 -0.3980  0.8001  0.1003
 5450TIP3    H137765   4.574   4.108   1.757 -0.7351 -0.2274 -1.8823
 5450TIP3    H237766   4.515   4.212   1.665 -1.8162  0.3848 -0.5255
 5451TIP3   OH237767   5.719   4.260  12.646 -0.3312  0.0152 -0.9113
 5451TIP3    H137768   5.798   4.278  12.594  0.4503  0.5786  0.4195
 5451TIP3    H237769   5.686   4.177  12.611  0.6698 -0.0732 -1.7082
 5452TIP3   OH237770   6.634   0.842  14.917 -0.5004 -0.0633 -0.0471
 5452TIP3    H137771   6.690   0.901  14.968 -1.6663  0.4175  0.7137
 5452TIP3    H237772   6.561   0.823  14.975 -0.4758 -1.7620 -0.5307
 5453TIP3   OH237773   3.783   2.912   5.344  0.0366  0.2677  0.3123
 5453TIP3    H137774   3.847   2.847   5.313  0.6143  1.2186 -0.5309
 5453TIP3    H237775   3.755   2.958   5.265 -0.1529  1.2418  0.9386
 5454TIP3   OH237776   6.023   5.802  10.788  0.0581  0.0968 -0.6083
 5454TIP3    H137777   6.101   5.858  10.786  0.3910 -0.3057  0.5980
 5454TIP3    H237778   5.977   5.829  10.867 -0.4587 -0.4309 -0.7293
 5455TIP3   OH237779   2.727   6.336   1.435  0.0704 -0.2649 -0.4354
 5455TIP3    H137780   2.794   6.339   1.503 -0.7057  0.5859  0.3130
 5455TIP3    H237781   2.644   6.334   1.482 -0.5074  0.7789 -1.3436
 5456TIP3   OH237782   3.397   1.307   2.793 -0.0285 -0.7108  0.0642
 5456TIP3    H137783   3.390   1.316   2.698  0.2954  0.2377  0.1218
 5456TIP3    H237784   3.310   1.328   2.826 -0.2970 -1.6108 -0.0536
 5457TIP3   OH237785   0.243   6.729   5.528 -0.2301  0.3340 -0.4625
 5457TIP3    H137786   0.246   6.822   5.505  1.9152  0.7478  1.1684
 5457TIP3    H237787   0.215   6.728   5.620 -0.3511 -0.6437 -0.5001
 5458TIP3   OH237788   5.160   3.260  15.548 -0.2011 -0.0700 -0.4193
 5458TIP3    H137789   5.137   3.190  15.486  0.8958 -1.7245  0.9426
 5458TIP3    H237790   5.140   3.223  15.634 -2.7550  2.5763  0.2746
 5459TIP3   OH237791   4.143   6.742  15.371 -0.0427  0.3677 -0.2472
 5459TIP3    H137792   4.203   6.816  15.377 -0.2621  0.5093  0.2235
 5459TIP3    H237793   4.102   6.752  15.285 -0.8321  1.3902  0.2187
 5460TIP3   OH237794   2.199   4.298  12.611 -0.1992 -0.6099  0.1426
 5460TIP3    H137795   2.206   4.321  12.704  2.3309 -3.5799  0.8474
 5460TIP3    H237796   2.137   4.225  12.609 -0.0916 -0.6861 -0.4806
 5461TIP3   OH237797   1.823   4.806   0.230  0.0580  0.1951 -0.6988
 5461TIP3    H137798   1.730   4.820   0.212 -0.8956 -1.6331  2.0394
 5461TIP3    H237799   1.848   4.735   0.171 -1.5602 -2.2182  1.3061
 5462TIP3   OH237800   6.781   0.719   4.071 -0.5201  0.1934 -0.4816
 5462TIP3    H137801   6.822   0.735   3.986  1.5380 -0.5063  0.3232
 5462TIP3    H237802   6.805   0.794   4.124 -0.7453  0.0291 -0.1413
 5463TIP3   OH237803   4.551   1.887   5.506  0.2723 -0.1863  0.1205
 5463TIP3    H137804   4.532   1.860   5.416  0.5139 -1.2490  0.3625
 5463TIP3    H237805   4.637   1.848   5.524  0.8467  1.1485  0.3692
 5464TIP3   OH237806   2.116   6.612   1.182 -0.3029  0.3718  0.0713
 5464TIP3    H137807   2.060   6.648   1.250 -1.7119 -1.3295 -0.1358
 5464TIP3    H237808   2.057   6.595   1.108  0.8781  0.5034 -0.9464
 5465TIP3   OH237809   0.221   3.163   2.545 -0.4933 -0.3708  0.3709
 5465TIP3    H137810   0.143   3.155   2.490 -0.8114  1.1972  0.5236
 5465TIP3    H237811   0.291   3.186   2.485 -0.1593 -1.6634  0.2495
 5466TIP3   OH237812   5.085   2.945   4.311 -0.2080 -0.1873  0.4870
 5466TIP3    H137813   5.143   2.969   4.239 -1.3218  0.7055 -0.1416
 5466TIP3    H237814   5.089   2.850   4.315  1.5086 -0.1378  0.6580
 5467TIP3   OH237815   5.020   2.075   2.035 -0.3572 -0.1671 -0.5518
 5467TIP3    H137816   5.047   1.998   2.084  0.6345 -0.0138 -0.8375
 5467TIP3    H237817   4.960   2.122   2.093  1.4274  0.4414  0.8680
 5468TIP3   OH237818   1.254   3.767  11.652 -0.5039  0.0114 -0.0511
 5468TIP3    H137819   1.299   3.844  11.619  0.7647 -0.8363 -0.3996
 5468TIP3    H237820   1.203   3.798  11.726 -0.3747  1.2531 -0.4595
 5469TIP3   OH237821   0.114   1.391  12.572 -0.2714 -0.0660 -0.4425
 5469TIP3    H137822   0.137   1.331  12.643  0.8858 -0.3843 -1.0604
 5469TIP3    H237823   0.136   1.478  12.605 -1.6283  0.0165  0.3228
 5470TIP3   OH237824   1.618   1.192   1.198 -0.0432  0.4674 -0.3010
 5470TIP3    H137825   1.613   1.097   1.200 -0.6796  0.5024  0.0283
 5470TIP3    H237826   1.570   1.220   1.276  0.2996  1.0527 -0.2924
 5471TIP3   OH237827   1.519   5.231   3.621 -0.0854 -0.4870  0.0237
 5471TIP3    H137828   1.529   5.224   3.716  0.2248 -1.5955 -0.0738
 5471TIP3    H237829   1.574   5.305   3.597  0.0085 -0.3319  0.6797
 5472TIP3   OH237830   0.021   2.046   2.244  0.6236  0.0903  0.6775
 5472TIP3    H137831  -0.055   1.994   2.219  1.1224 -0.4004  0.1608
 5472TIP3    H237832  -0.003   2.136   2.219 -0.3150  0.1658  1.7524
 5473TIP3   OH237833   5.282   2.403   5.901 -0.2614 -0.3758  0.3140
 5473TIP3    H137834   5.280   2.471   5.833 -0.7850 -0.7761 -0.0843
 5473TIP3    H237835   5.311   2.448   5.980  1.2053 -0.0765 -0.3730
 5474TIP3   OH237836   2.274   5.902   3.793  0.3888 -0.4351  0.7926
 5474TIP3    H137837   2.290   5.977   3.851  1.5913  0.1163 -0.2041
 5474TIP3    H237838   2.349   5.844   3.807 -1.6501 -2.7173  3.3272
 5475TIP3   OH237839   0.569   3.805  16.426  0.4843 -0.5221 -0.3144
 5475TIP3    H137840   0.485   3.851  16.436  1.1318  0.5259  0.5407
 5475TIP3    H237841   0.548   3.713  16.445 -0.5639 -0.3650 -0.6437
 5476TIP3   OH237842   2.842   3.688  14.887 -0.3742 -0.6943 -0.7950
 5476TIP3    H137843   2.803   3.601  14.892 -0.3226 -0.6857 -0.1598
 5476TIP3    H237844   2.852   3.716  14.978  0.9379 -0.6171 -0.9323
 5477TIP3   OH237845   1.983   1.996   3.292  0.6740 -0.4904 -0.0060
 5477TIP3    H137846   2.056   1.934   3.300  0.6357 -0.5912 -0.4547
 5477TIP3    H237847   2.025   2.081   3.281  0.7284 -0.4110  0.7293
 5478TIP3   OH237848   3.645   5.626   5.579 -0.3847  0.6952  0.5903
 5478TIP3    H137849   3.644   5.530   5.582 -0.4919  0.6860  0.3569
 5478TIP3    H237850   3.714   5.652   5.639 -0.9172  0.4984  1.3026
 5479TIP3   OH237851   6.021   3.690  16.082 -0.3509  0.0569  0.4622
 5479TIP3    H137852   6.025   3.785  16.095  2.3972  0.1229 -0.2684
 5479TIP3    H237853   6.082   3.654  16.147 -0.3890 -1.0889 -0.1087
 5480TIP3   OH237854   2.725   0.229  11.528 -0.0693 -0.8782  0.1234
 5480TIP3    H137855   2.746   0.139  11.504  0.0471 -0.9456  0.4768
 5480TIP3    H237856   2.673   0.222  11.608  1.1960 -0.5689  0.9966
 5481TIP3   OH237857   3.106   0.571  13.941 -0.1262 -0.4827  0.2565
 5481TIP3    H137858   3.043   0.522  13.888 -0.5754  1.7509 -1.4326
 5481TIP3    H237859   3.087   0.663  13.922  4.0188  0.3581 -0.8218
 5482TIP3   OH237860   6.463   0.055  10.276  0.1956  0.2814  0.3428
 5482TIP3    H137861   6.555   0.045  10.301  0.6955 -0.5443 -1.6369
 5482TIP3    H237862   6.433   0.132  10.325  2.5629  1.9329 -0.6193
 5483TIP3   OH237863   2.840   0.100   0.394 -0.3755 -0.1576  0.0692
 5483TIP3    H137864   2.918   0.072   0.347  0.6384  1.7546  0.5132
 5483TIP3    H237865   2.803   0.169   0.339 -2.3058 -1.6043 -0.5747
 5484TIP3   OH237866   0.173   2.063  13.571  0.1579 -0.3637  0.8123
 5484TIP3    H137867   0.241   2.030  13.512  1.4032  0.7098  1.5955
 5484TIP3    H237868   0.158   1.992  13.633  1.1047 -0.3415  1.0723
 5485TIP3   OH237869   3.978   0.769   0.361 -0.2238 -0.1070  0.5131
 5485TIP3    H137870   4.073   0.778   0.368 -0.3466  0.7176  1.4081
 5485TIP3    H237871   3.957   0.698   0.421 -0.1746 -0.2479  0.3625
 5486TIP3   OH237872   2.318   6.734   3.957  0.2214  0.0147 -0.6504
 5486TIP3    H137873   2.299   6.792   4.030 -0.2623  0.2473 -0.9581
 5486TIP3    H237874   2.392   6.775   3.912  1.3507 -0.7688  0.4098
 5487TIP3   OH237875   1.221   6.727  16.769 -0.6062 -0.8899  0.0615
 5487TIP3    H137876   1.225   6.793  16.700  2.1108 -1.9477 -0.9304
 5487TIP3    H237877   1.143   6.751  16.820 -0.4541  2.3113 -0.9506
 5488TIP3   OH237878   3.230   3.003  16.216  0.2645 -0.1914 -0.1541
 5488TIP3    H137879   3.256   3.028  16.127 -1.8834  0.7722 -0.5949
 5488TIP3    H237880   3.137   3.024  16.220  0.5599  1.0751  2.7792
 5489TIP3   OH237881   2.460   3.259  12.289  0.7191  0.3585 -0.1169
 5489TIP3    H137882   2.456   3.299  12.202  1.3154 -0.8454 -0.7167
 5489TIP3    H237883   2.481   3.168  12.273 -1.4616 -0.4525  1.1635
 5490TIP3   OH237884   3.541   5.194  11.575  0.5438 -0.4775 -0.3233
 5490TIP3    H137885   3.569   5.113  11.618 -0.6508 -0.7643 -0.0272
 5490TIP3    H237886   3.447   5.200  11.595  0.0457 -0.3422 -2.4505
 5491TIP3   OH237887   6.158   1.870   1.420  0.1218  0.0983 -0.2199
 5491TIP3    H137888   6.229   1.815   1.452  0.3749 -0.0513 -1.0179
 5491TIP3    H237889   6.154   1.943   1.482  1.1046  0.2052 -0.2756
 5492TIP3   OH237890   3.323   3.770  16.527 -0.1625 -0.3008 -0.2191
 5492TIP3    H137891   3.340   3.859  16.497 -2.9031  0.5437  0.3997
 5492TIP3    H237892   3.326   3.776  16.622 -0.1448 -0.9197 -0.1777
 5493TIP3   OH237893   2.867   3.768   0.014 -0.4217  0.1407  0.0060
 5493TIP3    H137894   2.845   3.676   0.007  0.5224 -0.0510 -0.6967
 5493TIP3    H237895   2.918   3.787  -0.065 -1.9852  1.6771 -0.7045
 5494TIP3   OH237896   5.373   6.604  14.361  0.5028 -0.1485 -0.3718
 5494TIP3    H137897   5.379   6.697  14.339  2.9151 -0.1391  0.1142
 5494TIP3    H237898   5.347   6.561  14.279  2.9837  0.5769 -1.6172
 5495TIP3   OH237899   4.974   3.732   4.925  0.1000 -0.0064 -0.8705
 5495TIP3    H137900   5.045   3.679   4.888  2.2433  1.5582  0.7188
 5495TIP3    H237901   4.979   3.715   5.020 -2.2335 -0.4361 -0.7534
 5496TIP3   OH237902   6.018   1.035  14.560  0.3672  0.3255  0.1425
 5496TIP3    H137903   5.933   1.023  14.516  0.9396 -0.6448 -0.7650
 5496TIP3    H237904   6.020   0.966  14.626 -0.2778  1.4664  1.3859
 5497TIP3   OH237905   5.872   6.058  13.761 -0.1198 -0.1782 -0.7976
 5497TIP3    H137906   5.841   5.976  13.721 -1.3517  0.4855 -1.2409
 5497TIP3    H237907   5.808   6.123  13.735 -0.9270  0.3411  2.1742
 5498TIP3   OH237908   0.745   1.922   1.061 -0.9023 -0.0352 -0.3518
 5498TIP3    H137909   0.764   1.982   1.133  0.4180 -1.6175  0.7191
 5498TIP3    H237910   0.767   1.971   0.982  1.9189  0.3686  0.5568
 5499TIP3   OH237911   1.825   6.024  14.576  0.0067 -0.3945 -0.2533
 5499TIP3    H137912   1.891   5.968  14.534  0.8780  0.3801  0.0335
 5499TIP3    H237913   1.808   6.093  14.512  0.7025  0.3082  0.2881
 5500TIP3   OH237914   0.868   0.667   4.982 -0.6013  0.5012  0.0832
 5500TIP3    H137915   0.885   0.730   5.053  2.0567  0.1040 -0.1109
 5500TIP3    H237916   0.953   0.654   4.941 -1.8121 -0.3641 -2.3322
 5501TIP3   OH237917   0.968   6.737   6.429  0.3519 -0.2422 -0.3533
 5501TIP3    H137918   0.940   6.685   6.505  1.0389 -0.9970 -0.6074
 5501TIP3    H237919   0.886   6.763   6.386 -0.0004 -1.6600 -0.5819
 5502TIP3   OH237920   4.510   3.373   3.170 -0.6259 -0.3163  0.1550
 5502TIP3    H137921   4.490   3.282   3.147  0.5152 -0.7281  0.6933
 5502TIP3    H237922   4.600   3.370   3.203 -0.2065  1.1656 -0.7365
 5503TIP3   OH237923   1.762   1.556   3.963 -0.5307 -0.4593  0.0473
 5503TIP3    H137924   1.735   1.602   3.883 -0.0983 -0.6002 -0.1827
 5503TIP3    H237925   1.741   1.616   4.034  1.0108  0.5636 -0.3131
 5504TIP3   OH237926   5.756   6.496  14.838 -0.7796  0.7523 -0.1621
 5504TIP3    H137927   5.746   6.561  14.907  1.9423  0.2021  0.8847
 5504TIP3    H237928   5.717   6.416  14.875 -1.7005  1.0888 -0.3722
 5505TIP3   OH237929   0.080   2.265   0.394  0.0331  0.2473 -0.2787
 5505TIP3    H137930   0.061   2.349   0.435  1.7784  0.5597 -0.0454
 5505TIP3    H237931   0.164   2.278   0.350  0.1212 -1.2547 -0.6013
 5506TIP3   OH237932   1.385   4.831  11.671  0.1827 -0.1698 -0.4072
 5506TIP3    H137933   1.447   4.852  11.602 -0.6542  0.2921 -1.0409
 5506TIP3    H237934   1.350   4.745  11.648  1.8406 -1.2457  0.8930
 5507TIP3   OH237935   2.878   3.124  16.662 -0.5047 -0.4133 -0.0058
 5507TIP3    H137936   2.795   3.168  16.645 -0.0889 -0.4883 -2.5226
 5507TIP3    H237937   2.853   3.036  16.692 -1.3014  0.3292  1.6176
 5508TIP3   OH237938   3.020   0.170  13.849 -0.3557  0.0938  0.1001
 5508TIP3    H137939   2.945   0.115  13.868 -0.6882  0.6896  0.5552
 5508TIP3    H237940   2.983   0.258  13.836  0.3152  0.5242  0.9796
 5509TIP3   OH237941   0.253   3.763   0.418  0.0441  0.3564  0.7062
 5509TIP3    H137942   0.222   3.817   0.491 -3.7080  0.2186 -0.5422
 5509TIP3    H237943   0.245   3.673   0.449 -1.6885  0.2916  0.1826
 5510TIP3   OH237944   4.577   2.861  14.711 -0.3782 -0.2869 -0.3532
 5510TIP3    H137945   4.588   2.889  14.802  2.7253  0.3050 -0.8164
 5510TIP3    H237946   4.511   2.792  14.715 -1.5014  0.8081  2.0970
 5511TIP3   OH237947   5.197   2.637   4.491 -0.1869  0.6293 -0.2530
 5511TIP3    H137948   5.122   2.583   4.515 -2.3789  2.6457 -2.0814
 5511TIP3    H237949   5.246   2.646   4.573 -1.9339 -0.7445  1.0418
 5512TIP3   OH237950   6.090   1.294   2.664 -0.1200  0.0645 -0.3606
 5512TIP3    H137951   6.000   1.267   2.648 -0.5924  0.0222  2.0737
 5512TIP3    H237952   6.099   1.376   2.616 -1.4668  0.0982 -0.5909
 5513TIP3   OH237953   0.559   2.081  12.060 -0.8652 -0.4341  0.1318
 5513TIP3    H137954   0.543   2.014  11.994 -2.4107  0.1182 -0.0817
 5513TIP3    H237955   0.653   2.099  12.053 -0.7149 -1.4630 -0.8538
 5514TIP3   OH237956   0.926   0.599  16.647  0.8995 -0.0947 -0.2054
 5514TIP3    H137957   0.852   0.656  16.668  1.0040  1.1713 -2.8989
 5514TIP3    H237958   0.971   0.587  16.730 -0.5083  1.7397  0.8966
 5515TIP3   OH237959   5.730   0.099  13.928  0.5613 -0.0804 -0.7306
 5515TIP3    H137960   5.757   0.189  13.946 -1.1532 -0.2690  4.0543
 5515TIP3    H237961   5.810   0.047  13.944  0.7811  0.3606 -0.3739
 5516TIP3   OH237962   2.137   6.792  14.985  0.1811  0.0601 -0.4893
 5516TIP3    H137963   2.205   6.737  15.024  0.1852  0.5351  0.1891
 5516TIP3    H237964   2.181   6.840  14.915  0.6632  0.6859  0.2260
 5517TIP3   OH237965   1.914   3.979  16.719  0.1719 -0.0440  0.6743
 5517TIP3    H137966   1.962   4.055  16.753 -1.9760  1.3959  0.6774
 5517TIP3    H237967   1.983   3.916  16.697  1.9387  0.9362  2.8721
 5518TIP3   OH237968   1.400   6.579  11.001 -0.3728 -0.2528 -0.5053
 5518TIP3    H137969   1.464   6.508  11.003 -0.3433 -0.2100  0.1358
 5518TIP3    H237970   1.367   6.578  10.911  0.0926 -0.6609 -0.6775
 5519TIP3   OH237971   3.191   3.418  15.309 -0.0030 -0.5781  0.4691
 5519TIP3    H137972   3.113   3.383  15.266  0.6398 -1.1904 -0.2141
 5519TIP3    H237973   3.247   3.342  15.324  0.9048 -0.0081  0.0214
 5520TIP3   OH237974   0.303   4.298   4.969 -0.1666  0.2442 -0.3333
 5520TIP3    H137975   0.346   4.338   4.894 -2.4247  1.1015 -1.2597
 5520TIP3    H237976   0.218   4.341   4.973 -0.9019 -1.2663  1.4660
 5521TIP3   OH237977   3.055   6.044   4.965 -0.2085 -0.2020  0.5390
 5521TIP3    H137978   3.140   6.087   4.958  0.3080 -1.2905 -0.2316
 5521TIP3    H237979   2.992   6.113   4.947  0.4569  0.8098  1.9190
 5522TIP3   OH237980   3.907   3.053  12.706 -0.3760 -0.7676  0.4563
 5522TIP3    H137981   3.988   3.092  12.673 -1.0522  0.5740  0.3596
 5522TIP3    H237982   3.933   2.964  12.732  0.8214 -0.8341 -0.8485
 5523TIP3   OH237983   4.399   4.288  12.102 -0.4422  0.2006 -0.1852
 5523TIP3    H137984   4.476   4.279  12.046  0.2971  3.4602  0.1416
 5523TIP3    H237985   4.325   4.274  12.042  0.3485  0.9719 -1.3923
 5524TIP3   OH237986   0.477   2.971  13.471 -0.4330 -0.2656 -0.4030
 5524TIP3    H137987   0.499   3.013  13.554 -1.4318  0.8705 -0.6753
 5524TIP3    H237988   0.530   2.891  13.469  1.9050  1.2078 -0.0817
 5525TIP3   OH237989   1.161   1.146   5.066  0.2636 -0.4334  0.7955
 5525TIP3    H137990   1.122   1.208   5.127 -0.9857 -0.3037 -0.0894
 5525TIP3    H237991   1.172   1.196   4.985  0.9160 -0.8828  0.5962
 5526TIP3   OH237992   1.650   3.367   1.111 -0.1920  0.2299  0.6236
 5526TIP3    H137993   1.664   3.329   1.198 -0.6416  1.6736  1.3487
 5526TIP3    H237994   1.556   3.359   1.095 -0.1267  0.0625  0.3021
 5527TIP3   OH237995   1.205   2.537  12.675  0.0306 -0.1321 -0.1821
 5527TIP3    H137996   1.168   2.617  12.638 -0.6411 -0.0704  0.5743
 5527TIP3    H237997   1.287   2.565  12.716  0.9355 -0.2577 -1.8225
 5528TIP3   OH237998   1.419   5.027   2.157  0.7402 -0.9710  0.0929
 5528TIP3    H137999   1.328   5.001   2.172  0.8362 -1.2216  0.2485
 5528TIP3    H238000   1.437   5.093   2.224 -0.4647  1.8696 -2.1584
 5529TIP3   OH238001   6.112   0.819  16.164  0.4703  0.2439 -0.8536
 5529TIP3    H138002   6.073   0.845  16.080 -1.1210  0.3775 -0.1020
 5529TIP3    H238003   6.142   0.902  16.203 -1.0701  0.5240 -0.1981
 5530TIP3   OH238004   0.062   6.500  16.959  0.2430 -0.1309  0.0370
 5530TIP3    H138005  -0.002   6.443  16.917  1.0474 -0.5392 -0.6591
 5530TIP3    H238006   0.137   6.444  16.978 -0.0245  0.0878  1.8891
 5531TIP3   OH238007   4.535   6.355   2.673 -0.9874 -0.3404 -0.1429
 5531TIP3    H138008   4.443   6.334   2.688 -1.1833  1.3037  1.2642
 5531TIP3    H238009   4.575   6.351   2.760 -0.3689  1.6754 -0.2885
 5532TIP3   OH238010   6.406   0.899   5.029  0.0981  0.6884  0.1222
 5532TIP3    H138011   6.398   0.990   5.055  0.6301  0.4631  1.1030
 5532TIP3    H238012   6.386   0.849   5.108  0.6798 -0.0272 -0.1716
 5533TIP3   OH238013   5.163   0.449  13.413  0.2533  0.0107  0.4424
 5533TIP3    H138014   5.099   0.438  13.484 -0.1526  0.2308  0.1180
 5533TIP3    H238015   5.109   0.465  13.335  0.5583 -2.4646 -0.3665
 5534TIP3   OH238016   3.051   4.561  15.316  0.3041  0.0415  0.1161
 5534TIP3    H138017   3.039   4.627  15.385 -0.8340 -0.1268  0.0980
 5534TIP3    H238018   3.029   4.608  15.235 -0.5908 -0.3634  0.1111
 5535TIP3   OH238019   5.964   5.250   0.565  0.0634 -0.0764 -0.2576
 5535TIP3    H138020   6.011   5.264   0.482 -1.6789 -3.4947 -2.0318
 5535TIP3    H238021   5.872   5.248   0.540 -0.8707  2.3326  2.4624
 5536TIP3   OH238022   1.299   2.119   6.005 -0.7724 -0.1449 -0.2823
 5536TIP3    H138023   1.240   2.045   6.022 -0.2153 -0.4796  0.2098
 5536TIP3    H238024   1.302   2.126   5.910 -0.1919 -1.2804 -0.3591
 5537TIP3   OH238025   1.821   3.934  12.262 -0.0534  0.0139 -0.2781
 5537TIP3    H138026   1.867   3.877  12.324 -1.1872 -0.3306  0.2749
 5537TIP3    H238027   1.881   3.941  12.187 -0.2429 -2.6970 -0.8057
 5538TIP3   OH238028   5.288   5.181   1.803 -0.1877 -0.3357  0.4178
 5538TIP3    H138029   5.201   5.205   1.833 -1.4016 -1.5393 -1.8469
 5538TIP3    H238030   5.290   5.085   1.811 -0.3222 -0.6541 -2.3999
 5539TIP3   OH238031   5.061   4.085   3.789 -0.1164 -0.5124 -0.4815
 5539TIP3    H138032   5.070   4.020   3.720  0.1216 -0.9256 -0.0633
 5539TIP3    H238033   5.045   4.035   3.869 -0.5218 -0.0358 -0.2536
 5540TIP3   OH238034   5.095   5.980  15.532 -0.3728 -0.6415  0.0655
 5540TIP3    H138035   5.189   5.967  15.532 -0.1831  0.5273  0.9894
 5540TIP3    H238036   5.073   6.004  15.442  0.6541  1.8140  0.4118
 5541TIP3   OH238037   4.310   6.187   6.539  0.3791  0.0321  0.4135
 5541TIP3    H138038   4.321   6.282   6.540  0.0847  0.1001  2.5249
 5541TIP3    H238039   4.397   6.153   6.516  0.8357  0.8055  0.9333
 5542TIP3   OH238040   5.058   2.834   5.410  0.3227 -0.5621  0.3407
 5542TIP3    H138041   4.982   2.786   5.443  0.2759 -1.0788 -0.5109
 5542TIP3    H238042   5.033   2.926   5.417  0.2664 -0.6464  1.6171
 5543TIP3   OH238043   6.320   5.690  13.867 -0.3731  0.6644  0.4685
 5543TIP3    H138044   6.379   5.667  13.795 -0.7538  0.3955  0.2384
 5543TIP3    H238045   6.375   5.688  13.945 -0.1046  0.3102  0.2708
 5544TIP3   OH238046   5.984   4.707   4.740  0.1157 -0.3987 -0.0338
 5544TIP3    H138047   6.034   4.633   4.775  0.6535 -0.6583 -1.3054
 5544TIP3    H238048   5.895   4.692   4.771  0.3003 -1.3607  0.0630
 5545TIP3   OH238049   3.716   5.343   1.648 -0.1041  0.2788  0.3784
 5545TIP3    H138050   3.690   5.430   1.617  0.2904 -0.3345 -1.7972
 5545TIP3    H238051   3.647   5.320   1.711 -1.2172  1.4120 -0.3605
 5546TIP3   OH238052   1.303   1.254   1.789 -0.4056 -0.0740 -0.0529
 5546TIP3    H138053   1.312   1.201   1.710 -0.0130 -0.8537  0.4970
 5546TIP3    H238054   1.357   1.331   1.772 -0.0450 -0.4013 -0.4193
 5547TIP3   OH238055   5.352   4.260   5.257 -0.0302 -0.1585 -0.3342
 5547TIP3    H138056   5.312   4.296   5.178  0.7410  0.3284 -0.5116
 5547TIP3    H238057   5.393   4.336   5.300 -0.0173 -0.5037  0.2668
 5548TIP3   OH238058   3.872   4.136   5.918 -0.0988  0.1956  0.2507
 5548TIP3    H138059   3.947   4.080   5.939 -1.3193 -0.9995  1.6683
 5548TIP3    H238060   3.801   4.102   5.973 -2.2067  0.0437 -2.3432
 5549TIP3   OH238061   3.011   2.514  16.943  0.2645  0.2736  0.1120
 5549TIP3    H138062   3.015   2.587  16.882 -0.9178  1.4077  1.3146
 5549TIP3    H238063   2.952   2.451  16.901 -1.4199  1.5204  0.5190
 5550TIP3   OH238064   6.786   0.995   4.128 -0.7194 -0.1395 -0.3088
 5550TIP3    H138065   6.794   1.066   4.065 -1.4357 -0.1223 -0.3871
 5550TIP3    H238066   6.693   0.994   4.152 -0.2514  0.6800  1.7215
 5551TIP3   OH238067   6.203   3.377   1.657 -0.2109 -0.0213  0.0081
 5551TIP3    H138068   6.170   3.292   1.628 -1.6574  0.5856 -0.1815
 5551TIP3    H238069   6.154   3.441   1.606 -0.1244  0.9615  1.1143
 5552TIP3   OH238070   0.267   5.232   4.111  0.5199  0.4284 -0.0166
 5552TIP3    H138071   0.349   5.189   4.136 -0.6195 -1.1330  1.2314
 5552TIP3    H238072   0.294   5.319   4.080  2.7181 -0.4046 -0.6280
 5553TIP3   OH238073   4.144   4.235  12.007  0.1564 -0.0295  0.1410
 5553TIP3    H138074   4.050   4.233  11.988  0.2557  0.0431 -0.3681
 5553TIP3    H238075   4.175   4.148  11.983 -0.1409 -0.7681  2.2623
 5554TIP3   OH238076   6.083   4.556   5.293  0.0254  0.5984  0.4585
 5554TIP3    H138077   6.098   4.505   5.214  0.1117  0.6202  0.4609
 5554TIP3    H238078   6.162   4.609   5.303 -0.2007  0.9690  0.2819
 5555TIP3   OH238079   1.851   2.747   2.369 -0.3482  0.3942 -0.6490
 5555TIP3    H138080   1.936   2.743   2.324 -0.1311  0.8779 -0.2924
 5555TIP3    H238081   1.857   2.679   2.436  0.1421  1.0482  0.0014
 5556TIP3   OH238082   6.760   0.397  11.033 -0.1817 -0.1967  0.0443
 5556TIP3    H138083   6.749   0.465  10.966  3.5733  1.4017  0.8164
 5556TIP3    H238084   6.784   0.319  10.983  2.1698  0.8728 -0.6631
 5557TIP3   OH238085   0.112   0.410   3.612 -0.3849  0.1369  0.0682
 5557TIP3    H138086   0.194   0.424   3.565 -0.5148  0.6755 -0.0011
 5557TIP3    H238087   0.044   0.435   3.550 -0.5641  0.6713  0.4753
 5558TIP3   OH238088   5.177   0.338   1.186 -0.4808  0.0262 -0.3855
 5558TIP3    H138089   5.247   0.359   1.125 -0.1952  0.5419  0.1056
 5558TIP3    H238090   5.213   0.358   1.273  0.2316 -3.6286  0.3059
 5559TIP3   OH238091   5.338   1.272   0.619 -0.2181  0.5383  0.7537
 5559TIP3    H138092   5.433   1.268   0.610 -0.2068  2.1107 -0.2768
 5559TIP3    H238093   5.308   1.305   0.534 -1.6196  0.8559  1.3477
 5560TIP3   OH238094   6.796   4.002  10.731  0.4229  0.6848 -0.3403
 5560TIP3    H138095   6.719   4.034  10.685 -0.4741 -0.7716  0.0611
 5560TIP3    H238096   6.785   3.907  10.732  1.5475  0.5382  0.9036
 5561TIP3   OH238097   2.037   5.070  11.420  0.4142 -0.2950 -0.5822
 5561TIP3    H138098   2.007   5.083  11.330 -0.2885 -0.8453 -0.4372
 5561TIP3    H238099   1.990   4.993  11.450 -0.4126  0.6659  0.7039
 5562TIP3   OH238100   4.136   0.016   3.657 -0.0771 -0.7791 -0.3163
 5562TIP3    H138101   4.088   0.023   3.574  1.2496 -0.6296 -1.1004
 5562TIP3    H238102   4.190  -0.063   3.646  3.7357  1.7165 -1.6353
 5563TIP3   OH238103   0.738   4.234  12.932 -0.0209  0.0095  0.3779
 5563TIP3    H138104   0.710   4.152  12.891 -0.5682  0.9394 -1.1909
 5563TIP3    H238105   0.775   4.285  12.860 -0.0564  1.3034  1.2487
 5564TIP3   OH238106   1.802   6.716   4.183 -0.7973 -0.2545 -0.3185
 5564TIP3    H138107   1.719   6.764   4.187 -0.6364  0.2148 -1.8185
 5564TIP3    H238108   1.780   6.636   4.134 -0.2128  0.2879 -1.5159
 5565TIP3   OH238109   5.386   0.666   1.451  0.3269  0.1593 -0.2543
 5565TIP3    H138110   5.410   0.574   1.467 -1.6351 -0.4414 -0.5139
 5565TIP3    H238111   5.313   0.682   1.512 -0.2906  1.0880 -1.2148
 5566TIP3   OH238112   0.641   5.862   3.094 -0.2990 -0.8047  0.0827
 5566TIP3    H138113   0.651   5.886   3.186  0.9790 -2.1084  0.3253
 5566TIP3    H238114   0.697   5.924   3.046  1.4948 -2.0159  0.5171
 5567TIP3   OH238115   4.906   3.930  14.370 -0.1814 -0.3929 -0.3472
 5567TIP3    H138116   4.845   3.899  14.303  0.5523 -1.4243 -0.5565
 5567TIP3    H238117   4.882   4.022  14.384  0.3723  0.1998 -2.8389
 5568TIP3   OH238118   2.113   5.173  10.516 -0.2598  0.3803 -0.0488
 5568TIP3    H138119   2.097   5.161  10.610  1.8781 -2.7342  0.0667
 5568TIP3    H238120   2.047   5.118  10.473  0.6274 -0.5723 -0.2131
 5569TIP3   OH238121   0.135   1.546  13.028  0.2705 -0.2741  0.2688
 5569TIP3    H138122   0.116   1.508  12.943  0.3805 -1.3394  0.7019
 5569TIP3    H238123   0.229   1.561  13.027  0.3030 -0.4662  0.2618
 5570TIP3   OH238124   5.586   4.355  14.785 -0.1857  0.1522  0.0755
 5570TIP3    H138125   5.634   4.365  14.867  1.0616 -0.8761 -0.4983
 5570TIP3    H238126   5.519   4.423  14.788 -0.3591 -0.0570  2.0683
 5571TIP3   OH238127   3.151   3.674   0.488 -0.0765  0.5838 -0.7514
 5571TIP3    H138128   3.237   3.651   0.452  0.0508 -0.3133  0.0907
 5571TIP3    H238129   3.101   3.705   0.412  0.8217  0.6428 -1.3377
 5572TIP3   OH238130   1.998   6.216  15.679  0.0482  0.1416 -0.0781
 5572TIP3    H138131   2.045   6.132  15.684 -1.8447 -1.1058 -1.7721
 5572TIP3    H238132   1.986   6.242  15.770 -0.7129 -2.2700  0.5860
 5573TIP3   OH238133   4.712   0.659   2.386  0.0609  0.5234  0.8480
 5573TIP3    H138134   4.728   0.632   2.295 -1.2810  2.4954 -0.0604
 5573TIP3    H238135   4.795   0.644   2.431  1.3927  1.2851 -1.2040
 5574TIP3   OH238136   1.960   2.267   1.960  0.0278  0.1574 -0.3075
 5574TIP3    H138137   1.971   2.184   1.913  0.0406  0.4016 -0.7299
 5574TIP3    H238138   1.877   2.255   2.007  0.6009 -0.5441  0.5706
 5575TIP3   OH238139   6.599   5.652   2.642  0.1476 -0.0799  0.8209
 5575TIP3    H138140   6.688   5.688   2.643 -0.1550  0.7458 -0.0169
 5575TIP3    H238141   6.595   5.599   2.562  0.2473 -1.0983  1.4806
 5576TIP3   OH238142   6.377   5.168  13.408 -0.3019  0.1516 -0.0143
 5576TIP3    H138143   6.443   5.102  13.386 -0.1514  0.4937 -0.6202
 5576TIP3    H238144   6.359   5.155  13.501  1.3825  0.7068  0.4277
 5577TIP3   OH238145   0.435   5.323  15.965 -0.1033 -0.9563  0.5202
 5577TIP3    H138146   0.439   5.391  15.898 -0.9635 -1.5728 -0.1802
 5577TIP3    H238147   0.506   5.263  15.942  0.8888 -0.1333  1.3490
 5578TIP3   OH238148   3.271   2.631  17.066 -0.0528 -0.2171  0.8081
 5578TIP3    H138149   3.193   2.685  17.073 -0.6868 -0.5981 -2.1935
 5578TIP3    H238150   3.332   2.682  17.013  0.1338 -1.5453 -0.3097
 5579TIP3   OH238151   0.749   1.452  11.531  0.1724 -0.6806  0.1631
 5579TIP3    H138152   0.789   1.494  11.454  0.8326 -0.7517  0.4582
 5579TIP3    H238153   0.781   1.504  11.605  0.0193 -0.9760  0.4350
 5580TIP3   OH238154   5.919   5.605   0.844 -0.4880 -0.0195  0.1231
 5580TIP3    H138155   5.903   5.616   0.750 -0.0669  1.5133  0.2094
 5580TIP3    H238156   5.832   5.602   0.883 -0.6656 -0.7191 -0.3191
 5581TIP3   OH238157   0.522   3.740   3.731  0.1883  0.4964  0.0958
 5581TIP3    H138158   0.592   3.681   3.701 -0.8607 -1.8428  1.8900
 5581TIP3    H238159   0.465   3.749   3.655 -0.0699 -1.5725 -0.0161
 5582TIP3   OH238160   1.728   4.459  13.445  0.1300  0.3870 -0.1222
 5582TIP3    H138161   1.710   4.441  13.537 -0.2960 -2.1184 -0.6116
 5582TIP3    H238162   1.659   4.520  13.418  0.9521  2.1145  1.4320
 5583TIP3   OH238163   3.184   0.885   0.190  0.6444 -0.6693 -0.3748
 5583TIP3    H138164   3.152   0.895   0.100  0.9765 -1.6921 -0.6224
 5583TIP3    H238165   3.193   0.974   0.222  0.1486 -0.2962 -1.2285
 5584TIP3   OH238166   2.685   0.248   3.775 -0.0103  0.4192  0.1065
 5584TIP3    H138167   2.728   0.212   3.698  0.6436 -1.3270  1.2327
 5584TIP3    H238168   2.753   0.299   3.820 -0.0313  0.3749  0.1894
 5585TIP3   OH238169   3.917   6.128  14.321  0.0415 -0.2290 -0.0773
 5585TIP3    H138170   3.901   6.214  14.361 -0.2674  0.0819 -0.8463
 5585TIP3    H238171   3.956   6.076  14.391  0.4846  0.6212  0.3243
 5586TIP3   OH238172   3.689   0.808  14.233  0.0847 -0.1361 -0.1009
 5586TIP3    H138173   3.761   0.773  14.285  0.6206 -0.5302 -1.0827
 5586TIP3    H238174   3.617   0.747  14.246  0.6916 -1.0765 -0.9879
 5587TIP3   OH238175   1.683   0.743   2.652 -0.0072  0.3582 -0.6813
 5587TIP3    H138176   1.690   0.838   2.657  2.1403  0.2062  0.3950
 5587TIP3    H238177   1.637   0.718   2.733  2.1805  0.3282  0.6176
 5588TIP3   OH238178   3.173   5.612   4.613  0.4532  0.2112 -0.0086
 5588TIP3    H138179   3.202   5.701   4.633  0.8063 -0.1935  1.4542
 5588TIP3    H238180   3.250   5.558   4.631  0.3592 -0.3623 -1.2650
 5589TIP3   OH238181   5.590   5.110  14.805  0.0368  0.4610  0.5853
 5589TIP3    H138182   5.652   5.176  14.833 -0.7730  1.8598 -0.7280
 5589TIP3    H238183   5.617   5.088  14.715  1.1701 -2.1349  1.4676
 5590TIP3   OH238184   4.273   5.035   0.049  0.5751  0.1609 -0.1010
 5590TIP3    H138185   4.239   5.124   0.039 -1.9752 -0.5194  1.5565
 5590TIP3    H238186   4.195   4.980   0.052  1.9547 -1.8471  1.4069
 5591TIP3   OH238187   3.512   1.062  17.047  0.8942 -0.6194  0.0537
 5591TIP3    H138188   3.462   1.087  16.969 -0.0224  0.0851  0.8551
 5591TIP3    H238189   3.603   1.068  17.019  0.5962  0.2278 -0.7954
 5592TIP3   OH238190   0.721   2.117   2.032 -0.0691 -0.1363 -0.3173
 5592TIP3    H138191   0.778   2.150   2.102  0.6269 -0.0163 -0.9250
 5592TIP3    H238192   0.641   2.089   2.077 -0.1913  1.2165  0.3753
 5593TIP3   OH238193   3.249   5.577   2.441  0.1196  0.0842  0.0447
 5593TIP3    H138194   3.270   5.671   2.439  0.6042 -0.0062  0.7851
 5593TIP3    H238195   3.297   5.541   2.367  1.7975  0.0565  1.0957
 5594TIP3   OH238196   0.876   5.793   0.480  0.4851 -0.1874 -0.0596
 5594TIP3    H138197   0.806   5.855   0.504  1.6664  1.2590 -0.2199
 5594TIP3    H238198   0.835   5.707   0.489 -1.1123  0.5836  0.5323
 5595TIP3   OH238199   6.563   0.232  13.433 -0.0721  0.2402  0.3241
 5595TIP3    H138200   6.645   0.204  13.475  0.3857  1.4170  0.2460
 5595TIP3    H238201   6.495   0.194  13.488  0.5110 -0.7327  0.4109
 5596TIP3   OH238202   2.287   2.148   4.122 -0.2507  0.6851  0.0447
 5596TIP3    H138203   2.268   2.159   4.029  1.5209  0.1956 -0.4310
 5596TIP3    H238204   2.237   2.216   4.165 -2.1779  0.0830 -1.1054
 5597TIP3   OH238205   5.502   0.355   4.113 -0.5316 -0.3389 -0.2478
 5597TIP3    H138206   5.429   0.294   4.123  0.5674 -1.6457  0.2672
 5597TIP3    H238207   5.526   0.379   4.203 -2.0468  2.3320 -0.4478
 5598TIP3   OH238208   1.112   2.199  14.556  0.1554 -0.0212 -0.4120
 5598TIP3    H138209   1.143   2.242  14.476 -0.2413  3.1720  1.0332
 5598TIP3    H238210   1.053   2.262  14.597  0.0647 -1.6747  2.2492
 5599TIP3   OH238211   5.811   1.163   5.508 -0.0070 -0.5733 -0.0324
 5599TIP3    H138212   5.892   1.119   5.480  0.7950  0.2006  0.9830
 5599TIP3    H238213   5.759   1.093   5.547  0.0265 -1.1434 -0.9786
 5600TIP3   OH238214   1.529   6.185  10.201  0.0865  0.0193  0.1997
 5600TIP3    H138215   1.435   6.200  10.207 -0.2334 -0.3696 -2.5603
 5600TIP3    H238216   1.541   6.094  10.230 -0.7099 -0.5722 -1.2248
 5601TIP3   OH238217   4.809   5.211  12.627 -0.3075 -0.1954  0.0625
 5601TIP3    H138218   4.720   5.244  12.631 -0.7035 -0.6984 -2.4668
 5601TIP3    H238219   4.811   5.156  12.548  2.7245  1.5045 -1.2618
 5602TIP3   OH238220   5.219   0.873   0.637  0.3445  0.8300 -0.2590
 5602TIP3    H138221   5.262   0.910   0.560  0.3968  0.7774 -0.2554
 5602TIP3    H238222   5.203   0.948   0.694 -0.3309  0.9683 -0.6226
 5603TIP3   OH238223   4.409   2.851  16.964  0.6168 -0.1707 -0.4345
 5603TIP3    H138224   4.318   2.867  16.941  0.3240 -0.6684  0.3264
 5603TIP3    H238225   4.458   2.874  16.885 -0.2391 -0.7266 -1.1490
 5604TIP3   OH238226   4.466   5.160  12.267  0.3034  0.4002  0.2145
 5604TIP3    H138227   4.455   5.099  12.194 -0.6697  2.5021 -1.5054
 5604TIP3    H238228   4.541   5.213  12.242  1.3610 -0.2574  1.8596
 5605TIP3   OH238229   2.656   4.752   4.203  0.0956  0.1218 -0.4525
 5605TIP3    H138230   2.728   4.740   4.266 -0.1705 -0.0555 -0.1798
 5605TIP3    H238231   2.690   4.815   4.140 -0.2213  1.6103  0.8021
 5606TIP3   OH238232   4.724   2.291  13.229  0.5119  0.2540 -0.1406
 5606TIP3    H138233   4.725   2.235  13.307  1.7291  1.0668  0.4607
 5606TIP3    H238234   4.681   2.371  13.258  0.3028  0.2753 -0.5127
 5607TIP3   OH238235   0.889   2.972   0.682 -0.0566  0.1371  0.0309
 5607TIP3    H138236   0.865   3.065   0.679  0.9155  0.4367  0.7102
 5607TIP3    H238237   0.808   2.926   0.702 -0.3948  0.9371  0.5427
 5608TIP3   OH238238   3.976   3.584   1.644 -0.0236  0.0173  0.4473
 5608TIP3    H138239   4.004   3.641   1.571  0.8400 -0.3383  0.4866
 5608TIP3    H238240   3.951   3.502   1.602 -1.0702  0.3437  0.4107
 5609TIP3   OH238241   6.687   0.198   5.848 -0.3166  0.0250 -0.2549
 5609TIP3    H138242   6.687   0.264   5.917 -0.2236  0.3480 -0.5671
 5609TIP3    H238243   6.606   0.148   5.864 -0.9528  0.8897 -0.6670
 5610TIP3   OH238244   5.770   0.734  13.183  0.9315  0.6726 -0.1772
 5610TIP3    H138245   5.691   0.777  13.149  0.4943 -0.8093 -1.1292
 5610TIP3    H238246   5.813   0.698  13.106  1.1381 -0.7929  0.5975
 5611TIP3   OH238247   1.320   1.369  16.309 -0.0932 -0.9862  0.3981
 5611TIP3    H138248   1.312   1.286  16.262 -0.2482 -0.2980 -0.8470
 5611TIP3    H238249   1.237   1.377  16.357 -0.4644 -1.1304 -0.2062
 5612TIP3   OH238250   5.844   4.547   2.445 -0.0865 -0.4218 -0.5470
 5612TIP3    H138251   5.919   4.586   2.401 -1.6148 -0.5635 -3.5506
 5612TIP3    H238252   5.847   4.455   2.421 -0.8701 -0.5515 -0.1927
 5613TIP3   OH238253   5.496   4.760  12.111  0.0833  0.2303 -0.8188
 5613TIP3    H138254   5.486   4.772  12.206  1.5768  1.3715 -0.7582
 5613TIP3    H238255   5.591   4.768  12.096 -0.0241 -0.8884 -2.2974
 5614TIP3   OH238256   2.738   0.191   2.660 -0.1417 -0.0680 -0.1524
 5614TIP3    H138257   2.732   0.161   2.570 -0.6764 -0.5525  0.0430
 5614TIP3    H238258   2.816   0.147   2.694 -0.5616 -0.7576 -0.0568
 5615TIP3   OH238259   2.156   1.600  13.643  0.8995 -0.2363  0.5755
 5615TIP3    H138260   2.065   1.571  13.649  0.5312  0.8153  0.2161
 5615TIP3    H238261   2.187   1.601  13.734  0.0984  0.8002  0.8508
 5616TIP3   OH238262   4.142   0.076  15.103 -0.5179 -0.5763 -0.0494
 5616TIP3    H138263   4.057   0.036  15.123 -0.3505 -1.5190 -1.1256
 5616TIP3    H238264   4.199   0.002  15.082  0.2231  0.1271 -0.5671
 5617TIP3   OH238265   6.284   3.477  16.383 -0.3911 -0.0077 -0.6996
 5617TIP3    H138266   6.281   3.568  16.355 -1.9391  0.2932  0.3365
 5617TIP3    H238267   6.296   3.481  16.478  0.8517 -0.9202 -0.7929
 5618TIP3   OH238268   2.560   6.529  13.698  0.1660 -0.2821  0.7552
 5618TIP3    H138269   2.585   6.453  13.645 -0.8267 -1.4419  1.8819
 5618TIP3    H238270   2.639   6.550  13.748  0.1870 -1.2403  1.1634
 5619TIP3   OH238271   1.664   6.287   4.575  0.3287  0.0338 -0.5215
 5619TIP3    H138272   1.644   6.267   4.484 -1.7396 -0.7483  0.0259
 5619TIP3    H238273   1.720   6.215   4.604  1.6701  0.7124 -1.3592
 5620TIP3   OH238274   1.016   3.909   1.664  0.4285 -0.1838  0.3203
 5620TIP3    H138275   0.999   3.941   1.575 -0.2430 -3.5324 -0.9330
 5620TIP3    H238276   1.095   3.856   1.654  0.4359 -0.4627  1.7763
 5621TIP3   OH238277   5.159   4.906  12.206 -0.3161 -0.3285  0.2464
 5621TIP3    H138278   5.106   4.891  12.128  0.0155 -0.7213  0.0907
 5621TIP3    H238279   5.130   4.991  12.240  0.7367  0.7039 -1.2943
 5622TIP3   OH238280   5.086   4.640   4.200  0.3523  0.3183 -0.3727
 5622TIP3    H138281   5.117   4.661   4.112 -1.1344  0.2335 -0.9555
 5622TIP3    H238282   5.002   4.686   4.207  0.8958  1.1263  1.3884
 5623TIP3   OH238283   6.771   1.162   2.365  0.6328 -0.2201 -0.3089
 5623TIP3    H138284   6.840   1.181   2.301 -0.5126 -0.5004 -1.6699
 5623TIP3    H238285   6.772   1.066   2.373  0.5867 -0.2039 -0.0983
 5624TIP3   OH238286   2.327   4.291  14.887 -0.6037 -0.4917  0.0733
 5624TIP3    H138287   2.272   4.245  14.825  0.5807 -1.0021 -0.6440
 5624TIP3    H238288   2.268   4.318  14.957 -1.4031 -2.8061  0.3647
 5625TIP3   OH238289   5.083   5.556   6.496  0.1928  0.0597  0.2634
 5625TIP3    H138290   5.006   5.611   6.488 -0.0597 -0.5053 -1.8502
 5625TIP3    H238291   5.049   5.467   6.502  0.6613 -0.1805 -0.4817
 5626TIP3   OH238292   2.161   0.578  13.627  0.3367  0.3156  0.2396
 5626TIP3    H138293   2.164   0.614  13.716  0.1261 -0.0979  0.4205
 5626TIP3    H238294   2.088   0.622  13.585 -0.1947 -0.1984  0.5987
 5627TIP3   OH238295   5.969   1.691  13.683  0.0544  0.5529 -0.1145
 5627TIP3    H138296   5.901   1.721  13.623 -1.4302 -0.5493  0.9424
 5627TIP3    H238297   5.985   1.766  13.740 -0.0833  0.8919 -0.5157
 5628TIP3   OH238298   1.348   4.574   3.717 -0.3225 -0.2805 -0.1292
 5628TIP3    H138299   1.336   4.521   3.638 -1.4706 -1.4735  0.7964
 5628TIP3    H238300   1.421   4.533   3.763 -1.2473 -1.1399  0.6150
 5629TIP3   OH238301   6.021   3.159  14.126 -0.0789 -0.4805  0.0790
 5629TIP3    H138302   5.975   3.084  14.165 -0.9326 -0.2546 -0.4687
 5629TIP3    H238303   6.095   3.175  14.185 -0.2101 -1.3963  0.5091
 5630TIP3   OH238304   2.824   2.646   1.595 -0.8002  0.5545 -0.7719
 5630TIP3    H138305   2.906   2.688   1.622 -0.2865 -0.0066 -1.4188
 5630TIP3    H238306   2.756   2.694   1.643  0.0587 -0.6644  1.8757
 5631TIP3   OH238307   2.160   5.646   5.510  0.2737  0.1949  0.3819
 5631TIP3    H138308   2.212   5.645   5.430 -1.1989  0.1425 -0.6111
 5631TIP3    H238309   2.185   5.566   5.556 -0.4001 -0.8928 -1.0738
 5632TIP3   OH238310   0.903   5.250   2.176 -0.6844 -0.4253 -0.4396
 5632TIP3    H138311   0.943   5.315   2.119  0.4621 -0.2101  0.5908
 5632TIP3    H238312   0.884   5.176   2.118  0.0971 -0.0603 -1.1714
 5633TIP3   OH238313   4.301   1.431   3.398  0.1016 -0.1014 -0.9172
 5633TIP3    H138314   4.304   1.513   3.448  2.3602 -0.3134 -0.6141
 5633TIP3    H238315   4.208   1.410   3.393 -0.3572  0.6186  2.1219
 5634TIP3   OH238316   3.703   2.001   5.153  0.1571 -0.2250 -0.1415
 5634TIP3    H138317   3.771   1.949   5.110  0.3710  0.4972 -0.6888
 5634TIP3    H238318   3.638   2.016   5.085  0.0591  0.1533  0.0320
 5635TIP3   OH238319   3.557   5.185  16.130 -0.4170  0.2279  0.2697
 5635TIP3    H138320   3.631   5.126  16.140 -0.1674  0.7709  1.7998
 5635TIP3    H238321   3.526   5.169  16.040  2.4661  1.0741 -0.9837
 5636TIP3   OH238322   3.513   3.195   3.627  0.0801  0.1355 -0.0346
 5636TIP3    H138323   3.556   3.279   3.613  1.1135 -0.5689 -1.3493
 5636TIP3    H238324   3.572   3.131   3.587 -0.2194 -1.3358  1.7245
 5637TIP3   OH238325   1.239   1.659  15.350 -0.4699  0.1326 -0.5608
 5637TIP3    H138326   1.237   1.583  15.408  0.4526 -0.1746 -0.9161
 5637TIP3    H238327   1.330   1.690  15.353 -0.6992  0.8749 -0.8707
 5638TIP3   OH238328   3.056   2.446   5.693  0.0553 -0.1066 -0.0129
 5638TIP3    H138329   3.152   2.446   5.695  0.0808  1.3931  0.8647
 5638TIP3    H238330   3.033   2.537   5.673 -1.1826 -0.2578  0.6293
 5639TIP3   OH238331   1.953   2.650   0.577  0.4897  0.1684  0.6845
 5639TIP3    H138332   1.886   2.706   0.617  0.2518 -0.0577  0.6071
 5639TIP3    H238333   1.962   2.577   0.638  1.3367  0.6585  1.1564
 5640TIP3   OH238334   3.430   5.814  12.124  0.3734  0.8184 -0.3907
 5640TIP3    H138335   3.496   5.883  12.126  0.7463  0.4537  0.2210
 5640TIP3    H238336   3.381   5.825  12.206 -0.6143  1.3540 -1.0372
 5641TIP3   OH238337   2.255   6.060  15.416 -0.0693 -0.3688  0.1946
 5641TIP3    H138338   2.291   6.080  15.329  1.4232  0.6951  1.0104
 5641TIP3    H238339   2.286   6.131  15.472 -2.6147  0.0673  1.2324
 5642TIP3   OH238340   2.500   2.018   4.852 -0.0820 -0.0582 -0.0146
 5642TIP3    H138341   2.504   2.051   4.762 -1.6355  0.0701 -0.0677
 5642TIP3    H238342   2.511   2.096   4.907 -0.2018  0.0233 -0.1059
 5643TIP3   OH238343   2.409   4.744  13.100  0.0508  0.1407  0.1913
 5643TIP3    H138344   2.328   4.716  13.144  0.1282  1.0229  0.9193
 5643TIP3    H238345   2.448   4.808  13.159  0.8715  0.3355 -0.5368
 5644TIP3   OH238346   6.053   0.607   2.985  0.7691 -0.5581  0.2547
 5644TIP3    H138347   6.086   0.622   2.897  1.8176 -0.7218  0.6033
 5644TIP3    H238348   6.093   0.524   3.012 -0.0841 -0.8553  0.6283
 5645TIP3   OH238349   1.781   1.198  13.485  0.1616  0.1336 -0.0476
 5645TIP3    H138350   1.738   1.221  13.402 -1.5785 -3.7243 -0.4274
 5645TIP3    H238351   1.710   1.183  13.546  1.4198  2.6147  2.2265
 5646TIP3   OH238352   0.260   0.796  14.105 -0.0870 -0.2081  0.0044
 5646TIP3    H138353   0.227   0.835  14.024 -0.3457  1.7538  0.9910
 5646TIP3    H238354   0.332   0.740  14.078 -0.4664  0.0502 -1.6164
 5647TIP3   OH238355   3.795   1.220  12.281 -0.3985  0.2185  0.1659
 5647TIP3    H138356   3.739   1.147  12.255  2.0000 -1.9114  0.5062
 5647TIP3    H238357   3.859   1.228  12.210  0.2477  0.9791  0.8090
 5648TIP3   OH238358   1.577   2.673   3.245  0.3122 -0.3490 -0.2915
 5648TIP3    H138359   1.624   2.741   3.196  1.2013 -0.2847  0.6205
 5648TIP3    H238360   1.484   2.693   3.229  0.5673  0.3847 -0.9684
 5649TIP3   OH238361   1.932   5.958   3.840  0.4636 -0.6983 -0.3912
 5649TIP3    H138362   1.913   6.046   3.808 -0.5955 -0.7716 -0.0170
 5649TIP3    H238363   1.896   5.900   3.773  0.7115 -0.8505 -0.3943
 5650TIP3   OH238364   2.248   4.681  13.311 -0.1063 -0.6487  0.2916
 5650TIP3    H138365   2.155   4.666  13.294 -0.6486  0.6858  1.8180
 5650TIP3    H238366   2.269   4.622  13.384  0.5933 -1.8340 -0.8305
 5651TIP3   OH238367   3.841   6.338  11.486  0.3630  0.7806 -0.5529
 5651TIP3    H138368   3.921   6.314  11.438  0.7837  3.9579 -1.6678
 5651TIP3    H238369   3.777   6.355  11.417 -1.3799 -1.6071  0.3269
 5652TIP3   OH238370   0.504   3.517  12.965 -0.2765 -0.1905  0.0225
 5652TIP3    H138371   0.474   3.433  12.998 -1.2132 -1.0132 -2.6297
 5652TIP3    H238372   0.437   3.579  12.993 -0.8081 -0.7591  0.0341
 5653TIP3   OH238373   0.627   4.351   3.075  0.2500 -0.9278 -0.2685
 5653TIP3    H138374   0.543   4.355   3.030 -0.2079 -3.2862  0.2441
 5653TIP3    H238375   0.686   4.307   3.014  0.5578 -1.0728  0.1275
 5654TIP3   OH238376   3.677   0.504  13.424  0.0706 -0.6013  0.9754
 5654TIP3    H138377   3.622   0.558  13.367  1.2726 -0.4751 -0.1032
 5654TIP3    H238378   3.653   0.531  13.513 -0.8491  0.1863  0.5118
 5655TIP3   OH238379   4.769   3.609  16.380  0.6268  0.5483 -0.0147
 5655TIP3    H138380   4.792   3.531  16.430  1.1580  0.3948 -0.4936
 5655TIP3    H238381   4.853   3.645  16.351  0.3826  1.2636  0.1552
 5656TIP3   OH238382   3.002   3.302   4.091  0.0662  0.5789 -0.1323
 5656TIP3    H138383   3.010   3.243   4.166  0.5303  1.1066  0.2426
 5656TIP3    H238384   2.915   3.284   4.056 -0.8784  1.4996  1.5818
 5657TIP3   OH238385   4.203   2.284   0.712 -0.9784  0.0191  0.6528
 5657TIP3    H138386   4.170   2.237   0.636  1.8382  0.8732 -1.2775
 5657TIP3    H238387   4.197   2.221   0.783 -0.2173 -2.2181 -1.1378
 5658TIP3   OH238388   5.175   4.196  14.730  0.3807 -0.0273 -0.7708
 5658TIP3    H138389   5.170   4.289  14.750  1.8710  0.4441 -2.2941
 5658TIP3    H238390   5.092   4.177  14.685 -1.5960 -0.4012  2.7015
 5659TIP3   OH238391   2.794   1.877   2.094 -0.4893 -0.3001 -0.0845
 5659TIP3    H138392   2.827   1.944   2.153 -0.2304  0.4780 -1.0805
 5659TIP3    H238393   2.863   1.811   2.090 -2.5263 -3.2842  4.6680
 5660TIP3   OH238394   6.373   0.119  16.040  0.1926 -0.0023  0.4692
 5660TIP3    H138395   6.288   0.162  16.043  0.1535 -0.0937  2.6306
 5660TIP3    H238396   6.371   0.067  15.960 -0.8503  1.7736 -0.7274
 5661TIP3   OH238397   1.803   5.315   2.292 -0.0088 -0.0077  0.3785
 5661TIP3    H138398   1.864   5.388   2.288 -0.6030  0.4789 -0.0198
 5661TIP3    H238399   1.750   5.324   2.213  0.2160 -1.1453  0.0667
 5662TIP3   OH238400   3.460   6.543  10.551  0.2193  0.1448 -0.4669
 5662TIP3    H138401   3.401   6.477  10.587 -0.9334  1.0465 -0.6756
 5662TIP3    H238402   3.455   6.530  10.456 -1.0584  1.3998 -0.5847
 5663TIP3   OH238403   6.340   6.435   1.524 -0.1676  0.6714 -0.2553
 5663TIP3    H138404   6.356   6.368   1.590 -0.1653  1.3418  0.4328
 5663TIP3    H238405   6.246   6.428   1.505 -0.8996  2.5461  2.1690
 5664TIP3   OH238406   2.550   2.075   4.107  0.7011  0.2112 -0.5676
 5664TIP3    H138407   2.603   2.136   4.160  0.8811 -0.8548  0.5227
 5664TIP3    H238408   2.460   2.107   4.118  0.4705 -1.0869  2.0394
 5665TIP3   OH238409   0.874   4.826   1.020 -0.3674 -0.8179 -0.7906
 5665TIP3    H138410   0.839   4.830   1.109  0.6560  1.5908 -0.4170
 5665TIP3    H238411   0.805   4.784   0.969 -0.7307 -2.7980  1.2060
 5666TIP3   OH238412   5.258   0.180  16.084 -0.0152  0.3827 -0.8067
 5666TIP3    H138413   5.322   0.252  16.089  0.5254 -0.0666 -1.1154
 5666TIP3    H238414   5.178   0.217  16.120  0.3316  1.0603 -0.7055
 5667TIP3   OH238415   6.092   6.308   3.219 -0.1704 -0.4129 -0.3308
 5667TIP3    H138416   6.014   6.254   3.232  0.0647 -1.2451 -2.0598
 5667TIP3    H238417   6.105   6.353   3.303 -2.0989 -0.7724  0.2075
 5668TIP3   OH238418   3.692   5.831   2.013  0.4567  0.0531  0.2156
 5668TIP3    H138419   3.750   5.755   2.016 -0.7623 -0.9727 -0.6875
 5668TIP3    H238420   3.680   5.856   2.104  1.0718 -0.6912  0.5136
 5669TIP3   OH238421   5.100   0.146  13.722 -0.1233 -0.2046  0.0739
 5669TIP3    H138422   5.007   0.145  13.700 -0.1181  1.7110 -0.1901
 5669TIP3    H238423   5.134   0.064  13.686 -1.6471 -0.7959 -0.0771
 5670TIP3   OH238424   2.512   4.373   5.709  0.3246 -0.0847  0.2899
 5670TIP3    H138425   2.470   4.375   5.796  0.1499  0.0758  0.2027
 5670TIP3    H238426   2.490   4.287   5.674 -1.3435  0.5891 -0.4416
 5671TIP3   OH238427   0.023   2.105   6.049  0.2527  0.3100 -0.7529
 5671TIP3    H138428   0.077   2.171   6.092 -0.0527  0.2374 -0.2484
 5671TIP3    H238429   0.084   2.057   5.993  0.7873 -0.0136  0.0918
 5672TIP3   OH238430   6.101   2.826  11.079  0.0596  0.5646  0.2733
 5672TIP3    H138431   6.109   2.732  11.059  0.1074  0.5799  0.2195
 5672TIP3    H238432   6.012   2.848  11.053  0.7352  1.0301 -1.8171
 5673TIP3   OH238433   3.422   1.710  15.942  0.0007  0.0865 -0.4962
 5673TIP3    H138434   3.419   1.775  16.013 -1.3828 -1.7823  1.3009
 5673TIP3    H238435   3.351   1.736  15.883  1.7132  2.1627 -1.7708
 5674TIP3   OH238436   3.081   0.719  16.723  1.0273  0.2590 -0.1117
 5674TIP3    H138437   3.070   0.767  16.805  0.4972 -0.7619  0.4315
 5674TIP3    H238438   3.023   0.764  16.661 -0.7496 -0.6535  0.8227
 5675TIP3   OH238439   0.760   0.553   4.723  0.0001  0.1973 -0.2095
 5675TIP3    H138440   0.692   0.487   4.731 -1.1393  1.3370 -0.1979
 5675TIP3    H238441   0.813   0.543   4.802 -0.5680 -0.2471  0.1200
 5676TIP3   OH238442   3.887   1.761   1.104 -0.4413  0.1384 -0.0780
 5676TIP3    H138443   3.808   1.707   1.102 -1.4722  1.6201 -0.8142
 5676TIP3    H238444   3.860   1.846   1.070  1.2469  0.9994  0.5870
 5677TIP3   OH238445   1.521   4.865  15.175 -0.1319  0.1625  0.6270
 5677TIP3    H138446   1.549   4.834  15.261  3.1497 -0.9715 -0.6864
 5677TIP3    H238447   1.563   4.951  15.166 -2.0476  1.1718  0.8371
 5678TIP3   OH238448   2.052   3.551   4.707 -0.0195  0.1996  0.3267
 5678TIP3    H138449   2.146   3.538   4.697  0.3909  2.2629  0.9992
 5678TIP3    H238450   2.014   3.513   4.628  1.2383 -1.6897  0.5598
 5679TIP3   OH238451   0.164   2.615  17.076 -0.6245 -0.0041  0.4277
 5679TIP3    H138452   0.202   2.695  17.111 -1.6153 -0.7246  3.4408
 5679TIP3    H238453   0.238   2.567  17.040  0.5781  0.6714  1.9055
 5680TIP3   OH238454   2.836   3.870   5.856 -0.3119 -0.0721  0.4231
 5680TIP3    H138455   2.865   3.880   5.947 -2.5293  1.4043  1.0446
 5680TIP3    H238456   2.894   3.928   5.806  1.8877 -1.9822  0.5792
 5681TIP3   OH238457   2.156   2.744   0.020  0.0520 -0.2673  0.2177
 5681TIP3    H138458   2.074   2.761   0.067  2.1126  1.2424  3.6188
 5681TIP3    H238459   2.189   2.830  -0.004  1.6580 -0.6869  0.8320
 5682TIP3   OH238460   4.575   0.538   5.273  0.3093  0.1200 -0.4233
 5682TIP3    H138461   4.605   0.601   5.339  0.5920 -0.7208  0.2779
 5682TIP3    H238462   4.538   0.466   5.325  1.9608 -1.2972 -1.1099
 5683TIP3   OH238463   3.692   5.367  14.738 -0.2243 -0.0410  0.6535
 5683TIP3    H138464   3.784   5.395  14.739 -0.2661  0.0914  0.9615
 5683TIP3    H238465   3.653   5.413  14.812 -0.0240 -1.8650  1.9547
 5684TIP3   OH238466   4.190   1.802   6.796 -0.4129 -0.2180 -0.0079
 5684TIP3    H138467   4.100   1.827   6.816 -0.3476 -0.1223  0.1673
 5684TIP3    H238468   4.243   1.877   6.823 -0.5253  1.0198 -2.8483
 5685TIP3   OH238469   0.768   5.782  13.662 -0.3990  0.1141  0.1674
 5685TIP3    H138470   0.745   5.752  13.574  0.5083  0.6366 -0.2579
 5685TIP3    H238471   0.796   5.873  13.650  2.7054 -0.6907  0.4719
 5686TIP3   OH238472   4.215   3.626   5.483  0.4854  0.1690  0.3752
 5686TIP3    H138473   4.238   3.614   5.575 -1.2798 -0.1548  0.8156
 5686TIP3    H238474   4.124   3.596   5.477  0.3062  0.9209 -1.3152
 5687TIP3   OH238475   5.772   6.468  12.456  0.3469  0.4785  0.0099
 5687TIP3    H138476   5.816   6.519  12.523  0.5987  0.4040 -0.0990
 5687TIP3    H238477   5.683   6.503  12.453  0.4984  0.8621 -0.0159
 5688TIP3   OH238478   1.547   5.165   1.965 -0.0778  0.4181  0.0848
 5688TIP3    H138479   1.593   5.237   2.008  0.7673 -0.5581  0.8624
 5688TIP3    H238480   1.508   5.116   2.036 -0.6912  0.1235 -0.4446
 5689TIP3   OH238481   1.633   0.948   0.766 -0.4504 -0.3077 -0.1383
 5689TIP3    H138482   1.545   0.978   0.789 -0.5249 -1.1941  0.7739
 5689TIP3    H238483   1.691   1.006   0.815 -0.5860 -1.3161  1.2517
 5690TIP3   OH238484   3.562   5.867  14.298  0.1004  1.0247  0.0112
 5690TIP3    H138485   3.600   5.779  14.302 -0.4932  0.7438 -0.3919
 5690TIP3    H238486   3.593   5.902  14.214  0.0431  1.0596  0.0041
 5691TIP3   OH238487   6.103   0.857  13.264  0.2554  0.1618  0.1382
 5691TIP3    H138488   6.170   0.842  13.197  1.4871  1.7830  0.9366
 5691TIP3    H238489   6.048   0.926  13.227 -1.6316 -1.8086 -0.9197
 5692TIP3   OH238490   6.055   4.728   3.859 -0.3848  0.2828 -0.0196
 5692TIP3    H138491   5.966   4.756   3.878 -0.7044 -0.1018 -0.9214
 5692TIP3    H238492   6.064   4.736   3.764  0.0473 -1.1132 -0.1157
 5693TIP3   OH238493   4.776   2.240  15.537  0.4211 -0.0970  0.1625
 5693TIP3    H138494   4.786   2.233  15.442  0.1136 -0.5245  0.1591
 5693TIP3    H238495   4.866   2.243  15.570  0.5385 -0.4248 -0.1134
 5694TIP3   OH238496   2.445   1.028  13.153  0.1100 -0.1522 -0.4956
 5694TIP3    H138497   2.373   0.993  13.100 -0.9313 -0.6991  1.2107
 5694TIP3    H238498   2.412   1.112  13.184  0.7583  0.2124 -0.7669
 5695TIP3   OH238499   3.358   1.731  16.350 -0.1466  0.7118  1.1252
 5695TIP3    H138500   3.395   1.807  16.304  0.2389 -0.0411  0.1523
 5695TIP3    H238501   3.432   1.695  16.400 -0.2330  0.7497  1.2806
 5696TIP3   OH238502   2.399   3.403   5.102 -0.7100  0.9314  0.4727
 5696TIP3    H138503   2.460   3.329   5.098 -0.3282  1.2857 -1.6352
 5696TIP3    H238504   2.362   3.399   5.190  0.7926 -0.5520  1.0984
 5697TIP3   OH238505   6.374   4.512   5.425 -0.4920  0.5132  0.2429
 5697TIP3    H138506   6.370   4.605   5.446 -2.3198  0.3440  0.8879
 5697TIP3    H238507   6.297   4.475   5.469  0.6330 -1.4392  0.6653
 5698TIP3   OH238508   4.450   4.233  16.453  0.1181  0.5691 -0.0696
 5698TIP3    H138509   4.529   4.286  16.435  0.3922  0.4315  0.7044
 5698TIP3    H238510   4.480   4.166  16.515 -0.4584  0.1023 -0.2904
 5699TIP3   OH238511   4.045   1.411   3.498  0.1931  0.1630 -0.2560
 5699TIP3    H138512   4.030   1.357   3.576  0.4857  0.9807  0.3817
 5699TIP3    H238513   4.010   1.497   3.521 -1.2824 -0.0056 -1.6605
 5700TIP3   OH238514   3.887   4.440  13.829  1.3412  0.2896  0.4533
 5700TIP3    H138515   3.890   4.346  13.845  1.0995 -0.1272 -1.6544
 5700TIP3    H238516   3.979   4.467  13.825  1.4623 -0.2403 -0.7663
 5701TIP3   OH238517   4.421   0.279  12.456 -0.7916  0.0994 -0.3450
 5701TIP3    H138518   4.336   0.314  12.480 -0.8953 -1.5705  2.1431
 5701TIP3    H238519   4.484   0.335  12.501 -0.6723  0.3155 -0.7820
 5702TIP3   OH238520   0.287   3.177   2.007 -0.0220  0.3175  0.0200
 5702TIP3    H138521   0.249   3.149   2.091 -1.3832  1.5683 -0.1352
 5702TIP3    H238522   0.372   3.214   2.030 -0.2446  0.3497  0.8197
 5703TIP3   OH238523   1.173   2.675  13.477  0.4700 -0.0521  0.0182
 5703TIP3    H138524   1.154   2.763  13.445  0.5602  0.1070  0.3937
 5703TIP3    H238525   1.125   2.669  13.560 -0.1874 -0.6407 -0.3934
 5704TIP3   OH238526   0.488   1.463   0.963 -0.7757 -0.1923 -0.0623
 5704TIP3    H138527   0.542   1.538   0.989 -0.7359  0.5592 -2.1653
 5704TIP3    H238528   0.456   1.427   1.046 -1.3617  2.5474  1.0051
 5705TIP3   OH238529   2.636   1.976   6.930  0.1305  0.0197 -0.0917
 5705TIP3    H138530   2.720   1.994   6.887 -0.2056  2.8885  0.2696
 5705TIP3    H238531   2.572   1.984   6.860 -0.0860  0.8994  0.1985
 5706TIP3   OH238532   5.435   0.421   2.846 -0.2959 -0.3671 -0.2003
 5706TIP3    H138533   5.449   0.474   2.924 -0.1262 -0.9916  0.2057
 5706TIP3    H238534   5.446   0.331   2.876 -1.2975 -0.6796 -0.7173
 5707TIP3   OH238535   3.249   5.527  15.399  0.0185 -0.1409  0.3962
 5707TIP3    H138536   3.334   5.569  15.412  0.6955 -1.7971  1.6087
 5707TIP3    H238537   3.233   5.536  15.305  0.9609  1.2317  0.3292
 5708TIP3   OH238538   6.382   4.396   4.814 -0.2240 -0.2594 -0.3119
 5708TIP3    H138539   6.406   4.311   4.850  2.1733 -0.8730 -2.8936
 5708TIP3    H238540   6.464   4.445   4.814 -0.7711  0.7421 -1.9775
 5709TIP3   OH238541   1.010   3.789  13.669 -0.1366 -0.1569  0.1252
 5709TIP3    H138542   0.942   3.725  13.646 -1.0190  1.4885 -2.2275
 5709TIP3    H238543   0.999   3.859  13.605  3.1956  0.6428  0.2748
 5710TIP3   OH238544   4.970   3.780  15.759 -0.0694  0.1249  0.0907
 5710TIP3    H138545   4.939   3.857  15.807 -0.3020 -0.8695  1.5952
 5710TIP3    H238546   5.020   3.816  15.686 -3.2353  1.7651 -1.4719
 5711TIP3   OH238547   5.128   0.519   3.599 -0.1779  0.1138 -0.0760
 5711TIP3    H138548   5.064   0.471   3.546  1.6513 -1.0384 -1.3638
 5711TIP3    H238549   5.199   0.457   3.612  1.4776  1.8939 -0.2301
 5712TIP3   OH238550   6.394   6.210  15.179  0.4479  0.5173 -0.3989
 5712TIP3    H138551   6.454   6.146  15.219  0.2623  1.1642  0.9293
 5712TIP3    H238552   6.441   6.239  15.101  0.2742 -1.6849 -1.4219
 5713TIP3   OH238553   0.473   5.728  14.364  0.3539  0.1329  0.4839
 5713TIP3    H138554   0.433   5.657  14.313 -0.8115 -1.2138  3.0474
 5713TIP3    H238555   0.488   5.689  14.450  2.6293  2.1378  1.0873
 5714TIP3   OH238556   4.684   1.245  16.956 -0.1353  0.0401 -0.0494
 5714TIP3    H138557   4.591   1.252  16.933 -0.1042  0.6882 -0.0110
 5714TIP3    H238558   4.730   1.260  16.873 -0.0686 -0.7008 -0.1496
 5715TIP3   OH238559   1.510   3.629  12.848 -0.4990 -0.4817  0.1730
 5715TIP3    H138560   1.507   3.694  12.778 -0.5879 -1.3510 -0.6471
 5715TIP3    H238561   1.475   3.674  12.925 -1.4879  0.1380 -0.6304
 5716TIP3   OH238562   0.366   6.489   5.459 -0.1736  0.5213 -0.4266
 5716TIP3    H138563   0.331   6.578   5.461  0.4819  0.8198 -1.3668
 5716TIP3    H238564   0.388   6.475   5.367  0.7117 -0.2300 -0.1080
 5717TIP3   OH238565   1.506   6.055   3.384  0.6191 -0.5430  0.3197
 5717TIP3    H138566   1.495   6.146   3.357  1.3241 -0.5590 -0.0347
 5717TIP3    H238567   1.420   6.030   3.419 -0.0208 -0.2051 -0.9497
 5718TIP3   OH238568   3.020   4.322  13.479 -0.4003 -0.0306  0.2131
 5718TIP3    H138569   2.955   4.357  13.540 -0.0352 -1.6819  1.6016
 5718TIP3    H238570   2.974   4.254  13.431  0.3324 -1.4843  1.4757
 5719TIP3   OH238571   0.352   5.852  11.750 -0.3294  0.5725  0.2592
 5719TIP3    H138572   0.296   5.920  11.787 -1.0657  0.9572 -1.4994
 5719TIP3    H238573   0.386   5.889  11.669 -0.0177 -0.8153 -0.2800
 5720TIP3   OH238574   2.368   3.103   5.674 -0.0081  0.1775  0.1444
 5720TIP3    H138575   2.278   3.072   5.686  0.1752 -0.3296  0.2212
 5720TIP3    H238576   2.399   3.057   5.595  1.1771 -1.9540  1.7589
 5721TIP3   OH238577   0.614   6.158   5.154  0.0624  0.3326  0.3801
 5721TIP3    H138578   0.644   6.175   5.065  0.7109 -2.7799 -0.1235
 5721TIP3    H238579   0.652   6.073   5.176 -0.7231  0.6368  3.3671
 5722TIP3   OH238580   3.335   2.652   1.269  0.2535  0.1815 -0.4369
 5722TIP3    H138581   3.351   2.741   1.299 -0.3725  0.1076  0.1357
 5722TIP3    H238582   3.422   2.615   1.256  0.5181  0.8437 -0.5983
 5723TIP3   OH238583   1.346   2.840   2.396 -0.0733  0.2100  0.4442
 5723TIP3    H138584   1.388   2.762   2.432 -1.1763 -0.5742  0.0937
 5723TIP3    H238585   1.369   2.910   2.457  1.2619 -0.2999  0.5514
 5724TIP3   OH238586   1.967   1.500   5.176  0.2838  0.0322  0.1146
 5724TIP3    H138587   1.941   1.419   5.132 -1.7199  1.1652 -0.9738
 5724TIP3    H238588   1.996   1.558   5.105 -3.9135  2.2280 -0.1491
 5725TIP3   OH238589   2.480   3.902  11.715  0.3808  0.1549 -0.7705
 5725TIP3    H138590   2.390   3.912  11.746  0.8881  1.0025  0.4874
 5725TIP3    H238591   2.494   3.978  11.658  0.7717  0.8885  0.2652
 5726TIP3   OH238592   4.723   4.507   4.363 -0.0511  0.7368 -0.1629
 5726TIP3    H138593   4.694   4.423   4.328 -0.4839  0.8139  0.0018
 5726TIP3    H238594   4.771   4.485   4.443 -1.3637  0.7187  0.6532
 5727TIP3   OH238595   5.228   1.699   3.213 -0.1870 -0.7723 -0.2343
 5727TIP3    H138596   5.148   1.660   3.177  0.5105 -1.1749 -1.4252
 5727TIP3    H238597   5.202   1.786   3.242 -1.1040 -0.9774 -0.4089
 5728TIP3   OH238598   4.634   4.790   2.954  0.6295 -0.4231 -0.1415
 5728TIP3    H138599   4.687   4.715   2.984  0.4201 -0.2355  0.7136
 5728TIP3    H238600   4.568   4.801   3.021  0.3409  0.2173 -0.5225
 5729TIP3   OH238601   1.874   5.919   3.507 -0.1101  0.8581  0.3965
 5729TIP3    H138602   1.951   5.951   3.553 -0.3904  0.8343  0.8928
 5729TIP3    H238603   1.883   5.953   3.417  0.4206  0.9368  0.4800
 5730TIP3   OH238604   2.445   1.255   5.153  0.2485  0.0739 -0.5559
 5730TIP3    H138605   2.415   1.164   5.148 -0.9324  0.4201 -0.1770
 5730TIP3    H238606   2.373   1.306   5.116  0.4790  0.9347  0.1494
 5731TIP3   OH238607   0.687   0.825   4.675  0.5440 -0.2099  0.0481
 5731TIP3    H138608   0.749   0.896   4.693  0.7472  0.0172 -1.4573
 5731TIP3    H238609   0.730   0.746   4.707  2.7187 -0.4163 -3.0470
 5732TIP3   OH238610   0.044   0.294  13.224 -0.2872 -0.2184 -0.7453
 5732TIP3    H138611   0.019   0.344  13.302  1.1298 -0.9562  0.2207
 5732TIP3    H238612   0.030   0.354  13.151 -3.1474 -0.0076 -0.1513
 5733TIP3   OH238613   1.596   6.408   2.408  0.8381 -0.1790  0.0227
 5733TIP3    H138614   1.633   6.453   2.332  1.9839  0.0394  0.6819
 5733TIP3    H238615   1.611   6.315   2.390  2.0972 -0.0772  0.4490
 5734TIP3   OH238616   0.140   2.095  16.617  0.1213 -0.0444 -0.2812
 5734TIP3    H138617   0.132   2.001  16.606 -0.2060  0.0450 -0.8469
 5734TIP3    H238618   0.052   2.125  16.636  0.1990  0.1641 -0.2429
 5735TIP3   OH238619   1.206   4.893  10.983 -0.0411  0.1380 -0.3467
 5735TIP3    H138620   1.156   4.814  11.002 -1.1845  1.2793  1.7806
 5735TIP3    H238621   1.187   4.912  10.891 -1.7379 -0.7213 -0.2100
 5736TIP3   OH238622   4.670   4.311   0.287 -0.1665 -0.0722 -0.2854
 5736TIP3    H138623   4.741   4.283   0.230 -0.7212 -0.7159 -0.6747
 5736TIP3    H238624   4.626   4.380   0.238 -0.1399 -0.0505 -0.2785
 5737TIP3   OH238625   6.298   3.917  13.909 -0.4800 -0.0196 -0.0502
 5737TIP3    H138626   6.352   3.849  13.951 -0.2423  0.2346  0.0647
 5737TIP3    H238627   6.333   3.923  13.820 -0.2356  0.2301  0.0611
 5738TIP3   OH238628   5.808   3.117  11.443 -0.0647 -0.3292  0.7575
 5738TIP3    H138629   5.797   3.059  11.368 -2.1424 -0.3317  1.0064
 5738TIP3    H238630   5.812   3.059  11.519  0.6089 -0.2586  0.7835
 5739TIP3   OH238631   0.440   4.642   1.515 -0.3354 -0.4100 -0.4829
 5739TIP3    H138632   0.421   4.721   1.464  0.1349 -1.6927 -2.7754
 5739TIP3    H238633   0.388   4.574   1.473  0.8292 -1.7447  0.1636
 5740TIP3   OH238634   2.180   4.274   2.162 -0.0255  0.1987 -0.3747
 5740TIP3    H138635   2.128   4.334   2.215  1.1419  0.1476  0.8901
 5740TIP3    H238636   2.116   4.222   2.114 -1.0766  1.9529 -0.9518
 5741TIP3   OH238637   3.097   1.158  13.563 -0.3887  0.1231  0.0088
 5741TIP3    H138638   3.078   1.215  13.638  0.2786 -0.3789  0.5789
 5741TIP3    H238639   3.014   1.154  13.514 -2.0267 -2.2996  2.6001
 5742TIP3   OH238640   1.412   1.783   2.919  0.6045  0.0339 -0.4530
 5742TIP3    H138641   1.442   1.757   3.006 -0.2283  0.1024 -0.1318
 5742TIP3    H238642   1.397   1.877   2.925  0.0545 -0.0442 -0.5136
 5743TIP3   OH238643   3.135   5.214  15.752 -0.2311  0.1853 -0.3132
 5743TIP3    H138644   3.106   5.289  15.804 -1.0487 -0.4417  0.1610
 5743TIP3    H238645   3.197   5.168  15.810 -2.2781 -1.3533  0.7726
 5744TIP3   OH238646   5.400   1.010   3.900 -0.1818  0.8303 -0.0593
 5744TIP3    H138647   5.358   0.993   3.816 -2.8317 -0.2444  1.3692
 5744TIP3    H238648   5.471   0.946   3.905 -0.4313  0.4515 -1.1845
 5745TIP3   OH238649   3.917   6.125  14.620  0.1462 -0.3290 -0.0162
 5745TIP3    H138650   3.916   6.218  14.644  1.2228 -0.7387  1.8250
 5745TIP3    H238651   4.002   6.093  14.652  0.1856 -1.7600 -1.4363
 5746TIP3   OH238652   5.348   0.440  13.070  0.0321 -0.0072 -0.0803
 5746TIP3    H138653   5.346   0.518  13.125  0.1748 -1.5826  2.2716
 5746TIP3    H238654   5.438   0.436  13.037  0.2973  0.2759  0.6000
 5747TIP3   OH238655   0.949   5.002  16.173 -0.3003 -0.5929  0.4573
 5747TIP3    H138656   0.904   5.085  16.152 -0.5470 -0.8968 -0.2525
 5747TIP3    H238657   1.042   5.024  16.167 -0.3345  0.0085  1.8078
 5748TIP3   OH238658   6.765   1.389   1.376  0.0856  0.1586  0.8216
 5748TIP3    H138659   6.685   1.338   1.390 -0.4909  0.8631  0.1301
 5748TIP3    H238660   6.761   1.458   1.443 -0.4687  0.8759  0.0702
 5749TIP3   OH238661   0.592   2.160  16.305  0.2312  0.4453  0.5649
 5749TIP3    H138662   0.653   2.120  16.243  0.4246  1.4310  0.0995
 5749TIP3    H238663   0.628   2.140  16.391 -0.1063 -1.0434  0.3788
 5750TIP3   OH238664   3.904   4.685  14.810  0.2338 -0.6708 -0.1280
 5750TIP3    H138665   3.918   4.616  14.875  1.4604  0.2792  0.6749
 5750TIP3    H238666   3.918   4.643  14.726 -0.1344 -1.6481  0.2876
 5751TIP3   OH238667   5.102   6.083  14.387  0.1971 -0.5093  0.2207
 5751TIP3    H138668   5.153   6.003  14.379 -1.4688 -1.4342 -2.6418
 5751TIP3    H238669   5.046   6.068  14.464  0.8639 -1.4699  0.5403
 5752TIP3   OH238670   1.842   3.131  13.063  0.2677  0.0346  0.4428
 5752TIP3    H138671   1.809   3.045  13.035  1.3299 -0.8021  1.6114
 5752TIP3    H238672   1.848   3.124  13.158  0.5576  1.3529  0.5330
 5753TIP3   OH238673   2.588   3.390  12.877  0.2756  0.2420 -0.6402
 5753TIP3    H138674   2.521   3.338  12.923  1.2219  0.8892  1.5911
 5753TIP3    H238675   2.541   3.470  12.851  0.0847  0.5912  0.6979
 5754TIP3   OH238676   6.642   6.378   1.685  0.4615 -0.3422  0.9215
 5754TIP3    H138677   6.556   6.392   1.724  0.8075  0.0949  1.5544
 5754TIP3    H238678   6.700   6.437   1.733  0.5098  2.0752 -1.8242
 5755TIP3   OH238679   5.302   3.705   4.611  0.0414 -0.2446  0.3122
 5755TIP3    H138680   5.295   3.640   4.541  0.2638 -0.9241  0.9053
 5755TIP3    H238681   5.392   3.737   4.604 -0.0604 -0.0153  0.0335
 5756TIP3   OH238682   3.453   1.649   4.683 -0.0176 -0.7363  0.2263
 5756TIP3    H138683   3.413   1.583   4.627 -1.1545 -0.3487  0.5445
 5756TIP3    H238684   3.541   1.661   4.647 -0.0574 -1.8632 -0.2919
 5757TIP3   OH238685   2.586   4.568  16.998 -0.2773 -0.1530  0.0659
 5757TIP3    H138686   2.605   4.569  16.904 -0.8025 -0.5368 -0.0500
 5757TIP3    H238687   2.557   4.657  17.017 -0.2654 -0.1012 -0.1578
 5758TIP3   OH238688   0.511   5.531   0.137  0.0448 -0.6399  0.0940
 5758TIP3    H138689   0.594   5.488   0.117  0.4982  0.9982 -1.8255
 5758TIP3    H238690   0.535   5.622   0.155 -1.3117 -0.1656 -0.3615
 5759TIP3   OH238691   3.565   4.462  17.178  0.2147  0.1302 -0.0713
 5759TIP3    H138692   3.497   4.412  17.222  1.3748 -0.2418  1.3465
 5759TIP3    H238693   3.551   4.552  17.207 -0.2850  0.2287 -0.5949
 5760TIP3   OH238694   5.214   4.024  12.250 -0.4233  0.0196  0.3292
 5760TIP3    H138695   5.119   4.030  12.247 -0.6134 -1.5703  1.5116
 5760TIP3    H238696   5.242   4.104  12.293 -1.0041  1.5460 -1.9632
 5761TIP3   OH238697   6.696   2.845   0.241  0.1935  0.1890  0.2323
 5761TIP3    H138698   6.756   2.897   0.294  0.5052  0.4653 -0.3764
 5761TIP3    H238699   6.718   2.868   0.151 -2.5404  2.2685 -0.0266
 5762TIP3   OH238700   0.041   4.469   4.134 -0.2984  0.0661 -0.0655
 5762TIP3    H138701  -0.026   4.446   4.198  1.1327  0.1272  1.5097
 5762TIP3    H238702   0.092   4.539   4.176  0.4551  0.3646 -1.4215
 5763TIP3   OH238703   2.667   3.984  16.032  0.6424 -0.0919  0.2698
 5763TIP3    H138704   2.668   4.074  16.000 -0.7195 -0.0383  0.3275
 5763TIP3    H238705   2.744   3.943  15.992  1.7136  1.2826  0.8516
 5764TIP3   OH238706   2.826   1.418   4.457 -0.2639 -0.2403 -0.5674
 5764TIP3    H138707   2.741   1.460   4.472  1.0162  2.2112  0.4506
 5764TIP3    H238708   2.837   1.420   4.362 -0.6086  1.0502 -0.5989
 5765TIP3   OH238709   2.838   6.236   4.133 -0.0132  0.0019  0.0692
 5765TIP3    H138710   2.882   6.179   4.196 -1.3229 -3.0324 -1.5735
 5765TIP3    H238711   2.899   6.240   4.059 -0.6497 -0.7971 -0.5242
 5766TIP3   OH238712   6.167   1.392  13.782  0.2496  0.5733  0.2814
 5766TIP3    H138713   6.244   1.390  13.839 -0.3050  0.3597  1.0383
 5766TIP3    H238714   6.146   1.300  13.766 -1.4482  0.5109  2.3347
 5767TIP3   OH238715   5.728   5.644  14.413  0.3530  0.2301 -0.1109
 5767TIP3    H138716   5.679   5.565  14.388  1.4760 -1.2477  2.0210
 5767TIP3    H238717   5.815   5.612  14.437  0.9850  2.1998  0.4322
 5768TIP3   OH238718   5.959   0.500   3.366 -0.3506  0.1386  0.1973
 5768TIP3    H138719   5.884   0.484   3.308 -0.4486  0.2204  0.3030
 5768TIP3    H238720   5.991   0.412   3.387 -0.1584  0.1161 -0.1888
 5769TIP3   OH238721   3.466   5.970   3.642  0.2127 -0.4954  0.2601
 5769TIP3    H138722   3.466   5.917   3.562  1.3139  0.3299 -0.3305
 5769TIP3    H238723   3.543   5.941   3.690  0.6587  0.3424  0.0717
 5770TIP3   OH238724   5.884   3.904  12.056  0.2091 -0.4513  0.6496
 5770TIP3    H138725   5.900   3.848  11.979 -0.1031 -0.0144  0.2592
 5770TIP3    H238726   5.951   3.971  12.051 -1.2750  1.0397 -0.6606
 5771TIP3   OH238727   2.572   3.331  15.391 -0.2587 -0.2365 -0.3457
 5771TIP3    H138728   2.615   3.246  15.383  2.1310  0.9249 -0.6494
 5771TIP3    H238729   2.637   3.388  15.432 -2.6774  0.8739  2.3112
 5772TIP3   OH238730   3.354   6.352  12.994  0.4807 -0.6873 -0.0318
 5772TIP3    H138731   3.333   6.388  13.080  1.9946 -0.3963  0.2399
 5772TIP3    H238732   3.377   6.429  12.941 -1.4599 -0.7365 -1.0532
 5773TIP3   OH238733   5.522   0.071   1.090 -0.7457 -0.1094 -0.2412
 5773TIP3    H138734   5.435   0.033   1.105 -0.9275  0.6941  0.8313
 5773TIP3    H238735   5.560   0.079   1.178 -0.7280  2.1890 -0.3959
 5774TIP3   OH238736   2.286   5.360  10.385  0.1503 -0.1767 -0.7391
 5774TIP3    H138737   2.295   5.423  10.456  1.2721 -0.0962 -0.9360
 5774TIP3    H238738   2.232   5.290  10.422  0.7700 -0.1725  0.2181
 5775TIP3   OH238739   3.007   6.684   3.486  0.1951  0.0342 -0.3054
 5775TIP3    H138740   2.993   6.778   3.473  0.5373 -0.0753 -1.6312
 5775TIP3    H238741   3.002   6.672   3.580 -2.4818  0.9524 -0.2564
 5776TIP3   OH238742   1.523   0.029   1.653  0.9119  0.5807  0.2468
 5776TIP3    H138743   1.474  -0.040   1.609  0.0352  0.8090  0.8300
 5776TIP3    H238744   1.613  -0.005   1.659  0.3405 -0.8482  1.2179
 5777TIP3   OH238745   4.962   3.072  13.839  0.0426 -0.2656  0.1456
 5777TIP3    H138746   4.980   3.163  13.864  1.3266 -0.7227  0.9366
 5777TIP3    H238747   4.869   3.059  13.861 -0.4795  1.1606 -1.0040
 5778TIP3   OH238748   0.485   0.347  16.192  0.2641 -0.8534 -0.5848
 5778TIP3    H138749   0.485   0.391  16.277  0.4927  0.5601 -1.2929
 5778TIP3    H238750   0.455   0.258  16.211 -3.0267  0.3538  0.5346
 5779TIP3   OH238751   1.975   1.001  16.600 -0.1215  0.3709 -0.0311
 5779TIP3    H138752   2.014   0.914  16.604  1.9022  1.2609  1.4415
 5779TIP3    H238753   1.885   0.986  16.573 -0.3304 -2.3474  1.7761
 5780TIP3   OH238754   3.619   4.834  17.005  0.3182  0.0434 -0.0695
 5780TIP3    H138755   3.608   4.921  17.043  0.6743  0.2358 -0.3912
 5780TIP3    H238756   3.538   4.788  17.025  0.4322  0.1961  0.7582
 5781TIP3   OH238757   6.489   1.183  16.531  0.6569  0.2291  0.4856
 5781TIP3    H138758   6.558   1.130  16.492 -1.0905 -1.3276 -0.6302
 5781TIP3    H238759   6.448   1.125  16.595  0.5204  1.2201  1.3141
 5782TIP3   OH238760   1.622   2.665   5.863  0.6384 -0.1005 -0.1350
 5782TIP3    H138761   1.532   2.632   5.861  0.4629 -0.0929  2.9941
 5782TIP3    H238762   1.674   2.589   5.890  1.2784  0.3580 -0.0680
 5783TIP3   OH238763   3.429   5.045   0.250 -0.4279 -0.4939  0.1827
 5783TIP3    H138764   3.428   5.141   0.256  0.9551 -0.4801  0.4501
 5783TIP3    H238765   3.470   5.017   0.332 -0.4855 -1.3005 -0.0597
 5784TIP3   OH238766   4.637   3.175  15.124  0.2935  0.3411  0.9289
 5784TIP3    H138767   4.636   3.147  15.216 -0.1931  0.1643  0.8688
 5784TIP3    H238768   4.571   3.244  15.119 -0.8803 -0.7922  0.3507
 5785TIP3   OH238769   4.157   5.168  12.256 -0.0839  0.3021 -0.2889
 5785TIP3    H138770   4.232   5.219  12.288  0.0917 -0.0692 -0.1087
 5785TIP3    H238771   4.110   5.143  12.336 -0.2065  0.2347 -0.3832
 5786TIP3   OH238772   2.721   3.693   6.466  0.4641  0.2459  0.8392
 5786TIP3    H138773   2.809   3.687   6.502  0.5641 -1.7309  0.4126
 5786TIP3    H238774   2.719   3.775   6.418  1.3317  1.4063  2.6931
 5787TIP3   OH238775   5.953   3.808  15.133  0.3836  0.3628 -0.2313
 5787TIP3    H138776   5.993   3.849  15.057 -1.5242  0.5348 -1.2268
 5787TIP3    H238777   5.862   3.791  15.105 -0.0325 -0.6699  1.5980
 5788TIP3   OH238778   1.409   1.996  13.946 -0.1512 -0.1369 -0.0798
 5788TIP3    H138779   1.439   2.063  13.884  0.7941 -0.4348  0.0349
 5788TIP3    H238780   1.430   1.913  13.904 -1.0447 -0.3695 -0.0879
 5789TIP3   OH238781   2.987   6.391  15.769  0.1363 -0.9566  0.3700
 5789TIP3    H138782   2.909   6.381  15.823  0.0712  0.6402  0.6194
 5789TIP3    H238783   2.967   6.464  15.711  0.8304 -1.5930 -0.7035
 5790TIP3   OH238784   0.655   5.163  12.456 -0.5616  0.2247 -0.4708
 5790TIP3    H138785   0.697   5.249  12.453  0.3850 -0.2357 -1.2457
 5790TIP3    H238786   0.705   5.115  12.522  1.0670 -0.7376 -2.2705
 5791TIP3   OH238787   3.856   6.192  13.378 -0.0487  0.3865 -0.6019
 5791TIP3    H138788   3.865   6.225  13.467 -0.6081  1.0688 -0.7895
 5791TIP3    H238789   3.825   6.267  13.328  0.4160  0.0533 -1.4088
 5792TIP3   OH238790   2.639   6.503   4.738 -0.1559 -0.0121 -0.2739
 5792TIP3    H138791   2.567   6.534   4.684 -0.5040 -0.0175  0.1903
 5792TIP3    H238792   2.685   6.441   4.682  0.6976  1.4757 -1.3162
 5793TIP3   OH238793   2.595   2.207   2.721 -0.1961 -0.2498 -0.8561
 5793TIP3    H138794   2.582   2.273   2.788 -0.6892  0.0927 -1.2861
 5793TIP3    H238795   2.670   2.155   2.752  0.8522  1.1253 -1.0011
 5794TIP3   OH238796   6.714   3.822  12.158  0.1336  0.3445 -0.2906
 5794TIP3    H138797   6.734   3.770  12.236  0.5729 -0.1921 -0.7440
 5794TIP3    H238798   6.793   3.813  12.104  0.7634  2.5867  0.1829
 5795TIP3   OH238799   3.565   3.988  15.840 -0.1460 -0.0390  0.3217
 5795TIP3    H138800   3.631   4.058  15.834 -0.0458 -0.1178  0.5113
 5795TIP3    H238801   3.575   3.940  15.757 -0.1702  0.1297  0.2193
 5796TIP3   OH238802   4.640   5.707  11.577  0.1409 -0.3155 -0.1508
 5796TIP3    H138803   4.645   5.638  11.643 -1.6932 -0.2029  0.1477
 5796TIP3    H238804   4.567   5.682  11.520 -0.2571  1.1182 -0.3164
 5797TIP3   OH238805   6.262   5.175   6.274  0.3321  0.5835 -0.0863
 5797TIP3    H138806   6.173   5.200   6.251 -0.3463 -0.6779  1.0781
 5797TIP3    H238807   6.312   5.257   6.267 -0.5986  1.0404 -2.0634
 5798TIP3   OH238808   1.704   3.886   3.101 -0.2232  0.1394  0.1123
 5798TIP3    H138809   1.781   3.882   3.044 -1.5141 -0.4728 -1.6940
 5798TIP3    H238810   1.728   3.834   3.177  2.1252  2.2373  0.9341
 5799TIP3   OH238811   0.627   6.614  16.911 -0.2529 -0.2022  0.0654
 5799TIP3    H138812   0.599   6.693  16.958  2.1009  0.1103  1.1034
 5799TIP3    H238813   0.719   6.629  16.892  0.2280 -2.6293  0.1285
 5800TIP3   OH238814   3.474   1.895   4.348  0.3637  0.0462 -0.0451
 5800TIP3    H138815   3.544   1.959   4.361 -1.2870  1.5792  1.9536
 5800TIP3    H238816   3.452   1.903   4.255  2.9335 -0.6852 -0.8022
 5801TIP3   OH238817   5.399   2.093  13.137  0.2604  0.3573 -0.0296
 5801TIP3    H138818   5.407   2.186  13.117 -1.4188 -0.0062 -3.1507
 5801TIP3    H238819   5.445   2.050  13.064  0.0843 -1.2520  0.7785
 5802TIP3   OH238820   5.076   0.452  12.145  0.5034  0.0627  0.0876
 5802TIP3    H138821   5.088   0.547  12.140  0.0244  0.2189  1.5171
 5802TIP3    H238822   5.082   0.422  12.054  1.4464  1.3584 -0.2997
 5803TIP3   OH238823   0.280   2.180  15.632 -0.3076  0.3502  0.2894
 5803TIP3    H138824   0.279   2.165  15.537  0.3952  0.2304  0.2941
 5803TIP3    H238825   0.318   2.100  15.668 -1.8088 -0.1688  0.7929
 5804TIP3   OH238826   4.091   0.212   1.889  0.0824  0.1640 -0.0738
 5804TIP3    H138827   4.029   0.170   1.949 -0.8082  0.5757 -0.6853
 5804TIP3    H238828   4.040   0.280   1.845  0.6248 -0.3169 -1.5174
 5805TIP3   OH238829   5.006   5.828   4.875  0.0103  0.1848 -0.5586
 5805TIP3    H138830   5.039   5.747   4.914 -0.1380  0.0204 -0.7766
 5805TIP3    H238831   5.002   5.810   4.781  1.7852  1.0495 -0.8536
 5806TIP3   OH238832   3.688   5.996   6.697  0.2197  0.0571  0.0795
 5806TIP3    H138833   3.744   6.051   6.642 -0.1244 -1.0448 -1.4192
 5806TIP3    H238834   3.621   6.056   6.731  0.7941  0.8707 -0.2129
 5807TIP3   OH238835   1.310   3.032   0.496  0.3429  0.4935  0.9072
 5807TIP3    H138836   1.315   2.940   0.472  2.0186  0.5248  1.0242
 5807TIP3    H238837   1.233   3.038   0.553  1.1244 -1.1530  2.2148
 5808TIP3   OH238838   0.835   3.351   3.112 -0.2751 -0.4084 -0.2575
 5808TIP3    H138839   0.768   3.298   3.069 -2.1129  1.3660  0.2439
 5808TIP3    H238840   0.814   3.441   3.087  1.1567  0.3079  0.9682
 5809TIP3   OH238841   3.749   5.280   1.069  0.4799  0.1874 -0.3609
 5809TIP3    H138842   3.697   5.239   1.000  1.3335 -0.9200 -0.3772
 5809TIP3    H238843   3.722   5.236   1.150  2.4286 -1.5463 -0.5621
 5810TIP3   OH238844   4.837   0.609   0.545  0.2468  0.0381 -0.0608
 5810TIP3    H138845   4.871   0.660   0.472 -0.7956  0.3194 -0.3668
 5810TIP3    H238846   4.912   0.595   0.602  1.5061 -1.7051 -2.0228
 5811TIP3   OH238847   1.354   6.356   5.472  0.6402  0.5100  0.5447
 5811TIP3    H138848   1.300   6.359   5.392  2.1944  1.0695 -0.5355
 5811TIP3    H238849   1.403   6.438   5.470 -0.1367  1.0860  2.7464
 5812TIP3   OH238850   2.209   2.308  13.627  0.2179  0.5708  0.5187
 5812TIP3    H138851   2.165   2.301  13.712  0.9974  3.8430  1.3262
 5812TIP3    H238852   2.294   2.267  13.641  0.3735  1.1661  1.3579
 5813TIP3   OH238853   0.037   2.004   0.375 -0.4528  0.1319 -0.2490
 5813TIP3    H138854   0.056   1.985   0.283 -2.0505 -0.9436 -0.3965
 5813TIP3    H238855   0.060   2.097   0.385  0.3080  0.1186 -1.5642
 5814TIP3   OH238856   5.005   4.237  13.061  0.5947 -0.6206  0.7605
 5814TIP3    H138857   5.017   4.156  13.011  0.8960  0.4259 -0.9401
 5814TIP3    H238858   5.037   4.306  13.003  0.6796  0.7007  2.3073
 5815TIP3   OH238859   2.819   4.542   2.653  0.1800 -0.1503  0.3299
 5815TIP3    H138860   2.891   4.581   2.604 -0.8591  0.4148 -0.8305
 5815TIP3    H238861   2.741   4.563   2.600 -1.1535  1.3805  2.7171
 5816TIP3   OH238862   6.742   2.814  14.343  0.9549 -0.7202  0.0853
 5816TIP3    H138863   6.784   2.854  14.420  2.0848 -2.8635  0.6794
 5816TIP3    H238864   6.658   2.781  14.375  0.1864  0.7621 -0.3165
 5817TIP3   OH238865   1.002   4.512   3.679 -0.3836 -0.2785 -0.0826
 5817TIP3    H138866   1.033   4.597   3.711  0.0491 -1.1630  2.0098
 5817TIP3    H238867   1.029   4.510   3.587  1.5227  0.9752  0.3803
 5818TIP3   OH238868   1.650   2.862   1.498 -0.0898  0.3392 -0.0415
 5818TIP3    H138869   1.595   2.783   1.495  0.2515  0.0676  0.5851
 5818TIP3    H238870   1.705   2.855   1.420  0.1076 -0.1730  0.1390
 5819TIP3   OH238871   5.556   4.425  13.210 -0.5177  0.0414 -0.0453
 5819TIP3    H138872   5.651   4.438  13.200 -0.6658  0.7114 -0.7112
 5819TIP3    H238873   5.517   4.496  13.158 -1.3853  1.1872  2.0311
 5820TIP3   OH238874   4.540   1.255   5.331  0.2684  0.3089 -0.3947
 5820TIP3    H138875   4.460   1.209   5.357  1.7304 -1.8621  0.5960
 5820TIP3    H238876   4.563   1.309   5.407 -0.3973  1.1771 -0.7996
 5821TIP3   OH238877   5.772   1.591   2.656 -0.0278 -0.6264  0.2158
 5821TIP3    H138878   5.755   1.511   2.705 -0.7335 -0.2041  0.6740
 5821TIP3    H238879   5.867   1.600   2.658  0.0181 -1.1239  0.6817
 5822TIP3   OH238880   1.541   1.882   5.309  0.1423  0.3091 -0.1574
 5822TIP3    H138881   1.533   1.900   5.215  0.2372  0.4153 -0.1454
 5822TIP3    H238882   1.615   1.936   5.337  1.8880 -1.7599 -0.5399
 5823TIP3   OH238883   6.200   5.806   5.056  0.2733  0.0540 -0.0439
 5823TIP3    H138884   6.216   5.862   4.980  0.2833  2.4064  1.5769
 5823TIP3    H238885   6.105   5.796   5.059  0.1413  1.3164  0.5036
 5824TIP3   OH238886   0.107   0.177   4.588 -0.3833  0.1561  0.1195
 5824TIP3    H138887   0.062   0.260   4.605 -0.8962 -0.2422  0.7698
 5824TIP3    H238888   0.165   0.196   4.514 -2.2154  0.4616 -1.3092
 5825TIP3   OH238889   1.937   6.254  16.463 -0.2832  0.7746 -0.5617
 5825TIP3    H138890   1.889   6.179  16.499  4.8699 -2.8909 -0.2575
 5825TIP3    H238891   1.964   6.304  16.539  0.4192  0.0143 -0.2994
 5826TIP3   OH238892   5.504   0.267   5.329 -0.3427 -0.4622  0.1588
 5826TIP3    H138893   5.495   0.172   5.318  1.4176 -0.5527 -1.0869
 5826TIP3    H238894   5.588   0.277   5.375  1.0515  0.4950 -2.3894
 5827TIP3   OH238895   0.469   6.563  10.977  0.0420  0.1212  0.1391
 5827TIP3    H138896   0.448   6.470  10.983  0.2483 -0.0212 -1.0634
 5827TIP3    H238897   0.488   6.578  10.884 -1.2154  1.6362  0.0818
 5828TIP3   OH238898   4.163   6.477   0.294 -0.8100  0.2090 -0.1502
 5828TIP3    H138899   4.175   6.552   0.236  0.5654 -0.2672 -0.5252
 5828TIP3    H238900   4.102   6.420   0.248 -1.8029  1.0371  0.1031
 5829TIP3   OH238901   3.204   6.738  15.231 -0.0145 -0.1405  0.0177
 5829TIP3    H138902   3.297   6.718  15.223 -0.1762 -1.3457  0.8229
 5829TIP3    H238903   3.167   6.717  15.146  0.3900  0.0415 -0.2063
 5830TIP3   OH238904   0.522   4.438  14.100 -0.5897 -0.3601  0.5820
 5830TIP3    H138905   0.564   4.460  14.183  0.7243 -2.2758  0.4893
 5830TIP3    H238906   0.526   4.518  14.048  0.1070  0.3696  1.7397
 5831TIP3   OH238907   0.791   6.502  14.806  0.0667  0.1284  0.1422
 5831TIP3    H138908   0.811   6.417  14.845 -3.1606 -0.9611 -0.2679
 5831TIP3    H238909   0.811   6.491  14.713 -2.5908 -1.1495 -0.3747
 5832TIP3   OH238910   2.216   3.731   4.925 -0.3151 -0.5866  0.5398
 5832TIP3    H138911   2.200   3.713   4.832 -0.7665 -0.4602  0.5903
 5832TIP3    H238912   2.161   3.807   4.944  0.7201  0.1640  0.6021
 5833TIP3   OH238913   5.449   0.016  16.195  0.0590  0.3970 -0.2256
 5833TIP3    H138914   5.400   0.096  16.175 -0.7616  0.1593  0.7425
 5833TIP3    H238915   5.522   0.017  16.134 -0.4868  1.3856 -0.8990
 5834TIP3   OH238916   0.514   6.466  12.350 -0.4658  0.4459 -1.0655
 5834TIP3    H138917   0.473   6.505  12.427 -1.0334  0.2986 -1.2823
 5834TIP3    H238918   0.508   6.533  12.283 -1.1601  0.1088 -1.3503
 5835TIP3   OH238919   3.416   4.674  16.540  0.9187  0.2879 -0.1616
 5835TIP3    H138920   3.484   4.729  16.580  1.5653  0.2676 -1.1987
 5835TIP3    H238921   3.388   4.722  16.463  1.6454 -0.8939 -1.2061
 5836TIP3   OH238922   2.934   1.165  15.983  0.2025  0.0565 -0.2471
 5836TIP3    H138923   2.884   1.173  16.065 -0.5512  1.0098 -0.7788
 5836TIP3    H238924   3.002   1.232  15.990  0.6029 -0.3691 -0.0778
 5837TIP3   OH238925   6.249   1.010  14.886 -0.0273 -0.3211 -0.7548
 5837TIP3    H138926   6.313   0.950  14.925 -0.8973 -0.8739 -0.1518
 5837TIP3    H238927   6.294   1.046  14.809  1.5428  0.3881  0.4301
 5838TIP3   OH238928   4.055   3.659   2.960 -0.9711 -0.1922 -0.0619
 5838TIP3    H138929   4.085   3.570   2.977 -1.9798 -0.5591 -0.1164
 5838TIP3    H238930   3.974   3.647   2.909 -0.9146  0.7622 -0.3870
 5839TIP3   OH238931   2.281   4.292   3.732 -0.1095  0.3452  0.1970
 5839TIP3    H138932   2.244   4.353   3.669  0.4901  0.4998 -0.0198
 5839TIP3    H238933   2.319   4.349   3.800  0.0415  0.2051  0.2303
 5840TIP3   OH238934   2.858   6.626  13.703 -0.0094  0.6194 -0.2717
 5840TIP3    H138935   2.800   6.687  13.748  0.9763  0.5897  1.1000
 5840TIP3    H238936   2.926   6.681  13.665  1.4015  0.3651  1.7596
 5841TIP3   OH238937   4.349   0.900  15.096  0.0692  0.9447  0.5776
 5841TIP3    H138938   4.274   0.926  15.150  0.9451  0.4337  2.0950
 5841TIP3    H238939   4.410   0.973  15.102  0.0633  1.0004  0.0353
 5842TIP3   OH238940   1.164   2.974   3.944 -0.1082 -0.1089  0.2539
 5842TIP3    H138941   1.087   2.928   3.978 -0.4745  1.0174  1.0077
 5842TIP3    H238942   1.169   2.949   3.852 -0.6062 -1.2110  0.5092
 5843TIP3   OH238943   6.795   5.057  10.027 -0.8651 -0.1589  0.3604
 5843TIP3    H138944   6.781   4.992  10.096  0.9953 -0.1685  0.7723
 5843TIP3    H238945   6.720   5.116  10.035 -1.2459 -0.7733  1.6777
 5844TIP3   OH238946   4.398   2.571  15.243 -0.0825  0.1769 -0.2911
 5844TIP3    H138947   4.490   2.572  15.217 -0.4968 -0.1687 -1.8875
 5844TIP3    H238948   4.372   2.479  15.240 -0.4095  0.2400  0.4303
 5845TIP3   OH238949   4.504   1.157  11.380 -0.0541  0.6101  0.0763
 5845TIP3    H138950   4.496   1.250  11.357  1.1650  0.3635 -1.4892
 5845TIP3    H238951   4.427   1.116  11.339 -0.3701  0.8646  0.4106
 5846TIP3   OH238952   6.644   4.277   5.798 -0.2510  0.0871 -0.1716
 5846TIP3    H138953   6.723   4.280   5.744  0.2489 -1.0848  0.4793
 5846TIP3    H238954   6.674   4.253   5.885 -1.4118 -1.3416 -0.1232
 5847TIP3   OH238955   1.498   4.844  16.202 -0.2100  0.4681 -0.8882
 5847TIP3    H138956   1.425   4.899  16.172 -1.0087 -0.5864 -0.9688
 5847TIP3    H238957   1.571   4.867  16.145 -0.8100  0.7668 -1.5551
 5848TIP3   OH238958   4.645   1.410   1.031  0.6331  0.1213  0.5247
 5848TIP3    H138959   4.658   1.353   0.956 -1.0085  2.4323 -1.7116
 5848TIP3    H238960   4.640   1.498   0.994 -1.6477  1.2781  3.1499
 5849TIP3   OH238961   1.362   5.016   3.565  0.7200 -0.1931 -0.0428
 5849TIP3    H138962   1.387   5.108   3.574  1.3457 -0.2872 -0.7283
 5849TIP3    H238963   1.441   4.973   3.535  0.0169 -0.6972 -1.2111
 5850TIP3   OH238964   3.738   6.651  16.128 -0.0671  0.2449 -0.4128
 5850TIP3    H138965   3.730   6.598  16.048  3.4166 -2.4215  0.7703
 5850TIP3    H238966   3.709   6.593  16.198  0.2688  1.2687  0.5981
 5851TIP3   OH238967   5.831   1.340  14.984 -0.5820 -0.0887 -0.3222
 5851TIP3    H138968   5.827   1.348  15.079 -0.7303  0.8825 -0.3994
 5851TIP3    H238969   5.764   1.275  14.963 -0.6683 -0.1812  0.2215
 5852TIP3   OH238970   2.229   5.650   2.368  0.3008  0.4774  0.0452
 5852TIP3    H138971   2.244   5.735   2.409  1.5945  1.4218 -2.2316
 5852TIP3    H238972   2.309   5.600   2.386  0.3673  0.4641 -0.2787
 5853TIP3   OH238973   2.576   5.944  11.836 -0.2083  0.7596  0.3247
 5853TIP3    H138974   2.626   5.993  11.771 -1.6917  0.6598 -0.9478
 5853TIP3    H238975   2.594   5.852  11.816 -1.6652  0.6921 -0.8293
 5854TIP3   OH238976   3.205   0.944  16.193 -0.0183  0.6119  0.4625
 5854TIP3    H138977   3.201   0.849  16.192  1.5649  0.5115  0.4208
 5854TIP3    H238978   3.169   0.969  16.278 -0.9093  0.0247  0.2722
 5855TIP3   OH238979   2.435   2.112  11.941 -0.2225  0.3333 -0.3830
 5855TIP3    H138980   2.438   2.066  12.025 -1.5187 -1.8293 -1.4326
 5855TIP3    H238981   2.447   2.204  11.964 -0.7692 -0.1461  2.1977
 5856TIP3   OH238982   1.217   4.306  13.640 -0.1214  0.5830 -0.0017
 5856TIP3    H138983   1.279   4.268  13.702 -0.8198 -0.3419  0.1466
 5856TIP3    H238984   1.139   4.326  13.692 -0.7922 -0.3985 -0.5976
 5857TIP3   OH238985   3.716   4.378   0.903 -0.3022 -0.5180  0.3463
 5857TIP3    H138986   3.725   4.372   0.807  0.6147 -2.8469  0.5077
 5857TIP3    H238987   3.621   4.383   0.917 -0.5288 -1.3092 -0.6835
 5858TIP3   OH238988   5.682   3.422  12.594  0.3235  0.6498  0.2425
 5858TIP3    H138989   5.744   3.349  12.599  0.9609  1.1571 -0.0496
 5858TIP3    H238990   5.736   3.500  12.605 -0.0945  1.1651 -1.0833
 5859TIP3   OH238991   6.357   6.203  16.790  0.7913 -0.1850 -0.0776
 5859TIP3    H138992   6.360   6.289  16.748  0.4851 -0.1376 -0.0072
 5859TIP3    H238993   6.304   6.216  16.868  0.8577 -0.4069  0.0064
 5860TIP3   OH238994   4.636   2.879  14.150 -0.0157 -0.6437 -0.4001
 5860TIP3    H138995   4.701   2.814  14.121 -0.1534 -1.2160  0.5409
 5860TIP3    H238996   4.684   2.935  14.210 -0.3287 -0.9382  0.1317
 5861TIP3   OH238997   6.676   1.862   4.355  0.6669 -0.1554 -0.8219
 5861TIP3    H138998   6.713   1.807   4.425  0.3699  1.5524  0.7572
 5861TIP3    H238999   6.591   1.822   4.336  0.0581  0.1963  0.9380
 5862TIP3   OH239000   6.488   5.265   2.488 -0.4495  0.0309 -0.2202
 5862TIP3    H139001   6.520   5.186   2.533  1.5367 -0.3073 -2.0632
 5862TIP3    H239002   6.556   5.331   2.503  0.3909 -0.1466 -2.7126
 5863TIP3   OH239003   1.379   0.811   2.817  0.4987 -0.4752  0.3348
 5863TIP3    H139004   1.339   0.844   2.737 -0.2462  0.3552  1.0323
 5863TIP3    H239005   1.364   0.879   2.882  2.5612 -0.3762  0.7920
 5864TIP3   OH239006   4.013   5.690  16.488  0.2082  0.0797  0.0455
 5864TIP3    H139007   4.009   5.777  16.449  0.0443  0.5205  1.0357
 5864TIP3    H239008   4.086   5.694  16.549 -0.8649  0.0640  1.3692
 5865TIP3   OH239009   6.678   1.697  13.468  0.2640  0.3128 -0.2069
 5865TIP3    H139010   6.588   1.720  13.447  0.4340  0.2890 -1.0176
 5865TIP3    H239011   6.731   1.757  13.416  0.7241  0.5062  0.4688
 5866TIP3   OH239012   4.720   4.485   3.711  0.2185  0.1671  1.2502
 5866TIP3    H139013   4.650   4.549   3.727 -0.3927 -0.0732 -0.2527
 5866TIP3    H239014   4.785   4.533   3.660  0.0200 -0.2326  0.6007
 5867TIP3   OH239015   2.560   3.475   1.991  0.3560 -0.1588  0.1977
 5867TIP3    H139016   2.612   3.396   1.996  1.2476  0.2606 -1.7707
 5867TIP3    H239017   2.514   3.479   2.076  1.5882 -1.8386  0.9889
 5868TIP3   OH239018   2.056   4.703   1.256  0.3323  0.1296  0.1251
 5868TIP3    H139019   2.013   4.773   1.306  0.4201 -0.0496  0.4529
 5868TIP3    H239020   1.984   4.662   1.207  0.0652 -0.3771  0.9172
 5869TIP3   OH239021   0.749   1.432  12.288  0.5918  0.0284 -0.6696
 5869TIP3    H139022   0.696   1.466  12.216 -0.3645  2.0488  0.8981
 5869TIP3    H239023   0.756   1.504  12.350  1.5781 -1.5532  1.1993
 5870TIP3   OH239024   6.067   1.228   4.856 -0.3829  0.3333 -0.1612
 5870TIP3    H139025   6.034   1.303   4.906 -1.5095  1.4651 -2.4791
 5870TIP3    H239026   5.991   1.194   4.810  0.6076 -0.6175 -1.1624
 5871TIP3   OH239027   5.170   4.947  11.190  0.5394 -0.0831  0.3451
 5871TIP3    H139028   5.078   4.937  11.214  0.8825 -2.6697  0.8687
 5871TIP3    H239029   5.168   4.994  11.107 -1.0872  1.9530  1.4399
 5872TIP3   OH239030   3.515   0.772   4.422  0.2347  0.3013 -0.2134
 5872TIP3    H139031   3.422   0.769   4.443 -0.0971 -0.1286 -1.6082
 5872TIP3    H239032   3.519   0.745   4.330  1.7346  0.3351 -0.1777
 5873TIP3   OH239033   4.711   0.511   2.125 -0.0189  0.0922 -0.5417
 5873TIP3    H139034   4.616   0.527   2.126  0.2678  2.4483 -2.3269
 5873TIP3    H239035   4.720   0.426   2.082 -1.3421 -1.2543  1.6385
 5874TIP3   OH239036   1.958   1.556   2.864  0.3369  0.3729  0.2509
 5874TIP3    H139037   1.875   1.518   2.837  0.1220  0.8474  0.2277
 5874TIP3    H239038   1.946   1.650   2.852  1.4692  0.3545 -1.4501
 5875TIP3   OH239039   0.067   2.127  12.310 -0.9562  0.1937 -0.4335
 5875TIP3    H139040   0.010   2.140  12.386  0.2249 -1.8202  0.8946
 5875TIP3    H239041   0.006   2.104  12.239 -1.9198 -1.3423  0.8001
 5876TIP3   OH239042   6.173   3.372   6.034 -0.5212  0.3561  0.2524
 5876TIP3    H139043   6.220   3.302   6.080 -0.2973  0.2564 -0.1302
 5876TIP3    H239044   6.145   3.431   6.104 -0.5949 -0.0456  0.5633
 5877TIP3   OH239045   1.127   3.383  14.799  0.1718  0.3692  0.0383
 5877TIP3    H139046   1.128   3.465  14.848 -0.4430  0.1794  0.3771
 5877TIP3    H239047   1.035   3.354  14.802  0.1358  0.3120 -1.1418
 5878TIP3   OH239048   2.621   6.442  15.033 -0.1132  0.2374  0.1180
 5878TIP3    H139049   2.645   6.362  14.985  0.4593  1.1719 -1.2195
 5878TIP3    H239050   2.526   6.446  15.025 -0.2574 -0.8228  1.0629
 5879TIP3   OH239051   5.872   6.182   3.291  0.6561  0.2901 -0.1553
 5879TIP3    H139052   5.803   6.131   3.248  0.8407  1.2169 -1.6475
 5879TIP3    H239053   5.916   6.120   3.349  0.8222 -1.2279 -1.8213
 5880TIP3   OH239054   5.688   6.577  15.454  0.3758  0.0185  0.7758
 5880TIP3    H139055   5.628   6.645  15.486  1.1235  0.1945  1.8411
 5880TIP3    H239056   5.769   6.591  15.503  1.3286 -0.1873 -0.6759
 5881TIP3   OH239057   0.871   1.356   0.132  0.3477 -0.3608 -0.8389
 5881TIP3    H139058   0.777   1.371   0.123  0.5261  0.5146 -1.3282
 5881TIP3    H239059   0.908   1.442   0.151  1.1398 -0.5525 -1.4476
 5882TIP3   OH239060   4.831   0.139  15.322 -0.3490 -0.0828 -0.3921
 5882TIP3    H139061   4.807   0.061  15.271 -0.8021 -0.3553  0.2258
 5882TIP3    H239062   4.748   0.185  15.335  0.1010  1.3007 -2.0106
 5883TIP3   OH239063   0.014   4.829   4.246  0.2413 -0.1617 -0.2206
 5883TIP3    H139064  -0.015   4.763   4.309 -2.4268 -0.0033 -1.1857
 5883TIP3    H239065   0.045   4.779   4.171 -4.8993 -0.6408 -2.3912
 5884TIP3   OH239066   0.808   1.254  13.060 -0.4313  0.1408  0.0903
 5884TIP3    H139067   0.895   1.293  13.057  0.2945 -1.4591 -1.7151
 5884TIP3    H239068   0.806   1.206  13.142  0.3618  0.2219  0.1619
 5885TIP3   OH239069   1.366   5.531  12.291  0.5597 -0.0892  0.6365
 5885TIP3    H139070   1.384   5.598  12.357 -0.3152  0.7882  0.0271
 5885TIP3    H239071   1.390   5.573  12.208  2.1465 -1.3513  0.3965
 5886TIP3   OH239072   6.398   6.724  10.689 -0.1245 -0.1520 -0.5206
 5886TIP3    H139073   6.403   6.639  10.733  1.5373  0.2753  0.1652
 5886TIP3    H239074   6.414   6.703  10.596 -0.2445 -0.6418 -0.4343
 5887TIP3   OH239075   5.787   5.816  13.678 -0.0941  0.4567 -0.0070
 5887TIP3    H139076   5.867   5.827  13.626 -0.4088  1.9561 -0.2191
 5887TIP3    H239077   5.808   5.745  13.738  0.8280 -0.2669 -1.1328
 5888TIP3   OH239078   5.274   4.503  16.341  0.6739 -0.1632 -0.0989
 5888TIP3    H139079   5.304   4.422  16.300  0.1224 -0.0653 -0.7271
 5888TIP3    H239080   5.281   4.568  16.271 -0.3452 -0.0039 -0.0668
 5889TIP3   OH239081   5.244   1.382   5.662 -0.0935  0.1091 -0.0560
 5889TIP3    H139082   5.327   1.357   5.703 -0.0139 -0.7059 -0.6934
 5889TIP3    H239083   5.252   1.476   5.647  0.5902  0.0921  0.1622
 5890TIP3   OH239084   2.927   6.318  15.051 -0.4246  0.0485  0.0328
 5890TIP3    H139085   2.878   6.276  14.980 -2.1274 -0.7864  1.6151
 5890TIP3    H239086   2.967   6.395  15.011  0.6907 -1.6578 -2.3908
 5891TIP3   OH239087   0.872   0.444   4.509  0.4579  0.1205  0.1442
 5891TIP3    H139088   0.795   0.463   4.562  1.1709 -1.4949  1.9151
 5891TIP3    H239089   0.856   0.487   4.426 -1.1160  2.0885  1.3846
 5892TIP3   OH239090   1.986   4.581   0.635  0.0040  0.2411  0.0340
 5892TIP3    H139091   2.058   4.572   0.573  1.0182  1.6878  0.9458
 5892TIP3    H239092   1.992   4.671   0.666 -2.7001  0.6596 -0.4418
 5893TIP3   OH239093   5.502   6.163   0.603 -0.4822  0.3320  0.3153
 5893TIP3    H139094   5.427   6.201   0.649 -0.3530  1.5502 -0.4497
 5893TIP3    H239095   5.565   6.143   0.672 -1.0340  0.3791  0.8449
 5894TIP3   OH239096   3.848   5.841  15.783 -0.5929 -0.0240  0.5333
 5894TIP3    H139097   3.769   5.788  15.778 -0.8511  0.4074 -0.3886
 5894TIP3    H239098   3.822   5.918  15.834  0.1453 -1.3326  3.0207
 5895TIP3   OH239099   6.348   3.579  13.973 -0.7584 -0.1450  0.0473
 5895TIP3    H139100   6.345   3.593  13.878  0.1463  1.4711  0.2208
 5895TIP3    H239101   6.422   3.518  13.985 -0.0918  0.6039 -0.2016
 5896TIP3   OH239102   1.712   2.561   5.343 -0.0872 -0.3635 -0.3431
 5896TIP3    H139103   1.617   2.546   5.348 -0.0802 -1.4121 -2.3170
 5896TIP3    H239104   1.722   2.624   5.271  0.7517 -0.9561 -0.7530
 5897TIP3   OH239105   5.257   6.412  12.860  0.4917 -0.5943  0.5800
 5897TIP3    H139106   5.217   6.450  12.939 -0.4531 -0.7108  0.1655
 5897TIP3    H239107   5.205   6.447  12.788  0.6247 -1.4017  0.0825
 5898TIP3   OH239108   3.631   0.169   2.611 -0.2569 -0.0256 -0.3175
 5898TIP3    H139109   3.684   0.247   2.626 -1.7539  1.2715 -1.4302
 5898TIP3    H239110   3.573   0.165   2.687 -0.8648  0.5430 -0.7482
 5899TIP3   OH239111   2.915   2.984  10.717  0.6970  0.5952  0.1136
 5899TIP3    H139112   2.828   3.013  10.745  0.8123  0.6790  0.3957
 5899TIP3    H239113   2.903   2.955  10.627  0.4077  0.7473  0.1010
 5900TIP3   OH239114   2.099   1.847  12.201  0.1427 -0.1560 -0.1430
 5900TIP3    H139115   2.056   1.763  12.184 -1.2198  0.9008 -2.4290
 5900TIP3    H239116   2.107   1.887  12.114  1.4243  1.7818  0.8081
 5901TIP3   OH239117   4.822   4.393   2.268  0.4390 -0.0850  0.4850
 5901TIP3    H139118   4.746   4.410   2.213 -0.3613 -1.0394  1.2498
 5901TIP3    H239119   4.785   4.373   2.354  1.5688 -0.4492  0.9059
 5902TIP3   OH239120   2.429   0.880   0.122  0.0254  0.2612 -0.1678
 5902TIP3    H139121   2.506   0.846   0.078 -0.7495 -0.8979 -0.6917
 5902TIP3    H239122   2.403   0.956   0.071  0.5880  0.4257 -0.2115
 5903TIP3   OH239123   3.458   4.841  13.885  0.1687  0.2299  0.2002
 5903TIP3    H139124   3.449   4.747  13.868  0.3220  0.2056  0.2546
 5903TIP3    H239125   3.380   4.864  13.936  0.0763  0.1550  0.0955
 5904TIP3   OH239126   5.457   0.387   1.219  0.6305 -0.1194 -0.1544
 5904TIP3    H139127   5.541   0.423   1.247  0.1707 -0.7100  2.2031
 5904TIP3    H239128   5.478   0.338   1.139  3.0051 -1.9687  1.4317
 5905TIP3   OH239129   1.342   4.352   1.379  0.0641 -0.4843  0.1091
 5905TIP3    H139130   1.308   4.270   1.342  0.4002 -0.6863  0.2447
 5905TIP3    H239131   1.427   4.364   1.336  0.2172 -0.4424  0.4223
 5906TIP3   OH239132   2.638   1.229   1.834 -0.3044 -0.5302  0.7379
 5906TIP3    H139133   2.665   1.262   1.920 -0.1146 -2.8087  1.5983
 5906TIP3    H239134   2.543   1.239   1.833 -0.1201  1.7436  0.1825
 5907TIP3   OH239135   1.763   0.665  13.864  0.3395  0.1097  0.5694
 5907TIP3    H139136   1.795   0.582  13.899 -0.2983  0.3950  1.8481
 5907TIP3    H239137   1.713   0.704  13.935  1.6255  2.1730  0.4341
 5908TIP3   OH239138   1.262   4.888  15.290 -0.1046  0.6006  0.0062
 5908TIP3    H139139   1.353   4.896  15.263  0.3398  0.7638  1.4734
 5908TIP3    H239140   1.224   4.974  15.271  0.1023  0.6035 -0.4037
 5909TIP3   OH239141   4.861   2.984  15.552 -0.3501 -0.0858 -0.3108
 5909TIP3    H139142   4.775   3.000  15.514  0.1581  1.2371 -0.9614
 5909TIP3    H239143   4.865   3.042  15.628 -0.7389 -1.5316  0.8496
 5910TIP3   OH239144   5.985   0.909  13.592  0.2657 -0.2866  0.5442
 5910TIP3    H139145   5.966   0.843  13.658 -1.3056  1.1544  1.6193
 5910TIP3    H239146   5.912   0.903  13.530  1.3877 -1.1823 -0.7244
 5911TIP3   OH239147   3.123   1.139   3.297  0.4400 -0.4997 -0.4245
 5911TIP3    H139148   3.045   1.158   3.348  0.6383  1.1685 -0.6846
 5911TIP3    H239149   3.184   1.210   3.319  1.8329 -1.6786 -0.3409
 5912TIP3   OH239150   1.654   1.787   4.076 -0.5889 -0.1614  0.1119
 5912TIP3    H139151   1.583   1.836   4.118 -0.0941 -0.1446  0.9302
 5912TIP3    H239152   1.702   1.854   4.026 -0.6728 -0.0392  0.1944
 5913TIP3   OH239153   4.142   2.138   4.552 -0.2875  0.0913  0.5645
 5913TIP3    H139154   4.167   2.046   4.544  0.1186 -0.0633  2.9269
 5913TIP3    H239155   4.047   2.138   4.559 -0.3990 -0.0004 -0.6765
 5914TIP3   OH239156   6.442   0.278  12.763 -0.0350 -0.2405  0.0077
 5914TIP3    H139157   6.466   0.305  12.852  0.6336 -0.7139 -0.0188
 5914TIP3    H239158   6.426   0.183  12.771  3.6956 -1.1210 -1.0435
 5915TIP3   OH239159   1.730   3.279  12.501  0.0370 -0.4489  0.3687
 5915TIP3    H139160   1.637   3.301  12.496  0.3781  0.9571 -0.3403
 5915TIP3    H239161   1.775   3.362  12.490  1.3900 -0.9245  2.0078
 5916TIP3   OH239162   1.427   0.213  12.111 -0.1762 -0.2877  0.4925
 5916TIP3    H139163   1.343   0.167  12.117 -0.5193  0.1088 -0.9024
 5916TIP3    H239164   1.458   0.195  12.023 -0.1719  1.8665 -0.0044
 5917TIP3   OH239165   5.996   0.261   4.350 -0.1401 -0.0877 -0.1185
 5917TIP3    H139166   5.986   0.340   4.404  1.1660  0.1833 -0.2345
 5917TIP3    H239167   5.964   0.190   4.405 -1.6713  0.5558 -0.1462
 5918TIP3   OH239168   5.954   5.922   3.762 -0.0595 -0.3433  0.4954
 5918TIP3    H139169   5.980   5.830   3.756  1.0280  0.0441 -2.4699
 5918TIP3    H239170   5.864   5.924   3.730 -0.3020 -0.4178  1.1504
 5919TIP3   OH239171   2.627   6.479   5.073 -0.0837  0.3207 -0.3986
 5919TIP3    H139172   2.623   6.520   4.986  2.2250 -2.2315 -1.8546
 5919TIP3    H239173   2.571   6.402   5.065  0.2875 -0.0318  0.3260
 5920TIP3   OH239174   4.726   4.088   5.877 -0.4070 -0.0981  0.1972
 5920TIP3    H139175   4.676   4.152   5.827 -1.3022 -0.6144  0.4138
 5920TIP3    H239176   4.811   4.084   5.832 -0.1454  1.5821  0.4829
 5921TIP3   OH239177   0.830   2.153  14.547  0.3251  0.5357 -0.1351
 5921TIP3    H139178   0.920   2.183  14.556  0.0939  1.3876 -0.5460
 5921TIP3    H239179   0.784   2.226  14.506 -0.4953  0.0093 -0.1860
 5922TIP3   OH239180   4.917   2.454   2.535 -0.1642  0.0299  0.1963
 5922TIP3    H139181   4.976   2.512   2.585 -0.8025 -0.5046  1.6219
 5922TIP3    H239182   4.893   2.506   2.459  1.0865  0.7708  0.2627
 5923TIP3   OH239183   4.787   0.965   1.135 -0.8879  0.0480  0.2268
 5923TIP3    H139184   4.726   0.994   1.067 -2.4136  0.5098  1.7121
 5923TIP3    H239185   4.732   0.918   1.197  0.8366 -2.3499  0.0667
 5924TIP3   OH239186   3.177   6.563  15.944 -0.0686  0.2747  0.0605
 5924TIP3    H139187   3.107   6.498  15.935 -1.2364  1.5210 -0.2347
 5924TIP3    H239188   3.172   6.614  15.863  0.4121  1.1286  0.5610
 5925TIP3   OH239189   1.597   0.643  12.744 -0.4151  0.5333 -0.0813
 5925TIP3    H139190   1.603   0.634  12.840  0.9795 -0.2751 -0.2166
 5925TIP3    H239191   1.688   0.652  12.715 -0.6899 -0.8217 -1.4697
 5926TIP3   OH239192   3.030   2.831   4.314  0.3755 -0.0342  0.2491
 5926TIP3    H139193   2.974   2.826   4.391 -0.7079  1.5602 -0.3793
 5926TIP3    H239194   2.983   2.888   4.253  2.2360  0.5906 -0.7010
 5927TIP3   OH239195   2.119   0.721   0.979  0.2330  0.2762 -0.2603
 5927TIP3    H139196   2.037   0.765   1.000  0.8417  0.8658  0.9624
 5927TIP3    H239197   2.186   0.788   0.990  0.8387 -0.0536 -1.7752
 5928TIP3   OH239198   0.460   1.637   1.708  0.4784  0.1714  0.2741
 5928TIP3    H139199   0.486   1.596   1.790 -0.2372  1.3806  1.1385
 5928TIP3    H239200   0.419   1.566   1.658 -2.0906  0.0599  2.3228
 5929TIP3   OH239201   2.708   1.069   4.017 -0.0454  0.3180 -0.2261
 5929TIP3    H139202   2.766   1.116   3.957 -0.0778  0.3454 -0.2365
 5929TIP3    H239203   2.711   1.119   4.098 -0.9796  1.0097 -0.5930
 5930TIP3   OH239204   4.400   3.301  14.750  0.5316  0.1323 -0.2973
 5930TIP3    H139205   4.415   3.215  14.709 -0.0181 -0.3774  0.5380
 5930TIP3    H239206   4.432   3.364  14.685  2.3999 -0.7343 -0.2824
 5931TIP3   OH239207   4.331   2.568   1.884 -0.5541 -0.4734  0.5144
 5931TIP3    H139208   4.420   2.538   1.863 -1.0600 -0.9443 -1.0972
 5931TIP3    H239209   4.305   2.514   1.958 -0.0358 -1.3921  0.0491
 5932TIP3   OH239210   2.536   0.978   3.791 -0.1907 -0.2855  0.0104
 5932TIP3    H139211   2.609   0.998   3.849  0.7132 -1.3891 -0.7135
 5932TIP3    H239212   2.460   0.972   3.849  0.3564  0.4526  0.8247
 5933TIP3   OH239213   1.828   0.595  14.266  0.5150  0.0592  0.0961
 5933TIP3    H139214   1.785   0.524  14.220  1.0003 -0.3840  0.3161
 5933TIP3    H239215   1.859   0.653  14.196  0.4515 -0.1388 -0.0967
 5934TIP3   OH239216   4.665   0.202  12.118 -0.1612 -0.0553  0.2587
 5934TIP3    H139217   4.688   0.287  12.155  0.0032 -1.2624  3.1907
 5934TIP3    H239218   4.572   0.209  12.097 -0.1058  0.8852  0.2967
 5935TIP3   OH239219   1.826   0.439  14.004  0.1434 -0.2015  0.3417
 5935TIP3    H139220   1.885   0.371  14.035 -0.4380 -1.2184 -0.7065
 5935TIP3    H239221   1.740   0.397  14.000 -0.1225  0.4178 -0.8554
 5936TIP3   OH239222   4.507   5.158   0.982  0.3034 -0.3709 -0.9390
 5936TIP3    H139223   4.439   5.121   0.925 -0.5255  2.1793 -1.7085
 5936TIP3    H239224   4.588   5.145   0.933  0.1865 -1.9010 -0.7808
 5937TIP3   OH239225   3.425   4.584   3.454  0.3303  0.3183  0.0942
 5937TIP3    H139226   3.427   4.517   3.386  1.1078  0.9947 -0.5821
 5937TIP3    H239227   3.344   4.568   3.502  0.4471 -1.0185 -0.1211
 5938TIP3   OH239228   4.004   6.505  16.126  0.2963  0.0369 -0.0380
 5938TIP3    H139229   3.956   6.579  16.090 -0.8872 -0.8457 -0.3579
 5938TIP3    H239230   3.975   6.430  16.073  1.0977 -0.7298  0.5764
 5939TIP3   OH239231   3.902   1.545  12.183 -0.0957 -0.1630  0.2345
 5939TIP3    H139232   3.810   1.544  12.208  0.4728 -0.4448  2.5049
 5939TIP3    H239233   3.914   1.631  12.143 -1.2645  0.0086  0.2074
 5940TIP3   OH239234   1.008   1.554  12.641 -0.6272  0.2263  0.0685
 5940TIP3    H139235   1.033   1.565  12.733  0.7056  4.5077 -0.6220
 5940TIP3    H239236   1.091   1.544  12.595 -1.2932 -2.0922 -0.8083
 5941TIP3   OH239237   3.370   4.200  11.499 -0.1382  0.2224 -0.9098
 5941TIP3    H139238   3.331   4.274  11.453 -1.5899 -0.1287 -0.2948
 5941TIP3    H239239   3.331   4.123  11.459 -0.4996 -0.1258  0.0874
 5942TIP3   OH239240   0.516   0.204  15.790 -0.6920 -0.0867 -0.3582
 5942TIP3    H139241   0.553   0.279  15.838  2.2292 -1.5011 -0.1994
 5942TIP3    H239242   0.422   0.207  15.810 -0.3824  2.4138  1.1571
 5943TIP3   OH239243   0.947   6.464  13.477 -0.3191  0.1706  0.2263
 5943TIP3    H139244   0.914   6.420  13.555  1.2463 -0.1862  0.7163
 5943TIP3    H239245   0.931   6.557  13.492 -0.9667  0.0153  0.4988
 5944TIP3   OH239246   1.408   2.367  14.845  0.4323 -0.7565 -0.0973
 5944TIP3    H139247   1.317   2.350  14.869  0.5855 -3.3562 -1.0412
 5944TIP3    H239248   1.408   2.365  14.749  1.6464 -1.9956 -0.1014
 5945TIP3   OH239249   1.179   1.860  15.969  0.1308  0.7731 -0.7829
 5945TIP3    H139250   1.237   1.821  15.904 -0.2033  0.8038 -1.1047
 5945TIP3    H239251   1.096   1.872  15.922 -0.4511 -0.2236 -0.0383
 5946TIP3   OH239252   4.353   4.155  12.340  0.1257 -0.0534 -0.6299
 5946TIP3    H139253   4.435   4.159  12.390 -0.4431  0.4840  0.3089
 5946TIP3    H239254   4.377   4.180  12.251  0.5232  3.3902  0.2993
 5947TIP3   OH239255   0.804   0.472  13.496 -0.0142 -0.3168  0.2107
 5947TIP3    H139256   0.738   0.403  13.486  1.1652 -1.2999 -1.0872
 5947TIP3    H239257   0.856   0.445  13.571  1.0040 -1.3713 -0.8288
 5948TIP3   OH239258   2.527   4.650  13.701  0.7138 -0.0802 -0.6713
 5948TIP3    H139259   2.522   4.738  13.664  1.8051 -0.1096 -0.8923
 5948TIP3    H239260   2.513   4.663  13.795  1.2380  0.3781 -0.6533
 5949TIP3   OH239261   2.031   0.601   5.001  0.2550  0.4200 -0.5644
 5949TIP3    H139262   2.120   0.573   5.021  0.0734 -0.0483 -0.4087
 5949TIP3    H239263   2.012   0.562   4.915  0.6053  1.4511 -1.1299
 5950TIP3   OH239264   0.081   0.016   5.119 -0.2536  0.2892  0.0643
 5950TIP3    H139265   0.095   0.095   5.173 -1.1867  0.0865  0.6198
 5950TIP3    H239266   0.111   0.041   5.032  1.3868  0.5964  0.6823
 5951TIP3   OH239267   3.911   3.723  14.698  0.3200 -0.3553  0.3676
 5951TIP3    H139268   3.914   3.735  14.603 -0.1574  0.7818  0.4829
 5951TIP3    H239269   3.964   3.794  14.733  1.2165 -1.2735  0.9374
 5952TIP3   OH239270   0.070   3.506   2.812 -0.5045  0.2745  0.3926
 5952TIP3    H139271   0.115   3.428   2.847 -1.1239  0.5815  1.9485
 5952TIP3    H239272   0.087   3.574   2.877  0.2325  1.5405 -1.0666
 5953TIP3   OH239273   5.788   5.099   5.371 -0.3346  0.4165  0.0727
 5953TIP3    H139274   5.880   5.101   5.348 -1.0112  1.4492 -2.9352
 5953TIP3    H239275   5.779   5.165   5.441  1.1699  0.2716  0.4277
 5954TIP3   OH239276   3.282   2.752  16.047  0.3369 -0.1304  0.2292
 5954TIP3    H139277   3.330   2.780  15.969 -0.0811 -0.5002 -0.1732
 5954TIP3    H239278   3.279   2.656  16.040  0.0703 -0.1476  0.5583
 5955TIP3   OH239279   6.519   2.083   0.670  0.2756 -0.1379  0.4249
 5955TIP3    H139280   6.534   2.013   0.606  1.2101 -0.4460  0.9579
 5955TIP3    H239281   6.424   2.081   0.685  0.1668 -0.6806 -0.2465
 5956TIP3   OH239282   3.131   3.570  15.702 -0.0314 -0.8599 -0.3909
 5956TIP3    H139283   3.183   3.578  15.623  1.2095  1.2149  0.5801
 5956TIP3    H239284   3.146   3.651  15.751 -0.7982 -2.0190  1.9501
 5957TIP3   OH239285   2.346   1.412  11.452  0.4439  0.2816  0.3407
 5957TIP3    H139286   2.304   1.483  11.403  0.1067  0.2034  0.5092
 5957TIP3    H239287   2.428   1.449  11.483 -0.3836  1.0754  1.6534
 5958TIP3   OH239288   2.014   1.085  12.930 -0.0871  0.0284  0.0330
 5958TIP3    H139289   1.949   1.101  12.863 -0.8335  0.1317  0.7646
 5958TIP3    H239290   2.054   1.170  12.947  0.4114 -0.0789 -0.5834
 5959TIP3   OH239291   3.775   3.793  11.833 -0.0156 -0.3263 -0.2620
 5959TIP3    H139292   3.830   3.765  11.906 -0.6111  0.3902  0.4749
 5959TIP3    H239293   3.732   3.713  11.803 -0.0271 -0.5685  0.3950
 5960TIP3   OH239294   3.380   6.684  16.558 -0.3971  0.2481 -0.3316
 5960TIP3    H139295   3.430   6.635  16.493  0.7953 -1.1874  1.5751
 5960TIP3    H239296   3.430   6.765  16.571  0.8823 -0.6710  0.7232
 5961TIP3   OH239297   0.486   0.442  16.529 -0.9892  0.5153 -0.6729
 5961TIP3    H139298   0.391   0.445  16.527 -0.9657  2.8879 -2.6232
 5961TIP3    H239299   0.510   0.478  16.614 -1.8821  2.5480 -1.2189
 5962TIP3   OH239300   1.410   1.997   1.267  0.1062 -0.0018 -0.2489
 5962TIP3    H139301   1.490   1.969   1.311 -0.3381 -1.2373 -0.1689
 5962TIP3    H239302   1.357   1.917   1.261 -1.3600  0.8941  0.1952
 5963TIP3   OH239303   0.803   0.789   4.323 -0.0389  0.3945  0.5059
 5963TIP3    H139304   0.852   0.772   4.403 -0.1809  1.4394  0.8374
 5963TIP3    H239305   0.714   0.761   4.343 -0.0846  0.7014  0.7389
 5964TIP3   OH239306   1.074   4.711   0.279  0.2637 -0.5854  0.3321
 5964TIP3    H139307   1.164   4.700   0.250  0.1897  1.2135 -0.6868
 5964TIP3    H239308   1.029   4.631   0.249  1.1253 -0.6734 -0.7738
 5965TIP3   OH239309   1.444   4.341  11.832  0.6108  0.0338 -0.0887
 5965TIP3    H139310   1.496   4.420  11.817  2.1562 -0.7811  0.7453
 5965TIP3    H239311   1.363   4.357  11.784  1.2517  1.7336 -0.7007
 5966TIP3   OH239312   6.569   5.398  13.846  0.2733  0.4647  0.1570
 5966TIP3    H139313   6.517   5.447  13.782  0.3369 -0.6857 -0.8161
 5966TIP3    H239314   6.646   5.452  13.861 -0.7300  1.7406  0.8936
 5967TIP3   OH239315   6.586   5.936  10.435 -0.2748  0.6255 -0.2376
 5967TIP3    H139316   6.558   5.964  10.522 -0.9628 -1.1016  0.1432
 5967TIP3    H239317   6.658   5.995  10.413  0.3062  0.7541  1.7513
 5968TIP3   OH239318   1.501   1.937   4.237  0.3345  0.8578  0.0791
 5968TIP3    H139319   1.498   1.991   4.316  0.0801 -0.3303  0.8943
 5968TIP3    H239320   1.411   1.911   4.221  0.4588  0.6481 -0.3023
 5969TIP3   OH239321   1.870   1.824   0.881  0.1396 -0.0997 -0.0381
 5969TIP3    H139322   1.861   1.801   0.789  1.2777 -1.4678  0.1547
 5969TIP3    H239323   1.782   1.852   0.908 -0.2970 -0.0752 -1.4088
 5970TIP3   OH239324   6.728   6.741  12.175  0.5858 -1.0512  0.1854
 5970TIP3    H139325   6.802   6.705  12.224 -0.1808  0.6162  2.8204
 5970TIP3    H239326   6.760   6.823  12.139  0.2461 -0.6275  0.8159
 5971TIP3   OH239327   0.144   2.281  14.569  0.2930 -0.8472 -0.7008
 5971TIP3    H139328   0.115   2.318  14.653  0.4949 -0.5097 -0.7786
 5971TIP3    H239329   0.122   2.349  14.504 -1.1699 -1.6733 -1.1221
 5972TIP3   OH239330   4.910   4.516   4.877  0.2609  0.6083 -0.3516
 5972TIP3    H139331   4.986   4.517   4.936  0.4719 -2.6473 -0.3924
 5972TIP3    H239332   4.936   4.573   4.805  1.5475  1.6852  0.8918
 5973TIP3   OH239333   6.337   6.239   4.080 -0.7443 -0.4205 -0.2009
 5973TIP3    H139334   6.430   6.219   4.067 -0.5566  1.1737 -1.6185
 5973TIP3    H239335   6.294   6.200   4.004 -0.9858  0.4604 -0.5175
 5974TIP3   OH239336   1.298   5.355  17.080  0.3883  0.0765 -0.4334
 5974TIP3    H139337   1.315   5.293  17.152 -0.3951 -0.9351 -1.0927
 5974TIP3    H239338   1.374   5.414  17.081  0.6504 -0.2473  0.8738
 5975TIP3   OH239339   1.739   4.727   6.240 -0.9471  0.3139 -0.4084
 5975TIP3    H139340   1.644   4.712   6.235 -0.6289 -1.8643 -1.0154
 5975TIP3    H239341   1.774   4.646   6.275  0.6851  1.2324  0.1577
 5976TIP3   OH239342   2.301   5.753   0.563  0.0809  0.0531 -0.4255
 5976TIP3    H139343   2.380   5.760   0.616 -0.4169  1.9532  0.1559
 5976TIP3    H239344   2.266   5.842   0.560 -1.3504 -0.4967 -1.7502
 5977TIP3   OH239345   5.056   2.926   2.969  0.3276 -1.2123  0.0616
 5977TIP3    H139346   5.091   2.837   2.967  2.1057 -0.5405 -1.6498
 5977TIP3    H239347   5.040   2.948   2.877  0.1440  0.3312  0.4316
 5978TIP3   OH239348   5.572   4.678  12.756  0.2887  0.2649 -0.2567
 5978TIP3    H139349   5.553   4.592  12.792  1.0932 -0.0870 -0.6428
 5978TIP3    H239350   5.526   4.739  12.813  3.4200 -0.0299  2.9389
 5979TIP3   OH239351   5.921   4.717  13.237  0.3452 -0.3613  0.3283
 5979TIP3    H139352   5.906   4.786  13.173  0.2836  1.2640  2.0037
 5979TIP3    H239353   5.896   4.755  13.320  2.0243 -1.7815  1.5845
 5980TIP3   OH239354   2.429   3.968   5.267  0.2574 -0.0690 -0.0274
 5980TIP3    H139355   2.369   3.894   5.263  1.5921 -1.2681  1.0918
 5980TIP3    H239356   2.493   3.951   5.198 -0.2328  0.8182 -0.7229
 5981TIP3   OH239357   6.262   4.026  14.414 -0.7508  0.4880 -0.0948
 5981TIP3    H139358   6.333   3.974  14.377  1.0583  1.7727  1.3850
 5981TIP3    H239359   6.259   4.104  14.359 -0.1363  0.9946  0.5648
 5982TIP3   OH239360   5.834   4.121  13.920 -0.1008 -0.3182  0.1969
 5982TIP3    H139361   5.905   4.064  13.951 -0.2948 -0.2285  0.8201
 5982TIP3    H239362   5.756   4.067  13.925 -0.3053  0.0247  0.9022
 5983TIP3   OH239363   4.744   1.204   4.949 -0.0156  0.5837 -0.9033
 5983TIP3    H139364   4.751   1.274   4.884  0.4154  0.9134 -0.5153
 5983TIP3    H239365   4.768   1.247   5.032 -0.9115  0.2636 -0.4652
 5984TIP3   OH239366   0.972   5.702   5.785 -0.9574  0.2944  0.2310
 5984TIP3    H139367   0.920   5.739   5.713 -1.9649 -1.8881 -0.2528
 5984TIP3    H239368   0.907   5.660   5.842  0.1404 -1.1753  0.4319
 5985TIP3   OH239369   6.105   5.436  14.950  0.2895  0.0574 -0.1304
 5985TIP3    H139370   6.072   5.408  15.035  0.7007  1.0623  0.3613
 5985TIP3    H239371   6.200   5.427  14.956  0.2799 -0.5549 -0.7374
 5986TIP3   OH239372   0.451   1.789   4.108  0.7421 -0.0142 -0.5296
 5986TIP3    H139373   0.422   1.706   4.144 -0.2805  0.0078 -1.2569
 5986TIP3    H239374   0.504   1.765   4.032 -1.8250 -0.0448 -2.4506
 5987TIP3   OH239375   2.114   4.055  15.665 -0.3159 -0.2079 -0.0471
 5987TIP3    H139376   2.046   4.120  15.677 -2.5998 -2.1037 -1.8542
 5987TIP3    H239377   2.169   4.089  15.595 -1.0103  0.1341 -0.4267
 5988TIP3   OH239378   0.446   4.266  16.885 -0.0549 -0.3616  0.1655
 5988TIP3    H139379   0.468   4.334  16.821  0.2175  0.8780  1.5418
 5988TIP3    H239380   0.514   4.199  16.872  0.2096  0.0410 -0.5914
 5989TIP3   OH239381   2.205   0.571   2.512  0.3310  0.2492  0.8160
 5989TIP3    H139382   2.272   0.638   2.509  1.0270 -0.4127 -2.6953
 5989TIP3    H239383   2.124   0.616   2.488  0.4823  0.1805  0.1524
 5990TIP3   OH239384   0.704   3.515   4.945 -0.4475 -0.3906 -0.6014
 5990TIP3    H139385   0.779   3.537   4.890  0.6156  0.0979  0.9726
 5990TIP3    H239386   0.630   3.515   4.885  0.6654  0.0134 -2.0419
 5991TIP3   OH239387   4.604   3.497  12.038  0.3513 -1.3505  0.3279
 5991TIP3    H139388   4.564   3.584  12.040  2.5070 -0.2167 -1.5448
 5991TIP3    H239389   4.532   3.437  12.060 -1.5138  0.7820  0.3904
 5992TIP3   OH239390   6.090   4.114  13.706 -0.0392  0.3294  0.3583
 5992TIP3    H139391   6.158   4.147  13.647  0.3294 -0.4425  0.3282
 5992TIP3    H239392   6.100   4.166  13.786  0.5996  0.2190  0.3564
 5993TIP3   OH239393   6.694   0.455   5.959 -0.3596  0.0980 -0.3657
 5993TIP3    H139394   6.697   0.551   5.965  1.7091  0.0931 -0.4411
 5993TIP3    H239395   6.658   0.427   6.044 -1.7262  0.9407 -0.6462
 5994TIP3   OH239396   5.814   3.478   1.571 -0.5282  0.2922  0.1819
 5994TIP3    H139397   5.805   3.479   1.666  0.8806  2.2428  0.3591
 5994TIP3    H239398   5.905   3.503   1.555 -0.3218 -1.3859 -1.6789
 5995TIP3   OH239399   2.552   1.091   4.774 -0.4863 -0.4317 -0.1980
 5995TIP3    H139400   2.490   1.019   4.786  1.9280 -2.6853 -0.0463
 5995TIP3    H239401   2.637   1.047   4.769  1.0966  2.4486 -0.5076
 5996TIP3   OH239402   0.040   5.545  12.001  0.2212  0.2452  0.3335
 5996TIP3    H139403  -0.014   5.500  12.066  1.3811 -0.2687  0.9731
 5996TIP3    H239404   0.028   5.638  12.021 -2.0375  0.2988 -0.8762
 5997TIP3   OH239405   1.240   5.657   1.924  0.6071 -0.5205 -0.0012
 5997TIP3    H139406   1.247   5.594   1.996 -3.3201 -1.1128  0.0969
 5997TIP3    H239407   1.183   5.726   1.958 -0.6243 -0.3663 -2.1706
 5998TIP3   OH239408   4.163   1.718   2.358  0.8566  0.3112 -0.0283
 5998TIP3    H139409   4.160   1.673   2.442  1.5557  0.7486  0.2395
 5998TIP3    H239410   4.191   1.651   2.295  2.5340  0.5026  0.4740
 5999TIP3   OH239411   3.082   4.769  15.472  0.3578  0.1439  0.1200
 5999TIP3    H139412   3.145   4.834  15.442 -0.8512  0.2443 -2.4916
 5999TIP3    H239413   3.024   4.817  15.531 -1.5686  2.1186 -3.0375
 6000TIP3   OH239414   3.950   2.544   5.571  0.1714 -0.0215 -0.1798
 6000TIP3    H139415   4.006   2.473   5.541 -1.4693 -0.8930 -1.3514
 6000TIP3    H239416   3.935   2.598   5.493 -2.2088 -0.9592 -0.4462
 6001TIP3   OH239417   4.451   1.808  14.993 -0.4964  0.1235 -0.8125
 6001TIP3    H139418   4.481   1.727  14.951 -0.0050 -0.1760  0.1037
 6001TIP3    H239419   4.383   1.780  15.054  0.0205  0.3378 -0.1359
 6002TIP3   OH239420   5.356   4.936   5.546  0.2820 -0.1460 -0.1313
 6002TIP3    H139421   5.372   5.004   5.612  2.1206  0.1724 -0.8419
 6002TIP3    H239422   5.282   4.969   5.495 -1.3776 -0.5443  1.9259
 6003TIP3   OH239423   5.709   1.037   4.529 -0.2560 -0.3575 -0.0433
 6003TIP3    H139424   5.704   0.943   4.510  0.2304  0.0322 -2.3631
 6003TIP3    H239425   5.790   1.065   4.489 -0.2712  1.0474  0.8426
 6004TIP3   OH239426   1.571   3.176  11.684 -0.0710 -0.2914 -0.2079
 6004TIP3    H139427   1.554   3.162  11.777  0.7018 -0.4326 -0.0834
 6004TIP3    H239428   1.659   3.141  11.670 -0.4995 -1.0411 -1.1683
 6005TIP3   OH239429   6.306   0.418  11.948 -0.0675 -0.5449  0.0124
 6005TIP3    H139430   6.359   0.397  12.025 -0.3533 -0.2136  0.3036
 6005TIP3    H239431   6.358   0.388  11.874  0.8684  0.4321  0.2483
 6006TIP3   OH239432   4.573   5.770   1.480  0.4548 -0.1671 -0.2579
 6006TIP3    H139433   4.493   5.733   1.441 -0.0682 -1.7515  2.1000
 6006TIP3    H239434   4.637   5.699   1.477  0.8787  0.1766  0.3265
 6007TIP3   OH239435   4.185   2.483  12.802  0.3274  0.0357 -0.2659
 6007TIP3    H139436   4.273   2.495  12.767  1.2656 -1.0149  1.6447
 6007TIP3    H239437   4.171   2.558  12.860 -0.0724  0.2207 -0.5902
 6008TIP3   OH239438   3.690   3.779  16.140  0.8471  0.0088  0.0634
 6008TIP3    H139439   3.644   3.840  16.198 -1.2728 -0.1696 -1.3209
 6008TIP3    H239440   3.665   3.692  16.173  1.5417 -0.1135  0.2844
 6009TIP3   OH239441   1.734   1.920   1.749  0.1708 -0.5053  0.5185
 6009TIP3    H139442   1.690   1.909   1.833  0.9752  0.7885  1.1472
 6009TIP3    H239443   1.718   1.838   1.702 -0.0388 -1.3684  2.0456
 6010TIP3   OH239444   0.546   2.560   3.932 -0.2867  0.8453  0.2046
 6010TIP3    H139445   0.570   2.507   3.856 -2.6666  1.0311 -0.7462
 6010TIP3    H239446   0.497   2.500   3.988 -2.2496  1.7625 -0.4677
 6011TIP3   OH239447   2.000   3.921  12.029 -0.1574 -0.4090  0.0569
 6011TIP3    H139448   1.971   3.866  11.956 -0.4367  0.1869 -0.2887
 6011TIP3    H239449   2.032   3.859  12.095  0.2080 -0.9503 -0.6187
 6012TIP3   OH239450   6.366   4.154   5.593  0.3451 -0.3380 -0.3703
 6012TIP3    H139451   6.337   4.084   5.535 -0.5225  0.4417 -0.9119
 6012TIP3    H239452   6.372   4.113   5.680 -1.5029 -0.7723 -0.4090
 6013TIP3   OH239453   4.049   5.405   2.440 -0.0523  0.1934 -0.4892
 6013TIP3    H139454   4.130   5.454   2.443  0.5753 -0.7945 -0.7875
 6013TIP3    H239455   3.993   5.448   2.505  2.0134 -1.2989  2.5389
 6014TIP3   OH239456   4.722   2.850  11.457 -0.2081 -0.1424 -0.2270
 6014TIP3    H139457   4.648   2.790  11.460 -0.0725 -0.2935  0.3826
 6014TIP3    H239458   4.787   2.810  11.516 -0.0029  0.4505 -0.0431
 6015TIP3   OH239459   2.381   5.145  12.948 -0.2007 -0.2739  0.0859
 6015TIP3    H139460   2.325   5.206  12.996  1.4500  2.1308 -0.8560
 6015TIP3    H239461   2.332   5.125  12.868 -0.1184  1.1820 -0.3661
 6016TIP3   OH239462   4.383   5.366   1.661 -0.1596  0.0079 -0.3234
 6016TIP3    H139463   4.465   5.413   1.643  0.4653 -0.3238  1.4309
 6016TIP3    H239464   4.361   5.389   1.751 -1.1288 -1.1920 -0.2163
 6017TIP3   OH239465   3.810   4.097  11.171 -0.3413 -0.5389  0.0033
 6017TIP3    H139466   3.896   4.113  11.132  0.7623 -2.4764  1.4716
 6017TIP3    H239467   3.781   4.183  11.202 -0.2378  0.6635 -2.8366
 6018TIP3   OH239468   5.226   2.423   2.180 -0.3127 -0.5711 -0.0847
 6018TIP3    H139469   5.200   2.366   2.108 -1.8786 -0.8335  0.6336
 6018TIP3    H239470   5.163   2.495   2.178 -1.2327 -1.2488  1.7724
 6019TIP3   OH239471   2.718   1.711   4.953 -0.1619 -0.1413 -0.7501
 6019TIP3    H139472   2.790   1.675   5.006 -0.8936  0.5751  0.7852
 6019TIP3    H239473   2.742   1.803   4.940 -0.8050  0.1126 -0.1913
 6020TIP3   OH239474   4.435   2.074   0.426  0.9762  0.7629  0.1813
 6020TIP3    H139475   4.347   2.045   0.404 -0.1658  2.2346  2.4659
 6020TIP3    H239476   4.487   1.994   0.429  0.1213 -0.0098 -2.4936
 6021TIP3   OH239477   0.620   4.631   4.600 -0.1579  0.1687 -0.0568
 6021TIP3    H139478   0.526   4.644   4.590 -0.2618 -0.2997  0.2847
 6021TIP3    H239479   0.629   4.578   4.679  0.5068  1.7669  0.9851
 6022TIP3   OH239480   6.224   5.931   4.815 -0.2464  0.4318 -0.2885
 6022TIP3    H139481   6.316   5.948   4.794 -0.8098  1.2205 -2.3311
 6022TIP3    H239482   6.191   6.014   4.847 -0.1027 -0.0587  1.2441
 6023TIP3   OH239483   6.574   3.590  15.204  0.3488 -0.6910  0.5744
 6023TIP3    H139484   6.629   3.599  15.126  3.1470 -0.4552  2.4416
 6023TIP3    H239485   6.548   3.498  15.205  2.6939 -1.3957  0.8092
 6024TIP3   OH239486   2.435   1.599   5.448  0.4152  0.8652 -0.0526
 6024TIP3    H139487   2.366   1.660   5.474 -1.4332 -0.2698 -1.9452
 6024TIP3    H239488   2.458   1.626   5.359  1.6693  0.5265  0.1468
 6025TIP3   OH239489   6.197   1.006   3.881 -0.0603 -0.1153 -0.0318
 6025TIP3    H139490   6.258   0.932   3.877  0.4389  0.1958  1.2488
 6025TIP3    H239491   6.115   0.968   3.912  0.2575 -0.1160  0.8372
 6026TIP3   OH239492   0.829   1.117  10.549 -0.1650 -0.3811  0.4279
 6026TIP3    H139493   0.843   1.205  10.514 -1.5039  0.6438  2.2402
 6026TIP3    H239494   0.746   1.089  10.511 -0.1994 -0.4701  0.5679
 6027TIP3   OH239495   5.986   3.042   3.761  0.0538  0.3705  0.1127
 6027TIP3    H139496   5.907   3.012   3.717  0.4728  0.9212 -1.0707
 6027TIP3    H239497   6.009   2.971   3.820  0.1140 -0.9457 -1.4081
 6028TIP3   OH239498   5.471   5.432   2.891 -0.3603  0.2603 -0.0412
 6028TIP3    H139499   5.531   5.459   2.960 -0.9198  1.1668  0.1116
 6028TIP3    H239500   5.524   5.378   2.833  0.2439 -0.1017  0.8296
 6029TIP3   OH239501   5.452   2.754  11.121  0.4785  0.0745  0.2842
 6029TIP3    H139502   5.501   2.742  11.039 -0.0589  0.5002 -0.1089
 6029TIP3    H239503   5.370   2.795  11.093  0.1640 -0.0649  1.0076
 6030TIP3   OH239504   4.423   2.033   5.756  0.1036 -0.5484 -0.0073
 6030TIP3    H139505   4.344   1.991   5.722  1.1650 -1.7425 -1.0829
 6030TIP3    H239506   4.450   1.978   5.829 -0.8519  0.7074  1.3620
 6031TIP3   OH239507   4.939   4.270  11.304  0.3935  0.1112  0.7149
 6031TIP3    H139508   4.858   4.243  11.260 -1.5274  0.0919  3.9271
 6031TIP3    H239509   4.990   4.189  11.311  0.6594  0.0712 -1.1260
 6032TIP3   OH239510   3.241   0.280   5.161  0.2742 -0.3569 -0.3509
 6032TIP3    H139511   3.249   0.184   5.160  1.0775 -0.3006 -0.0825
 6032TIP3    H239512   3.291   0.309   5.084  1.3174 -0.0837  0.4004
 6033TIP3   OH239513   4.083   6.271  11.283 -0.0280  0.0902 -0.1227
 6033TIP3    H139514   4.133   6.352  11.290  1.3000 -0.3212 -3.2388
 6033TIP3    H239515   4.102   6.224  11.364  0.6999  2.0376  0.9077
 6034TIP3   OH239516   3.877   5.248  11.065 -0.0938  0.5187 -0.4342
 6034TIP3    H139517   3.808   5.192  11.029 -0.0097  1.0416 -1.4580
 6034TIP3    H239518   3.922   5.283  10.988  0.5743  1.0992  0.2022
 6035TIP3   OH239519   2.706   2.411  16.924 -0.2372  0.6475  0.5021
 6035TIP3    H139520   2.657   2.368  16.854  1.6030  0.5137 -0.7648
 6035TIP3    H239521   2.723   2.342  16.987  0.9476 -0.0705 -0.5538
 6036TIP3   OH239522   1.545   4.471   5.137 -0.3149 -0.1880  0.7997
 6036TIP3    H139523   1.530   4.379   5.117  3.4566 -0.9101  0.6862
 6036TIP3    H239524   1.488   4.489   5.212 -1.0427 -2.6114  0.9000
 6037TIP3   OH239525   0.881   1.654   6.529  0.7939  0.4847  0.3330
 6037TIP3    H139526   0.820   1.713   6.485  1.0100  0.6052  0.1954
 6037TIP3    H239527   0.825   1.599   6.585  0.4657  0.0182 -0.4390
 6038TIP3   OH239528   6.579   2.404   1.969  0.3579 -0.5044  0.2934
 6038TIP3    H139529   6.609   2.494   1.976  0.8081 -0.2807 -2.8530
 6038TIP3    H239530   6.633   2.366   1.899 -2.4627 -1.9760 -1.2676
 6039TIP3   OH239531   0.732   3.592  11.818 -0.2853 -0.4713 -0.4984
 6039TIP3    H139532   0.660   3.607  11.757 -1.2083  0.0342  0.6860
 6039TIP3    H239533   0.810   3.614  11.767 -1.0596  0.3997 -1.3608
 6040TIP3   OH239534   4.475   3.700  15.724  0.5515  0.0948 -0.1958
 6040TIP3    H139535   4.452   3.615  15.687  0.5067 -0.2421  0.5925
 6040TIP3    H239536   4.540   3.735  15.663 -0.0731 -0.1087 -1.0008
 6041TIP3   OH239537   5.031   6.538  16.991 -0.1154 -0.2788  1.0619
 6041TIP3    H139538   5.105   6.560  17.047 -0.5842 -0.6730  1.8657
 6041TIP3    H239539   4.979   6.478  17.044 -0.6467 -0.5493  0.2424
 6042TIP3   OH239540   2.925   6.172  12.479 -0.0970 -0.2729  0.1049
 6042TIP3    H139541   2.892   6.254  12.442 -0.0874 -0.1701  0.3211
 6042TIP3    H239542   2.995   6.146  12.419  0.8303  0.6016  0.7711
 6043TIP3   OH239543   5.076   6.469   3.669  0.2135  0.2979 -0.2759
 6043TIP3    H139544   5.029   6.523   3.733  0.4419  0.3766 -0.1722
 6043TIP3    H239545   5.163   6.455   3.708 -0.8106 -2.8323  1.2206
 6044TIP3   OH239546   5.985   2.920  10.536 -0.1348 -0.3336 -0.3592
 6044TIP3    H139547   5.906   2.960  10.498  1.1213  2.3542 -0.3708
 6044TIP3    H239548   5.968   2.918  10.630  0.0107  0.8936 -0.2918
 6045TIP3   OH239549   2.726   6.494   0.390 -0.3027 -0.1802 -0.4487
 6045TIP3    H139550   2.763   6.580   0.370  0.2455 -0.3963 -0.3929
 6045TIP3    H239551   2.801   6.442   0.420 -0.5032 -0.8836 -1.1228
 6046TIP3   OH239552   5.304   3.748   5.592  0.2471  0.5805  0.4095
 6046TIP3    H139553   5.323   3.683   5.660  0.4396  0.1028 -0.0980
 6046TIP3    H239554   5.380   3.806   5.594 -0.5756  1.6800  1.8669
 6047TIP3   OH239555   0.523   1.779   0.684  0.1697  0.1115 -0.2430
 6047TIP3    H139556   0.577   1.701   0.683  2.7026  1.7626 -0.6404
 6047TIP3    H239557   0.455   1.763   0.618 -0.0089 -2.1003  0.4168
 6048TIP3   OH239558   6.496   2.409  15.062  0.5102  0.4680  0.1369
 6048TIP3    H139559   6.519   2.341  15.125  3.7385 -0.6940 -2.0115
 6048TIP3    H239560   6.453   2.362  14.991  0.9557  0.9641 -0.4783
 6049TIP3   OH239561   1.531   1.382   5.868  0.3551 -1.1433 -0.1527
 6049TIP3    H139562   1.488   1.348   5.790 -0.2561  1.6995 -1.1495
 6049TIP3    H239563   1.618   1.407   5.839 -0.0479  0.4056 -0.0915
 6050TIP3   OH239564   1.236   1.606  16.975  0.1210 -0.0932  0.7362
 6050TIP3    H139565   1.316   1.618  17.026  0.3626 -0.9220  0.5780
 6050TIP3    H239566   1.251   1.525  16.926 -0.0519  0.7433 -0.7648
 6051TIP3   OH239567   2.997   4.600   5.704  0.2149 -0.3548 -0.6104
 6051TIP3    H139568   2.994   4.523   5.647 -0.0813 -1.8406  1.2987
 6051TIP3    H239569   2.945   4.575   5.780  2.2047  0.7703  1.2169
 6052TIP3   OH239570   5.897   6.731   4.775  0.1652  0.6523  0.1874
 6052TIP3    H139571   5.921   6.778   4.855 -0.5974 -1.2696  1.6122
 6052TIP3    H239572   5.813   6.769   4.750 -0.9227 -0.5078  1.8741
 6053TIP3   OH239573   6.500   6.305  12.633  0.2744  0.2488 -0.1055
 6053TIP3    H139574   6.465   6.277  12.548  0.2911 -0.5992  0.1591
 6053TIP3    H239575   6.539   6.226  12.670  2.0488  1.0569 -0.1680
 6054TIP3   OH239576   4.953   4.086   1.653  0.0938  0.4658  0.1744
 6054TIP3    H139577   5.007   4.106   1.730  0.4713  2.1241 -0.4766
 6054TIP3    H239578   5.011   4.036   1.596  0.1374  0.1042  0.5306
 6055TIP3   OH239579   5.293   4.788  16.679  0.0319 -0.2096  0.2520
 6055TIP3    H139580   5.377   4.775  16.635 -0.1738  1.3007 -0.6546
 6055TIP3    H239581   5.282   4.883  16.683 -2.4159 -0.3394 -1.2605
 6056TIP3   OH239582   5.726   2.429   6.074 -0.0229 -0.4169  0.6524
 6056TIP3    H139583   5.692   2.476   5.998 -1.4923 -1.0918  0.8434
 6056TIP3    H239584   5.648   2.404   6.123  0.9080  0.8507  2.9396
 6057TIP3   OH239585   5.090   6.696   5.422 -0.1298 -0.1329  0.2051
 6057TIP3    H139586   5.043   6.631   5.369 -0.3348  0.9116 -0.9453
 6057TIP3    H239587   5.173   6.653   5.444 -0.5822 -1.0700  0.1299
 6058TIP3   OH239588   5.326   3.998  13.455  0.5456  0.0958  0.5640
 6058TIP3    H139589   5.348   3.906  13.465 -0.3709 -0.4451 -1.6521
 6058TIP3    H239590   5.303   4.007  13.362 -0.0744  2.4023  0.8738
 6059TIP3   OH239591   4.045   3.090   3.994  0.6381 -0.2034 -0.2618
 6059TIP3    H139592   3.950   3.097   3.990  0.6455  0.4676  0.5477
 6059TIP3    H239593   4.065   3.074   4.086  1.3129 -0.3173 -0.4199
 6060TIP3   OH239594   6.016   1.508  11.556  0.1131  0.3431 -0.3310
 6060TIP3    H139595   6.050   1.507  11.466  0.5389  2.0027 -0.2309
 6060TIP3    H239596   6.009   1.601  11.577 -0.6785 -0.0198  1.1082
 6061TIP3   OH239597   0.192   5.271  10.476 -0.3250  0.5525 -0.0492
 6061TIP3    H139598   0.224   5.361  10.473 -0.4759  0.5839 -1.7079
 6061TIP3    H239599   0.270   5.219  10.493  0.2609  0.8273 -1.6237
 6062TIP3   OH239600   0.895   3.833  14.792 -0.2138 -0.1053 -0.4969
 6062TIP3    H139601   0.986   3.826  14.820 -0.2047 -0.1134 -0.5287
 6062TIP3    H239602   0.844   3.821  14.872 -0.1958 -0.5061 -0.5467
 6063TIP3   OH239603   5.689   2.609  14.931 -0.7146 -0.1341 -0.2246
 6063TIP3    H139604   5.761   2.597  14.992 -0.3708  0.9208 -0.4128
 6063TIP3    H239605   5.647   2.691  14.958 -1.3313 -0.3031 -0.6353
 6064TIP3   OH239606   4.232   1.693   5.472 -0.1181 -0.0946 -0.1429
 6064TIP3    H139607   4.202   1.716   5.560 -0.4885  2.0038 -0.7536
 6064TIP3    H239608   4.151   1.689   5.420  0.0045 -2.1810 -0.2656
 6065TIP3   OH239609   3.138   2.176   6.824  0.1750  0.2275 -0.5072
 6065TIP3    H139610   3.077   2.246   6.845 -0.2488 -0.5786  1.1422
 6065TIP3    H239611   3.182   2.205   6.744 -0.3575  2.1038 -0.1623
 6066TIP3   OH239612   1.099   6.243  15.676 -0.2214 -0.4712  0.3504
 6066TIP3    H139613   1.148   6.325  15.680 -1.7816  0.4719  1.0069
 6066TIP3    H239614   1.146   6.190  15.612  1.2027  0.6760  0.4106
 6067TIP3   OH239615   1.969   3.901   6.138  0.0839 -0.4139  0.2917
 6067TIP3    H139616   1.881   3.937   6.125 -0.2684 -1.6454 -0.9753
 6067TIP3    H239617   1.957   3.806   6.133  1.3337 -0.6433  1.2144
 6068TIP3   OH239618   5.507   1.709  11.306  0.7473  0.3926  0.6535
 6068TIP3    H139619   5.575   1.752  11.255  0.5453 -0.9979 -0.8868
 6068TIP3    H239620   5.425   1.751  11.278  0.7162  0.1924  0.4399
 6069TIP3   OH239621   2.113   3.166  12.976  0.0549  0.5445 -0.3825
 6069TIP3    H139622   2.035   3.176  13.032  0.2123 -1.9484  0.4089
 6069TIP3    H239623   2.080   3.175  12.887 -0.9330  0.6074 -0.0263
 6070TIP3   OH239624   3.757   0.197  15.689  0.1495  0.1136  0.7387
 6070TIP3    H139625   3.786   0.164  15.604 -1.7862 -0.6481  0.3276
 6070TIP3    H239626   3.754   0.292  15.678 -1.7907 -0.0620 -0.6719
 6071TIP3   OH239627   3.375   4.381  16.380 -0.2068 -0.5006  0.2481
 6071TIP3    H139628   3.461   4.378  16.337  0.2965 -1.7859  1.2790
 6071TIP3    H239629   3.359   4.475  16.394  0.8310 -0.2206 -0.3281
 6072TIP3   OH239630   1.815   4.145  16.526 -0.1733 -0.0170  0.1612
 6072TIP3    H139631   1.835   4.071  16.583 -1.0327 -1.5894 -1.4935
 6072TIP3    H239632   1.863   4.128  16.445  0.5876  1.8976  0.1462
 6073TIP3   OH239633   5.415   3.196  16.753 -0.0023  0.3397  0.1090
 6073TIP3    H139634   5.505   3.169  16.771  0.5679 -0.1049 -2.8696
 6073TIP3    H239635   5.363   3.117  16.769  0.5186 -0.1767 -0.6912
 6074TIP3   OH239636   3.798   5.061   0.749 -0.5408  0.0530 -0.0010
 6074TIP3    H139637   3.792   4.971   0.716 -0.9639 -0.7999  2.1736
 6074TIP3    H239638   3.722   5.070   0.806  0.3417  1.2133  1.0577
 6075TIP3   OH239639   0.776   2.568   0.186  0.3717 -1.1242  0.3394
 6075TIP3    H139640   0.803   2.637   0.125 -0.5308 -0.3769  0.7711
 6075TIP3    H239641   0.858   2.535   0.222  0.8772 -1.0450 -0.6893
 6076TIP3   OH239642   2.947   0.299   0.726  0.4498 -0.3755  0.2871
 6076TIP3    H139643   2.979   0.215   0.693  1.5675  0.1808 -0.1229
 6076TIP3    H239644   2.994   0.364   0.674 -1.4080  0.5202 -0.3599
 6077TIP3   OH239645   2.838   3.802  12.449  0.1517 -0.3616  0.0606
 6077TIP3    H139646   2.846   3.799  12.545 -0.1605  0.9869  0.1494
 6077TIP3    H239647   2.745   3.784  12.433  0.2342 -0.7376 -0.0034
 6078TIP3   OH239648   5.362   2.129   5.795  0.4002  0.4080 -0.1267
 6078TIP3    H139649   5.367   2.065   5.866  0.0929  1.3339  0.7469
 6078TIP3    H239650   5.327   2.208   5.836  0.7598  1.1382 -1.1886
 6079TIP3   OH239651   5.797   1.362  15.268 -0.1521 -0.0162  0.2738
 6079TIP3    H139652   5.727   1.406  15.220  1.1598 -0.5925 -2.3030
 6079TIP3    H239653   5.835   1.431  15.324 -2.1834  0.4841  1.1254
 6080TIP3   OH239654   3.129   5.280   1.281  0.4324 -0.9800  0.2410
 6080TIP3    H139655   3.057   5.343   1.276  0.6665 -0.7672 -0.5290
 6080TIP3    H239656   3.114   5.234   1.364 -0.1867 -0.4552  0.4329
 6081TIP3   OH239657   4.082   3.450  12.323 -0.1092 -0.1629 -0.2077
 6081TIP3    H139658   4.058   3.408  12.240 -0.9457  0.0830 -0.0931
 6081TIP3    H239659   4.178   3.441  12.327 -0.1309 -0.8024 -0.8569
 6082TIP3   OH239660   0.652   5.894  14.658  0.1930 -0.3188  0.0650
 6082TIP3    H139661   0.742   5.870  14.637  0.3566  0.4483 -0.1454
 6082TIP3    H239662   0.601   5.814  14.641  0.7879 -0.6690 -0.0965
 6083TIP3   OH239663   5.959   4.092  11.029 -0.1994  0.1563  0.0783
 6083TIP3    H139664   5.937   4.037  10.954  2.9353  0.3836 -1.1757
 6083TIP3    H239665   5.924   4.045  11.105 -0.9638 -1.5579 -1.2690
 6084TIP3   OH239666   5.450   1.514  14.398 -0.2610 -0.0306 -0.1963
 6084TIP3    H139667   5.427   1.603  14.426 -1.6952 -0.3538 -0.2748
 6084TIP3    H239668   5.432   1.514  14.304  2.2878  0.3519 -0.7588
 6085TIP3   OH239669   4.861   3.774  15.292  0.6588  0.9151 -0.3412
 6085TIP3    H139670   4.779   3.743  15.254  1.0962 -0.6602 -0.0442
 6085TIP3    H239671   4.856   3.870  15.283 -0.7578  0.7925 -1.2215
 6086TIP3   OH239672   4.121   4.617  14.641  0.8521 -0.0163  0.3262
 6086TIP3    H139673   4.164   4.538  14.674 -0.0379 -0.8883 -0.5141
 6086TIP3    H239674   4.130   4.611  14.546  0.5352  0.7509  0.2470
 6087TIP3   OH239675   0.472   6.216   1.697  0.2046 -0.3729 -0.5034
 6087TIP3    H139676   0.379   6.193   1.699  0.0647  0.0025  3.0135
 6087TIP3    H239677   0.516   6.134   1.674 -0.8692 -1.3521  0.7596
 6088TIP3   OH239678   0.720   3.425  15.866 -0.4605  0.0316 -0.5559
 6088TIP3    H139679   0.722   3.329  15.871 -1.3146  0.0233 -0.0902
 6088TIP3    H239680   0.627   3.446  15.853 -0.1699  0.7618 -1.5556
 6089TIP3   OH239681   3.922   2.139  13.875  0.3106  0.2991  0.1146
 6089TIP3    H139682   3.999   2.130  13.818  0.9917 -0.0727  1.0612
 6089TIP3    H239683   3.889   2.050  13.885  0.0287  0.3998  0.0700
 6090TIP3   OH239684   3.491   1.508   2.965  0.3030  0.2028  0.4227
 6090TIP3    H139685   3.466   1.419   2.941  0.2336  0.0028  1.1978
 6090TIP3    H239686   3.414   1.561   2.943  0.8795  0.3337 -1.4341
 6091TIP3   OH239687   1.020   0.755   2.184  0.1523 -0.2571 -0.6337
 6091TIP3    H139688   0.984   0.667   2.181 -0.6286  0.0126  0.4025
 6091TIP3    H239689   0.953   0.808   2.227  2.0744  0.0777  2.3300
 6092TIP3   OH239690   6.447   3.559   1.088  0.3890  0.2277 -0.2458
 6092TIP3    H139691   6.386   3.624   1.122  0.2127 -0.2684  0.3907
 6092TIP3    H239692   6.395   3.480   1.076  0.6152  0.1779 -0.9734
 6093TIP3   OH239693   0.063   3.220   5.246  0.0126 -0.2075  0.0392
 6093TIP3    H139694  -0.019   3.174   5.264 -0.6486  1.0564  0.3652
 6093TIP3    H239695   0.060   3.298   5.302  0.9001  0.4696 -0.8170
 6094TIP3   OH239696   5.879   6.290   2.545  0.6601 -0.7104  0.0297
 6094TIP3    H139697   5.800   6.334   2.514 -0.0696 -1.3631  0.9135
 6094TIP3    H239698   5.950   6.350   2.523 -0.2786  0.8240  0.9820
 6095TIP3   OH239699   1.183   3.584  12.899 -0.7478  0.1893  0.4085
 6095TIP3    H139700   1.208   3.609  12.988 -1.0407 -0.3664  0.6545
 6095TIP3    H239701   1.231   3.645  12.843 -1.2394  1.1211  0.9696
 6096TIP3   OH239702   1.634   6.320  14.768  0.2698 -0.6115  0.1094
 6096TIP3    H139703   1.542   6.342  14.757  0.1611 -0.1830  1.6782
 6096TIP3    H239704   1.636   6.226  14.780  0.0133 -0.5884  0.3240
 6097TIP3   OH239705   5.506   4.454  12.201 -0.1349 -0.0261 -0.1323
 6097TIP3    H139706   5.509   4.522  12.134  3.7635  0.5736  0.3979
 6097TIP3    H239707   5.499   4.502  12.284  0.5786 -0.3455  0.1279
 6098TIP3   OH239708   6.672   2.643  16.007  0.3109 -0.2282  0.1110
 6098TIP3    H139709   6.709   2.730  15.995  1.0762 -0.7164 -1.2697
 6098TIP3    H239710   6.637   2.620  15.921 -0.0995 -1.1842  0.5245
 6099TIP3   OH239711   4.341   2.405   5.771  0.1499 -0.1717  0.1842
 6099TIP3    H139712   4.308   2.475   5.828  1.8275  1.7140 -0.9999
 6099TIP3    H239713   4.271   2.390   5.707  0.8417  2.7892 -1.4707
 6100TIP3   OH239714   0.669   2.991  16.758  0.4236  0.6164 -0.1292
 6100TIP3    H139715   0.663   2.919  16.822  1.8848  1.0302  0.5259
 6100TIP3    H239716   0.624   2.958  16.681  1.7139 -1.3666 -0.1329
 6101TIP3   OH239717   0.090   3.191  14.783  0.5310  0.0695 -0.1433
 6101TIP3    H139718   0.184   3.211  14.777  0.8605 -1.1488  0.5593
 6101TIP3    H239719   0.074   3.130  14.711  0.3818 -0.1380  0.0684
 6102TIP3   OH239720   5.048   6.029  12.749  0.2328 -0.0924 -0.2255
 6102TIP3    H139721   5.120   6.006  12.691  0.8412  0.7014  0.1911
 6102TIP3    H239722   5.059   5.973  12.825 -0.6320 -1.2154 -0.8947
 6103TIP3   OH239723   6.108   0.267   4.079  0.1652 -0.3389  0.2298
 6103TIP3    H139724   6.061   0.267   4.163 -0.5476 -1.2243 -0.1551
 6103TIP3    H239725   6.199   0.256   4.103  0.6008  3.5663  1.1511
 6104TIP3   OH239726   4.767   2.861  13.624 -0.1069 -0.6361 -0.1084
 6104TIP3    H139727   4.736   2.887  13.537 -2.5913  0.4316  0.9870
 6104TIP3    H239728   4.687   2.853  13.676  1.4030  0.8314  2.6294
 6105TIP3   OH239729   1.751   6.433   1.837  0.0027  0.1000 -0.5889
 6105TIP3    H139730   1.818   6.405   1.775 -0.7839 -0.2848 -1.2783
 6105TIP3    H239731   1.670   6.435   1.787 -0.5806  0.1902  0.3226
 6106TIP3   OH239732   5.490   2.432   4.651  0.5949  0.4149  0.2645
 6106TIP3    H139733   5.424   2.380   4.605 -0.1865  0.7333  1.0050
 6106TIP3    H239734   5.442   2.476   4.721  1.6182  0.5698  0.8875
 6107TIP3   OH239735   5.765   3.028  15.231 -0.5391 -0.3930 -0.2551
 6107TIP3    H139736   5.812   3.062  15.155 -0.3782  0.6635  0.2942
 6107TIP3    H239737   5.833   3.003  15.293 -0.6803  0.2313  0.1591
 6108TIP3   OH239738   3.253   6.563   2.260 -0.0601  1.0975  0.5125
 6108TIP3    H139739   3.347   6.558   2.276 -0.2224 -3.6747  1.4089
 6108TIP3    H239740   3.218   6.610   2.336  1.3770 -0.0762  1.9626
 6109TIP3   OH239741   6.351   2.691   6.039 -0.0904  0.1449  0.2070
 6109TIP3    H139742   6.399   2.773   6.045 -1.4283  1.0334 -0.6950
 6109TIP3    H239743   6.338   2.677   5.945 -0.5557 -0.6894  0.3810
 6110TIP3   OH239744   1.447   5.645   6.428  0.2601 -0.0643 -0.0123
 6110TIP3    H139745   1.516   5.707   6.405  0.3798 -0.6719 -1.4198
 6110TIP3    H239746   1.469   5.566   6.379 -0.2303 -1.0249  1.2587
 6111TIP3   OH239747   1.978   1.713   3.516 -0.2962 -0.4104  0.1476
 6111TIP3    H139748   1.972   1.806   3.538  0.0194 -1.1251  3.9695
 6111TIP3    H239749   2.065   1.686   3.548 -0.2495 -1.9994 -1.1448
 6112TIP3   OH239750   5.014   3.374  14.475  0.0568 -0.1095 -0.0809
 6112TIP3    H139751   4.939   3.364  14.532 -1.0643  0.9114 -1.3172
 6112TIP3    H239752   5.084   3.407  14.531 -1.0541  1.0354  0.6584
 6113TIP3   OH239753   1.634   2.023   5.617 -0.6527 -0.6877  0.6653
 6113TIP3    H139754   1.726   1.999   5.633 -0.2350  0.5578  0.2108
 6113TIP3    H239755   1.637   2.116   5.596 -1.9181 -0.8582 -0.3556
 6114TIP3   OH239756   2.439   2.260  14.610 -0.2560  0.4496  0.4801
 6114TIP3    H139757   2.443   2.164  14.600 -2.2193  0.3685  0.0463
 6114TIP3    H239758   2.350   2.277  14.639  0.5234  2.0656  2.0823
 6115TIP3   OH239759   4.193   1.239  14.257 -0.0977  0.8228  0.0590
 6115TIP3    H139760   4.113   1.188  14.246 -0.6802  1.7282 -0.0986
 6115TIP3    H239761   4.262   1.185  14.220 -0.6982  0.1764 -0.1310
 6116TIP3   OH239762   5.030   2.617  16.737  0.0572 -0.2744  0.2356
 6116TIP3    H139763   5.099   2.572  16.785 -0.6354  0.3205  1.8536
 6116TIP3    H239764   4.950   2.598  16.786 -0.6157  0.7457 -0.4179
 6117TIP3   OH239765   2.262   0.559  16.744 -0.5348  0.2488 -0.0002
 6117TIP3    H139766   2.293   0.584  16.657 -0.0878 -1.6088 -0.4249
 6117TIP3    H239767   2.178   0.516  16.729 -1.6704  2.0419  0.7903
 6118TIP3   OH239768   5.518   1.371  13.170  0.2729 -0.0129 -0.0254
 6118TIP3    H139769   5.442   1.314  13.180  0.2438 -0.4791 -2.3243
 6118TIP3    H239770   5.481   1.457  13.153  0.2500 -0.1689 -0.7875
 6119TIP3   OH239771   0.420   5.482  16.871  0.4899 -0.6015 -0.0712
 6119TIP3    H139772   0.439   5.566  16.912  0.8125 -0.8808  0.3647
 6119TIP3    H239773   0.456   5.489  16.782 -0.3070  0.0436 -0.3513
 6120TIP3   OH239774   2.067   2.538  15.462  0.6558 -0.1489  0.4281
 6120TIP3    H139775   2.119   2.573  15.390  0.2584 -0.6354 -0.1004
 6120TIP3    H239776   1.981   2.522  15.424  0.0385  0.8594  1.3462
 6121TIP3   OH239777   0.835   3.026   1.330  0.3743 -0.5408 -0.1017
 6121TIP3    H139778   0.832   3.121   1.341  1.6235 -0.3846 -0.9275
 6121TIP3    H239779   0.744   3.001   1.318  0.0282  0.5590  0.0749
 6122TIP3   OH239780   6.693   0.354  15.809 -0.2802 -0.4532  0.4618
 6122TIP3    H139781   6.690   0.375  15.903  0.4805 -0.1040  0.4152
 6122TIP3    H239782   6.626   0.410  15.770  0.3296  0.4063  0.6194
 6123TIP3   OH239783   4.041   5.096   3.777 -0.1942  0.2541  0.3335
 6123TIP3    H139784   4.055   5.109   3.870 -0.5106  0.9929  0.2928
 6123TIP3    H239785   4.068   5.179   3.737  2.1726 -0.8201 -0.5072
 6124TIP3   OH239786   5.727   5.681  12.881 -0.4202  0.2493  0.1886
 6124TIP3    H139787   5.720   5.772  12.910 -1.4887  0.1243  0.3785
 6124TIP3    H239788   5.802   5.679  12.823  0.0036  1.1191  0.6937
 6125TIP3   OH239789   6.739   3.235   0.997  0.1110  0.1143 -0.1898
 6125TIP3    H139790   6.719   3.327   0.982  0.1679 -0.0442 -1.3232
 6125TIP3    H239791   6.834   3.232   1.010  0.0755  0.2471  0.0957
 6126TIP3   OH239792   5.857   2.348  12.072  0.4988 -0.3985 -0.2779
 6126TIP3    H139793   5.909   2.394  12.138 -0.3976  0.1086  0.0952
 6126TIP3    H239794   5.909   2.354  11.992  0.4019  1.3433 -0.2593
 6127TIP3   OH239795   2.494   1.238  16.440 -0.0476 -0.1067  0.0235
 6127TIP3    H139796   2.483   1.153  16.482 -1.8311  0.9145  1.8018
 6127TIP3    H239797   2.503   1.300  16.513 -0.3868  1.4162 -1.1704
 6128TIP3   OH239798   0.374   6.513   4.340 -0.1618  0.0326  0.4572
 6128TIP3    H139799   0.343   6.459   4.267 -1.3001  2.0017 -0.6037
 6128TIP3    H239800   0.464   6.485   4.354 -0.4186 -1.4785 -0.6458
 6129TIP3   OH239801   4.395   0.728  14.884 -0.1401  0.1898  0.0735
 6129TIP3    H139802   4.398   0.790  14.957 -0.7305 -0.5165  0.7056
 6129TIP3    H239803   4.346   0.654  14.917  0.5493 -0.6262 -0.6788
 6130TIP3   OH239804   4.960   1.083  14.219 -0.0984  0.5222 -0.1976
 6130TIP3    H139805   4.984   1.076  14.311  1.7829 -1.1030 -0.7460
 6130TIP3    H239806   5.024   1.143  14.182 -0.5777  0.8243 -0.5537
 6131TIP3   OH239807   0.175   2.326   1.136 -0.5308 -0.5492  0.2697
 6131TIP3    H139808   0.204   2.414   1.162 -2.8891  1.0302 -1.9033
 6131TIP3    H239809   0.103   2.305   1.195  0.2410 -1.1892  0.9944
 6132TIP3   OH239810   1.053   2.121  16.090  0.1294 -0.2239 -0.1291
 6132TIP3    H139811   1.081   2.032  16.068  1.8484  0.6079 -1.6142
 6132TIP3    H239812   1.123   2.177  16.056  0.2624  1.5941  2.8410
 6133TIP3   OH239813   5.621   4.802  12.374 -0.0530  0.3820  0.5829
 6133TIP3    H139814   5.652   4.888  12.404 -0.2584  0.4006  0.7430
 6133TIP3    H239815   5.684   4.776  12.306 -0.7020  1.2360 -0.3712
 6134TIP3   OH239816   5.538   3.968  16.939  0.0828 -0.0330  0.4520
 6134TIP3    H139817   5.448   3.940  16.952  0.0605  0.3953  1.2471
 6134TIP3    H239818   5.549   3.968  16.844 -1.2216  1.3627  0.2612
 6135TIP3   OH239819   6.335   0.577  11.111 -0.0548 -0.3331  1.0171
 6135TIP3    H139820   6.273   0.544  11.177 -2.2785 -1.2136 -1.3561
 6135TIP3    H239821   6.308   0.668  11.097  0.7399  0.0080  1.6477
 6136TIP3   OH239822   6.079   2.893  12.488 -0.2608 -0.4413 -0.6709
 6136TIP3    H139823   5.998   2.902  12.437 -0.0463  2.5334 -0.6403
 6136TIP3    H239824   6.079   2.969  12.546  3.5369  0.9104 -2.1195
 6137TIP3   OH239825   0.187   4.103  15.025  0.1689  0.4671  0.1049
 6137TIP3    H139826   0.135   4.073  14.950  1.9992 -0.9739 -0.6724
 6137TIP3    H239827   0.170   4.038  15.093  1.0371 -0.1259 -0.2194
 6138TIP3   OH239828   0.072   5.946  11.219  0.4082  0.3169  0.3934
 6138TIP3    H139829   0.149   5.979  11.265  0.0336  1.6091  0.1415
 6138TIP3    H239830   0.081   5.978  11.130 -0.7253  1.0643  0.5195
 6139TIP3   OH239831   6.159   4.126   4.686  0.5260  0.4987 -0.1826
 6139TIP3    H139832   6.188   4.094   4.772 -0.6807 -0.4452 -0.1079
 6139TIP3    H239833   6.227   4.097   4.626  0.8007  0.1490  0.2831
 6140TIP3   OH239834   4.064   2.909   2.351 -0.2213 -0.1712  0.3670
 6140TIP3    H139835   4.053   2.971   2.279 -0.4022 -0.3658  0.2273
 6140TIP3    H239836   4.159   2.901   2.362 -0.1453  1.9106  1.9175
 6141TIP3   OH239837   4.518   3.582  13.047 -0.1605 -0.0067 -0.1642
 6141TIP3    H139838   4.439   3.619  13.009  0.1546  0.7604 -0.0927
 6141TIP3    H239839   4.533   3.634  13.126  1.1920  0.7718 -0.9168
 6142TIP3   OH239840   1.184   5.446  14.802 -0.0776  0.0041 -0.7395
 6142TIP3    H139841   1.263   5.497  14.818 -0.2540  1.3654 -3.5622
 6142TIP3    H239842   1.191   5.372  14.862  1.4807  1.9399  1.7093
 6143TIP3   OH239843   1.974   5.696  11.799 -0.7197  0.3998 -0.3101
 6143TIP3    H139844   1.881   5.709  11.815 -0.7545  0.4456 -0.5434
 6143TIP3    H239845   2.017   5.744  11.870 -0.8592  1.4389 -0.9061
 6144TIP3   OH239846   3.684   1.822   0.899  0.0444 -0.3271 -0.3825
 6144TIP3    H139847   3.755   1.763   0.873  1.4279  1.1759 -0.2128
 6144TIP3    H239848   3.655   1.862   0.817  0.6382  0.3486 -0.2815
 6145TIP3   OH239849   4.256   3.232   1.556  0.7619  0.1986  0.4656
 6145TIP3    H139850   4.297   3.299   1.610  1.6644 -0.2857  0.4050
 6145TIP3    H239851   4.243   3.158   1.615  0.1992  0.2584  0.4198
 6146TIP3   OH239852   0.741   3.835  10.538  0.2274  0.0340 -0.4084
 6146TIP3    H139853   0.703   3.805  10.621 -0.9809  1.7273 -0.2914
 6146TIP3    H239854   0.666   3.843  10.480  0.9013  0.1294 -1.2759
 6147TIP3   OH239855   6.711   4.815   2.223 -0.4265  0.1157  0.2337
 6147TIP3    H139856   6.733   4.906   2.200 -1.2324 -0.0404 -1.2812
 6147TIP3    H239857   6.774   4.762   2.174  0.7771 -0.1689  1.9789
 6148TIP3   OH239858   0.400   5.254   3.776  0.0917  0.3754  0.2352
 6148TIP3    H139859   0.390   5.348   3.793  1.6715  0.9951 -1.8491
 6148TIP3    H239860   0.402   5.248   3.680  2.7815 -1.4242  0.3101
 6149TIP3   OH239861   3.482   5.444   3.469 -0.0978  0.4116  0.2896
 6149TIP3    H139862   3.394   5.482   3.476  0.1951  0.9998  0.8165
 6149TIP3    H239863   3.495   5.398   3.551  0.0598  0.2677  0.1842
 6150TIP3   OH239864   5.218   0.740   6.333  0.5283 -0.0838  0.5788
 6150TIP3    H139865   5.183   0.785   6.409 -1.5009  0.2043 -0.4486
 6150TIP3    H239866   5.212   0.647   6.356 -2.1115 -0.1195  0.0461
 6151TIP3   OH239867   2.298   1.084  16.591  0.1510 -0.0015  0.1176
 6151TIP3    H139868   2.364   1.023  16.556  0.7609 -0.4865  2.0267
 6151TIP3    H239869   2.224   1.028  16.614 -1.2081  0.5866 -2.4207
 6152TIP3   OH239870   2.941   2.968  14.523  0.4452 -0.0750 -0.3106
 6152TIP3    H139871   2.974   2.988  14.611  0.4818  0.5085 -0.4530
 6152TIP3    H239872   2.978   3.037  14.468 -0.2716  0.0564 -0.6329
 6153TIP3   OH239873   5.023   4.557  13.514  0.8541  0.4498  0.3329
 6153TIP3    H139874   5.023   4.493  13.443 -0.3473  1.5536 -0.7156
 6153TIP3    H239875   5.115   4.564  13.540  0.9805 -2.0498  0.8734
 6154TIP3   OH239876   3.781   5.982   5.224 -0.2696  0.1909  0.6113
 6154TIP3    H139877   3.720   5.915   5.193  0.1144  0.5634 -1.0311
 6154TIP3    H239878   3.731   6.031   5.290 -1.5312  0.0521 -0.2047
 6155TIP3   OH239879   3.464   1.271   0.759 -0.1733  0.2068  0.5813
 6155TIP3    H139880   3.446   1.198   0.817 -0.4665  0.2320  0.5237
 6155TIP3    H239881   3.423   1.246   0.676  0.2589  0.1613  0.3789
 6156TIP3   OH239882   5.502   3.677   4.274  0.3714 -0.1307  0.9267
 6156TIP3    H139883   5.440   3.625   4.325 -0.7293 -0.8751 -1.0638
 6156TIP3    H239884   5.541   3.614   4.213  0.8691  0.9026  0.1485
 6157TIP3   OH239885   6.106   3.075   2.187  0.0532 -0.1772  0.3171
 6157TIP3    H139886   6.096   3.123   2.104 -0.4602  0.3910  0.6963
 6157TIP3    H239887   6.200   3.065   2.198  0.2080  1.2519  0.4875
 6158TIP3   OH239888   3.730   2.221  13.193  0.3723 -0.9755  0.2666
 6158TIP3    H139889   3.648   2.208  13.147 -0.7054 -0.4842  1.9677
 6158TIP3    H239890   3.774   2.291  13.145  0.0072 -1.5254 -0.9006
 6159TIP3   OH239891   0.753   5.807   5.336 -0.7156 -0.4195  0.0304
 6159TIP3    H139892   0.815   5.842   5.272 -0.7702  0.6974  0.5596
 6159TIP3    H239893   0.668   5.814   5.292 -1.2116  3.2262  1.2010
 6160TIP3   OH239894   1.991   2.935   3.457 -0.4832  0.0499  0.4946
 6160TIP3    H139895   2.028   2.987   3.385 -2.7544  0.8215 -0.1884
 6160TIP3    H239896   2.068   2.900   3.502  1.1225  2.4108 -0.1812
 6161TIP3   OH239897   0.069   3.875  13.741  0.3244 -0.6431 -0.3287
 6161TIP3    H139898   0.151   3.865  13.692  1.0271  0.2677  0.6203
 6161TIP3    H239899   0.087   3.836  13.826 -0.1149 -0.1491 -0.0020
 6162TIP3   OH239900   0.606   5.973   1.050 -0.2478  0.4885 -0.1127
 6162TIP3    H139901   0.633   6.018   1.130  1.6915 -0.8162  0.0226
 6162TIP3    H239902   0.688   5.953   1.004 -1.1860 -0.7670 -1.3320
 6163TIP3   OH239903   0.678   1.002  13.780  0.1514 -0.0358 -0.2648
 6163TIP3    H139904   0.668   0.915  13.819  1.5764 -0.1706 -0.1725
 6163TIP3    H239905   0.641   1.061  13.846  0.8915 -0.4192  0.5232
 6164TIP3   OH239906   5.304   1.864   4.609 -0.2394 -0.3220 -0.5379
 6164TIP3    H139907   5.276   1.803   4.540 -1.1480  0.8274 -1.2240
 6164TIP3    H239908   5.231   1.866   4.670 -0.7332  0.9680 -1.1460
 6165TIP3   OH239909   3.403   0.039   0.498  0.4283  0.0540 -0.1782
 6165TIP3    H139910   3.338  -0.020   0.458 -2.7720  2.9292  0.3465
 6165TIP3    H239911   3.393   0.025   0.592 -0.8747  1.8370 -0.0194
 6166TIP3   OH239912   4.860   4.506   1.447  0.0392 -0.6292 -0.2505
 6166TIP3    H139913   4.853   4.565   1.523 -1.0847 -0.2388 -0.6340
 6166TIP3    H239914   4.801   4.433   1.467 -3.8715  1.5312 -2.5006
 6167TIP3   OH239915   0.772   0.315   0.510 -0.2746  0.0940 -0.4189
 6167TIP3    H139916   0.734   0.336   0.425 -0.1930 -0.2523 -0.5447
 6167TIP3    H239917   0.865   0.335   0.500 -0.2084 -0.2469 -0.5177
 6168TIP3   OH239918   5.918   1.949  13.097  0.2760  0.4296  0.2261
 6168TIP3    H139919   5.883   2.033  13.067 -2.2780 -0.4265  0.5635
 6168TIP3    H239920   5.999   1.938  13.046 -0.9808  1.6228 -2.2224
 6169TIP3   OH239921   0.112   4.176  16.350 -0.2347 -0.0460 -0.1781
 6169TIP3    H139922   0.155   4.180  16.264 -1.2845 -0.1995 -0.7279
 6169TIP3    H239923   0.180   4.203  16.412  0.2779  1.0068 -1.1561
 6170TIP3   OH239924   4.114   4.695   4.487  0.1792 -0.1071 -0.0434
 6170TIP3    H139925   4.192   4.727   4.443 -0.9252 -0.1222 -2.1187
 6170TIP3    H239926   4.142   4.614   4.530  1.6774  0.7728  0.7318
 6171TIP3   OH239927   2.299   2.664  11.676  0.3768 -0.3409 -0.5859
 6171TIP3    H139928   2.268   2.574  11.667  0.3949 -0.2015 -2.5219
 6171TIP3    H239929   2.241   2.714  11.618  0.7187  0.8046  0.0532
 6172TIP3   OH239930   4.875   4.133   6.417  0.2592 -0.1320 -0.2983
 6172TIP3    H139931   4.822   4.139   6.337  0.5235  1.4282 -0.3913
 6172TIP3    H239932   4.944   4.199   6.405 -0.3669  0.9721  1.6991
 6173TIP3   OH239933   6.694   1.398  11.045  0.1798 -0.0130  0.3619
 6173TIP3    H139934   6.715   1.346  10.968 -1.6261  1.7663 -1.4496
 6173TIP3    H239935   6.774   1.448  11.062 -0.1700  1.6286 -2.1879
 6174TIP3   OH239936   5.288   0.546   5.028 -0.7498  0.1016  0.2002
 6174TIP3    H139937   5.314   0.523   4.939 -1.0542 -1.5560  0.5205
 6174TIP3    H239938   5.194   0.530   5.031 -1.2462  2.6102  0.1088
 6175TIP3   OH239939   5.641   4.191   5.984 -0.0174  0.0223 -0.5365
 6175TIP3    H139940   5.677   4.113   6.028  0.0946 -0.0933 -0.8331
 6175TIP3    H239941   5.559   4.208   6.031  0.2227  0.0469 -0.1213
 6176TIP3   OH239942   1.456   3.049   2.602  0.1624 -0.0718  0.8302
 6176TIP3    H139943   1.440   3.130   2.651 -1.5449 -0.3493  0.7907
 6176TIP3    H239944   1.541   3.019   2.634  0.6885  1.5470  1.0852
 6177TIP3   OH239945   3.059   6.152   2.498 -0.1616  0.2138  0.1945
 6177TIP3    H139946   3.117   6.225   2.517 -1.9731  1.8354 -0.2396
 6177TIP3    H239947   2.971   6.186   2.512 -1.0517 -2.3640  1.5232
 6178TIP3   OH239948   3.519   2.907  14.899 -0.1336 -0.2611  0.0559
 6178TIP3    H139949   3.508   2.834  14.837 -1.8291  0.5332 -0.6354
 6178TIP3    H239950   3.442   2.903  14.955  0.8664 -0.3217  1.4713
 6179TIP3   OH239951   5.164   2.396  16.884  0.0816 -0.0615  0.0809
 6179TIP3    H139952   5.116   2.413  16.965  0.0448 -2.4819  0.6317
 6179TIP3    H239953   5.230   2.332  16.907  1.3724  0.6519 -1.4219
 6180TIP3   OH239954   2.393   6.773  15.100  0.1090  0.5739  0.6195
 6180TIP3    H139955   2.452   6.817  15.161 -0.8097  2.1339  0.4440
 6180TIP3    H239956   2.421   6.801  15.013  0.1757 -0.0535  0.4338
 6181TIP3   OH239957   6.147   0.696   4.232 -0.5711 -0.5722  0.1638
 6181TIP3    H139958   6.220   0.637   4.255  1.8677  2.4862  0.9751
 6181TIP3    H239959   6.148   0.699   4.137  2.6585  1.7398  0.0894
 6182TIP3   OH239960   5.068   1.196  14.809  0.1455 -0.0476  0.7492
 6182TIP3    H139961   5.017   1.115  14.800  1.1339 -0.7796  1.5042
 6182TIP3    H239962   5.004   1.261  14.840 -0.9084 -0.2197 -0.9672
 6183TIP3   OH239963   1.488   2.610   3.515  0.5661 -0.1805 -0.2450
 6183TIP3    H139964   1.399   2.614   3.481 -0.1869 -1.3740  1.4692
 6183TIP3    H239965   1.535   2.554   3.454 -0.0332 -0.1191 -0.7690
 6184TIP3   OH239966   3.042   4.327  11.686  0.3130  0.3710 -0.0578
 6184TIP3    H139967   3.105   4.294  11.750 -0.2695 -1.3157 -0.3058
 6184TIP3    H239968   3.096   4.375  11.623  1.4245 -1.2783 -0.4195
 6185TIP3   OH239969   2.124   3.349  11.718  0.0607 -0.3257  0.1744
 6185TIP3    H139970   2.093   3.411  11.783 -0.6840 -0.8339  0.3187
 6185TIP3    H239971   2.205   3.387  11.685 -0.5749  0.9047 -0.0123
 6186TIP3   OH239972   3.169   3.004  13.262  0.6403  0.0343  0.1330
 6186TIP3    H139973   3.191   3.041  13.348  0.2707  1.2796 -0.2949
 6186TIP3    H239974   3.140   2.914  13.282  0.5705  0.2948  1.3058
 6187TIP3   OH239975   3.475   3.078  16.697  0.1651  0.4785  0.3646
 6187TIP3    H139976   3.487   3.168  16.667 -0.1340  0.1863 -0.6661
 6187TIP3    H239977   3.434   3.087  16.782  2.5699  1.3849  1.5361
 6188TIP3   OH239978   3.845   3.404  14.406 -0.1270  0.5816 -0.2516
 6188TIP3    H139979   3.764   3.376  14.449  1.0501 -0.2723  1.5450
 6188TIP3    H239980   3.817   3.433  14.319 -2.3016 -0.0106  0.1790
 6189TIP3   OH239981   0.629   0.745  16.465  0.0174  0.0023 -0.8064
 6189TIP3    H139982   0.676   0.777  16.542 -2.0218 -0.0930  0.5503
 6189TIP3    H239983   0.583   0.668  16.496 -0.8481 -0.0312 -2.1399
 6190TIP3   OH239984   3.881   4.740  15.883  1.0209 -0.7549  0.2252
 6190TIP3    H139985   3.830   4.806  15.835  0.4450 -0.1524  1.5863
 6190TIP3    H239986   3.972   4.769  15.876  0.9351 -0.6490 -0.4483
 6191TIP3   OH239987   6.564   5.959  16.996 -0.2364  0.2420  0.1496
 6191TIP3    H139988   6.489   5.942  16.938  0.9676 -0.3135 -1.3133
 6191TIP3    H239989   6.591   5.872  17.026 -1.2254  0.5592  2.1188
 6192TIP3   OH239990   1.997   2.318  13.968  0.4384 -0.0221 -0.1055
 6192TIP3    H139991   2.090   2.336  13.979  0.7774 -1.5739 -0.2470
 6192TIP3    H239992   1.994   2.234  13.921 -1.0237  0.2554 -0.5543
 6193TIP3   OH239993   4.942   1.402  15.035  0.0257  0.0047  0.4937
 6193TIP3    H139994   4.852   1.424  15.060 -0.4786 -0.0740 -1.1231
 6193TIP3    H239995   4.994   1.476  15.066 -1.1497  1.9353 -1.7848
 6194TIP3   OH239996   5.390   0.664  14.654  0.4477 -0.3796  0.1987
 6194TIP3    H139997   5.306   0.708  14.666  0.0797 -0.9498 -0.2460
 6194TIP3    H239998   5.424   0.698  14.571  0.0352 -1.1194 -0.2834
 6195TIP3   OH239999   5.418   4.384  16.139  0.6414  0.5165 -0.4004
 6195TIP3    H140000   5.440   4.434  16.061 -1.7977  1.3128 -0.6613
 6195TIP3    H240001   5.430   4.293  16.113 -2.8139  0.5533 -2.8157
 6196TIP3   OH240002   5.283   0.686  13.765  0.0743  0.0679 -0.8108
 6196TIP3    H140003   5.192   0.713  13.762 -0.3692 -0.9579  1.4358
 6196TIP3    H240004   5.280   0.591  13.774  1.3517  0.0688 -0.1324
 6197TIP3   OH240005   4.561   2.893   6.368  0.4352  0.2100 -0.6039
 6197TIP3    H140006   4.583   2.875   6.460 -2.6278 -1.5985 -0.0900
 6197TIP3    H240007   4.587   2.984   6.355  2.4076  0.0630  1.5453
 6198TIP3   OH240008   2.649   1.147  13.461 -0.8381  0.5489  0.2437
 6198TIP3    H140009   2.592   1.221  13.441 -0.7788  0.5803  0.1912
 6198TIP3    H240010   2.623   1.119  13.549 -1.3475  0.1847 -0.0162
 6199TIP3   OH240011   2.746   5.144   3.864  0.4615 -0.2554  0.2613
 6199TIP3    H140012   2.656   5.113   3.864  0.3880 -0.1877  2.0542
 6199TIP3    H240013   2.739   5.239   3.855  0.2848 -0.1676  1.2329
 6200TIP3   OH240014   1.881   0.916   4.524  0.4188  0.4228 -0.7138
 6200TIP3    H140015   1.796   0.953   4.547  0.3365  0.8116 -1.5893
 6200TIP3    H240016   1.894   0.845   4.586  0.0721  1.2210  0.2970
 6201TIP3   OH240017   3.975   5.641   6.069  0.0768  0.1779  0.4910
 6201TIP3    H140018   4.060   5.601   6.050  1.0312  1.1743  2.3744
 6201TIP3    H240019   3.977   5.724   6.022 -0.4587 -0.3874 -0.5722
 6202TIP3   OH240020   3.535   0.629   5.379 -0.0018  0.1072  0.0243
 6202TIP3    H140021   3.457   0.575   5.381  1.6646 -2.5111 -0.6762
 6202TIP3    H240022   3.550   0.647   5.286 -0.7721  2.2690  0.2624
 6203TIP3   OH240023   1.956   5.372  15.061 -0.3930 -0.6819  0.0218
 6203TIP3    H140024   2.034   5.329  15.098  0.4096  0.4396 -0.3122
 6203TIP3    H240025   1.886   5.352  15.123  0.3621 -0.9643  0.8064
 6204TIP3   OH240026   0.210   1.912   5.676  0.4616  0.6167 -0.2286
 6204TIP3    H140027   0.224   1.913   5.771 -0.6988 -0.5768 -0.0290
 6204TIP3    H240028   0.116   1.905   5.665  0.6779 -0.8074 -1.4542
 6205TIP3   OH240029   5.501   1.463   5.714  0.7379 -0.1078 -0.3507
 6205TIP3    H140030   5.486   1.493   5.804  0.1878  0.0348 -0.4879
 6205TIP3    H240031   5.584   1.416   5.719  0.7262 -0.0841  0.2296
 6206TIP3   OH240032   0.041   3.620  15.374 -0.0361  0.5263 -0.4809
 6206TIP3    H140033  -0.033   3.582  15.327  0.2423 -0.8534  0.1204
 6206TIP3    H240034   0.099   3.545  15.391  0.6131  1.2539  0.6727
 6207TIP3   OH240035   2.707   1.415   1.272 -0.1872  0.4641  0.1016
 6207TIP3    H140036   2.660   1.493   1.301  0.2236  0.1124  1.7611
 6207TIP3    H240037   2.749   1.381   1.350  2.6562  0.5923 -1.2529
 6208TIP3   OH240038   2.904   0.517   6.166 -0.0832 -0.2502 -0.1089
 6208TIP3    H140039   2.974   0.508   6.231 -0.4894 -0.8394  0.2563
 6208TIP3    H240040   2.918   0.445   6.104 -0.4002 -0.4181  0.0074
 6209TIP3   OH240041   3.206   5.749  13.790 -0.1173 -0.2616  0.5208
 6209TIP3    H140042   3.121   5.749  13.834 -0.9853 -0.9001 -1.0710
 6209TIP3    H240043   3.194   5.809  13.716  0.1142 -1.8870 -0.9063
 6210TIP3   OH240044   0.536   1.710  16.840  0.5667 -0.6307  0.0836
 6210TIP3    H140045   0.587   1.641  16.883 -2.0225 -1.7863  1.5367
 6210TIP3    H240046   0.475   1.740  16.907  0.0820  1.5223 -1.2094
 6211TIP3   OH240047   4.987   1.333  11.051  0.8432 -0.2750 -0.5318
 6211TIP3    H140048   4.964   1.425  11.065  2.9615  0.3687 -0.9104
 6211TIP3    H240049   5.057   1.316  11.115  0.9040 -1.4317 -0.8891
 6212TIP3   OH240050   3.336   4.634  12.379 -0.4975 -0.1514  0.0948
 6212TIP3    H140051   3.396   4.576  12.426 -0.4742  0.1902  0.4995
 6212TIP3    H240052   3.249   4.597  12.395 -0.4625 -0.1968  0.1803
 6213TIP3   OH240053   4.877   4.886  14.406  0.3967 -0.5653  0.5689
 6213TIP3    H140054   4.938   4.928  14.346  0.3442 -1.0844  0.1427
 6213TIP3    H240055   4.921   4.805  14.432  0.0863 -0.7224  0.6088
 6214TIP3   OH240056   1.261   2.864  10.922  0.2485  0.5996  0.6752
 6214TIP3    H140057   1.296   2.861  11.011  1.1725 -0.8205  0.2804
 6214TIP3    H240058   1.318   2.806  10.871 -0.9834  0.4522 -0.5907
 6215TIP3   OH240059   1.442   5.307  12.446  0.4120  0.0018 -0.5219
 6215TIP3    H140060   1.420   5.386  12.396  1.8262  1.3170  0.8148
 6215TIP3    H240061   1.443   5.336  12.537 -2.6427 -2.4383  0.4360
 6216TIP3   OH240062   0.773   3.589   3.013  0.3812 -0.2412  0.2390
 6216TIP3    H140063   0.786   3.615   2.922  1.9590 -1.3659  0.1006
 6216TIP3    H240064   0.835   3.642   3.063  1.2680 -1.3379  0.3378
 6217TIP3   OH240065   2.936   2.003  11.919 -0.5147  0.1932 -0.2324
 6217TIP3    H140066   3.007   1.952  11.957  0.2986  2.1433  1.0308
 6217TIP3    H240067   2.912   1.955  11.840  0.2752 -2.0178  0.7833
 6218TIP3   OH240068   5.778   6.435   3.298  0.0573 -0.4578 -0.1689
 6218TIP3    H140069   5.833   6.504   3.334  0.1016 -0.3807 -0.3889
 6218TIP3    H240070   5.819   6.354   3.328  3.1020 -0.6702 -4.1458
 6219TIP3   OH240071   2.057   1.771  14.415  0.1938  0.3149 -0.0362
 6219TIP3    H140072   1.981   1.820  14.447  0.1194  1.4324 -1.7715
 6219TIP3    H240073   2.080   1.713  14.487 -1.2931  1.1175  1.1551
 6220TIP3   OH240074   6.723   3.263   0.516  0.4216 -0.5160 -0.1933
 6220TIP3    H140075   6.745   3.178   0.480 -0.4840 -1.1777  0.7432
 6220TIP3    H240076   6.663   3.302   0.452  1.1452 -0.4150 -0.8094
 6221TIP3   OH240077   2.670   2.272  14.859  0.3715 -0.0805  0.0038
 6221TIP3    H140078   2.633   2.360  14.854 -0.4535 -0.4345 -0.3166
 6221TIP3    H240079   2.667   2.239  14.770 -0.6298 -0.9452  0.3414
 6222TIP3   OH240080   5.438   4.332  12.526  0.4151 -0.3812 -0.6777
 6222TIP3    H140081   5.496   4.409  12.525  0.3021  0.0196  3.6563
 6222TIP3    H240082   5.497   4.258  12.538  0.2974 -0.1773  1.6744
 6223TIP3   OH240083   4.307   1.963  12.320  0.1756 -0.0417 -0.3798
 6223TIP3    H140084   4.380   1.961  12.382  0.5431 -2.0670 -0.8090
 6223TIP3    H240085   4.310   2.051  12.284  1.9250  0.1882  0.1915
 6224TIP3   OH240086   1.312   4.664  14.986  0.1760 -0.0788  0.3165
 6224TIP3    H140087   1.226   4.642  15.021 -0.5285  1.3297 -0.4672
 6224TIP3    H240088   1.302   4.660  14.891  1.1478 -0.4768  0.2117
 6225TIP3   OH240089   2.474   3.662  11.980 -0.4641 -0.0329  0.4298
 6225TIP3    H140090   2.559   3.704  11.991 -0.3838 -0.2395  0.6108
 6225TIP3    H240091   2.475   3.629  11.890 -0.4092  0.0903  0.3855
 6226TIP3   OH240092   6.293   3.536  16.656  0.4138 -0.8177 -0.2682
 6226TIP3    H140093   6.200   3.548  16.678  1.1228  1.1534  2.0588
 6226TIP3    H240094   6.330   3.494  16.733  1.8125  0.1459 -0.4010
 6227TIP3   OH240095   2.535   1.779   5.913  0.3631 -0.2050 -0.1858
 6227TIP3    H140096   2.581   1.705   5.874  2.4348 -0.7861  3.0228
 6227TIP3    H240097   2.585   1.801   5.991 -0.9334  3.7876 -0.2360
 6228TIP3   OH240098   2.667   5.914  16.240 -0.2557 -0.1305 -0.0328
 6228TIP3    H140099   2.699   5.850  16.303 -0.8390  0.0824  0.4956
 6228TIP3    H240100   2.572   5.914  16.252 -0.5080 -0.8887 -1.6867
 6229TIP3   OH240101   4.933   1.043  13.902  0.0702  0.3664  0.7300
 6229TIP3    H140102   4.954   0.960  13.945 -1.7353 -0.0370  0.9143
 6229TIP3    H240103   4.980   1.109  13.953  1.0648 -0.4772  0.9365
 6230TIP3   OH240104   1.306   3.083  14.092 -0.9115  0.2934  0.3028
 6230TIP3    H140105   1.283   3.114  14.179 -1.8701  0.0461  0.1421
 6230TIP3    H240106   1.385   3.132  14.069 -1.8627  1.9632  0.4355
 6231TIP3   OH240107   0.605   0.248   3.320 -0.5236  0.0800  0.7041
 6231TIP3    H140108   0.526   0.211   3.357 -1.3161 -1.3974 -2.1624
 6231TIP3    H240109   0.574   0.314   3.258  0.5082 -0.0820 -0.0102
 6232TIP3   OH240110   2.436   3.070   4.589  0.4481 -0.0449 -0.4725
 6232TIP3    H140111   2.422   3.010   4.663  0.8968  2.0333  1.4252
 6232TIP3    H240112   2.367   3.047   4.527 -0.1112 -1.7446  0.6870
 6233TIP3   OH240113   4.724   2.500   3.089 -0.0626  0.0850 -0.2571
 6233TIP3    H140114   4.733   2.452   3.007  1.2855 -0.3909  0.1587
 6233TIP3    H240115   4.735   2.592   3.064  1.2581 -0.1249 -0.4776
 6234TIP3   OH240116   1.245   1.421  12.199  0.2352 -0.8994  0.2021
 6234TIP3    H140117   1.260   1.327  12.190  1.8630 -0.4973 -2.4787
 6234TIP3    H240118   1.175   1.440  12.137  1.6604 -0.0283 -1.2048
 6235TIP3   OH240119   0.339   4.720   1.176  0.4247 -0.2123 -0.0311
 6235TIP3    H140120   0.358   4.760   1.091 -1.0176  0.8832  0.1283
 6235TIP3    H240121   0.351   4.792   1.239 -2.6852  0.2084  0.2163
 6236TIP3   OH240122   5.924   3.825  10.342 -0.9470  0.8333 -0.0921
 6236TIP3    H140123   5.876   3.864  10.415 -2.0477 -0.0357 -0.3282
 6236TIP3    H240124   5.905   3.731  10.348  0.3996  0.5173 -0.4499
 6237TIP3   OH240125   0.102   4.254  11.986  0.0421 -0.6603 -0.1209
 6237TIP3    H140126   0.008   4.272  11.981  0.4010  1.2898 -0.5553
 6237TIP3    H240127   0.141   4.314  11.922  1.5949 -1.4256  0.0740
 6238TIP3   OH240128   1.134   2.867   0.630 -0.6768  0.2070 -0.5366
 6238TIP3    H140129   1.126   2.772   0.637  0.4334  0.2219  2.3633
 6238TIP3    H240130   1.044   2.899   0.628 -1.1134 -0.8864 -3.4030
 6239TIP3   OH240131   1.701   4.964  13.239  0.6790 -0.6002 -0.0763
 6239TIP3    H140132   1.783   5.001  13.205 -0.1733 -0.8803 -2.7177
 6239TIP3    H240133   1.641   4.968  13.164 -1.5484 -0.9731  1.5853
 6240TIP3   OH240134   1.733   5.618   0.910 -0.5657 -0.2368 -0.2770
 6240TIP3    H140135   1.672   5.678   0.869  0.3768  0.6120 -0.4645
 6240TIP3    H240136   1.741   5.546   0.848 -0.5616  0.1569 -0.7374
 6241TIP3   OH240137   2.932   4.091   3.931  0.2000 -0.2735 -0.1792
 6241TIP3    H140138   2.898   4.043   3.856 -0.6152  1.0068 -0.6625
 6241TIP3    H240139   2.967   4.023   3.989  0.7085 -1.3052 -1.6273
 6242TIP3   OH240140   4.064   6.168   6.442  0.0401 -0.0356 -0.1220
 6242TIP3    H140141   4.079   6.236   6.377  0.3074 -0.2626 -0.3009
 6242TIP3    H240142   4.142   6.171   6.498 -0.5382  0.6833  0.6646
 6243TIP3   OH240143   0.322   6.223   5.719  0.6914 -0.4370 -0.1079
 6243TIP3    H140144   0.334   6.254   5.809 -0.2887  0.9063 -0.4053
 6243TIP3    H240145   0.410   6.198   5.690  0.8618 -2.0345  1.5894
 6244TIP3   OH240146   2.503   3.849   2.697  0.7962  0.2439  0.1766
 6244TIP3    H140147   2.543   3.855   2.784  0.9349  0.1468  0.1203
 6244TIP3    H240148   2.544   3.772   2.657 -1.4618 -1.6151  1.1699
 6245TIP3   OH240149   5.155   6.023   4.156  0.1113 -0.3229  0.2354
 6245TIP3    H140150   5.113   6.085   4.097  0.7453  0.1942  0.3122
 6245TIP3    H240151   5.085   5.963   4.182 -0.3199 -0.1549 -0.5089
 6246TIP3   OH240152   2.485   3.395  12.535 -0.3068  0.4211 -0.4874
 6246TIP3    H140153   2.398   3.397  12.575 -0.2932  1.4276 -0.4694
 6246TIP3    H240154   2.471   3.356  12.449 -0.6325 -0.1633 -0.1779
 6247TIP3   OH240155   0.690   6.215   4.284 -0.3256 -0.0433  0.3186
 6247TIP3    H140156   0.783   6.207   4.303 -0.0621  1.8302 -0.0863
 6247TIP3    H240157   0.647   6.207   4.370  0.1816 -0.7917  0.5169
 6248TIP3   OH240158   4.502   0.832  11.374 -0.2800  0.2200  0.1576
 6248TIP3    H140159   4.488   0.876  11.290  0.6034  1.2843  0.5450
 6248TIP3    H240160   4.504   0.738  11.352  0.6334  0.5043 -1.1307
 6249TIP3   OH240161   0.036   4.926  11.649  0.3135  0.1522 -0.2634
 6249TIP3    H140162   0.024   4.926  11.554  0.9794 -0.9783 -0.3681
 6249TIP3    H240163   0.037   5.018  11.673  0.6015  0.4711 -1.4167
 6250TIP3   OH240164   6.647   2.732   4.777  0.3423  0.0192  0.1143
 6250TIP3    H140165   6.612   2.643   4.786 -0.1476 -0.0227 -1.7494
 6250TIP3    H240166   6.577   2.780   4.732  2.0146  0.3648 -2.2699
 6251TIP3   OH240167   5.596   4.431  16.635  0.1115 -0.4509 -0.2789
 6251TIP3    H140168   5.559   4.459  16.719  0.0488 -1.7689  0.1535
 6251TIP3    H240169   5.645   4.352  16.655  3.6744  1.4041 -0.7271
 6252TIP3   OH240170   0.954   5.135   4.488 -0.0731  0.0715  0.5547
 6252TIP3    H140171   0.870   5.136   4.534 -1.2712 -0.6885 -1.4791
 6252TIP3    H240172   0.991   5.049   4.509 -1.4085 -0.9830 -1.1341
 6253TIP3   OH240173   1.588   2.814  14.719  0.6740  0.2509 -0.3570
 6253TIP3    H140174   1.618   2.876  14.653  1.8044  0.7717  0.5993
 6253TIP3    H240175   1.555   2.869  14.790 -1.6925 -0.2971 -0.9435
 6254TIP3   OH240176   5.141   4.189  11.951  0.3649 -0.4937  0.4215
 6254TIP3    H140177   5.187   4.118  11.907 -0.9322 -1.9875  1.3689
 6254TIP3    H240178   5.129   4.158  12.041 -2.5078 -0.2657  0.2184
 6255TIP3   OH240179   0.583   2.808   2.550  0.7445  0.4988 -0.3079
 6255TIP3    H140180   0.519   2.764   2.605  0.5981  2.6229  1.3347
 6255TIP3    H240181   0.544   2.807   2.462 -1.6427  1.8193  0.6656
 6256TIP3   OH240182   2.806   1.006   1.038 -0.0626  0.3782  0.3002
 6256TIP3    H140183   2.777   1.063   0.966  0.5735  0.0922 -0.1962
 6256TIP3    H240184   2.769   1.046   1.116 -0.8576  0.6402 -0.1972
 6257TIP3   OH240185   5.020   5.516  13.028 -0.1842 -0.6064  0.7787
 6257TIP3    H140186   5.051   5.544  13.113  1.8247  0.8723 -0.3713
 6257TIP3    H240187   5.094   5.470  12.989 -0.1423  0.9698 -1.1463
 6258TIP3   OH240188   1.886   6.474   5.634 -0.0394  0.6040  0.0861
 6258TIP3    H140189   1.883   6.567   5.658 -1.8323  0.3946  0.8402
 6258TIP3    H240190   1.837   6.469   5.552 -1.1951  0.1652  0.7733
 6259TIP3   OH240191   4.887   2.842  14.029  0.2721 -1.3045  0.4086
 6259TIP3    H140192   4.954   2.877  13.970 -0.6818 -0.2861 -0.1209
 6259TIP3    H240193   4.931   2.835  14.114  0.6107  1.0541  0.5135
 6260TIP3   OH240194   3.646   2.704  14.332  0.4516  0.3809  0.0692
 6260TIP3    H140195   3.701   2.662  14.398 -0.6149  0.4743  1.0538
 6260TIP3    H240196   3.659   2.652  14.253 -1.8690 -2.7247  1.5637
 6261TIP3   OH240197   1.205   6.068  11.186 -0.2051  0.0628 -0.3077
 6261TIP3    H140198   1.160   6.152  11.185 -0.6733 -0.1210  1.3638
 6261TIP3    H240199   1.135   6.003  11.175  0.0413 -0.1360 -0.7173
 6262TIP3   OH240200   4.171   0.984   2.163 -0.3883  0.0326 -0.5232
 6262TIP3    H140201   4.217   1.063   2.135  0.1949  0.3820  1.2726
 6262TIP3    H240202   4.236   0.914   2.157  0.6074  0.5635  2.2221
 6263TIP3   OH240203   5.740   6.594  16.185  0.1143  0.2726  0.3006
 6263TIP3    H140204   5.733   6.650  16.108  1.2325  0.0748  0.0289
 6263TIP3    H240205   5.653   6.595  16.225 -0.6790 -0.1547 -1.3400
 6264TIP3   OH240206   4.538   0.255   1.735 -0.0344  0.1475  0.1988
 6264TIP3    H140207   4.557   0.343   1.700 -2.4768  1.2017  1.2601
 6264TIP3    H240208   4.486   0.272   1.813 -1.1618 -2.2751  0.0548
 6265TIP3   OH240209   3.877   4.568   4.523 -0.0224  0.3925 -0.2102
 6265TIP3    H140210   3.944   4.636   4.523 -0.4280  0.9443 -3.7210
 6265TIP3    H240211   3.902   4.508   4.453 -3.0755  0.5797 -1.6444
 6266TIP3   OH240212   4.592   6.004  12.163 -0.3394 -0.3649 -0.2025
 6266TIP3    H140213   4.533   5.935  12.192  0.0238  0.2420  2.1927
 6266TIP3    H240214   4.638   5.966  12.088 -2.4768 -1.4709 -1.0306
 6267TIP3   OH240215   6.721   6.612   6.358  0.1342 -0.0195  0.5778
 6267TIP3    H140216   6.783   6.558   6.406  1.7659  0.7686 -0.5521
 6267TIP3    H240217   6.753   6.702   6.370 -0.3228  0.3269 -0.6554
 6268TIP3   OH240218   2.045   2.125  13.433 -0.3677 -0.3055 -0.2398
 6268TIP3    H140219   2.107   2.174  13.487  1.9024 -0.4352 -2.5379
 6268TIP3    H240220   2.084   2.126  13.346 -2.4056 -2.5773 -1.2781
 6269TIP3   OH240221   1.551   6.759  14.935 -0.1114 -0.2681  0.0263
 6269TIP3    H140222   1.496   6.774  14.858 -0.7215 -0.7126  0.3693
 6269TIP3    H240223   1.507   6.805  15.006  1.7647  2.3363 -0.3441
 6270TIP3   OH240224   5.074   2.000  13.642 -0.4927  0.6860  0.0902
 6270TIP3    H140225   5.024   1.977  13.564 -0.2361  3.6319 -1.0725
 6270TIP3    H240226   5.164   1.975  13.621 -0.5324  0.8626 -0.2911
 6271TIP3   OH240227   5.548   2.143   0.238  0.2836  0.0687 -0.1943
 6271TIP3    H140228   5.492   2.147   0.315  1.8232 -2.5734  1.1829
 6271TIP3    H240229   5.505   2.081   0.179  0.6126 -0.2307 -0.1238
 6272TIP3   OH240230   1.430   6.088  13.177 -0.4939  0.3186  0.4459
 6272TIP3    H140231   1.460   6.045  13.257 -1.0520 -1.0338 -0.0374
 6272TIP3    H240232   1.342   6.054  13.163 -0.7829  1.2806 -0.2303
 6273TIP3   OH240233   1.239   2.818  11.384  0.6153 -0.1815  0.1675
 6273TIP3    H140234   1.266   2.881  11.451  2.7974 -0.6054 -0.2368
 6273TIP3    H240235   1.157   2.781  11.417  1.5266 -0.2580  2.5456
 6274TIP3   OH240236   5.898   5.158   1.360  0.1850  0.2849  0.0797
 6274TIP3    H140237   5.924   5.133   1.449 -0.8842  0.8351  0.5647
 6274TIP3    H240238   5.841   5.087   1.331 -1.2381  1.1489  0.6909
 6275TIP3   OH240239   0.128   3.556  16.902 -0.6267 -1.0689 -0.4257
 6275TIP3    H140240   0.217   3.521  16.901 -0.5843 -0.9947  0.1512
 6275TIP3    H240241   0.071   3.479  16.898 -0.5492 -1.0807 -1.6691
 6276TIP3   OH240242   1.620   5.412  16.616 -0.2529  0.2643 -0.5742
 6276TIP3    H140243   1.557   5.341  16.630  0.5651 -0.1918  1.1165
 6276TIP3    H240244   1.613   5.465  16.695  0.7016  0.8216 -0.8557
 6277TIP3   OH240245   2.030   2.324   4.501  0.8153 -0.6342  0.4068
 6277TIP3    H140246   2.033   2.312   4.595  2.0624 -0.6943  0.3699
 6277TIP3    H240247   2.033   2.419   4.488  2.4576 -0.6605  0.4004
 6278TIP3   OH240248   5.734   0.381   2.649  0.6412 -0.2800 -0.0888
 6278TIP3    H140249   5.691   0.455   2.693 -3.5138 -3.1873  1.3865
 6278TIP3    H240250   5.699   0.382   2.560  0.3096 -0.6408  0.0357
 6279TIP3   OH240251   3.196   3.014   0.671 -0.2943 -0.1876 -0.3044
 6279TIP3    H140252   3.173   3.091   0.619 -0.8213  0.3852  0.7394
 6279TIP3    H240253   3.277   3.039   0.716 -1.0485  0.2135  0.8910
 6280TIP3   OH240254   5.495   4.474  15.876 -0.1437 -0.3346 -0.4522
 6280TIP3    H140255   5.507   4.404  15.811 -1.8521 -1.7295  0.6390
 6280TIP3    H240256   5.576   4.472  15.928 -0.1219 -1.4491 -0.5055
 6281TIP3   OH240257   3.457   0.799  11.894  0.0407  0.5419 -0.4346
 6281TIP3    H140258   3.543   0.807  11.853  0.6530  0.8208  0.8719
 6281TIP3    H240259   3.474   0.754  11.977 -1.2469 -0.5216 -0.6989
 6282TIP3   OH240260   4.136   3.565   0.676  0.3995  0.3451 -0.4998
 6282TIP3    H140261   4.060   3.562   0.618  0.4732  3.9761 -0.9937
 6282TIP3    H240262   4.166   3.656   0.672  4.6375 -0.8159 -0.1349
 6283TIP3   OH240263   3.479   2.114  16.456 -0.2197 -0.6373  0.3527
 6283TIP3    H140264   3.555   2.058  16.438  1.2689  1.5112 -0.3806
 6283TIP3    H240265   3.510   2.174  16.524 -1.2195  0.3378 -0.0357
 6284TIP3   OH240266   6.047   6.607   0.847 -0.3947 -0.2621  0.4481
 6284TIP3    H140267   6.081   6.546   0.912  0.4450 -0.0857  0.1868
 6284TIP3    H240268   6.068   6.694   0.882  1.3243 -0.1719 -0.6713
 6285TIP3   OH240269   2.335   5.559  11.855 -0.1664  0.0992 -0.2494
 6285TIP3    H140270   2.304   5.625  11.917  0.8774  1.5722 -1.2088
 6285TIP3    H240271   2.319   5.475  11.898 -1.6853  0.9653  0.9497
 6286TIP3   OH240272   2.898   0.188  16.721  0.5950 -0.6558  0.0064
 6286TIP3    H140273   2.957   0.253  16.681  0.2704 -1.5239 -2.0279
 6286TIP3    H240274   2.837   0.165  16.650 -0.0391 -2.2973  1.0368
 6287TIP3   OH240275   5.979   0.054  11.048 -0.1493 -0.4554 -0.0595
 6287TIP3    H140276   5.898   0.104  11.034  0.2104 -0.3108 -1.9607
 6287TIP3    H240277   6.043   0.097  10.991  0.9020 -1.4133  0.3676
 6288TIP3   OH240278   0.847   0.832  10.625  0.4296  0.0884 -0.5832
 6288TIP3    H140279   0.846   0.927  10.631  1.3161  0.0937 -0.3080
 6288TIP3    H240280   0.764   0.809  10.583  0.5910  1.0360 -1.4541
 6289TIP3   OH240281   2.658   4.609  16.371  0.7020  0.1664 -0.1879
 6289TIP3    H140282   2.736   4.631  16.320  0.7618 -0.6852 -0.4911
 6289TIP3    H240283   2.640   4.687  16.423  1.0080  0.8318 -1.0526
 6290TIP3   OH240284   5.480   4.246  11.344  0.6671 -0.2930  0.0338
 6290TIP3    H140285   5.562   4.265  11.298 -1.3873 -0.9093 -4.3617
 6290TIP3    H240286   5.435   4.330  11.349  1.0060 -0.1580  1.4845
 6291TIP3   OH240287   4.214   6.417   4.391 -0.4547  0.0706 -0.3837
 6291TIP3    H140288   4.143   6.466   4.432 -0.7638 -1.3138  0.8399
 6291TIP3    H240289   4.179   6.328   4.381  0.8441 -0.4606 -0.4248
 6292TIP3   OH240290   4.556   4.851  15.900  0.1428  0.3817  0.2944
 6292TIP3    H140291   4.649   4.868  15.886  0.0707  1.1306  0.6302
 6292TIP3    H240292   4.550   4.757  15.918  1.1876  0.7180  2.8142
 6293TIP3   OH240293   5.038   5.171  16.419  0.2205 -0.9808 -0.4837
 6293TIP3    H140294   4.990   5.096  16.385  0.3717 -2.1141  1.6524
 6293TIP3    H240295   4.971   5.227  16.458  0.0229  0.4109 -2.6950
 6294TIP3   OH240296   1.273   3.012  14.434  0.7574  0.5281 -0.1795
 6294TIP3    H140297   1.216   3.018  14.510 -0.8641 -1.2109 -1.1633
 6294TIP3    H240298   1.271   3.099  14.395 -1.7848  0.3840 -0.5158
 6295TIP3   OH240299   2.486   1.490   1.549 -0.2707 -0.5796 -0.2271
 6295TIP3    H140300   2.402   1.517   1.511 -0.4922 -3.1443 -1.8114
 6295TIP3    H240301   2.478   1.511   1.642 -1.5821  1.6470 -0.7749
 6296TIP3   OH240302   0.564   1.404   4.792  0.4359 -0.0169  0.0180
 6296TIP3    H140303   0.616   1.482   4.769  0.4282 -0.5310 -1.9482
 6296TIP3    H240304   0.475   1.437   4.801  0.8169  0.6319  2.0056
 6297TIP3   OH240305   0.230   3.425   1.442  0.6982  0.2933 -0.2285
 6297TIP3    H140306   0.181   3.502   1.412 -1.7077 -1.8716 -2.2792
 6297TIP3    H240307   0.268   3.388   1.362 -0.7287 -2.2466  0.1614
 6298TIP3   OH240308   0.283   3.774   3.592  0.0228  0.4901 -0.0369
 6298TIP3    H140309   0.246   3.832   3.659  1.4964  1.3401  0.0697
 6298TIP3    H240310   0.303   3.832   3.518 -1.2099 -0.3756 -1.0916
 6299TIP3   OH240311   5.770   4.719  14.790 -0.0836 -0.2453  0.1973
 6299TIP3    H140312   5.847   4.776  14.791 -1.2804  1.4802 -0.7011
 6299TIP3    H240313   5.733   4.726  14.878 -0.4894  0.8003 -0.0422
 6300TIP3   OH240314   4.653   3.926   1.551  1.0542 -0.3986 -0.2950
 6300TIP3    H140315   4.680   3.920   1.642  1.8492 -0.0187 -0.4976
 6300TIP3    H240316   4.729   3.962   1.505  0.3049  0.4402 -0.9262
 6301TIP3   OH240317   1.878   3.028   5.591  0.2482 -0.4058  0.4098
 6301TIP3    H140318   1.803   2.990   5.637 -0.0228 -0.9898 -0.4801
 6301TIP3    H240319   1.890   2.971   5.514 -0.1778  1.3023 -0.9702
 6302TIP3   OH240320   6.561   5.316  15.845 -0.3167 -0.8745  0.0165
 6302TIP3    H140321   6.580   5.237  15.794  1.7831 -0.5421  0.1938
 6302TIP3    H240322   6.496   5.288  15.910  0.5767 -2.5375  0.2477
 6303TIP3   OH240323   3.800   0.859   1.485 -0.0931  0.5955 -0.3385
 6303TIP3    H140324   3.786   0.933   1.425 -1.7336  1.7577  1.3541
 6303TIP3    H240325   3.715   0.817   1.491  0.6616 -1.0787 -0.7289
 6304TIP3   OH240326   2.405   3.731  16.604  0.0557  0.1800 -0.1808
 6304TIP3    H140327   2.457   3.803  16.641  1.2451 -0.4165 -0.6581
 6304TIP3    H240328   2.445   3.652  16.639 -1.7057 -0.2930  0.9498
 6305TIP3   OH240329   6.743   1.244   0.596 -0.6134  0.4994 -0.2942
 6305TIP3    H140330   6.785   1.232   0.681 -2.8936 -0.4693  0.7613
 6305TIP3    H240331   6.755   1.160   0.551 -0.7882  0.4711 -0.2879
 6306TIP3   OH240332   3.741   3.106  11.388  0.1589 -0.1646 -0.0607
 6306TIP3    H140333   3.822   3.065  11.358  0.2366  0.9798 -1.5100
 6306TIP3    H240334   3.724   3.176  11.325 -2.8779 -1.4226 -0.8678
 6307TIP3   OH240335   3.959   2.674  11.897 -0.3968 -0.2726  0.0096
 6307TIP3    H140336   3.932   2.660  11.988 -1.4901 -0.4636 -0.3335
 6307TIP3    H240337   4.000   2.761  11.898 -0.9819  0.0068  0.5588
 6308TIP3   OH240338   6.750   2.630   1.408  0.0949 -0.4318  0.2766
 6308TIP3    H140339   6.698   2.607   1.331 -0.9555 -0.3056  0.9291
 6308TIP3    H240340   6.739   2.725   1.417 -1.0529 -0.6366  1.4335
 6309TIP3   OH240341   4.543   3.223   0.436  0.7872  0.8381 -0.1415
 6309TIP3    H140342   4.583   3.180   0.512  0.7723  0.7172 -0.2018
 6309TIP3    H240343   4.582   3.179   0.360  0.4355  0.6181 -0.2005
 6310TIP3   OH240344   4.407   6.520   4.817  0.4695  0.3252 -0.0963
 6310TIP3    H140345   4.339   6.543   4.754 -1.8541 -3.7001  0.5558
 6310TIP3    H240346   4.403   6.588   4.884 -2.4444  0.6746 -0.5088
 6311TIP3   OH240347   6.113   5.092  12.273 -0.4001  0.0315  0.6553
 6311TIP3    H140348   6.079   5.168  12.320  0.2435  1.0268 -0.4439
 6311TIP3    H240349   6.084   5.104  12.183  1.4290  0.0662  0.0306
 6312TIP3   OH240350   3.001   0.834  13.825  0.2028 -0.1213 -0.1547
 6312TIP3    H140351   2.908   0.814  13.812  0.1570 -2.1834  2.5935
 6312TIP3    H240352   3.002   0.918  13.871 -0.2794 -0.0932 -0.1963
 6313TIP3   OH240353   5.590   5.187   2.439  0.1283 -0.2171 -0.2892
 6313TIP3    H140354   5.500   5.154   2.436  0.4348 -1.3044  1.1517
 6313TIP3    H240355   5.633   5.145   2.364 -0.2657 -0.6798 -0.2632
 6314TIP3   OH240356   5.016   4.740  15.966 -0.0482  0.0977  0.3807
 6314TIP3    H140357   5.094   4.732  15.911  2.2472  1.1060  3.2671
 6314TIP3    H240358   4.996   4.650  15.992  0.8173 -0.0642  0.5038
 6315TIP3   OH240359   3.567   5.284   0.602 -0.5297 -0.1518  0.2006
 6315TIP3    H140360   3.490   5.329   0.567 -0.4272 -1.1101 -1.3337
 6315TIP3    H240361   3.570   5.310   0.694 -1.9323  0.9305 -0.0288
 6316TIP3   OH240362   1.737   5.332  15.217 -0.0622  0.7078 -0.0270
 6316TIP3    H140363   1.726   5.243  15.251 -0.0904 -0.3361 -2.5338
 6316TIP3    H240364   1.656   5.349  15.168  0.7655  1.3246 -1.2124
 6317TIP3   OH240365   5.073   3.475  14.221  0.4273  0.0722 -0.0446
 6317TIP3    H140366   5.157   3.520  14.221  0.9910 -0.9354 -0.3192
 6317TIP3    H240367   5.070   3.430  14.306  0.3951 -0.3044 -0.2428
 6318TIP3   OH240368   4.727   2.071   0.397  0.3100  0.2416 -0.1124
 6318TIP3    H140369   4.763   2.066   0.308 -1.9195 -0.5460 -1.0517
 6318TIP3    H240370   4.640   2.110   0.385  0.4301  1.2559  1.9172
 6319TIP3   OH240371   1.863   1.433  16.896 -0.2409 -0.4908 -0.2161
 6319TIP3    H140372   1.767   1.437  16.901 -0.2557 -1.6981  0.7566
 6319TIP3    H240373   1.892   1.517  16.932 -0.9213 -0.5494  0.5004
 6320TIP3   OH240374   4.055   5.624  13.480 -0.3374 -0.3730 -0.0683
 6320TIP3    H140375   3.981   5.571  13.508 -1.3233  0.2101 -1.4423
 6320TIP3    H240376   4.039   5.640  13.387  1.0315  0.5551 -0.1703
 6321TIP3   OH240377   4.150   2.414  13.825 -0.3636 -0.2291  0.0749
 6321TIP3    H140378   4.101   2.411  13.742  0.0105 -0.6234 -0.1329
 6321TIP3    H240379   4.134   2.503  13.859 -0.6081 -0.1032 -0.3631
 6322TIP3   OH240380   0.706   0.298  13.744 -0.4062 -0.4523  0.1878
 6322TIP3    H140381   0.721   0.365  13.811  1.4265  1.0369 -1.5640
 6322TIP3    H240382   0.612   0.301  13.727 -0.4788  1.1570  0.7063
 6323TIP3   OH240383   2.093   5.606   0.705 -0.4021 -0.7563  0.1694
 6323TIP3    H140384   2.159   5.633   0.641 -0.4152 -1.0531  0.0312
 6323TIP3    H240385   2.010   5.616   0.659 -0.7174  2.1248  1.1398
 6324TIP3   OH240386   2.583   4.153  11.954 -0.5732 -0.5147  0.3092
 6324TIP3    H140387   2.606   4.164  12.047 -0.7145 -2.0060  0.5510
 6324TIP3    H240388   2.489   4.174  11.951 -0.3897  0.3429  0.3372
 6325TIP3   OH240389   0.798   2.034   5.329 -0.2595  0.6793  0.4593
 6325TIP3    H140390   0.761   1.946   5.338 -0.2941  0.6624  0.1778
 6325TIP3    H240391   0.792   2.072   5.416 -0.2312  0.3962  0.5878
 6326TIP3   OH240392   2.508   2.483  15.290  0.9476  0.0783 -0.4434
 6326TIP3    H140393   2.423   2.452  15.322  0.6323  1.0017 -0.3633
 6326TIP3    H240394   2.515   2.571  15.325  1.4163  0.4405 -1.4339
 6327TIP3   OH240395   4.356   3.732   3.795 -0.0874  0.5595 -0.0787
 6327TIP3    H140396   4.323   3.699   3.712 -0.0376 -0.4524  0.2872
 6327TIP3    H240397   4.403   3.813   3.772  2.6630 -1.2627 -1.5323
 6328TIP3   OH240398   5.488   2.655   5.916 -0.4628 -0.5113 -0.2239
 6328TIP3    H140399   5.556   2.648   5.849  0.4395  1.0702  0.4812
 6328TIP3    H240400   5.530   2.700   5.989 -2.1494  0.0899  0.4307
 6329TIP3   OH240401   2.103   6.455  16.033 -0.4678 -0.6126 -0.3225
 6329TIP3    H140402   2.189   6.476  15.996  0.3217 -3.4946 -0.3161
 6329TIP3    H240403   2.110   6.482  16.124  1.1468 -2.4045  0.1556
 6330TIP3   OH240404   1.013   0.436   3.878  0.4401 -0.0741  0.1002
 6330TIP3    H140405   0.958   0.479   3.813  1.1345  0.5802 -0.0567
 6330TIP3    H240406   1.026   0.348   3.843  0.5815  0.1865 -0.5032
 6331TIP3   OH240407   3.776   6.602   3.532 -0.0153 -0.4101  0.3646
 6331TIP3    H140408   3.745   6.631   3.446  2.2030 -0.1531 -0.4092
 6331TIP3    H240409   3.711   6.537   3.560 -1.0816 -0.1030 -1.2388
 6332TIP3   OH240410   3.399   1.975   5.787 -0.1868 -0.5059 -0.1692
 6332TIP3    H140411   3.407   2.065   5.756  0.0179  0.1759  1.7295
 6332TIP3    H240412   3.485   1.936   5.772  0.8959  0.7600  2.2399
 6333TIP3   OH240413   4.544   4.393   2.487 -0.9070 -0.0110  0.0649
 6333TIP3    H140414   4.467   4.409   2.541  0.0659  0.2517  1.4318
 6333TIP3    H240415   4.586   4.318   2.528 -0.3812 -0.0894 -0.6061
 6334TIP3   OH240416   6.194   3.149  10.584  0.0209 -0.5364 -0.4006
 6334TIP3    H140417   6.170   3.130  10.494 -1.7235 -0.1692 -0.0622
 6334TIP3    H240418   6.141   3.088  10.636 -0.2577  0.3740  0.4132
 6335TIP3   OH240419   6.714   5.650   4.125 -0.0812 -0.2745  0.4710
 6335TIP3    H140420   6.711   5.612   4.212  0.5753  2.1781  1.6638
 6335TIP3    H240421   6.664   5.590   4.070 -0.3351 -1.9915  2.4762
 6336TIP3   OH240422   3.098   4.667   3.001 -0.1743 -0.7776  0.0463
 6336TIP3    H140423   3.121   4.628   2.917 -0.3215 -0.3495 -0.1958
 6336TIP3    H240424   3.040   4.740   2.979  0.2256 -0.3190  0.4770
 6337TIP3   OH240425   3.204   5.113   4.080 -0.3439 -0.0609 -0.5274
 6337TIP3    H140426   3.232   5.046   4.142  4.1770 -0.0178 -2.1350
 6337TIP3    H240427   3.210   5.195   4.128  1.2446 -0.2007 -0.4522
 6338TIP3   OH240428   5.517   4.993  16.563  0.0787 -0.5916  0.1156
 6338TIP3    H140429   5.533   4.900  16.551  0.9291 -0.3402 -0.8454
 6338TIP3    H240430   5.564   5.016  16.644 -0.2736 -1.0146  0.4452
 6339TIP3   OH240431   3.429   2.884  14.287 -0.1039  0.5122  0.2909
 6339TIP3    H140432   3.380   2.839  14.355  0.8816 -0.7375  0.2188
 6339TIP3    H240433   3.500   2.824  14.265 -0.4219  0.8344 -1.8806
 6340TIP3   OH240434   0.158   5.978   5.109 -0.0114 -0.5427  0.2998
 6340TIP3    H140435   0.176   5.931   5.028  2.5629  0.3462  0.2843
 6340TIP3    H240436   0.183   5.917   5.178  0.2556 -0.3818  0.3484
 6341TIP3   OH240437   1.747   0.938   5.476  0.4074 -0.5149  0.2033
 6341TIP3    H140438   1.723   0.954   5.567  0.2993 -0.0368  0.0918
 6341TIP3    H240439   1.830   0.984   5.463 -0.3971  0.8414 -0.3892
 6342TIP3   OH240440   5.688   4.713   6.404 -0.2143 -0.5662  0.2266
 6342TIP3    H140441   5.687   4.789   6.346  0.6759 -0.5363  0.2338
 6342TIP3    H240442   5.695   4.749   6.492 -1.4448 -0.6161  0.3520
 6343TIP3   OH240443   1.831   1.299   4.030  0.7222  0.0864  0.0391
 6343TIP3    H140444   1.745   1.259   4.044  0.1088  1.5593  0.6572
 6343TIP3    H240445   1.812   1.389   4.003  2.0654  0.0247 -1.2621
 6344TIP3   OH240446   1.814   3.968   4.438 -0.4695 -0.1623  0.4187
 6344TIP3    H140447   1.820   3.988   4.344 -0.8153 -1.9966 -0.0311
 6344TIP3    H240448   1.791   4.052   4.479  2.5679  1.4002 -0.7465
 6345TIP3   OH240449   0.079   2.555  11.607  0.0105  1.0153 -0.3061
 6345TIP3    H140450   0.039   2.573  11.692  1.0496 -0.2771  0.4880
 6345TIP3    H240451   0.154   2.615  11.603  1.3096 -0.4537  0.7373
 6346TIP3   OH240452   1.267   1.164   1.410 -0.3593  0.2154  0.4137
 6346TIP3    H140453   1.178   1.145   1.441 -1.3584  3.7169  0.0979
 6346TIP3    H240454   1.265   1.139   1.317 -0.7826 -0.3234  0.5611
 6347TIP3   OH240455   2.598   3.885  13.467 -0.2357 -0.2767 -1.0800
 6347TIP3    H140456   2.693   3.874  13.461 -0.2976 -2.8089  0.6660
 6347TIP3    H240457   2.585   3.970  13.508  1.4230 -0.6718  0.3723
 6348TIP3   OH240458   0.211   6.600  14.319 -0.4781  0.6183 -0.3007
 6348TIP3    H140459   0.240   6.525  14.372  1.2132  0.2068 -1.7137
 6348TIP3    H240460   0.130   6.570  14.277 -0.0750 -0.2674 -0.4709
 6349TIP3   OH240461   1.803   3.953   1.441 -0.7179  0.2621  0.4785
 6349TIP3    H140462   1.790   4.021   1.375 -0.6866  1.7917  1.9685
 6349TIP3    H240463   1.867   3.990   1.502  1.6421 -2.3364 -0.2290
 6350TIP3   OH240464   2.667   6.394   5.430 -0.0116 -0.3937 -0.1660
 6350TIP3    H140465   2.607   6.466   5.411 -1.5043 -1.1935  1.2120
 6350TIP3    H240466   2.732   6.431   5.490  1.8066  0.8427 -2.7121
 6351TIP3   OH240467   1.600   1.312  16.595  0.0208  0.1286 -0.3349
 6351TIP3    H140468   1.589   1.279  16.506 -1.7775  0.9085 -0.4418
 6351TIP3    H240469   1.658   1.387  16.586  0.2790 -0.1156 -0.7561
 6352TIP3   OH240470   5.466   2.387  16.107 -0.1864 -0.0816  0.4069
 6352TIP3    H140471   5.406   2.403  16.179 -1.6607 -0.3148 -0.7330
 6352TIP3    H240472   5.419   2.414  16.029  1.1970 -0.2661 -0.5380
 6353TIP3   OH240473   0.430   2.218  11.237  0.3322 -0.2391 -0.4469
 6353TIP3    H140474   0.402   2.235  11.327  0.3213 -0.3482 -0.4289
 6353TIP3    H240475   0.348   2.198  11.190  0.2815  0.3102 -0.5948
 6354TIP3   OH240476   4.271   2.264  13.261 -0.1264 -0.3058 -0.4394
 6354TIP3    H140477   4.198   2.305  13.214  0.7520  0.3791 -1.2457
 6354TIP3    H240478   4.254   2.170  13.255 -0.8882 -0.1611 -0.6903
 6355TIP3   OH240479   3.362   5.556   1.832  0.4889  0.1965 -0.0912
 6355TIP3    H140480   3.319   5.562   1.918  1.2687 -0.2218  0.3346
 6355TIP3    H240481   3.432   5.621   1.837  2.2283 -1.6493  0.5945
 6356TIP3   OH240482   4.709   1.096  16.173  0.5493  0.3630  0.2196
 6356TIP3    H140483   4.744   1.152  16.104  0.3872  1.4985  1.0253
 6356TIP3    H240484   4.752   1.127  16.253  0.3241 -0.5591  0.7168
 6357TIP3   OH240485   5.683   5.400   2.152 -0.0373 -0.5802 -0.0365
 6357TIP3    H140486   5.708   5.370   2.239  1.4444  0.9515  0.1151
 6357TIP3    H240487   5.651   5.321   2.108 -0.9169 -1.3857  1.8881
 6358TIP3   OH240488   3.133   3.678   1.588  0.3144  0.6559 -0.2825
 6358TIP3    H140489   3.059   3.737   1.575 -0.4830 -0.2870 -0.2348
 6358TIP3    H240490   3.111   3.631   1.669  0.4832 -0.3113 -0.7780
 6359TIP3   OH240491   0.922   4.281  15.689 -0.4128 -0.0054  0.0903
 6359TIP3    H140492   0.926   4.235  15.773 -0.5223  0.4525  0.3527
 6359TIP3    H240493   0.835   4.261  15.655  0.0045 -1.0487 -0.4234
 6360TIP3   OH240494   0.195   3.326   1.071 -0.2398  0.7502  0.5073
 6360TIP3    H140495   0.259   3.310   1.002 -2.2971 -1.9157 -0.9880
 6360TIP3    H240496   0.180   3.420   1.069  0.8762  0.9359 -1.6504
 6361TIP3   OH240497   6.549   1.627   1.101  0.6812  0.0107  0.3156
 6361TIP3    H140498   6.511   1.702   1.055 -0.6415  0.1871  1.6107
 6361TIP3    H240499   6.615   1.665   1.159  1.2494 -0.0449 -0.2771
 6362TIP3   OH240500   4.002   1.918  15.978 -0.5012  0.0756 -0.1262
 6362TIP3    H140501   4.084   1.935  16.024 -0.5481  0.4409 -0.1786
 6362TIP3    H240502   4.011   1.962  15.894 -0.5268 -0.3604 -0.3600
 6363TIP3   OH240503   0.492   3.442   2.583  0.0460  0.4374 -0.3316
 6363TIP3    H140504   0.586   3.433   2.569  0.5235  3.1668  0.5941
 6363TIP3    H240505   0.483   3.461   2.677 -1.3152  1.3480 -0.6141
 6364TIP3   OH240506   2.685   1.389   0.393 -0.0386 -0.1979  0.4067
 6364TIP3    H140507   2.719   1.340   0.318 -0.4005 -0.6288  0.5165
 6364TIP3    H240508   2.683   1.480   0.364 -0.3863 -0.3892 -0.1864
 6365TIP3   OH240509   5.951   1.726  11.205 -0.4274  0.0360  0.1959
 6365TIP3    H140510   5.975   1.639  11.240 -2.9156 -0.5691  0.6116
 6365TIP3    H240511   5.911   1.707  11.120 -1.1461  0.7280  0.3693
 6366TIP3   OH240512   1.389   3.298  13.788 -0.1476  0.1558 -0.7057
 6366TIP3    H140513   1.421   3.269  13.703  1.0389 -0.1754 -0.1658
 6366TIP3    H240514   1.317   3.238  13.808  0.4131 -0.6036 -0.9044
 6367TIP3   OH240515   1.613   1.786  16.127  0.6102 -0.3255  0.2529
 6367TIP3    H140516   1.584   1.732  16.200  1.2362 -0.8923  0.0896
 6367TIP3    H240517   1.584   1.739  16.049  0.1499  0.1601  0.1215
 6368TIP3   OH240518   1.832   0.117   2.522 -0.7302 -0.5694  0.2057
 6368TIP3    H140519   1.846   0.174   2.447  0.1166 -0.2777  0.5751
 6368TIP3    H240520   1.913   0.123   2.573 -1.3017 -0.7248  1.1640
 6369TIP3   OH240521   0.977   3.921  16.760 -0.3902 -0.3489 -0.1995
 6369TIP3    H140522   0.898   3.973  16.747 -2.1415 -2.1800  2.2484
 6369TIP3    H240523   0.976   3.857  16.688 -2.0008 -1.2820  0.6011
 6370TIP3   OH240524   1.355   6.115   2.657  0.3601 -0.0286 -0.3057
 6370TIP3    H140525   1.366   6.199   2.612  0.8435 -0.2429 -0.5877
 6370TIP3    H240526   1.423   6.115   2.724  0.9608 -0.5879 -0.9041
 6371TIP3   OH240527   3.983   5.485   5.317 -0.5242 -0.1072  0.0701
 6371TIP3    H140528   3.926   5.478   5.241 -1.9402  0.0202  1.0809
 6371TIP3    H240529   3.969   5.574   5.350 -0.6592 -0.4572  1.0108
 6372TIP3   OH240530   3.073   2.278   1.671  0.3181  0.2246 -0.5777
 6372TIP3    H140531   3.009   2.337   1.711 -0.8283 -1.3318 -0.0409
 6372TIP3    H240532   3.123   2.334   1.612  0.5842  2.1523  1.3409
 6373TIP3   OH240533   5.646   5.764  12.617  0.1336 -0.0684  0.2429
 6373TIP3    H140534   5.626   5.716  12.698 -0.6979 -1.9593 -0.9990
 6373TIP3    H240535   5.565   5.758  12.566  0.6733  1.0075 -0.7643
 6374TIP3   OH240536   4.663   0.550   5.016  0.1827  0.1244  0.0645
 6374TIP3    H140537   4.647   0.635   4.976  1.9827  0.3863 -0.1620
 6374TIP3    H240538   4.622   0.557   5.103 -0.6202  0.8173 -0.3503
 6375TIP3   OH240539   0.735   4.717   3.043 -0.3283  0.1191 -0.1961
 6375TIP3    H140540   0.669   4.695   3.108 -0.2832 -0.7276 -0.4269
 6375TIP3    H240541   0.797   4.644   3.046  0.2020  0.5505 -0.4933
 6376TIP3   OH240542   0.985   1.269   3.924 -0.3267 -0.4395 -0.2922
 6376TIP3    H140543   1.072   1.306   3.935  0.0533 -1.2774 -0.4266
 6376TIP3    H240544   0.989   1.220   3.842 -0.2947 -2.1873  0.6867
 6377TIP3   OH240545   3.823   4.619   1.709  0.0537  0.0207  0.5508
 6377TIP3    H140546   3.856   4.685   1.649 -0.4914 -0.3280 -0.1493
 6377TIP3    H240547   3.840   4.535   1.666 -2.7633 -0.1542 -0.4615
 6378TIP3   OH240548   6.009   1.617  16.475  0.1892  0.0278 -0.0314
 6378TIP3    H140549   6.053   1.700  16.461  1.2899 -0.2468  1.5743
 6378TIP3    H240550   5.916   1.640  16.484  0.4758  1.0702  0.3717
 6379TIP3   OH240551   6.432   6.464   5.496  0.6183  0.2570 -0.2736
 6379TIP3    H140552   6.525   6.488   5.492  0.9367 -0.7581  0.4057
 6379TIP3    H240553   6.432   6.377   5.537 -0.3122 -1.5350 -3.6360
 6380TIP3   OH240554   6.032   0.603   0.358  0.0669 -0.2141  0.1188
 6380TIP3    H140555   5.937   0.599   0.360  0.0673  0.0394  1.4843
 6380TIP3    H240556   6.053   0.693   0.381  0.6487 -0.5634  1.0206
 6381TIP3   OH240557   2.822   5.687   4.216  0.2969 -0.5682 -0.1932
 6381TIP3    H140558   2.845   5.715   4.127  1.4932  2.2884  0.9096
 6381TIP3    H240559   2.878   5.612   4.233  0.3765 -0.8772 -1.6574
 6382TIP3   OH240560   0.085   1.099  12.154 -0.0650 -0.8401 -0.6162
 6382TIP3    H140561   0.015   1.034  12.149  1.1724 -2.2493 -0.2529
 6382TIP3    H240562   0.126   1.097  12.067  1.3821 -2.2241  0.0500
 6383TIP3   OH240563   3.893   0.999   2.185  0.4358 -0.4557  0.1244
 6383TIP3    H140564   3.979   0.959   2.197  0.1528 -1.0760  0.1172
 6383TIP3    H240565   3.911   1.092   2.172  1.1233 -0.6155 -0.1006
 6384TIP3   OH240566   2.114   0.151   4.552  0.0079 -0.1839 -0.0300
 6384TIP3    H140567   2.046   0.141   4.484 -0.1658  0.2738  0.0700
 6384TIP3    H240568   2.067   0.137   4.634  0.1436 -0.3814  0.0129
 6385TIP3   OH240569   4.270   4.972  12.729  0.3205 -0.1152 -0.7426
 6385TIP3    H140570   4.209   4.925  12.787  0.4443 -1.0032 -1.3312
 6385TIP3    H240571   4.332   5.013  12.789  0.6133 -1.2571 -0.2466
 6386TIP3   OH240572   4.993   6.553  13.430  0.2743 -0.1911  0.9536
 6386TIP3    H140573   4.902   6.581  13.440 -0.3747 -1.7081 -0.3189
 6386TIP3    H240574   5.044   6.621  13.474 -1.4910  0.4120  2.1922
 6387TIP3   OH240575   4.642   0.930   6.935 -0.0918 -0.5166 -0.5602
 6387TIP3    H140576   4.548   0.944   6.951 -0.0323 -0.3480 -0.3505
 6387TIP3    H240577   4.661   0.979   6.856  0.1751  0.8434  0.3127
 6388TIP3   OH240578   6.697   6.553   5.509  0.1345 -0.6300 -0.3692
 6388TIP3    H140579   6.653   6.584   5.588 -1.2148 -3.1066 -0.0423
 6388TIP3    H240580   6.787   6.585   5.517 -0.2405  0.0568  1.6241
 6389TIP3   OH240581   0.691   3.206  10.984  0.8225 -0.6893 -0.2789
 6389TIP3    H140582   0.650   3.216  10.898  2.1306  3.0940 -0.6546
 6389TIP3    H240583   0.781   3.182  10.964  1.8345  2.6186 -0.3059
 6390TIP3   OH240584   5.290   1.147   4.138  0.1143 -0.1694  0.4453
 6390TIP3    H140585   5.205   1.160   4.096  0.7657  1.2244 -0.4862
 6390TIP3    H240586   5.340   1.095   4.076 -0.2094 -1.5018  1.2470
 6391TIP3   OH240587   0.428   2.258   0.942  0.0823  0.0150  0.1300
 6391TIP3    H140588   0.386   2.235   0.859  1.8363 -0.8127 -0.5544
 6391TIP3    H240589   0.507   2.305   0.917  0.7831 -0.4899  1.3357
 6392TIP3   OH240590   0.941   1.920   3.048  0.0352 -0.3678 -0.1804
 6392TIP3    H140591   0.976   2.005   3.020  0.7459 -1.0008 -1.3041
 6392TIP3    H240592   0.846   1.931   3.047  0.1026  0.2062 -1.0076
 6393TIP3   OH240593   2.857   4.822   4.002  0.0528 -0.0271  0.3186
 6393TIP3    H140594   2.897   4.908   4.013  0.7600 -0.4491  1.2301
 6393TIP3    H240595   2.829   4.819   3.911 -0.2090  1.2570  0.3449
 6394TIP3   OH240596   5.742   1.653   5.897  0.2350  0.4268 -0.0845
 6394TIP3    H140597   5.767   1.689   5.982 -2.5381 -0.4447  1.2153
 6394TIP3    H240598   5.676   1.713   5.864  1.0939  0.6059 -1.5586
 6395TIP3   OH240599   4.204   3.823   1.898 -0.5294  0.1533 -0.1423
 6395TIP3    H140600   4.167   3.833   1.985 -0.5790  1.7679 -0.3237
 6395TIP3    H240601   4.146   3.874   1.841  0.6634  0.8141 -0.7878
 6396TIP3   OH240602   6.606   1.848   2.318 -0.6706  0.1213  0.0449
 6396TIP3    H140603   6.632   1.879   2.404  0.2591 -0.5023 -0.0062
 6396TIP3    H240604   6.596   1.753   2.327  3.0383 -0.5465 -1.3430
 6397TIP3   OH240605   6.305   1.630   3.579 -0.0730 -0.0056 -0.1433
 6397TIP3    H140606   6.383   1.683   3.595  0.3325 -0.6683  0.1269
 6397TIP3    H240607   6.279   1.598   3.665 -0.0549 -0.5945 -0.3459
 6398TIP3   OH240608   3.951   6.547   4.858 -0.2037 -0.0855 -0.4344
 6398TIP3    H140609   3.990   6.488   4.922 -1.4576 -2.5909 -1.8426
 6398TIP3    H240610   3.997   6.528   4.776 -0.5621  1.0010 -0.9036
 6399TIP3   OH240611   0.133   1.762   2.309  0.1962 -0.5358  0.0174
 6399TIP3    H140612   0.115   1.762   2.215  0.3112  0.7260 -0.0301
 6399TIP3    H240613   0.174   1.847   2.324 -0.9168 -0.2165  1.4094
 6400TIP3   OH240614   4.964   0.389   3.422  0.2853  0.4741  0.1601
 6400TIP3    H140615   4.875   0.394   3.389 -0.0520 -1.4465  0.6606
 6400TIP3    H240616   5.007   0.325   3.366  1.1875  0.9235  0.3183
 6401TIP3   OH240617   2.849   5.797  11.267 -0.2904 -0.0383  0.2651
 6401TIP3    H140618   2.766   5.749  11.260  0.4385 -1.2880  0.0655
 6401TIP3    H240619   2.880   5.805  11.177 -0.5785  1.1516  0.2556
 6402TIP3   OH240620   2.242   2.514   0.534 -0.0306  0.0356 -0.2740
 6402TIP3    H140621   2.198   2.434   0.507  0.4652  0.0087 -1.0519
 6402TIP3    H240622   2.259   2.560   0.452  0.3809  0.5668  0.1045
 6403TIP3   OH240623   1.862   1.471  12.712  0.7077  0.0771 -0.0984
 6403TIP3    H140624   1.891   1.497  12.625  0.8586  0.7160  0.1374
 6403TIP3    H240625   1.828   1.552  12.751  3.0731  0.4184  1.4288
 6404TIP3   OH240626   4.001   5.755   5.388  0.6557 -0.3533  0.4716
 6404TIP3    H140627   3.942   5.804   5.446 -0.4731  0.3188 -1.1560
 6404TIP3    H240628   4.089   5.779   5.417  0.1271  1.0665  1.0107
 6405TIP3   OH240629   1.082   5.648   4.849  0.2406  0.7597  0.2618
 6405TIP3    H140630   1.117   5.560   4.863 -0.1120  0.6400  0.4078
 6405TIP3    H240631   1.158   5.701   4.825  0.7275  0.7615  1.7064
 6406TIP3   OH240632   2.674   1.090   1.294 -0.6235  0.0061  0.1211
 6406TIP3    H140633   2.597   1.142   1.270  0.3304  3.1128  3.0680
 6406TIP3    H240634   2.649   1.044   1.374  0.4926  0.9597  1.0476
 6407TIP3   OH240635   5.458   3.128  15.506 -0.4974 -0.1677  0.0965
 6407TIP3    H140636   5.525   3.093  15.564 -2.0778 -2.3254  0.7374
 6407TIP3    H240637   5.413   3.195  15.558 -1.5521 -1.7069  1.2408
 6408TIP3   OH240638   2.723   4.266   2.286 -0.0243 -0.4009 -0.3494
 6408TIP3    H140639   2.639   4.246   2.326  0.5754 -1.9811  0.2393
 6408TIP3    H240640   2.773   4.308   2.356 -0.2719  0.3980 -0.6511
 6409TIP3   OH240641   4.175   2.661  15.404 -0.0235  0.3084  0.2531
 6409TIP3    H140642   4.258   2.669  15.357  0.8604  1.5661  1.9119
 6409TIP3    H240643   4.134   2.583  15.367  1.1502  0.5498 -1.7195
 6410TIP3   OH240644   6.113   1.983  11.858  0.2538  0.8478  0.1914
 6410TIP3    H140645   6.051   1.997  11.930  1.0858 -0.6959  1.2749
 6410TIP3    H240646   6.085   2.043  11.790 -0.5172  2.4592  1.8400
 6411TIP3   OH240647   6.597   2.519  11.152 -0.2450  0.1539 -0.0579
 6411TIP3    H140648   6.541   2.521  11.074 -1.7593  0.2154  0.9735
 6411TIP3    H240649   6.568   2.441  11.200  1.5269 -0.6014 -0.1377
 6412TIP3   OH240650   2.736   4.801  11.811 -0.0233  0.1330  0.1815
 6412TIP3    H140651   2.769   4.729  11.756 -0.9282  0.3697 -0.6966
 6412TIP3    H240652   2.644   4.779  11.825  0.2958 -0.1669  2.0304
 6413TIP3   OH240653   4.026   5.384   5.898 -0.0305 -0.7045 -0.0519
 6413TIP3    H140654   4.114   5.403   5.930  0.2664  1.4886 -1.9531
 6413TIP3    H240655   4.020   5.429   5.814 -2.8173 -1.1990 -0.2182
 6414TIP3   OH240656   0.709   6.649  12.663 -0.2954  0.0930  0.7365
 6414TIP3    H140657   0.756   6.571  12.634  0.5030  0.1129  1.9000
 6414TIP3    H240658   0.754   6.675  12.744 -1.0574  1.2883  0.7959
 6415TIP3   OH240659   4.249   1.572   2.846  0.3530  0.8349  0.6284
 6415TIP3    H140660   4.336   1.582   2.884  0.6620  0.4568  0.0312
 6415TIP3    H240661   4.199   1.524   2.913  0.9152  0.0909  0.5280
 6416TIP3   OH240662   5.201   6.289   5.140  0.5080 -0.0664 -0.5579
 6416TIP3    H140663   5.161   6.235   5.072 -0.9991 -1.2565  1.1817
 6416TIP3    H240664   5.256   6.351   5.092  0.3239 -1.5087 -2.7771
 6417TIP3   OH240665   3.381   4.235   1.864  0.4380  0.6419  0.5484
 6417TIP3    H140666   3.334   4.306   1.908  1.9642  0.6725  2.2718
 6417TIP3    H240667   3.437   4.279   1.800 -1.2801  0.6526 -1.0297
 6418TIP3   OH240668   5.106   4.224   2.100  0.0052  0.8705  0.0561
 6418TIP3    H140669   5.136   4.186   2.018 -1.3672  0.2864 -0.2160
 6418TIP3    H240670   5.118   4.318   2.090 -0.1561  0.8001 -0.8304
 6419TIP3   OH240671   3.913   2.172   2.464  0.2096 -0.0414 -0.1718
 6419TIP3    H140672   3.910   2.090   2.415  0.3514  0.3268 -0.8101
 6419TIP3    H240673   3.950   2.148   2.549  1.9924 -0.3467 -0.9897
 6420TIP3   OH240674   5.358   5.842   2.519 -0.0864  0.5003  0.2456
 6420TIP3    H140675   5.314   5.828   2.435 -3.4208 -1.4489  2.0657
 6420TIP3    H240676   5.379   5.754   2.549  0.0014  1.0709  1.9424
 6421TIP3   OH240677   1.017   2.245  16.509  0.3813 -0.8120 -0.0895
 6421TIP3    H140678   0.998   2.180  16.441  1.0440 -1.0199 -0.0849
 6421TIP3    H240679   0.986   2.328  16.473 -0.9017 -1.1905  0.0923
 6422TIP3   OH240680   3.586   0.474  16.884  0.2310 -0.5707 -0.4475
 6422TIP3    H140681   3.654   0.522  16.931 -0.2627  1.3284 -1.5710
 6422TIP3    H240682   3.586   0.513  16.797 -0.8246 -2.0401 -1.1324
 6423TIP3   OH240683   2.214   2.947   0.586 -0.6233  0.0894  0.7493
 6423TIP3    H140684   2.140   2.963   0.644 -1.2842  0.9511 -0.2783
 6423TIP3    H240685   2.217   2.852   0.575 -1.0187 -0.0125  1.5065
 6424TIP3   OH240686   6.193   0.446  11.334 -0.7919 -0.4347 -0.2885
 6424TIP3    H140687   6.153   0.531  11.316 -0.4101 -0.2999 -0.5225
 6424TIP3    H240688   6.183   0.434  11.428  0.2788  0.4686 -0.0319
 6425TIP3   OH240689   4.932   0.674   4.307  0.0863 -0.3659  0.8179
 6425TIP3    H140690   4.912   0.608   4.374  0.6054 -1.9151 -0.5090
 6425TIP3    H240691   5.014   0.645   4.268 -0.9749 -0.3972 -1.5662
 6426TIP3   OH240692   3.623   3.374  13.133  0.4791  0.0372  0.0227
 6426TIP3    H140693   3.588   3.315  13.199 -1.0629  1.5719  0.6665
 6426TIP3    H240694   3.706   3.334  13.106 -0.9089 -2.9163 -0.3098
 6427TIP3   OH240695   6.631   3.200  15.985  0.1270 -0.1128  0.1449
 6427TIP3    H140696   6.549   3.174  15.943  0.7551 -1.1809 -0.4866
 6427TIP3    H240697   6.644   3.291  15.959 -1.0117  0.1727  0.5260
 6428TIP3   OH240698   4.936   2.990  13.053  0.1860  0.0089 -0.0345
 6428TIP3    H140699   4.967   2.958  13.138 -0.4431  0.5257  0.3967
 6428TIP3    H240700   4.934   2.912  12.997  5.2469  0.2775 -1.0977
 6429TIP3   OH240701   6.359   3.180  10.982  0.5998  0.2043 -0.1596
 6429TIP3    H140702   6.349   3.086  10.964  2.5305  0.0039 -0.3627
 6429TIP3    H240703   6.393   3.217  10.901 -0.8405  1.2474 -0.3255
 6430TIP3   OH240704   1.984   0.152   1.199  0.5763 -0.4313  1.0251
 6430TIP3    H140705   1.892   0.147   1.225  0.4568 -2.0747  0.3866
 6430TIP3    H240706   2.028   0.088   1.254  0.8417 -1.6758 -0.5692
 6431TIP3   OH240707   2.021   5.819   4.075  0.1376 -0.3568 -0.1589
 6431TIP3    H140708   2.005   5.848   3.985 -2.5723 -0.9733  0.0537
 6431TIP3    H240709   2.103   5.770   4.070 -0.6963 -1.6621 -2.6033
 6432TIP3   OH240710   5.100   4.540  15.080  0.4821  0.0993 -0.0992
 6432TIP3    H140711   5.037   4.600  15.040 -0.0926 -1.0213 -0.9106
 6432TIP3    H240712   5.157   4.597  15.132 -1.0034  1.1779  0.4184
 6433TIP3   OH240713   2.600   6.332  14.583  0.0106  0.0150  0.0185
 6433TIP3    H140714   2.512   6.358  14.558  0.6369 -0.5098 -3.1938
 6433TIP3    H240715   2.598   6.236  14.583  0.4060  0.0003  0.6495
 6434TIP3   OH240716   3.618   6.669  16.839 -0.7735  0.4381  0.5431
 6434TIP3    H140717   3.522   6.666  16.838 -0.7891 -1.3647  2.1726
 6434TIP3    H240718   3.642   6.645  16.928  1.2225  0.1232 -0.0284
 6435TIP3   OH240719   0.598   5.882   3.367 -0.7075  0.1622  0.4892
 6435TIP3    H140720   0.593   5.950   3.434 -1.3267  0.0290  0.5828
 6435TIP3    H240721   0.507   5.858   3.350 -0.5121 -0.4604  0.2743
 6436TIP3   OH240722   2.803   3.508   0.889  0.4035  0.0015  0.3593
 6436TIP3    H140723   2.847   3.582   0.930  2.2122 -0.9118  0.1618
 6436TIP3    H240724   2.780   3.539   0.801 -0.2207  0.7986  0.7952
 6437TIP3   OH240725   4.042   6.530   5.637 -0.6098 -0.9338 -0.1343
 6437TIP3    H140726   4.103   6.577   5.693 -0.3671  0.5159 -1.5530
 6437TIP3    H240727   4.010   6.458   5.692  0.2324 -0.0758  1.5584
 6438TIP3   OH240728   5.914   0.672  12.953  0.6118 -0.0252 -0.4618
 6438TIP3    H140729   6.002   0.639  12.967  0.1420 -2.6849 -2.9199
 6438TIP3    H240730   5.913   0.702  12.862 -1.1209 -0.5890 -0.6740
 6439TIP3   OH240731   4.542   2.370   1.782 -0.3496 -0.5446  0.4422
 6439TIP3    H140732   4.506   2.298   1.834  0.7803 -0.5921  1.1897
 6439TIP3    H240733   4.571   2.328   1.701 -1.9931 -0.4941 -0.2030
 6440TIP3   OH240734   5.748   2.277   4.569  0.0604  0.3479 -0.1905
 6440TIP3    H140735   5.658   2.246   4.555 -0.1326  0.8653 -0.1371
 6440TIP3    H240736   5.771   2.319   4.486 -0.7352  2.5784  0.6552
 6441TIP3   OH240737   2.227   1.463  15.720 -0.3306  0.2539  0.2833
 6441TIP3    H140738   2.216   1.453  15.626 -1.7674 -0.3727  0.4901
 6441TIP3    H240739   2.154   1.518  15.748  0.4135  0.9319  0.9652
 6442TIP3   OH240740   0.652   6.405   2.395 -0.1939 -0.2537  0.1867
 6442TIP3    H140741   0.579   6.375   2.450 -0.7713 -1.3840 -1.1291
 6442TIP3    H240742   0.619   6.483   2.352 -0.0655  0.1155  0.7512
 6443TIP3   OH240743   3.662   1.717  11.891 -0.1022  0.1194  0.0198
 6443TIP3    H140744   3.601   1.690  11.822 -1.3947  1.2497  0.6828
 6443TIP3    H240745   3.695   1.802  11.862  0.0908  0.1526  0.3334
 6444TIP3   OH240746   6.363   5.432   5.741 -0.2810 -0.3001  0.4482
 6444TIP3    H140747   6.288   5.422   5.681  0.6711  0.8570 -1.0180
 6444TIP3    H240748   6.402   5.345   5.746  0.2862 -0.2224 -1.6032
 6445TIP3   OH240749   0.921   6.688   5.404  0.1076  0.0680 -0.2725
 6445TIP3    H140750   0.986   6.736   5.455  0.4691 -0.6544 -0.0454
 6445TIP3    H240751   0.867   6.756   5.363 -2.0608  0.7919  3.3252
 6446TIP3   OH240752   0.658   6.177  11.073 -0.6881  0.1982 -0.4715
 6446TIP3    H140753   0.596   6.138  11.134 -0.1202  0.8614  0.5506
 6446TIP3    H240754   0.741   6.180  11.122 -0.6915  2.6183 -0.5346
 6447TIP3   OH240755   5.395   2.282   5.031  0.0624 -0.4969 -0.1874
 6447TIP3    H140756   5.363   2.363   4.991  0.6318 -0.3975 -0.4463
 6447TIP3    H240757   5.403   2.221   4.958  0.4367 -0.5294 -0.1199
 6448TIP3   OH240758   5.175   5.682  16.636  0.3069 -0.0515 -0.3422
 6448TIP3    H140759   5.154   5.589  16.645 -0.5656  0.0596 -1.0621
 6448TIP3    H240760   5.234   5.700  16.709  0.7809 -1.2489 -0.3983
 6449TIP3   OH240761   2.249   2.277   4.761  0.0708 -0.7120  0.3439
 6449TIP3    H140762   2.162   2.267   4.798  0.9534  1.0726  3.2777
 6449TIP3    H240763   2.301   2.208   4.802  0.5737 -0.1296  0.7212
 6450TIP3   OH240764   5.583   1.135  15.986 -0.0792  0.0814  0.8949
 6450TIP3    H140765   5.589   1.117  16.080  1.6017  1.2594  1.0377
 6450TIP3    H240766   5.622   1.221  15.975  0.0333 -0.1656 -0.9297
 6451TIP3   OH240767   4.105   2.668  14.815  0.1702  0.1675 -0.3614
 6451TIP3    H140768   4.014   2.695  14.804 -0.0273 -0.5616 -0.5122
 6451TIP3    H240769   4.146   2.743  14.858 -0.0629  1.2417 -1.9298
 6452TIP3   OH240770   2.201   5.729   5.175  0.4453 -0.0055  0.0812
 6452TIP3    H140771   2.284   5.775   5.169  0.1998  0.4947  0.4863
 6452TIP3    H240772   2.143   5.788   5.223 -0.0931 -0.4222 -0.0369
 6453TIP3   OH240773   5.030   0.828  12.172 -0.2539 -0.3352 -0.1175
 6453TIP3    H140774   5.103   0.819  12.111 -0.5314 -0.8175 -0.3840
 6453TIP3    H240775   5.066   0.878  12.245  0.5776 -1.2648  0.1334
 6454TIP3   OH240776   3.933   5.927  16.352 -0.1608 -0.0673  0.0993
 6454TIP3    H140777   3.940   6.022  16.341  1.0127 -0.0998  0.4368
 6454TIP3    H240778   3.904   5.895  16.266 -0.2098  0.5493 -0.1191
 6455TIP3   OH240779   1.878   4.218  15.662  0.0766  0.5824  0.2455
 6455TIP3    H140780   1.834   4.285  15.713 -0.1775  1.8599 -1.5331
 6455TIP3    H240781   1.894   4.260  15.577  1.2453 -1.1335 -0.4360
 6456TIP3   OH240782   0.034   6.682   2.761  0.2642  0.2806 -0.3583
 6456TIP3    H140783  -0.060   6.697   2.767  0.4453  0.9537  1.7095
 6456TIP3    H240784   0.072   6.747   2.820  1.9686 -0.4983 -0.5463
 6457TIP3   OH240785   3.281   5.206   1.032 -0.0433 -0.5583  0.1004
 6457TIP3    H140786   3.291   5.118   1.069 -1.6408 -1.2666 -1.0801
 6457TIP3    H240787   3.238   5.256   1.101 -0.0505 -0.9772  0.4053
 6458TIP3   OH240788   0.251   5.913   1.740 -0.4350  0.2242 -0.1421
 6458TIP3    H140789   0.251   5.981   1.673  0.9660  0.5477  0.1542
 6458TIP3    H240790   0.270   5.832   1.692  1.3366  0.5664 -0.0644
 6459TIP3   OH240791   4.650   3.131  11.423 -0.5451 -0.3364  0.6606
 6459TIP3    H140792   4.715   3.153  11.356 -1.0246 -0.5806  0.1082
 6459TIP3    H240793   4.676   3.045  11.455 -0.2562 -0.1752  0.8700
 6460TIP3   OH240794   0.107   6.367  15.503  0.4439 -0.2484  0.7899
 6460TIP3    H140795   0.076   6.446  15.458  0.9702 -1.7700 -2.5579
 6460TIP3    H240796   0.031   6.336  15.553 -0.5166  1.0356  0.1764
 6461TIP3   OH240797   4.369   1.895   2.247  0.1388  0.0891  0.0425
 6461TIP3    H140798   4.316   1.832   2.294  0.8575  0.2536  1.1058
 6461TIP3    H240799   4.310   1.932   2.181 -0.7197 -0.5601  0.4359
 6462TIP3   OH240800   0.971   5.722   5.084  0.1773  0.1174  0.4248
 6462TIP3    H140801   1.049   5.681   5.122 -0.6709 -0.3483  1.7210
 6462TIP3    H240802   0.991   5.729   4.990  1.5386 -0.5079  0.6419
 6463TIP3   OH240803   0.436   1.691   1.256 -0.3815  0.1458 -0.0592
 6463TIP3    H140804   0.515   1.642   1.282  0.8159 -0.7750 -4.4687
 6463TIP3    H240805   0.364   1.644   1.297  1.1468 -1.3094  1.1157
 6464TIP3   OH240806   2.923   4.961  14.263 -0.4475 -0.2589  0.4503
 6464TIP3    H140807   2.904   4.924  14.176  2.0518  0.2391 -0.3712
 6464TIP3    H240808   2.900   5.054  14.255  2.2229  0.3858 -0.6027
 6465TIP3   OH240809   5.147   0.643  12.460 -0.9393  0.1908  0.2817
 6465TIP3    H140810   5.203   0.620  12.385 -0.2557 -1.8460  1.3496
 6465TIP3    H240811   5.192   0.717  12.501  0.5686 -0.8581  0.6179
 6466TIP3   OH240812   3.013   4.851  15.975  0.0126  0.5257  0.0896
 6466TIP3    H140813   2.976   4.777  16.023 -3.2273  0.4086 -2.2284
 6466TIP3    H240814   2.986   4.928  16.024 -1.9262  0.3392 -0.5824
 6467TIP3   OH240815   4.094   0.584  14.165  0.4842 -0.0936  0.5719
 6467TIP3    H140816   4.155   0.556  14.233  0.7195  1.3760  1.0062
 6467TIP3    H240817   4.149   0.605  14.090  0.4405  0.3871  0.6705
 6468TIP3   OH240818   5.052   1.166  10.620  0.0073  0.0754  0.1091
 6468TIP3    H140819   4.980   1.128  10.569 -0.0094  0.5061 -0.1907
 6468TIP3    H240820   5.015   1.244  10.660  0.2039  0.0938  0.2585
 6469TIP3   OH240821   4.135   4.450  11.035 -0.0758  0.4409  0.1779
 6469TIP3    H140822   4.175   4.532  11.064 -1.2528  2.6166 -3.6584
 6469TIP3    H240823   4.193   4.418  10.967 -1.0953 -0.3882 -0.3198
 6470TIP3   OH240824   6.076   0.082   3.837  0.1399 -0.1130 -0.4372
 6470TIP3    H140825   6.156   0.115   3.796  0.2672  0.7472  0.4828
 6470TIP3    H240826   6.078   0.117   3.926 -1.2150 -0.1624 -0.3708
 6471TIP3   OH240827   5.748   0.304  15.550  0.6196 -0.0608 -0.2877
 6471TIP3    H140828   5.733   0.357  15.628  2.2995 -1.9613  1.4046
 6471TIP3    H240829   5.677   0.240  15.550 -0.5819  1.1838 -1.5531
 6472TIP3   OH240830   3.997   5.574  12.172 -0.1989 -0.1055  0.2654
 6472TIP3    H140831   4.047   5.548  12.250 -0.4762 -1.3923  0.0383
 6472TIP3    H240832   3.906   5.576  12.201 -0.4281 -1.6412 -0.2448
 6473TIP3   OH240833   5.265   3.496  12.909  0.3217  0.1753  0.2339
 6473TIP3    H140834   5.189   3.457  12.951  0.3295  0.1678  0.2405
 6473TIP3    H240835   5.228   3.559  12.846  0.2895 -0.3904 -0.3204
 6474TIP3   OH240836   1.969   4.665   5.929  0.1700  0.0199  0.2646
 6474TIP3    H140837   2.000   4.756   5.928  2.0794 -0.5247  2.2024
 6474TIP3    H240838   2.046   4.614   5.955 -0.7145 -2.2456 -1.2711
 6475TIP3   OH240839   6.445   3.207  13.714  0.6627 -0.0582  0.4947
 6475TIP3    H140840   6.514   3.154  13.754  1.4439  0.4765 -0.1411
 6475TIP3    H240841   6.468   3.297  13.736  1.4759  0.3075 -1.6870
 6476TIP3   OH240842   5.133   5.144   5.853  0.2029  0.8249  0.2454
 6476TIP3    H140843   5.225   5.125   5.838 -0.2075 -0.6081 -0.6477
 6476TIP3    H240844   5.104   5.188   5.772  0.1630  1.5229  0.6340
 6477TIP3   OH240845   6.296   4.048  12.227  0.1030 -0.2024  0.4783
 6477TIP3    H140846   6.352   4.088  12.160 -2.1177  1.3226 -0.5829
 6477TIP3    H240847   6.275   3.962  12.192  0.1655  0.0020 -0.0731
 6478TIP3   OH240848   6.585   3.274   0.264 -0.2026  0.2688 -0.7244
 6478TIP3    H140849   6.579   3.317   0.178  3.6310  0.7307 -0.9454
 6478TIP3    H240850   6.629   3.191   0.246  1.8512  0.9374  0.8429
 6479TIP3   OH240851   0.361   1.374   5.830  1.0660  0.1462  0.0191
 6479TIP3    H140852   0.271   1.379   5.861  0.8039 -1.1640 -0.4546
 6479TIP3    H240853   0.382   1.462   5.800  0.4260  0.7901  1.4037
 6480TIP3   OH240854   5.338   3.891   1.283 -0.2974  0.5322  0.6222
 6480TIP3    H140855   5.415   3.902   1.227  0.6518  0.6817  1.9274
 6480TIP3    H240856   5.289   3.972   1.272  0.8054  1.3278  1.3590
 6481TIP3   OH240857   3.531   5.492  14.950  0.1662 -0.1939 -0.4314
 6481TIP3    H140858   3.513   5.558  14.883 -0.7152 -0.4619 -0.4702
 6481TIP3    H240859   3.534   5.542  15.032 -0.8790 -0.1387 -0.4110
 6482TIP3   OH240860   5.158   5.904  15.776  0.2277  0.1951 -0.0489
 6482TIP3    H140861   5.099   5.835  15.804  2.4094 -1.5376  0.5477
 6482TIP3    H240862   5.118   5.939  15.696 -2.1215 -0.0995  0.9184
 6483TIP3   OH240863   5.602   6.706   3.672  0.2784  0.1935 -0.0481
 6483TIP3    H140864   5.548   6.779   3.703 -2.6181 -1.9131  0.3009
 6483TIP3    H240865   5.676   6.703   3.731 -0.0001  2.2842  0.4658
 6484TIP3   OH240866   1.938   4.025  14.199 -0.1268 -0.2529 -0.6421
 6484TIP3    H140867   1.919   4.111  14.236  2.2792  0.6821 -1.4331
 6484TIP3    H240868   1.859   4.003  14.150 -0.5085  1.8971 -1.1087
 6485TIP3   OH240869   2.927   0.818  15.851 -0.0815  0.1083  0.0211
 6485TIP3    H140870   2.944   0.852  15.763  0.0231  1.1083  0.4176
 6485TIP3    H240871   2.971   0.733  15.853  0.1339  0.1942 -0.8074
 6486TIP3   OH240872   3.648   6.740   4.186  0.0717 -0.1641 -0.4759
 6486TIP3    H140873   3.695   6.812   4.144 -2.3995  0.5562 -2.2807
 6486TIP3    H240874   3.568   6.782   4.220 -0.9606 -1.8710 -0.6896
 6487TIP3   OH240875   3.437   4.766   5.055  0.1961  0.3436  0.6072
 6487TIP3    H140876   3.470   4.774   5.144  1.5712 -1.0894  0.2804
 6487TIP3    H240877   3.347   4.800   5.059  0.7233  1.6566  2.1885
 6488TIP3   OH240878   6.564   4.029  12.071 -0.1930  0.1611  0.1371
 6488TIP3    H140879   6.623   4.097  12.105  0.3790 -0.6923  0.9014
 6488TIP3    H240880   6.606   3.947  12.097 -2.0106 -0.4770  1.2035
 6489TIP3   OH240881   2.699   2.709   3.896  0.1438 -0.0708 -0.1533
 6489TIP3    H140882   2.723   2.705   3.989 -1.7407 -1.6303  0.3164
 6489TIP3    H240883   2.691   2.803   3.878  1.5199  0.2926  0.9627
 6490TIP3   OH240884   5.906   3.853   0.535  0.3141  0.3021  0.1082
 6490TIP3    H140885   5.900   3.816   0.447 -2.0935 -0.1799  0.3946
 6490TIP3    H240886   5.997   3.842   0.560  0.7092 -0.9855 -1.7182
 6491TIP3   OH240887   0.050   3.118   3.168  0.2436 -0.8581 -0.3588
 6491TIP3    H140888   0.054   3.032   3.209 -0.2085  0.1703  2.0418
 6491TIP3    H240889   0.141   3.148   3.165  0.3671 -1.2652 -0.9222
 6492TIP3   OH240890   1.437   2.060  13.601  0.0663 -0.3934  0.6270
 6492TIP3    H140891   1.343   2.054  13.589  0.1204  0.3389 -0.2345
 6492TIP3    H240892   1.449   2.136  13.658  0.3065  2.2891 -2.6762
 6493TIP3   OH240893   5.463   6.256  12.296  0.0811 -0.4771  0.3517
 6493TIP3    H140894   5.397   6.325  12.301  0.0331 -0.4765 -0.2446
 6493TIP3    H240895   5.518   6.281  12.222  0.1031 -1.0369  0.1740
 6494TIP3   OH240896   1.416   1.566   6.390 -0.2574 -0.1417 -0.3985
 6494TIP3    H140897   1.487   1.547   6.328  1.2277  1.5354  0.6813
 6494TIP3    H240898   1.382   1.651   6.362  0.6435  0.7998  1.1647
 6495TIP3   OH240899   5.073   3.304  13.982  0.1812 -0.0329 -0.0654
 6495TIP3    H140900   5.104   3.375  14.038  2.0022  0.8010 -2.0016
 6495TIP3    H240901   5.083   3.225  14.035  1.4274  0.7596  0.9243
 6496TIP3   OH240902   0.728   3.510  13.325 -0.1623  0.3077  0.2300
 6496TIP3    H140903   0.815   3.472  13.329 -0.6514 -0.7619  1.0968
 6496TIP3    H240904   0.742   3.602  13.348  1.0095  0.7067 -1.7854
 6497TIP3   OH240905   0.834   2.914   2.421  0.1928  0.0411  0.2193
 6497TIP3    H140906   0.772   2.912   2.493 -0.2969 -0.6538 -0.2085
 6497TIP3    H240907   0.780   2.904   2.343  0.9840 -2.7938 -0.0606
 6498TIP3   OH240908   1.726   6.301  11.251 -0.2981  0.0752  0.0261
 6498TIP3    H140909   1.767   6.336  11.172 -1.0233  1.2925  0.1551
 6498TIP3    H240910   1.632   6.302  11.231 -0.5767  1.2981  1.2092
 6499TIP3   OH240911   6.103   3.784  14.470  0.2678  0.0877  0.1752
 6499TIP3    H140912   6.021   3.763  14.424  0.5046 -0.0761 -0.1723
 6499TIP3    H240913   6.132   3.866  14.430  0.3968  0.0255  0.1441
 6500TIP3   OH240914   3.815   5.705   5.808 -0.0276  0.0265  0.4317
 6500TIP3    H140915   3.830   5.614   5.832  1.9280  0.7603  2.3333
 6500TIP3    H240916   3.892   5.752   5.842 -0.7475  2.3179 -0.8888
 6501TIP3   OH240917   6.341   0.909   4.736 -0.1353  0.5621  0.4306
 6501TIP3    H140918   6.313   0.991   4.696  0.6198  0.0291 -1.2818
 6501TIP3    H240919   6.365   0.933   4.825 -1.2108  1.9316  0.3878
 6502TIP3   OH240920   2.126   2.382   3.224 -0.1388 -0.1771 -0.5058
 6502TIP3    H140921   2.154   2.308   3.170  1.9906  0.3357 -0.1787
 6502TIP3    H240922   2.184   2.380   3.300  0.4545  2.1760 -0.7966
 6503TIP3   OH240923   4.050   2.778   3.033 -0.2476 -0.7353 -0.2968
 6503TIP3    H140924   4.072   2.799   2.942  0.5855 -1.7162 -0.3291
 6503TIP3    H240925   4.096   2.696   3.051 -0.9310 -0.8952  0.8081
 6504TIP3   OH240926   6.678   0.708  14.144 -0.7874 -0.0241 -0.1450
 6504TIP3    H140927   6.646   0.787  14.187 -2.4712 -0.7516  0.0074
 6504TIP3    H240928   6.680   0.729  14.051 -0.2725  0.4945 -0.0255
 6505TIP3   OH240929   4.912   6.415   4.222  0.0824  0.4522 -0.6375
 6505TIP3    H140930   4.978   6.434   4.288 -2.5309  0.7974  2.0939
 6505TIP3    H240931   4.862   6.496   4.215 -2.4758 -0.9139  0.4889
 6506TIP3   OH240932   6.053   2.884  13.982 -0.1659  0.7302  0.1809
 6506TIP3    H140933   6.111   2.831  13.928  0.2937  1.5365 -0.1372
 6506TIP3    H240934   5.988   2.917  13.921 -0.8163  0.0459  0.4903
 6507TIP3   OH240935   3.024   0.847  10.320  0.1798  0.2931 -0.3000
 6507TIP3    H140936   3.097   0.784  10.321  1.0448  1.2610  0.5282
 6507TIP3    H240937   2.953   0.801  10.364  0.4788 -0.4528 -0.5724
 6508TIP3   OH240938   1.141   2.272  12.544  0.2031 -0.4214 -0.0953
 6508TIP3    H140939   1.124   2.366  12.536 -0.9742 -0.5369  0.6678
 6508TIP3    H240940   1.227   2.266  12.587 -0.5033  0.3715  1.5247
 6509TIP3   OH240941   3.348   5.374  16.231  0.5483  0.0387 -0.5631
 6509TIP3    H140942   3.406   5.317  16.180 -1.2098 -0.2759 -2.3242
 6509TIP3    H240943   3.373   5.463  16.206  0.8929 -0.0568 -0.5664
 6510TIP3   OH240944   3.552   2.126   2.242 -0.3648 -0.0063  0.2308
 6510TIP3    H140945   3.517   2.149   2.156 -1.8923  0.4555  0.9423
 6510TIP3    H240946   3.522   2.197   2.299  1.2337  0.0754  1.0157
 6511TIP3   OH240947   6.028   1.354   4.349 -0.2236  0.1568 -0.4856
 6511TIP3    H140948   5.944   1.396   4.370 -0.9336 -1.1028 -0.6980
 6511TIP3    H240949   6.084   1.375   4.423 -0.7162  1.0525 -0.3532
 6512TIP3   OH240950   0.087   2.822   5.293 -0.0408  0.0837 -0.3523
 6512TIP3    H140951   0.065   2.907   5.330  0.7823 -0.4037  1.3392
 6512TIP3    H240952   0.183   2.822   5.288  0.1526 -1.5414  1.8249
 6513TIP3   OH240953   0.719   5.074   6.417 -0.2165  0.4566  0.3295
 6513TIP3    H140954   0.634   5.092   6.376  0.9517  0.7779 -2.1288
 6513TIP3    H240955   0.697   5.032   6.500 -2.7864  1.6123  0.3247
 6514TIP3   OH240956   3.982   6.090   2.368  0.7411 -0.1321 -0.4998
 6514TIP3    H140957   3.955   6.018   2.426 -0.1275  1.5161  1.2730
 6514TIP3    H240958   3.929   6.079   2.289 -0.2400 -0.7846  0.2186
 6515TIP3   OH240959   0.426   3.820   1.441  0.0211 -0.5638  0.6958
 6515TIP3    H140960   0.411   3.848   1.350  0.9929 -1.7764  0.1283
 6515TIP3    H240961   0.361   3.751   1.455 -0.7463  0.2473  1.2642
 6516TIP3   OH240962   5.298   6.218   2.874 -0.0309 -0.0855 -0.5538
 6516TIP3    H140963   5.343   6.152   2.821 -0.8113  0.1988 -1.6027
 6516TIP3    H240964   5.332   6.302   2.843  1.4419  0.0357  1.2250
 6517TIP3   OH240965   6.714   3.137  13.873  0.3903 -0.4710 -0.1286
 6517TIP3    H140966   6.685   3.188  13.948  0.3077 -0.0703 -0.4259
 6517TIP3    H240967   6.685   3.047  13.892  0.0090 -0.2976  0.1285
 6518TIP3   OH240968   5.624   6.363   3.893 -0.7347  0.8907 -0.6614
 6518TIP3    H140969   5.605   6.453   3.917 -0.8218  0.9247 -0.8570
 6518TIP3    H240970   5.565   6.344   3.820 -0.8919  0.5944 -0.4566
 6519TIP3   OH240971   2.188   2.961   1.146  0.2897 -0.3991  0.6712
 6519TIP3    H140972   2.234   2.944   1.229  1.3918  0.5007  0.2706
 6519TIP3    H240973   2.252   2.938   1.078 -1.3691 -3.3157 -0.0309
 6520TIP3   OH240974   2.532   3.719   1.742  0.1550 -0.3598  0.1857
 6520TIP3    H140975   2.543   3.727   1.837 -1.5766 -0.6642  0.4442
 6520TIP3    H240976   2.491   3.802   1.716 -0.6588 -0.8299 -0.0597
 6521TIP3   OH240977   0.203   5.927   2.895 -0.5491 -0.0102 -0.7395
 6521TIP3    H140978   0.218   5.894   2.984 -0.9759 -0.1863 -0.7295
 6521TIP3    H240979   0.274   5.889   2.843 -0.5831 -0.3127 -0.5694
 6522TIP3   OH240980   0.856   6.687  15.283 -0.0273 -0.3607  0.1713
 6522TIP3    H140981   0.943   6.697  15.322 -0.2792 -0.0805  0.6567
 6522TIP3    H240982   0.795   6.709  15.353 -0.4695  2.4530 -0.9394
 6523TIP3   OH240983   1.025   1.008   2.857 -0.4588 -0.3527  0.1316
 6523TIP3    H140984   1.094   1.065   2.824 -0.6571 -0.3766 -0.3329
 6523TIP3    H240985   1.062   0.920   2.850 -1.1058 -0.5093 -1.6020
 6524TIP3   OH240986   2.716   4.052   5.370  0.2706  0.2233  0.3688
 6524TIP3    H140987   2.620   4.044   5.369  0.1559  1.5131 -0.5807
 6524TIP3    H240988   2.744   4.010   5.288  0.5577 -0.3497  0.7488
 6525TIP3   OH240989   2.756   0.308   0.244 -0.2063 -0.2342 -0.4727
 6525TIP3    H140990   2.806   0.389   0.237  0.4242 -0.6243 -0.4760
 6525TIP3    H240991   2.782   0.256   0.168  1.3077 -1.4963  0.8307
 6526TIP3   OH240992   6.741   4.659  14.162 -0.3472 -0.3869 -0.4279
 6526TIP3    H140993   6.702   4.686  14.245 -1.9649 -1.6909 -0.7109
 6526TIP3    H240994   6.683   4.591  14.129 -0.8500  1.3654 -3.5650
 6527TIP3   OH240995   6.358   6.657  13.318  0.6637  0.4232 -0.0184
 6527TIP3    H140996   6.266   6.671  13.297  0.7415  1.0317  0.0160
 6527TIP3    H240997   6.365   6.678  13.411  0.7743  0.0470  0.0614
 6528TIP3   OH240998   0.711   1.233  11.365  0.2829 -0.0875 -0.1861
 6528TIP3    H140999   0.690   1.278  11.283 -1.9276 -0.8995 -0.1258
 6528TIP3    H241000   0.705   1.302  11.431 -0.8440  0.0195 -0.3706
 6529TIP3   OH241001   0.255   6.116   4.509 -0.5491 -0.0016 -0.1026
 6529TIP3    H141002   0.218   6.131   4.422  0.4046  2.4652 -0.1601
 6529TIP3    H241003   0.247   6.200   4.554  3.6489  0.3983  0.2948
 6530TIP3   OH241004   4.990   0.337  14.073 -0.1731 -0.0403 -0.4005
 6530TIP3    H141005   5.010   0.375  14.159 -0.9460 -0.9619  0.2156
 6530TIP3    H241006   5.049   0.262  14.065 -0.5049 -0.3098 -0.3910
 6531TIP3   OH241007   6.106   4.367   1.854 -0.4517  0.3346 -0.2789
 6531TIP3    H141008   6.059   4.364   1.938  1.5599 -0.8087  0.8964
 6531TIP3    H241009   6.131   4.276   1.838 -1.0157  0.4965 -2.3056
 6532TIP3   OH241010   4.896   6.052  10.608 -0.1920  0.3561 -0.2274
 6532TIP3    H141011   4.984   6.046  10.569 -0.1178 -1.1748  0.0965
 6532TIP3    H241012   4.867   5.961  10.614 -2.2431  0.8898 -1.2625
 6533TIP3   OH241013   5.210   4.834  15.067 -0.3991  0.3226 -0.0092
 6533TIP3    H141014   5.295   4.830  15.112 -0.6712 -1.5461  0.4253
 6533TIP3    H241015   5.150   4.869  15.133 -0.3639 -0.3114  0.3641
 6534TIP3   OH241016   5.061   2.309  15.594 -0.1066  0.3172 -0.7998
 6534TIP3    H141017   5.067   2.380  15.659 -1.2764  1.9120 -2.3318
 6534TIP3    H241018   5.059   2.229  15.646  1.9705  1.3080  0.9996
 6535TIP3   OH241019   2.452   5.511  16.977  0.2418  0.2811  0.4796
 6535TIP3    H141020   2.413   5.460  17.047 -0.8259 -0.0735 -0.3479
 6535TIP3    H241021   2.545   5.517  17.000  0.6443 -2.8961  0.1335
 6536TIP3   OH241022   3.692   1.943  16.444  0.5521 -0.2917 -0.1986
 6536TIP3    H141023   3.773   1.973  16.403  0.6948  0.4576  0.5913
 6536TIP3    H241024   3.696   1.848  16.440  2.1675 -0.3327  1.1000
 6537TIP3   OH241025   4.110   5.672   2.728  0.1244  0.6044  0.2097
 6537TIP3    H141026   4.071   5.641   2.810  0.0247  0.5680  0.1482
 6537TIP3    H241027   4.041   5.724   2.687 -0.3630 -0.6221 -0.5749
 6538TIP3   OH241028   2.318   0.817   2.494 -0.1575 -0.2273 -0.6803
 6538TIP3    H141029   2.343   0.907   2.515 -0.9988 -0.2960  0.7700
 6538TIP3    H241030   2.269   0.824   2.412  1.0717  0.4155 -1.3922
 6539TIP3   OH241031   5.260   0.400  14.873  0.0021 -0.3673 -0.2488
 6539TIP3    H141032   5.332   0.423  14.814 -0.0104 -0.5755 -0.3477
 6539TIP3    H241033   5.183   0.442  14.833  0.2235  0.6403  0.3683
 6540TIP3   OH241034   0.206   1.492  11.635 -0.4396 -0.2091  0.3862
 6540TIP3    H141035   0.229   1.480  11.543  0.2980 -0.3757  0.5815
 6540TIP3    H241036   0.112   1.478  11.639 -0.5078  0.0044 -0.3781
 6541TIP3   OH241037   5.834   2.613  12.043  0.4375 -0.0031 -0.1373
 6541TIP3    H141038   5.824   2.521  12.066 -0.2382  0.3436  0.9969
 6541TIP3    H241039   5.911   2.615  11.986  0.1615 -1.3278 -0.6004
 6542TIP3   OH241040   3.132   4.841  11.202 -0.4098 -0.6362  0.2687
 6542TIP3    H141041   3.161   4.928  11.230  1.4150 -1.2325  0.3921
 6542TIP3    H241042   3.182   4.825  11.122  0.8812 -2.3687  1.3490
 6543TIP3   OH241043   3.537   5.492  13.843  0.1072  0.0623 -0.6124
 6543TIP3    H141044   3.566   5.442  13.919 -2.6673 -0.9379 -0.0926
 6543TIP3    H241045   3.535   5.429  13.772 -0.7754  0.1010 -0.6272
 6544TIP3   OH241046   2.173   4.919  16.313  0.3526 -0.2493 -0.2505
 6544TIP3    H141047   2.078   4.929  16.324  0.0099 -1.8342 -1.4750
 6544TIP3    H241048   2.205   5.009  16.302 -1.0747  0.2818 -0.2902
 6545TIP3   OH241049   4.322   2.179  11.350  0.3373 -0.0230 -0.4706
 6545TIP3    H141050   4.336   2.099  11.400 -0.0021 -0.4640 -1.0633
 6545TIP3    H241051   4.403   2.191  11.300  1.1721  1.0959  1.0695
 6546TIP3   OH241052   5.888   6.537  13.399  0.8888 -0.3235 -0.1411
 6546TIP3    H141053   5.934   6.559  13.479 -1.3723  2.0076  0.6539
 6546TIP3    H241054   5.798   6.522  13.426  0.0863  0.4040 -2.2130
 6547TIP3   OH241055   5.064   1.934   1.294  0.0080 -0.0192  0.4568
 6547TIP3    H141056   5.039   1.843   1.284  0.6234 -0.1716  0.2621
 6547TIP3    H241057   4.983   1.979   1.318 -0.5660 -0.4053 -0.6836
 6548TIP3   OH241058   3.292   1.133   6.210 -0.2706  0.6106 -1.1111
 6548TIP3    H141059   3.257   1.044   6.212  1.4159 -0.0776 -0.2391
 6548TIP3    H241060   3.387   1.121   6.214 -0.0455  2.4765  0.1694
 6549TIP3   OH241061   5.789   2.395  12.702  0.1079 -0.4637 -0.1710
 6549TIP3    H141062   5.837   2.385  12.783 -0.2329  0.7742  0.2143
 6549TIP3    H241063   5.807   2.316  12.652  1.6287 -0.5128  0.4255
 6550TIP3   OH241064   0.629   4.659  12.504  0.2962  0.0439  0.1160
 6550TIP3    H141065   0.558   4.704  12.459  0.6126  0.8626  0.4135
 6550TIP3    H241066   0.657   4.591  12.443 -0.6927 -0.2456 -0.0285
 6551TIP3   OH241067   3.686   6.566  10.932 -0.3954  0.3282 -0.5859
 6551TIP3    H141068   3.597   6.573  10.898 -0.4245  1.2165 -0.3398
 6551TIP3    H241069   3.701   6.648  10.979  0.2375 -0.1760  0.1292
 6552TIP3   OH241070   2.867   2.208  15.065  0.7619  0.0324 -0.0886
 6552TIP3    H141071   2.831   2.197  15.153  0.9784 -0.7836 -0.0931
 6552TIP3    H241072   2.790   2.216  15.008  0.6200  0.4261  0.1566
 6553TIP3   OH241073   0.346   0.333   5.156  0.1690 -0.3366 -0.2741
 6553TIP3    H141074   0.261   0.323   5.114  0.6899  0.4338 -1.5694
 6553TIP3    H241075   0.402   0.270   5.111  0.2318 -1.0720  0.7931
 6554TIP3   OH241076   2.041   1.398   3.451  0.0292 -0.7486  0.1405
 6554TIP3    H141077   1.972   1.331   3.446 -0.2110 -0.7790  2.6376
 6554TIP3    H241078   1.993   1.481   3.446  0.0621 -0.7525 -0.3181
 6555TIP3   OH241079   0.540   0.010   0.036 -0.4698  0.1357 -0.2554
 6555TIP3    H141080   0.539   0.039  -0.055  2.0973  1.4695  0.0636
 6555TIP3    H241081   0.628  -0.024   0.050 -0.9639 -0.5018  1.6042
 6556TIP3   OH241082   1.714   6.055   5.335  0.3843  0.0465  0.0357
 6556TIP3    H141083   1.740   6.084   5.422  0.9448  0.2773 -0.2045
 6556TIP3    H241084   1.706   6.135   5.284  1.2077 -0.1600 -0.4295
 6557TIP3   OH241085   6.335   2.655   4.745 -0.4000 -0.3417  0.6099
 6557TIP3    H141086   6.341   2.564   4.775  0.2156 -0.6562 -0.4266
 6557TIP3    H241087   6.379   2.655   4.661  1.1205  1.2707  1.3443
 6558TIP3   OH241088   1.432   0.052  15.182  0.4755  0.0152 -0.2622
 6558TIP3    H141089   1.500  -0.004  15.220  1.9756  0.4765 -2.1321
 6558TIP3    H241090   1.351   0.002  15.195  1.3042 -1.0651  1.0389
 6559TIP3   OH241091   3.969   0.560   5.481  0.0784  0.6184 -0.2046
 6559TIP3    H141092   4.034   0.603   5.537  0.1774 -0.0629  0.2187
 6559TIP3    H241093   4.015   0.545   5.398  1.1344 -1.5786  0.6979
 6560TIP3   OH241094   0.269   0.716   5.435  0.7337 -0.0287 -0.0736
 6560TIP3    H141095   0.346   0.682   5.389  0.7427 -2.2066  1.3938
 6560TIP3    H241096   0.196   0.698   5.376  1.0089 -0.7396 -0.2070
 6561TIP3   OH241097   2.776   2.734  11.431  0.0885  0.5636  0.0619
 6561TIP3    H141098   2.745   2.737  11.340  0.4792  1.7709 -0.0454
 6561TIP3    H241099   2.702   2.699  11.481  0.6959 -2.6988 -1.0316
 6562TIP3   OH241100   4.066   1.589   4.569 -0.4725 -0.3476  0.2953
 6562TIP3    H141101   4.013   1.529   4.622 -0.9253 -0.3058 -0.1055
 6562TIP3    H241102   4.153   1.548   4.567 -0.4352 -0.3213  1.1111
 6563TIP3   OH241103   6.185   1.686  17.136 -0.2281  0.2533 -0.3914
 6563TIP3    H141104   6.114   1.622  17.129 -1.1929  1.3016 -0.4319
 6563TIP3    H241105   6.151   1.754  17.194  1.0280  0.4123  0.1820
 6564TIP3   OH241106   4.951   4.467   3.976 -0.3221  0.0514  0.2564
 6564TIP3    H141107   4.926   4.554   4.007 -0.4134  0.0628  0.1490
 6564TIP3    H241108   5.012   4.435   4.043 -0.8803 -0.1131  0.6859
 6565TIP3   OH241109   2.135   1.874   4.123 -0.1782  0.2372 -0.8368
 6565TIP3    H141110   2.222   1.891   4.088  1.0137 -1.4922  1.0517
 6565TIP3    H241111   2.089   1.827   4.053 -0.1799  2.4273 -2.3959
 6566TIP3   OH241112   2.266   4.720  16.167  0.4065 -0.1862  0.0127
 6566TIP3    H141113   2.197   4.694  16.106  1.1444  0.2841 -1.0289
 6566TIP3    H241114   2.221   4.774  16.232  0.0986  1.7670 -1.7345
 6567TIP3   OH241115   5.919   2.311  11.449  0.1513 -0.1816  0.1928
 6567TIP3    H141116   5.917   2.267  11.534  1.3403  0.0509  0.3663
 6567TIP3    H241117   5.997   2.366  11.453 -1.0869  1.7073 -0.1425
 6568TIP3   OH241118   2.068   6.324  14.273 -0.0196  0.1912  0.3580
 6568TIP3    H141119   2.161   6.309  14.255  0.5166  1.5790  1.7115
 6568TIP3    H241120   2.035   6.371  14.196  0.5272  0.1497  0.0979
 6569TIP3   OH241121   1.443   5.451   5.420  0.3395  0.6317 -0.1237
 6569TIP3    H141122   1.476   5.376   5.470 -0.1343  0.3881 -0.1733
 6569TIP3    H241123   1.449   5.525   5.481  0.8228  0.5602 -0.0807
 6570TIP3   OH241124   3.366   0.265   0.344 -0.1448  0.1387 -0.5536
 6570TIP3    H141125   3.433   0.313   0.393 -1.9450  1.4385  0.7684
 6570TIP3    H241126   3.357   0.182   0.390 -1.2579  1.0312  0.8948
 6571TIP3   OH241127   6.186   3.759  14.714  0.1369 -0.3198 -0.5207
 6571TIP3    H141128   6.141   3.744  14.631  0.6718  2.5023 -1.4425
 6571TIP3    H241129   6.136   3.830  14.756  2.1478  1.0890 -0.3669
 6572TIP3   OH241130   1.252   6.506  15.667  0.1410  0.0203  0.2351
 6572TIP3    H141131   1.164   6.543  15.662  0.3989  1.1855  2.8408
 6572TIP3    H241132   1.278   6.495  15.575 -3.2880 -1.9416 -0.6960
 6573TIP3   OH241133   6.186   4.832   5.529  0.6476 -0.2055 -0.0788
 6573TIP3    H141134   6.159   4.919   5.559  2.0964  0.1772  0.1745
 6573TIP3    H241135   6.268   4.848   5.481 -0.3989 -1.0845 -2.3186
 6574TIP3   OH241136   4.515   4.097  12.715 -0.2147 -0.1513  0.6073
 6574TIP3    H141137   4.571   4.078  12.790  0.4044  0.7728  0.3984
 6574TIP3    H241138   4.465   4.175  12.741  0.1431  0.2895  0.0007
 6575TIP3   OH241139   3.742   0.630   4.757 -0.0687  0.1578 -0.1965
 6575TIP3    H141140   3.786   0.613   4.674  0.1907 -2.4989  0.3675
 6575TIP3    H241141   3.804   0.598   4.823  0.8096  4.3572  1.3396
 6576TIP3   OH241142   1.540   1.196  13.614  0.0728  0.0625 -0.1152
 6576TIP3    H141143   1.495   1.280  13.603  0.3074  0.1214 -0.6384
 6576TIP3    H241144   1.500   1.158  13.692 -2.4483 -0.8707 -1.7319
 6577TIP3   OH241145   1.151   2.228  11.689  0.4395 -0.8025  0.1153
 6577TIP3    H141146   1.172   2.183  11.771  3.8238 -0.0707 -0.1824
 6577TIP3    H241147   1.148   2.159  11.623 -0.9814 -1.2479  0.6276
 6578TIP3   OH241148   4.279   6.272   5.934 -0.0222  0.1920  0.0956
 6578TIP3    H141149   4.361   6.252   5.888 -0.1297 -0.6398  0.2544
 6578TIP3    H241150   4.246   6.187   5.963 -0.0861  0.6753  1.5105
 6579TIP3   OH241151   4.204   1.441  14.974 -0.8292 -0.2428  0.1099
 6579TIP3    H141152   4.210   1.354  15.013 -0.1089 -0.6105 -0.7819
 6579TIP3    H241153   4.223   1.427  14.881 -1.9614  0.6816 -0.2899
 6580TIP3   OH241154   1.429   5.696   1.167  0.2250 -0.2380 -0.1862
 6580TIP3    H141155   1.389   5.772   1.208  0.8103 -0.7996  1.5623
 6580TIP3    H241156   1.480   5.655   1.238  1.4132 -1.2162 -1.5417
 6581TIP3   OH241157   1.934   6.347   1.654  0.5308  0.1100 -0.0630
 6581TIP3    H141158   2.029   6.336   1.668  0.6426  0.0441 -0.8289
 6581TIP3    H241159   1.926   6.372   1.562 -0.3539 -2.3452 -0.7264
 6582TIP3   OH241160   1.892   4.743   5.560  0.1746  0.2308  0.8184
 6582TIP3    H141161   1.978   4.780   5.583 -0.0920  2.5201 -1.3901
 6582TIP3    H241162   1.910   4.685   5.485 -0.2016  1.0096  0.1058
 6583TIP3   OH241163   1.865   3.291  13.933 -0.8376  0.7555  0.6943
 6583TIP3    H141164   1.793   3.328  13.881 -1.2949  0.8706  1.3971
 6583TIP3    H241165   1.905   3.366  13.976  0.3444  0.8146 -0.4503
 6584TIP3   OH241166   1.188   0.698  13.228  0.0440  0.0349  0.4580
 6584TIP3    H141167   1.153   0.758  13.294  0.0487  1.7396 -0.9957
 6584TIP3    H241168   1.134   0.715  13.150  2.8679  1.5271 -1.3655
 6585TIP3   OH241169   6.345   6.566  12.227  0.7035 -0.0580  0.6640
 6585TIP3    H141170   6.352   6.484  12.178  1.4606 -0.6620  1.7433
 6585TIP3    H241171   6.375   6.544  12.315 -0.2772  1.0841  1.3224
 6586TIP3   OH241172   4.693   3.921   2.681  0.0542 -0.3537 -0.5128
 6586TIP3    H141173   4.658   3.861   2.747  0.4246  0.6888  0.6829
 6586TIP3    H241174   4.763   3.873   2.638  0.4724 -0.7271  0.5536
 6587TIP3   OH241175   1.562   2.205   5.818 -0.2647 -0.2438  0.1099
 6587TIP3    H141176   1.567   2.293   5.854 -3.3799  0.2827 -0.4442
 6587TIP3    H241177   1.611   2.151   5.880  4.2637  2.0817 -0.9984
 6588TIP3   OH241178   5.318   5.688   2.110  0.4350  0.5656  0.3381
 6588TIP3    H141179   5.349   5.623   2.173  0.8835 -0.5892 -0.9979
 6588TIP3    H241180   5.260   5.745   2.160 -0.9405 -1.5644  1.3478
 6589TIP3   OH241181   2.898   3.031   3.119 -0.8241  0.3131 -1.0582
 6589TIP3    H141182   2.899   3.097   3.049 -0.4620  1.7783  0.2759
 6589TIP3    H241183   2.989   3.022   3.145 -1.0328  0.2452 -0.3401
 6590TIP3   OH241184   0.565   6.186   4.528  0.2280 -0.1514  0.3827
 6590TIP3    H141185   0.625   6.251   4.563  1.0516 -1.4531  1.5253
 6590TIP3    H241186   0.522   6.149   4.606 -0.7885 -0.4206 -0.2934
 6591TIP3   OH241187   2.924   2.945  16.375 -0.0007 -0.2987 -0.2679
 6591TIP3    H141188   2.930   3.024  16.323  1.2807 -1.2274 -1.6272
 6591TIP3    H241189   2.944   2.973  16.465  2.3302  0.6584 -1.0101
 6592TIP3   OH241190   6.428   2.439   0.696  0.6414  0.0432 -0.3570
 6592TIP3    H141191   6.438   2.349   0.727 -1.5394 -0.5428 -1.1825
 6592TIP3    H241192   6.397   2.487   0.772 -0.3170 -0.3991 -0.4556
 6593TIP3   OH241193   4.662   1.030   5.478 -0.5859 -0.4939  0.5534
 6593TIP3    H141194   4.708   1.071   5.552 -1.4209 -1.1060  1.4421
 6593TIP3    H241195   4.629   1.103   5.427 -1.6342 -0.0069  1.8501
 6594TIP3   OH241196   5.440   2.671  16.383  0.3300 -0.2077  0.0894
 6594TIP3    H141197   5.370   2.627  16.334 -0.0987  0.4952  0.0519
 6594TIP3    H241198   5.396   2.705  16.461  0.0561  2.3414 -1.0847
 6595TIP3   OH241199   4.468   1.328  10.984 -0.2819 -0.3450  0.2451
 6595TIP3    H141200   4.461   1.272  11.061  0.2728 -0.5974  0.1208
 6595TIP3    H241201   4.399   1.393  10.994  1.0416  0.8959  2.0019
 6596TIP3   OH241202   2.848   0.967   1.732  0.3845  0.4751 -0.4139
 6596TIP3    H141203   2.910   0.908   1.774  1.4308  1.4908 -0.4559
 6596TIP3    H241204   2.874   1.054   1.762  0.7588  1.1841 -2.5648
 6597TIP3   OH241205   4.703   6.109   4.413 -0.1718 -0.7959 -0.3922
 6597TIP3    H141206   4.688   6.021   4.380  2.1969 -1.0169 -1.0798
 6597TIP3    H241207   4.709   6.163   4.335 -1.8275  0.0733  0.0290
 6598TIP3   OH241208   5.828   0.620  15.576  0.0699  0.6842 -0.6798
 6598TIP3    H141209   5.792   0.629  15.664  0.7684 -1.3197 -0.1369
 6598TIP3    H241210   5.775   0.678  15.522 -1.2659  0.9132  0.8120
 6599TIP3   OH241211   4.122   1.727   0.772  0.2059 -0.3734 -0.3868
 6599TIP3    H141212   4.165   1.690   0.849  1.5378 -0.2117 -1.0416
 6599TIP3    H241213   4.029   1.707   0.786  0.6492 -2.2873  0.2000
 6600TIP3   OH241214   3.568   5.253  14.273  0.1483 -0.7061 -0.2484
 6600TIP3    H141215   3.652   5.272  14.231  1.4209 -1.1799  1.9355
 6600TIP3    H241216   3.514   5.329  14.254  1.7045  0.4682 -0.1669
 6601TIP3   OH241217   5.996   1.126  11.043 -0.0711 -0.1776 -0.0645
 6601TIP3    H141218   5.984   1.221  11.046 -2.0671 -0.3229  4.4480
 6601TIP3    H241219   6.063   1.108  11.109 -0.0342 -1.9476 -0.5297
 6602TIP3   OH241220   5.811   4.928  10.620 -0.0341 -0.4427 -0.3194
 6602TIP3    H141221   5.758   4.903  10.545  0.2012 -1.7750 -0.0610
 6602TIP3    H241222   5.783   4.869  10.690  0.9806 -0.3976  0.1410
 6603TIP3   OH241223   2.513   4.414  14.626 -0.1259 -0.1236  0.1282
 6603TIP3    H141224   2.468   4.342  14.582 -0.1345 -0.1608  0.1972
 6603TIP3    H241225   2.448   4.448  14.688 -0.6714  0.9309 -0.9703
 6604TIP3   OH241226   5.885   3.274   0.986  0.0770 -0.4689  0.0207
 6604TIP3    H141227   5.910   3.272   0.894  1.6164  0.0009  0.3940
 6604TIP3    H241228   5.826   3.200   0.997 -1.1047  0.1951 -1.5937
 6605TIP3   OH241229   2.330   2.943  14.311  0.3449  0.2984  0.2791
 6605TIP3    H141230   2.276   2.897  14.375  1.2318  1.1680  1.7035
 6605TIP3    H241231   2.313   3.035  14.327  0.6666  0.5422 -0.6922
 6606TIP3   OH241232   3.995   3.287   0.652  0.1555  0.8012 -0.2155
 6606TIP3    H141233   4.082   3.325   0.637  0.2091  1.9224  2.3378
 6606TIP3    H241234   3.935   3.360   0.638 -0.1857  0.5656  0.0049
 6607TIP3   OH241235   0.372   0.139   3.998 -0.3699  0.2339  0.0417
 6607TIP3    H141236   0.314   0.195   3.947  0.4269  0.6342 -0.4416
 6607TIP3    H241237   0.423   0.200   4.051  0.2231 -0.0597 -0.1855
 6608TIP3   OH241238   5.347   1.297  15.108  0.2278 -0.0234  0.0219
 6608TIP3    H141239   5.303   1.216  15.081  2.0965 -0.4820 -1.8845
 6608TIP3    H241240   5.364   1.286  15.202  0.4681 -1.8502 -0.2135
 6609TIP3   OH241241   6.503   0.546   4.951  0.4764 -0.1092 -0.1362
 6609TIP3    H141242   6.450   0.491   4.893 -0.1477  0.2042  0.1189
 6609TIP3    H241243   6.439   0.589   5.008  1.0393  0.0027  0.4275
 6610TIP3   OH241244   0.168   1.926  14.134  0.0094  0.0861  0.3604
 6610TIP3    H141245   0.239   1.933  14.070  0.4226  0.5293  0.8644
 6610TIP3    H241246   0.096   1.885  14.085  1.2002 -2.1130  0.3086
 6611TIP3   OH241247   0.071   5.549  12.663 -0.1106  0.2075  0.5988
 6611TIP3    H141248   0.013   5.556  12.739 -1.5043  1.2501 -0.5068
 6611TIP3    H241249   0.016   5.570  12.588  1.7670  1.6039 -0.4980
 6612TIP3   OH241250   5.426   6.023   5.600  0.1843  0.3859 -0.4066
 6612TIP3    H141251   5.374   6.098   5.569 -0.1719  0.2304 -0.1987
 6612TIP3    H241252   5.517   6.049   5.586  0.0614  0.8458 -0.3707
 6613TIP3   OH241253   5.071   6.555  14.248 -0.0812 -0.3690  0.4342
 6613TIP3    H141254   5.012   6.629  14.236 -0.0480 -0.7033 -2.2219
 6613TIP3    H241255   5.129   6.583  14.319 -1.5469  1.1398  1.1211
 6614TIP3   OH241256   2.488   0.401   2.065 -0.3679 -0.0581  0.1725
 6614TIP3    H141257   2.516   0.346   1.991  1.4489  1.3145 -0.2489
 6614TIP3    H241258   2.550   0.474   2.064 -0.7033  0.3257  2.6924
 6615TIP3   OH241259   2.958   3.098  15.967  0.3877 -0.1679 -0.2605
 6615TIP3    H141260   2.932   3.176  15.918 -0.0133  0.2371  0.5873
 6615TIP3    H241261   3.033   3.063  15.917 -1.2006 -0.8840 -2.2786
 6616TIP3   OH241262   1.086   6.080   5.312 -0.2573  0.1370  0.1693
 6616TIP3    H141263   1.012   6.117   5.360 -0.7003 -1.7753  1.0649
 6616TIP3    H241264   1.136   6.031   5.378  1.2285  0.4956 -0.6291
 6617TIP3   OH241265   2.964   3.406  14.743  0.6385 -0.4798  1.1136
 6617TIP3    H141266   3.006   3.490  14.726  1.7816 -0.9797  1.3938
 6617TIP3    H241267   3.008   3.373  14.822  0.7036 -1.6691  0.5917
 6618TIP3   OH241268   3.594   0.188  11.643 -0.2307  0.2761 -0.0660
 6618TIP3    H141269   3.583   0.095  11.620  0.9671 -0.0073  0.3992
 6618TIP3    H241270   3.597   0.233  11.559 -1.2144 -0.0514 -0.2869
 6619TIP3   OH241271   0.111   2.114  11.433  0.3088  0.4393 -0.4817
 6619TIP3    H141272   0.183   2.052  11.448 -0.7971 -0.9022 -0.4986
 6619TIP3    H241273   0.102   2.160  11.517 -0.6696 -1.4304  0.5019
 6620TIP3   OH241274   2.571   1.727  13.707 -0.5588  0.2656 -0.2137
 6620TIP3    H141275   2.591   1.675  13.785  1.8559  1.4433  0.0321
 6620TIP3    H241276   2.541   1.663  13.642  1.9030 -1.4209  0.1958
 6621TIP3   OH241277   6.745   3.560  13.945 -0.1091  0.1626  0.0954
 6621TIP3    H141278   6.796   3.480  13.933 -0.2646  0.0969 -0.1544
 6621TIP3    H241279   6.810   3.627  13.966  0.1969  0.2722 -1.0870
 6622TIP3   OH241280   3.145   5.020   2.589 -0.6140  0.0382  0.0513
 6622TIP3    H141281   3.075   5.070   2.548  1.0767  3.0727  0.6049
 6622TIP3    H241282   3.170   5.072   2.665  1.3948 -1.5838  0.5800
 6623TIP3   OH241283   6.421   4.464   3.560  0.6928 -0.2981  0.0651
 6623TIP3    H141284   6.513   4.438   3.570  1.0569  0.7067 -0.5394
 6623TIP3    H241285   6.425   4.555   3.533 -0.4386 -0.6262 -1.3223
 6624TIP3   OH241286   1.729   1.751   6.487 -0.1369 -0.8185 -0.5289
 6624TIP3    H141287   1.673   1.813   6.532  0.8283 -1.7813  2.2164
 6624TIP3    H241288   1.669   1.695   6.438 -1.4069 -0.5630  0.6842
 6625TIP3   OH241289   0.144   5.559   0.834 -0.0370  0.4104  0.0226
 6625TIP3    H141290   0.207   5.507   0.784  0.0675 -0.6089  1.1754
 6625TIP3    H241291   0.115   5.627   0.772 -0.2994 -1.1003 -1.5933
 6626TIP3   OH241292   0.031   0.272  12.645 -0.3098  0.5203 -0.1352
 6626TIP3    H141293   0.124   0.295  12.645 -0.5191  1.4301  0.3975
 6626TIP3    H241294  -0.008   0.329  12.712 -1.3052  0.3986 -0.5864
 6627TIP3   OH241295   5.411   0.192  14.982  0.3384  0.1082 -0.1309
 6627TIP3    H141296   5.454   0.242  15.051 -2.5283  0.8770  1.2852
 6627TIP3    H241297   5.370   0.258  14.926 -0.6297 -0.5790 -0.2641
 6628TIP3   OH241298   1.592   3.427  11.589  0.5690 -0.1941  0.5944
 6628TIP3    H141299   1.562   3.417  11.499  0.1409  0.9811  0.5914
 6628TIP3    H241300   1.579   3.341  11.628  1.9296 -1.0865 -0.7953
 6629TIP3   OH241301   2.505   3.778  14.818  0.9514  0.7723 -0.2498
 6629TIP3    H141302   2.463   3.848  14.867  1.5168  0.7617  0.2541
 6629TIP3    H241303   2.554   3.823  14.749  0.4519  0.8065 -0.5890
 6630TIP3   OH241304   6.597   0.439   2.790  0.3045  0.2130  0.2833
 6630TIP3    H141305   6.544   0.506   2.832  0.3411  0.4153  0.0097
 6630TIP3    H241306   6.641   0.485   2.718 -0.1001 -0.2216 -0.2554
 6631TIP3   OH241307   0.069   6.000  14.533  0.1538  0.4176 -0.4454
 6631TIP3    H141308   0.051   5.939  14.604 -0.8366  2.6167  1.3385
 6631TIP3    H241309   0.143   5.962  14.486  1.2170 -0.8813  2.1030
 6632TIP3   OH241310   6.686   6.225   0.235 -0.1072  0.4641  0.1113
 6632TIP3    H141311   6.636   6.217   0.154  0.2408 -1.3225  0.0455
 6632TIP3    H241312   6.636   6.174   0.299  0.5507  0.3903  0.5737
 6633TIP3   OH241313   1.717   6.541   3.045 -0.0971  0.6430 -0.5438
 6633TIP3    H141314   1.642   6.597   3.027  0.6106  2.1511  0.8430
 6633TIP3    H241315   1.763   6.585   3.117  1.3404 -0.9609 -0.3960
 6634TIP3   OH241316   5.329   2.030  10.626  0.2246 -0.0631 -0.6156
 6634TIP3    H141317   5.335   1.973  10.550 -1.4306 -0.9522 -0.1345
 6634TIP3    H241318   5.247   2.077  10.615 -0.9055 -1.4284  1.3736
 6635TIP3   OH241319   1.726   5.734   2.062 -0.4669  0.1732  0.2892
 6635TIP3    H141320   1.795   5.747   1.997 -1.4755  3.1090 -0.3777
 6635TIP3    H241321   1.660   5.682   2.016  0.2261 -0.5807  0.1216
 6636TIP3   OH241322   2.335   5.476  13.830 -0.7323 -0.3785 -0.3865
 6636TIP3    H141323   2.358   5.416  13.759 -0.1495  1.1669 -1.5615
 6636TIP3    H241324   2.304   5.419  13.900  1.3032 -2.1809 -0.8347
 6637TIP3   OH241325   3.880   0.647  12.450  0.0148 -0.2113 -0.6403
 6637TIP3    H141326   3.853   0.628  12.360  0.8646 -1.1403 -0.7252
 6637TIP3    H241327   3.930   0.570  12.476  1.8817  1.0608 -0.2340
 6638TIP3   OH241328   0.559   1.949   0.354 -0.1838 -0.1377  0.1116
 6638TIP3    H141329   0.631   1.938   0.417  0.8969  0.3566 -0.9897
 6638TIP3    H241330   0.534   2.040   0.363 -0.0096 -0.0598 -0.1853
 6639TIP3   OH241331   1.640   0.877  15.912 -0.0066 -0.2272 -0.3739
 6639TIP3    H141332   1.711   0.813  15.904 -0.7623 -1.0845 -0.4356
 6639TIP3    H241333   1.599   0.877  15.825 -0.1851  0.1401 -0.2917
 6640TIP3   OH241334   2.069   2.234  13.039  0.1413  0.1839 -0.1017
 6640TIP3    H141335   2.153   2.229  13.084 -0.2019 -0.7904  0.4538
 6640TIP3    H241336   2.080   2.304  12.975  1.2446  0.3272  0.2342
 6641TIP3   OH241337   4.750   0.711  13.589  0.2761 -0.6031 -0.2723
 6641TIP3    H141338   4.657   0.700  13.568 -0.1057 -0.5577  1.3121
 6641TIP3    H241339   4.784   0.621  13.592  0.4994 -0.5958 -1.6175
 6642TIP3   OH241340   6.391   4.490  10.425  0.0829  0.1077 -0.1731
 6642TIP3    H141341   6.430   4.410  10.460 -0.5142 -0.4798 -0.8219
 6642TIP3    H241342   6.325   4.514  10.490 -0.1083 -0.2365 -0.2347
 6643TIP3   OH241343   2.348   6.443   3.171 -0.8164  0.2090  0.0448
 6643TIP3    H141344   2.258   6.463   3.144 -0.1620  1.0232 -1.7186
 6643TIP3    H241345   2.346   6.446   3.266 -2.2701  2.0475  0.0040
 6644TIP3   OH241346   0.762   3.485   2.563  0.2259  0.3590  0.2521
 6644TIP3    H141347   0.846   3.524   2.541  0.9490 -1.4929 -0.5436
 6644TIP3    H241348   0.768   3.465   2.656  0.5599  0.5189  0.2641
 6645TIP3   OH241349   1.072   3.420  12.690  0.2289  0.4003  0.2162
 6645TIP3    H141350   1.102   3.480  12.758 -0.7558 -0.1151  1.1494
 6645TIP3    H241351   1.041   3.477  12.620  1.3019  0.9407  0.1656
 6646TIP3   OH241352   0.976   0.455   1.234 -0.0083  0.1676 -0.0301
 6646TIP3    H141353   0.979   0.499   1.319 -1.0963 -0.1141  0.1781
 6646TIP3    H241354   1.066   0.428   1.217  0.2229  0.2074  1.0464
 6647TIP3   OH241355   3.073   1.571  12.274 -0.0539 -0.1818  0.6130
 6647TIP3    H141356   3.079   1.485  12.232  1.8197  0.8747 -1.4726
 6647TIP3    H241357   3.164   1.597  12.288 -0.3758  2.8127 -1.8582
 6648TIP3   OH241358   6.401   5.677  15.779 -0.1800 -0.7033  0.4550
 6648TIP3    H141359   6.454   5.611  15.734 -0.9936 -0.3401 -1.0827
 6648TIP3    H241360   6.440   5.683  15.867  0.4418 -2.5801  0.3376
 6649TIP3   OH241361   3.206   2.353   1.973  0.0579 -0.5064 -0.3417
 6649TIP3    H141362   3.258   2.406   1.913  1.1910 -2.0229 -0.7546
 6649TIP3    H241363   3.122   2.343   1.929 -0.0745  0.6710 -0.3875
 6650TIP3   OH241364   0.376   0.178  12.538 -0.2888 -0.8882 -0.8046
 6650TIP3    H141365   0.352   0.271  12.541  0.2040 -0.7853  0.9664
 6650TIP3    H241366   0.472   0.177  12.541 -0.2988 -1.4558  2.6297
 6651TIP3   OH241367   4.202   5.133  11.119 -0.2823 -0.3853  0.2355
 6651TIP3    H141368   4.123   5.083  11.097 -1.4684  0.8202  1.5449
 6651TIP3    H241369   4.201   5.207  11.058 -0.0921 -0.4190  0.1890
 6652TIP3   OH241370   6.233   0.469  16.501 -0.6535  0.4205  0.4474
 6652TIP3    H141371   6.234   0.564  16.487  0.1026  0.6241  1.7124
 6652TIP3    H241372   6.314   0.451  16.548  0.1278 -1.1371 -1.3680
 6653TIP3   OH241373   6.741   3.276  17.163 -0.0547  0.3318 -0.4591
 6653TIP3    H141374   6.835   3.259  17.164 -0.2426 -1.3163  3.2316
 6653TIP3    H241375   6.733   3.370  17.181  0.9005  0.2673  0.3682
 6654TIP3   OH241376   2.290   5.657  12.935 -0.2228  0.4184  0.3507
 6654TIP3    H141377   2.259   5.606  12.861 -1.0666  0.3145  0.7614
 6654TIP3    H241378   2.347   5.596  12.983  1.4064  0.8878 -0.8872
 6655TIP3   OH241379   0.992   0.685  11.292 -0.0165  0.3717  0.1005
 6655TIP3    H141380   0.909   0.688  11.340 -0.5186 -1.0902 -0.6197
 6655TIP3    H241381   1.059   0.702  11.359 -0.8674  1.3770  0.7248
 6656TIP3   OH241382   3.769   5.031   3.935 -0.1262 -0.0000 -0.9260
 6656TIP3    H141383   3.825   4.957   3.909  0.7200  1.1631 -2.6047
 6656TIP3    H241384   3.831   5.102   3.955 -0.8011 -0.2028  2.6739
 6657TIP3   OH241385   6.723   4.366  12.767  0.2674  0.6953 -0.3774
 6657TIP3    H141386   6.795   4.421  12.733 -0.9165  1.9604 -0.9355
 6657TIP3    H241387   6.653   4.428  12.787 -0.3684 -0.4271  1.0095
 6658TIP3   OH241388   0.457   4.543   2.816 -0.0620  0.4022 -0.2373
 6658TIP3    H141389   0.409   4.559   2.735  0.8058  2.6316 -0.3692
 6658TIP3    H241390   0.411   4.594   2.882  0.1916 -0.1154  0.3550
 6659TIP3   OH241391   5.346   2.529  14.784  0.2445 -0.3710  0.1033
 6659TIP3    H141392   5.404   2.584  14.732  0.3363 -0.3741  0.2020
 6659TIP3    H241393   5.265   2.579  14.792  0.5595  0.0473  0.7666
 6660TIP3   OH241394   3.753   3.722   5.104 -0.4946  0.1145  0.3243
 6660TIP3    H141395   3.762   3.806   5.149 -0.9376  0.3578 -0.0296
 6660TIP3    H241396   3.722   3.745   5.016 -1.2579 -0.4462  0.4325
 6661TIP3   OH241397   3.679   0.526   5.083 -0.2089  0.0387 -0.2930
 6661TIP3    H141398   3.770   0.530   5.055  0.4401 -0.6671  1.6204
 6661TIP3    H241399   3.647   0.442   5.050 -0.1746  0.2756 -0.9428
 6662TIP3   OH241400   2.896   1.335  16.858 -0.2422 -0.4976 -0.1345
 6662TIP3    H141401   2.981   1.340  16.816 -0.0390  1.5297  0.4083
 6662TIP3    H241402   2.906   1.387  16.938 -1.9797 -0.2043 -0.0700
 6663TIP3   OH241403   1.074   3.913  11.885  0.2433 -0.1768 -0.7207
 6663TIP3    H141404   1.136   3.844  11.909  3.0189  2.0754 -0.9386
 6663TIP3    H241405   1.046   3.950  11.969 -0.9129 -1.1774 -0.6244
 6664TIP3   OH241406   5.907   2.246   5.519 -0.0575  0.1369 -0.7565
 6664TIP3    H141407   5.972   2.301   5.475  1.6282 -0.6039  0.6690
 6664TIP3    H241408   5.843   2.225   5.451  0.5908  1.8038 -1.9386
 6665TIP3   OH241409   2.939   1.295   5.637 -0.4112  0.2795 -0.1526
 6665TIP3    H141410   2.906   1.206   5.636 -0.8242  0.4212 -2.0336
 6665TIP3    H241411   2.868   1.347   5.676 -0.2112 -0.1743  0.8385
 6666TIP3   OH241412   0.826   2.222  16.790  0.1907  0.0633  0.0805
 6666TIP3    H141413   0.909   2.174  16.798  0.6710  1.0101  1.0871
 6666TIP3    H241414   0.759   2.157  16.812  0.8960  0.0458  2.4794
 6667TIP3   OH241415   0.275   2.983  15.192  0.1179  0.0089 -0.2937
 6667TIP3    H141416   0.267   3.075  15.218  0.0547  0.0905 -0.6045
 6667TIP3    H241417   0.368   2.964  15.202 -0.3016 -0.9621  3.4011
 6668TIP3   OH241418   1.776   1.986  12.330  0.2810  0.1964  0.4736
 6668TIP3    H141419   1.857   2.016  12.370  0.4912 -0.0911  0.2702
 6668TIP3    H241420   1.755   2.052  12.265  0.1770  0.4366  0.7485
 6669TIP3   OH241421   1.963   2.062   1.788  0.1740 -0.2544 -0.1876
 6669TIP3    H141422   2.024   1.997   1.823  0.5771  0.2724  0.1078
 6669TIP3    H241423   1.887   2.012   1.762  0.2840 -0.7912  0.4877
 6670TIP3   OH241424   0.782   0.552   6.444 -0.6702  0.2577 -0.4428
 6670TIP3    H141425   0.690   0.573   6.428 -0.3330  0.9239 -1.6444
 6670TIP3    H241426   0.821   0.633   6.476 -0.9899 -0.6594  2.5808
 6671TIP3   OH241427   6.041   6.710   3.093 -0.3557 -0.4139  0.4015
 6671TIP3    H141428   6.112   6.647   3.101 -0.9000 -1.2402 -0.8430
 6671TIP3    H241429   6.023   6.715   2.999 -0.9643  0.8901  0.5567
 6672TIP3   OH241430   5.859   3.601   2.234  0.3459  0.4009  0.2433
 6672TIP3    H141431   5.845   3.689   2.269  1.4938  0.2748  1.0656
 6672TIP3    H241432   5.826   3.542   2.302 -0.2470  0.1733 -0.2255
 6673TIP3   OH241433   6.247   5.431  14.188 -0.2898 -0.1370 -0.2672
 6673TIP3    H141434   6.152   5.426  14.200 -0.1188 -0.3399  1.1468
 6673TIP3    H241435   6.269   5.349  14.144 -1.0479  0.9932 -2.9438
 6674TIP3   OH241436   5.505   3.398  11.991 -0.3919 -0.3596 -0.2930
 6674TIP3    H141437   5.472   3.408  12.080 -1.4138 -0.5949 -0.6388
 6674TIP3    H241438   5.570   3.468  11.981 -0.5241 -0.1180  0.5156
 6675TIP3   OH241439   5.831   5.700  13.940 -0.8535 -0.7489 -0.0038
 6675TIP3    H141440   5.843   5.711  14.034  0.0091  1.8249 -0.3301
 6675TIP3    H241441   5.903   5.644  13.912  0.7907  1.0767  0.4506
 6676TIP3   OH241442   6.649   6.729   4.995  0.7748  0.2482 -0.3977
 6676TIP3    H141443   6.732   6.758   5.031  1.0448  1.3760 -1.8165
 6676TIP3    H241444   6.586   6.797   5.022  0.7094  0.3976 -0.9218
 6677TIP3   OH241445   4.706   1.458   4.048  0.5838  0.4150 -0.5222
 6677TIP3    H141446   4.664   1.372   4.047  2.6322 -0.6223 -1.1335
 6677TIP3    H241447   4.797   1.441   4.071  1.0570  2.4229 -0.6827
 6678TIP3   OH241448   0.106   3.161  13.001 -0.3378 -0.0377  0.1450
 6678TIP3    H141449   0.148   3.077  12.982 -1.4010 -0.3540 -0.8842
 6678TIP3    H241450   0.012   3.142  13.000 -0.6656  1.4582 -1.6341
 6679TIP3   OH241451   3.486   0.861  13.799  0.0091  0.2716  0.5716
 6679TIP3    H141452   3.542   0.937  13.814  0.0249  0.4941 -0.5133
 6679TIP3    H241453   3.415   0.871  13.862  0.0015  1.2071  0.4374
 6680TIP3   OH241454   1.244   1.104  13.460 -0.4405 -0.1428  0.0331
 6680TIP3    H141455   1.169   1.078  13.407 -0.8071 -0.2587  0.6028
 6680TIP3    H241456   1.277   1.021  13.496  1.8306 -0.5119 -2.6074
 6681TIP3   OH241457   3.853   4.516  15.729  0.7202  0.3981 -0.0706
 6681TIP3    H141458   3.864   4.465  15.810  1.2730 -0.6601 -0.7956
 6681TIP3    H241459   3.843   4.606  15.760 -2.8965 -0.3134  1.4291
 6682TIP3   OH241460   1.909   4.398  16.521 -0.4233 -0.2198  0.2876
 6682TIP3    H141461   1.868   4.312  16.513 -2.0509  0.5251  0.2836
 6682TIP3    H241462   1.870   4.450  16.451  0.3994  0.5745  0.4067
 6683TIP3   OH241463   0.370   5.473   0.669  0.5377  0.5138  0.1851
 6683TIP3    H141464   0.411   5.521   0.741 -0.7984  0.6501  0.8785
 6683TIP3    H241465   0.409   5.385   0.674 -0.1004  0.2774  1.5923
 6684TIP3   OH241466   2.932   5.513  14.453  0.0137 -0.6126  0.3648
 6684TIP3    H141467   2.850   5.492  14.497  0.0954  0.6871  1.2043
 6684TIP3    H241468   2.982   5.431  14.454 -0.4634 -0.9057  1.6737
 6685TIP3   OH241469   5.836   5.932  11.430 -0.8917 -0.3122 -0.0555
 6685TIP3    H141470   5.801   6.007  11.382 -1.1558 -0.1152  0.4383
 6685TIP3    H241471   5.929   5.951  11.439 -1.1143  0.3982  0.8507
 6686TIP3   OH241472   5.250   0.244   3.613 -0.3217 -0.2646 -0.4357
 6686TIP3    H141473   5.256   0.279   3.702 -0.3014 -2.3587  0.4472
 6686TIP3    H241474   5.326   0.281   3.567 -0.9604  1.7476  0.0322
 6687TIP3   OH241475   4.474   2.657  10.975  0.3631 -0.1428 -0.3990
 6687TIP3    H141476   4.484   2.694  11.063 -0.3114 -2.0349  0.5359
 6687TIP3    H241477   4.437   2.728  10.923  1.7950  1.3671  0.5369
 6688TIP3   OH241478   4.216   0.683   5.589 -0.4922  0.2812 -0.3993
 6688TIP3    H141479   4.203   0.777   5.584 -0.6350  0.2424 -0.8237
 6688TIP3    H241480   4.243   0.667   5.679 -2.7997  0.4462  0.3857
 6689TIP3   OH241481   4.350   4.577  12.785 -0.1637  0.1749  0.5142
 6689TIP3    H141482   4.299   4.619  12.716  0.1588 -0.4116 -0.0906
 6689TIP3    H241483   4.288   4.567  12.858 -0.8395 -0.2572 -0.1053
 6690TIP3   OH241484   6.433   2.761   3.543  0.2671  0.1963 -0.1947
 6690TIP3    H141485   6.379   2.689   3.511 -0.9026  0.6333  0.7279
 6690TIP3    H241486   6.496   2.720   3.603  1.1709 -0.3472 -1.4632
 6691TIP3   OH241487   3.940   3.336  14.937 -0.3364  0.1637 -0.9571
 6691TIP3    H141488   3.956   3.430  14.932  0.8123  0.0865  0.7343
 6691TIP3    H241489   3.932   3.308  14.845 -0.0601  1.7810 -1.5026
 6692TIP3   OH241490   1.523   3.226  14.014 -0.3448 -0.2571  0.5568
 6692TIP3    H141491   1.531   3.316  14.047  2.6413  0.1626 -0.9842
 6692TIP3    H241492   1.487   3.235  13.926 -2.5010 -0.8833  1.2978
 6693TIP3   OH241493   5.582   0.869   3.119 -0.0625 -0.1567 -0.0356
 6693TIP3    H141494   5.652   0.931   3.140 -0.6502  0.1521  1.0575
 6693TIP3    H241495   5.595   0.796   3.178 -0.6546 -0.0990  0.1727
 6694TIP3   OH241496   5.754   0.031  12.862  0.3696 -0.3921 -0.4349
 6694TIP3    H141497   5.698   0.037  12.939  0.1200  0.3893 -0.6733
 6694TIP3    H241498   5.701  -0.018  12.798  0.0807  0.0544 -0.5436
 6695TIP3   OH241499   4.651   5.978  10.811 -0.0011  0.0492 -0.3045
 6695TIP3    H141500   4.633   5.884  10.819  1.1572 -0.1698 -0.0837
 6695TIP3    H241501   4.579   6.012  10.759 -0.2107 -1.0511 -0.7602
 6696TIP3   OH241502   6.213   1.597  16.768 -0.2419 -0.7447 -0.0700
 6696TIP3    H141503   6.267   1.549  16.830 -0.4884 -1.0937 -0.1218
 6696TIP3    H241504   6.134   1.543  16.757 -0.3876 -0.4808 -0.3611
 6697TIP3   OH241505   0.393   1.412  11.156  0.7384  0.6382  0.1765
 6697TIP3    H141506   0.385   1.456  11.071 -0.4462 -0.7702 -0.5030
 6697TIP3    H241507   0.352   1.327  11.142  0.2960  0.4621  2.2583
 6698TIP3   OH241508   2.204   1.271   3.254  0.1826  1.0059  0.1554
 6698TIP3    H141509   2.207   1.176   3.244 -0.7528  1.0067 -0.2621
 6698TIP3    H241510   2.152   1.286   3.332  0.6382  1.1788  0.4328
 6699TIP3   OH241511   4.784   3.422   4.935  0.2787  0.4281 -0.4812
 6699TIP3    H141512   4.871   3.388   4.913 -0.8286 -1.7407 -1.8799
 6699TIP3    H241513   4.742   3.437   4.850 -0.9461  0.7920  0.1570
 6700TIP3   OH241514   2.130   6.585  16.938 -0.0562 -0.4212 -0.1925
 6700TIP3    H141515   2.179   6.605  16.859 -0.0269 -1.2582 -0.3980
 6700TIP3    H241516   2.125   6.489  16.939 -1.2329 -0.3721  0.0921
 6701TIP3   OH241517   0.074   4.987   4.473  0.2103  0.3170 -0.1331
 6701TIP3    H141518   0.053   4.932   4.398  0.1444  2.3058 -1.6557
 6701TIP3    H241519   0.017   4.955   4.543 -1.2360 -0.2883 -1.5219
 6702TIP3   OH241520   0.752   6.508   5.273  0.3967 -0.2016 -0.5422
 6702TIP3    H141521   0.815   6.549   5.332 -1.1571  1.2712  0.1887
 6702TIP3    H241522   0.748   6.567   5.198  1.2584 -1.2935 -1.4856
 6703TIP3   OH241523   6.141   2.172   0.940  0.6412  0.1251  0.4626
 6703TIP3    H141524   6.138   2.113   1.015  0.5807  1.9162  1.9465
 6703TIP3    H241525   6.209   2.235   0.961 -0.0021  1.2151 -0.5601
 6704TIP3   OH241526   2.784   1.976  12.178 -0.0856  0.4897 -0.5513
 6704TIP3    H141527   2.846   1.903  12.169 -0.1383  0.5919 -1.9646
 6704TIP3    H241528   2.808   2.018  12.261  1.5305  0.3408 -0.9137
 6705TIP3   OH241529   6.148   2.197  15.405 -0.1120 -0.2323 -0.2373
 6705TIP3    H141530   6.080   2.135  15.431 -1.8572  1.1668 -1.2467
 6705TIP3    H241531   6.131   2.215  15.313 -0.5302  2.6816  0.2938
 6706TIP3   OH241532   5.407   5.718   4.401 -0.1637  0.5245 -0.2792
 6706TIP3    H141533   5.341   5.681   4.342 -1.2413  0.7905  0.7216
 6706TIP3    H241534   5.381   5.688   4.488  1.9741 -0.7076  0.0069
 6707TIP3   OH241535   5.845   4.028  15.824  0.1712  0.1088 -0.3391
 6707TIP3    H141536   5.907   4.100  15.828  2.0142 -1.4527  0.7727
 6707TIP3    H241537   5.759   4.070  15.825  1.1700  2.2682 -0.0931
 6708TIP3   OH241538   3.425   6.113   5.892 -0.2254  0.2457 -0.5592
 6708TIP3    H141539   3.332   6.133   5.882 -0.8293 -2.1243 -0.1715
 6708TIP3    H241540   3.429   6.055   5.968  1.1881 -1.9103 -2.1722
 6709TIP3   OH241541   5.550   3.420  10.687 -0.6236 -0.0784 -0.1785
 6709TIP3    H141542   5.562   3.509  10.721  2.7727 -0.2853 -0.4679
 6709TIP3    H241543   5.631   3.401  10.639 -0.3200 -3.9876  1.4423
 6710TIP3   OH241544   3.487   2.186   1.978  0.6529 -0.1101 -0.1285
 6710TIP3    H141545   3.411   2.242   1.965 -0.3620 -1.7533 -1.8285
 6710TIP3    H241546   3.551   2.218   1.915  0.1384 -0.7082 -0.9773
 6711TIP3   OH241547   0.025   4.261  14.155  1.3142 -0.5673 -0.8328
 6711TIP3    H141548   0.040   4.219  14.240 -1.0236  0.6434  0.2703
 6711TIP3    H241549  -0.060   4.229  14.127  0.7045  1.2950 -1.2494
 6712TIP3   OH241550   0.623   4.500  10.255  0.4217 -0.1199 -0.4225
 6712TIP3    H141551   0.585   4.519  10.169  0.8292 -0.5906 -0.7108
 6712TIP3    H241552   0.550   4.511  10.316 -0.3105 -1.4046 -1.0107
 6713TIP3   OH241553   1.694   6.153   2.257 -0.5485  0.0699 -0.1879
 6713TIP3    H141554   1.653   6.196   2.182 -1.2877  0.5026  0.4497
 6713TIP3    H241555   1.775   6.117   2.222  0.4086  2.4771 -0.6338
 6714TIP3   OH241556   6.507   5.925   4.738 -0.2901 -0.2030  0.2775
 6714TIP3    H141557   6.597   5.954   4.752  0.0346 -0.4524 -1.0865
 6714TIP3    H241558   6.515   5.851   4.676 -1.4802  0.4494 -0.7078
 6715TIP3   OH241559   3.727   1.608   4.775 -0.0084 -0.5221  0.1358
 6715TIP3    H141560   3.820   1.593   4.791  0.6235  1.7432 -1.0360
 6715TIP3    H241561   3.693   1.521   4.752  2.0430 -1.2264 -0.4905
 6716TIP3   OH241562   1.657   3.225   1.341 -0.3646 -0.5084  0.5252
 6716TIP3    H141563   1.617   3.204   1.424 -1.1309  0.4441  0.4192
 6716TIP3    H241564   1.704   3.146   1.315 -0.2187 -0.8499  1.7899
 6717TIP3   OH241565   1.834   0.336  16.849  0.4567 -0.2992 -0.7111
 6717TIP3    H141566   1.832   0.381  16.933  0.2541 -0.4154 -0.6543
 6717TIP3    H241567   1.856   0.245  16.870 -0.4585 -0.5222 -0.7000
 6718TIP3   OH241568   6.545   6.324  12.277 -0.2689  0.0031 -0.1431
 6718TIP3    H141569   6.464   6.339  12.326 -1.1423 -1.7006 -0.9659
 6718TIP3    H241570   6.516   6.314  12.186  0.9748  0.2060 -0.5774
 6719TIP3   OH241571   3.779   4.819  11.511 -0.9072 -0.6916  0.2969
 6719TIP3    H141572   3.865   4.829  11.553 -0.2221  0.9304 -1.3631
 6719TIP3    H241573   3.752   4.730  11.534  0.7874 -0.9195  1.6223
 6720TIP3   OH241574   5.029   2.868  16.483  0.1193 -0.6549  0.4175
 6720TIP3    H141575   4.942   2.857  16.521  0.7010  0.2884  2.1452
 6720TIP3    H241576   5.045   2.962  16.488  1.0746 -0.7674 -0.3003
 6721TIP3   OH241577   6.787   1.364  12.822  0.1293 -0.2213 -0.0266
 6721TIP3    H141578   6.744   1.315  12.751  0.5402 -0.3772 -0.1732
 6721TIP3    H241579   6.721   1.370  12.891  0.0132 -0.8274 -0.0820
 6722TIP3   OH241580   1.427   4.827  11.182 -0.4374  1.0617 -0.4361
 6722TIP3    H141581   1.359   4.861  11.124 -0.0139 -0.2559 -1.7640
 6722TIP3    H241582   1.510   4.852  11.141 -0.1146 -1.3885 -1.4129
 6723TIP3   OH241583   3.979   2.433  14.707 -0.4439  0.0668 -0.2283
 6723TIP3    H141584   4.019   2.369  14.767 -1.1305  2.3812  2.9913
 6723TIP3    H241585   4.038   2.508  14.708  1.0277 -0.7131 -4.9590
 6724TIP3   OH241586   1.523   1.311   2.818  0.5735  0.1218 -0.0553
 6724TIP3    H141587   1.503   1.375   2.749 -1.2671  1.1897  1.3889
 6724TIP3    H241588   1.554   1.363   2.891  2.9828 -1.0476 -0.1539
 6725TIP3   OH241589   2.234   5.017   3.498 -0.1815  0.0715 -0.1970
 6725TIP3    H141590   2.202   4.952   3.435  1.0957 -1.2258  0.4128
 6725TIP3    H241591   2.178   5.093   3.486 -2.5882 -1.5875 -0.0703
 6726TIP3   OH241592   2.275   0.403  11.604  0.6713 -0.2776 -0.3611
 6726TIP3    H141593   2.304   0.314  11.583 -0.7183 -0.6235 -0.9225
 6726TIP3    H241594   2.296   0.414  11.697  0.5234 -1.3386 -0.1908
 6727TIP3   OH241595   0.299   4.286  13.336 -0.2322  0.0618  0.4944
 6727TIP3    H141596   0.237   4.350  13.370 -0.7523  0.5562 -1.2825
 6727TIP3    H241597   0.307   4.221  13.406 -1.3913  0.9027  1.4470
 6728TIP3   OH241598   1.892   6.685  11.362  0.0094  0.0570  0.4422
 6728TIP3    H141599   1.823   6.638  11.315  1.3698 -0.2075 -1.4043
 6728TIP3    H241600   1.968   6.627  11.356  0.9978  1.3209  0.4635
 6729TIP3   OH241601   2.216   3.804   1.924  0.3280 -0.4856  0.5274
 6729TIP3    H141602   2.187   3.877   1.979  0.8822 -0.2436  0.5044
 6729TIP3    H241603   2.296   3.836   1.882 -0.0836 -0.6816 -0.4109
 6730TIP3   OH241604   4.628   6.315   4.868  0.5472 -0.3768  0.0319
 6730TIP3    H141605   4.646   6.233   4.823  0.2181 -0.3918 -0.0770
 6730TIP3    H241606   4.541   6.341   4.837  1.0040  0.4612 -0.6000
 6731TIP3   OH241607   5.459   1.568   5.950  0.3748  0.1059  0.3333
 6731TIP3    H141608   5.367   1.596   5.949  0.6588  1.1495  1.4618
 6731TIP3    H241609   5.501   1.625   6.014  2.0606  0.3781 -0.9498
 6732TIP3   OH241610   5.107   6.688  12.189  0.4230  0.9295 -0.1211
 6732TIP3    H141611   5.024   6.731  12.166 -0.4451 -0.3890  0.4326
 6732TIP3    H241612   5.102   6.677  12.284  0.3406 -0.9002 -0.3096
 6733TIP3   OH241613   4.395   2.775   2.997  0.6582 -0.2146 -0.3647
 6733TIP3    H141614   4.388   2.685   3.028  1.9426 -0.2715 -0.1563
 6733TIP3    H241615   4.346   2.827   3.061 -2.1242 -0.9453 -1.7467
 6734TIP3   OH241616   0.826   1.558   4.357 -0.0426  0.2710 -0.3400
 6734TIP3    H141617   0.760   1.628   4.358  1.5520  1.8413 -0.0456
 6734TIP3    H241618   0.828   1.528   4.266 -1.5528 -0.2595 -0.2447
 6735TIP3   OH241619   4.434   4.492   1.840 -0.1421  0.2871 -0.1943
 6735TIP3    H141620   4.344   4.502   1.807  0.3497  1.5517 -1.2447
 6735TIP3    H241621   4.479   4.443   1.771  0.4990  1.5815 -0.7434
 6736TIP3   OH241622   3.619   1.373   2.398  0.4356 -0.0556 -0.1615
 6736TIP3    H141623   3.685   1.377   2.466 -0.5613  1.3708  0.7672
 6736TIP3    H241624   3.576   1.288   2.411  1.0869 -0.3421  0.1514
 6737TIP3   OH241625   5.644   4.455   0.361 -0.1152  0.2433  0.4244
 6737TIP3    H141626   5.627   4.430   0.452 -0.4199  2.2360  0.9649
 6737TIP3    H241627   5.647   4.372   0.313 -0.3808 -0.8205  2.1703
 6738TIP3   OH241628   0.310   2.429  10.679  0.0822 -0.3191  0.2542
 6738TIP3    H141629   0.377   2.394  10.738  2.9328  1.4197 -1.7105
 6738TIP3    H241630   0.279   2.508  10.723  0.4689 -0.2770  0.4554
 6739TIP3   OH241631   3.760   4.112   0.943 -0.0067  0.1280 -0.0124
 6739TIP3    H141632   3.731   4.088   0.856  2.0037 -0.0272 -0.6850
 6739TIP3    H241633   3.774   4.207   0.939  1.6477 -0.1013 -0.3937
 6740TIP3   OH241634   5.993   4.257   3.382 -0.4327 -0.3376 -0.1466
 6740TIP3    H141635   6.077   4.297   3.363  0.1772 -0.4302  2.0282
 6740TIP3    H241636   5.955   4.312   3.451 -1.8213 -0.7112 -0.5777
 6741TIP3   OH241637   4.905   2.390  13.648  0.0077 -0.5335  0.1401
 6741TIP3    H141638   4.826   2.350  13.685 -1.4804  1.3044 -0.8905
 6741TIP3    H241639   4.887   2.484  13.648  2.2440 -0.0423 -0.0907
 6742TIP3   OH241640   5.252   5.318  13.247 -0.3349  0.1864  0.2117
 6742TIP3    H141641   5.250   5.292  13.339  1.9589  1.2391  0.6548
 6742TIP3    H241642   5.194   5.394  13.242 -1.1776 -0.4212  0.5687
 6743TIP3   OH241643   5.355   4.798  13.861  0.2476  0.6563  0.1226
 6743TIP3    H141644   5.293   4.807  13.934  1.0975 -0.4475  1.0040
 6743TIP3    H241645   5.305   4.826  13.784 -2.3367 -2.8439  0.3172
 6744TIP3   OH241646   2.564   6.335   0.614 -0.5468  0.1018 -0.5727
 6744TIP3    H141647   2.617   6.380   0.548  0.4369  0.0437  0.1451
 6744TIP3    H241648   2.569   6.243   0.589 -0.2286  0.0879 -0.4741
 6745TIP3   OH241649   5.681   2.867   4.629 -0.1284 -0.4177 -0.6394
 6745TIP3    H141650   5.675   2.812   4.707 -2.4762 -0.8772 -1.0562
 6745TIP3    H241651   5.747   2.825   4.574  1.2862 -0.2917  0.8787
 6746TIP3   OH241652   6.525   3.882  10.865  0.7816  0.0007  0.0246
 6746TIP3    H141653   6.506   3.820  10.795 -0.4394  1.8792 -1.3900
 6746TIP3    H241654   6.522   3.968  10.823  0.3477  1.1735  2.2952
 6747TIP3   OH241655   2.860   2.046   6.800 -0.3350 -0.1024 -0.2002
 6747TIP3    H141656   2.939   2.087   6.836 -0.2197 -1.2531  0.9336
 6747TIP3    H241657   2.834   2.103   6.727 -0.3075  2.0677  1.4104
 6748TIP3   OH241658   6.683   4.887  10.519  0.1887  0.4718 -0.4992
 6748TIP3    H141659   6.611   4.947  10.540 -0.0666  0.2876 -0.8225
 6748TIP3    H241660   6.639   4.809  10.485  0.5001 -0.0550  0.2852
 6749TIP3   OH241661   6.629   5.036   2.627 -0.0752 -0.3604  0.5711
 6749TIP3    H141662   6.684   5.012   2.702 -0.6793 -0.2238  1.0593
 6749TIP3    H241663   6.647   4.968   2.562  0.9474 -0.1238  0.5795
 6750TIP3   OH241664   6.656   5.475  14.774  0.7297 -0.2010  0.0419
 6750TIP3    H141665   6.608   5.553  14.745  0.5031 -0.4952 -0.4051
 6750TIP3    H241666   6.589   5.407  14.780  1.1772 -0.7991 -1.2681
 6751TIP3   OH241667   3.191   0.011  16.067 -0.1590 -0.1621 -0.3762
 6751TIP3    H141668   3.167  -0.077  16.040 -0.9325  0.4080 -1.6420
 6751TIP3    H241669   3.163   0.016  16.159 -0.3674 -1.1314 -0.3755
 6752TIP3   OH241670   2.286   6.205   0.985 -0.4900 -0.1361 -0.1113
 6752TIP3    H141671   2.196   6.174   0.976 -0.6326  0.3065 -0.2081
 6752TIP3    H241672   2.309   6.184   1.076 -0.1951 -1.5434 -0.4732
 6753TIP3   OH241673   5.288   2.822   0.223 -0.0897  0.0682  0.1901
 6753TIP3    H141674   5.231   2.897   0.206 -0.3508 -0.1175  0.2341
 6753TIP3    H241675   5.366   2.839   0.171 -0.2460  0.2522  0.0134
 6754TIP3   OH241676   6.643   5.745  14.429  0.1238 -0.2140 -0.8144
 6754TIP3    H141677   6.587   5.668  14.432 -1.8858  1.1808  3.0409
 6754TIP3    H241678   6.730   5.712  14.452 -0.6235 -1.4119  0.4351
 6755TIP3   OH241679   1.415   4.813  13.792 -0.0590 -1.1396  0.5594
 6755TIP3    H141680   1.360   4.862  13.853 -0.8660 -1.4005  0.0610
 6755TIP3    H241681   1.381   4.723  13.796 -0.2535 -1.1196 -0.4106
 6756TIP3   OH241682   2.251   3.869   3.361  0.0363 -0.2735  0.1310
 6756TIP3    H141683   2.211   3.876   3.448 -2.4122 -1.2848 -0.8423
 6756TIP3    H241684   2.255   3.958   3.329  0.3507  0.0408  1.0054
 6757TIP3   OH241685   1.864   5.601  16.697 -0.2253  0.3434  0.3883
 6757TIP3    H141686   1.779   5.571  16.666 -0.2962  0.1103  0.8010
 6757TIP3    H241687   1.845   5.651  16.777  0.0317  0.2168  0.5318
 6758TIP3   OH241688   4.640   6.579   2.542  0.5292  0.1140 -0.3155
 6758TIP3    H141689   4.649   6.511   2.609 -1.0976 -0.1633 -0.3304
 6758TIP3    H241690   4.558   6.624   2.565  1.4086  1.8701 -0.4992
 6759TIP3   OH241691   0.820   0.986   5.132  0.0330  0.3664  0.0336
 6759TIP3    H141692   0.837   1.075   5.100  0.4203  0.0299 -0.7304
 6759TIP3    H241693   0.878   0.930   5.080  0.2451 -0.2729  0.9327
 6760TIP3   OH241694   6.327   0.220   5.668 -0.3062  0.1229 -0.8565
 6760TIP3    H141695   6.373   0.174   5.738  2.0572  1.5427 -1.3944
 6760TIP3    H241696   6.321   0.155   5.597 -1.1094 -0.7456 -0.0191
 6761TIP3   OH241697   1.098   0.898  16.412 -0.0993 -0.1012  0.2787
 6761TIP3    H141698   1.083   0.979  16.461  1.9369 -0.3393  1.4496
 6761TIP3    H241699   1.100   0.830  16.480  1.9314 -0.5663 -0.1730
 6762TIP3   OH241700   4.914   6.439   1.165 -0.4461 -0.2657  0.0321
 6762TIP3    H141701   4.909   6.344   1.171 -0.8574 -0.2299  0.3529
 6762TIP3    H241702   4.967   6.465   1.240  0.0940 -0.2771 -0.3461
 6763TIP3   OH241703   2.121   4.902  15.209  0.1040  0.0562  0.2980
 6763TIP3    H141704   2.027   4.912  15.224 -0.0041 -0.6771  0.1444
 6763TIP3    H241705   2.161   4.975  15.256 -0.3698 -0.9752  2.4386
 6764TIP3   OH241706   3.099   2.513   6.995 -0.6786  0.8239 -0.0790
 6764TIP3    H141707   3.035   2.530   7.065  1.2565 -1.3269  2.3665
 6764TIP3    H241708   3.064   2.437   6.949 -0.5627  0.4521  0.4326
 6765TIP3   OH241709   5.361   3.782  14.469  0.6601 -0.1626 -0.5987
 6765TIP3    H141710   5.292   3.848  14.467 -0.2252 -0.9649  1.0674
 6765TIP3    H241711   5.440   3.831  14.493 -0.2484  0.1799  1.9869
 6766TIP3   OH241712   3.355   5.558  10.943 -0.7771 -0.0733 -0.1950
 6766TIP3    H141713   3.311   5.624  10.996  0.5687  0.7381 -0.0586
 6766TIP3    H241714   3.337   5.584  10.853 -0.1816  0.5486 -0.1429
 6767TIP3   OH241715   0.452   4.357  15.832  0.4191 -0.3614 -0.0112
 6767TIP3    H141716   0.493   4.422  15.775  0.1927 -0.1492  0.0662
 6767TIP3    H241717   0.443   4.401  15.916 -0.1115 -0.3470 -0.0710
 6768TIP3   OH241718   5.027   2.771  12.270  0.1795 -0.1808  0.2360
 6768TIP3    H141719   5.002   2.680  12.280  1.9939 -1.0144 -2.0425
 6768TIP3    H241720   4.953   2.813  12.227 -1.0751 -0.2497  2.1840
 6769TIP3   OH241721   2.402   2.273  10.802  0.4048  1.2750  0.1446
 6769TIP3    H141722   2.353   2.198  10.769  0.0278  1.1973  0.8536
 6769TIP3    H241723   2.477   2.282  10.743  1.2242 -0.5208  0.8547
 6770TIP3   OH241724   4.369   1.140   3.364  0.6044 -0.6928 -0.6418
 6770TIP3    H141725   4.459   1.136   3.332  1.0208  0.8263  0.2353
 6770TIP3    H241726   4.343   1.231   3.353 -0.9397 -1.1526 -1.1116
 6771TIP3   OH241727   1.288   4.111   2.999  0.0885  0.0832  0.0774
 6771TIP3    H141728   1.261   4.097   3.089 -1.3733  0.4803 -0.2669
 6771TIP3    H241729   1.358   4.048   2.984  0.1293 -0.2034  1.3853
 6772TIP3   OH241730   6.316   0.105  13.098  0.1726  0.0342  0.0938
 6772TIP3    H141731   6.328   0.020  13.055 -0.8847  0.5647 -1.3698
 6772TIP3    H241732   6.279   0.084  13.184  2.3565 -1.0740  0.8218
 6773TIP3   OH241733   5.979   6.054   5.297 -0.4217 -0.4258  0.1653
 6773TIP3    H141734   5.928   6.094   5.226 -0.0989  0.7072  0.5505
 6773TIP3    H241735   5.986   5.962   5.272 -2.5853 -0.6098  0.0767
 6774TIP3   OH241736   1.242   4.943  16.633 -0.4627  0.1795  0.1241
 6774TIP3    H141737   1.232   4.862  16.684  1.0376  0.5532  1.1086
 6774TIP3    H241738   1.245   4.914  16.542 -1.9378 -0.6460  0.3066
 6775TIP3   OH241739   1.004   2.195   3.758 -0.3447 -0.8574  0.0494
 6775TIP3    H141740   1.100   2.202   3.758 -0.3894  0.1372 -1.3608
 6775TIP3    H241741   0.975   2.271   3.807 -0.4313  0.1783 -1.5228
 6776TIP3   OH241742   0.736   2.049   5.024  0.3929 -0.4426  0.5611
 6776TIP3    H141743   0.803   2.115   5.009  0.9024 -0.8806  0.8605
 6776TIP3    H241744   0.742   2.029   5.117 -1.2818  0.7056  0.9675
 6777TIP3   OH241745   3.600   5.935  15.090  0.0857 -0.8760  0.5747
 6777TIP3    H141746   3.630   5.847  15.115  2.2910  0.4035  2.9987
 6777TIP3    H241747   3.546   5.963  15.164  0.3402  0.2091  0.3622
 6778TIP3   OH241748   1.050   2.976  12.855 -0.1002  0.3807 -0.7327
 6778TIP3    H141749   0.978   2.996  12.915  1.8202  2.7656  0.9799
 6778TIP3    H241750   1.117   2.935  12.910  0.2592 -0.9599 -2.0931
 6779TIP3   OH241751   6.330   0.250  14.600 -0.1249  0.2795  0.2476
 6779TIP3    H141752   6.236   0.236  14.614  0.0312 -2.3836 -0.7288
 6779TIP3    H241753   6.369   0.237  14.687 -0.5541 -0.0011  0.4031
 6780TIP3   OH241754   6.026   2.528   0.082 -0.2490  0.2356  0.4260
 6780TIP3    H141755   5.931   2.536   0.094 -0.1657  0.0845  1.2222
 6780TIP3    H241756   6.062   2.604   0.127 -0.0398  0.8846 -0.7856
 6781TIP3   OH241757   6.517   6.661  14.267 -0.2841 -0.4195  0.3057
 6781TIP3    H141758   6.430   6.694  14.245  0.0914  1.5460  1.5383
 6781TIP3    H241759   6.506   6.618  14.352  0.1711  1.1146  1.1783
 6782TIP3   OH241760   3.055   5.457  12.552  0.1205 -0.0408 -0.0128
 6782TIP3    H141761   3.113   5.442  12.477 -0.1318 -1.3846  0.0395
 6782TIP3    H241762   3.100   5.524  12.604  0.5866  0.4698 -1.0538
 6783TIP3   OH241763   5.753   3.219   3.959  0.5654 -0.1687 -0.7610
 6783TIP3    H141764   5.694   3.163   3.908 -0.7330  1.7442 -1.4723
 6783TIP3    H241765   5.695   3.270   4.016  1.3972  2.2433 -1.9415
 6784TIP3   OH241766   5.084   1.818  16.985 -0.3951  0.3460  0.2146
 6784TIP3    H141767   5.075   1.724  16.968 -1.5085  0.6214 -0.8927
 6784TIP3    H241768   5.087   1.857  16.898 -0.1583  1.3704  0.6716
 6785TIP3   OH241769   4.382   4.713  11.974 -0.4600 -0.6630 -0.4796
 6785TIP3    H141770   4.300   4.670  11.998  1.4678 -3.5789  1.5934
 6785TIP3    H241771   4.407   4.763  12.051  0.6532 -1.4788 -0.2798
 6786TIP3   OH241772   3.432   1.001   3.935  0.2344  1.1294  0.5422
 6786TIP3    H141773   3.493   1.008   3.861  0.1841  0.8403  0.4684
 6786TIP3    H241774   3.423   0.906   3.948 -1.0531  1.1331 -0.1626
 6787TIP3   OH241775   1.957   2.727   5.830 -0.5310  0.1736  0.5226
 6787TIP3    H141776   1.983   2.788   5.900 -1.7969  1.0579  0.2554
 6787TIP3    H241777   1.973   2.641   5.867  1.7332  0.6316  0.7506
 6788TIP3   OH241778   6.656   4.405  11.140 -0.1370  0.3789 -0.1137
 6788TIP3    H141779   6.569   4.391  11.103 -0.3497  0.7064  0.2596
 6788TIP3    H241780   6.688   4.484  11.097  0.2040 -0.0561 -0.6617
 6789TIP3   OH241781   4.262   2.718   2.772  0.5892 -0.0054  0.2249
 6789TIP3    H141782   4.299   2.778   2.707  0.9527  0.2468  0.6557
 6789TIP3    H241783   4.320   2.725   2.847 -0.4971  0.6394  1.0428
 6790TIP3   OH241784   1.962   4.115   3.010 -0.0996  0.1421 -0.1101
 6790TIP3    H141785   2.034   4.092   3.068 -2.0603 -3.6940  1.0796
 6790TIP3    H241786   1.969   4.054   2.936 -1.9137 -0.1278 -0.1132
 6791TIP3   OH241787   2.328   4.506  11.939 -0.3798 -0.3435 -0.1141
 6791TIP3    H141788   2.321   4.418  11.903  0.2925 -0.5022  0.1219
 6791TIP3    H241789   2.269   4.559  11.886 -2.3989 -1.3321  1.0437
 6792TIP3   OH241790   6.345   0.868  11.130 -0.2262  0.3240  0.2595
 6792TIP3    H141791   6.406   0.835  11.197  0.5952  0.6242 -0.3296
 6792TIP3    H241792   6.298   0.939  11.174 -1.5844 -1.1573  1.3503
 6793TIP3   OH241793   6.682   4.990  16.225  0.6500 -0.2721  0.1065
 6793TIP3    H141794   6.610   4.978  16.163  0.8249  0.7621 -0.3138
 6793TIP3    H241795   6.761   4.988  16.171  0.7565  1.5262  0.1404
 6794TIP3   OH241796   6.199   2.373   3.110  0.1499 -0.0524 -0.2899
 6794TIP3    H141797   6.201   2.303   3.175  0.4739 -0.4934 -0.7677
 6794TIP3    H241798   6.221   2.330   3.027 -0.3881  0.4721 -0.7185
 6795TIP3   OH241799   5.163   6.471   2.712  0.1511  0.1681 -0.0151
 6795TIP3    H141800   5.097   6.425   2.764 -1.2131  2.3954  0.3654
 6795TIP3    H241801   5.114   6.507   2.638  0.8430  2.0084  0.3606
 6796TIP3   OH241802   4.615   1.428   5.818 -0.5289 -0.5340  0.3661
 6796TIP3    H141803   4.597   1.376   5.896 -0.3450  0.4241  1.0698
 6796TIP3    H241804   4.661   1.506   5.851 -1.2753  0.3374 -0.5754
 6797TIP3   OH241805   0.670   2.829  12.120 -0.0620 -0.3463 -0.2358
 6797TIP3    H141806   0.742   2.801  12.176  1.5063 -0.6746 -2.3033
 6797TIP3    H241807   0.685   2.922  12.104  0.8035 -0.7248 -1.8372
 6798TIP3   OH241808   0.685   2.114  15.621 -0.8956 -0.0712  0.3335
 6798TIP3    H141809   0.624   2.165  15.568  0.1062  0.8605  0.0346
 6798TIP3    H241810   0.711   2.042  15.563 -0.8961  0.1325  0.0755
 6799TIP3   OH241811   3.273   3.519  14.728  0.7003 -0.2382 -0.1799
 6799TIP3    H141812   3.304   3.550  14.814 -2.1005 -0.6667  1.0893
 6799TIP3    H241813   3.241   3.598  14.685  1.0990 -0.1796 -0.3670
 6800TIP3   OH241814   1.171   3.308  15.137  0.4233 -0.0958  0.3902
 6800TIP3    H141815   1.219   3.225  15.131  0.8710  0.2055 -0.4704
 6800TIP3    H241816   1.098   3.290  15.196  1.9219 -0.4110  2.2148
 6801TIP3   OH241817   3.479   6.623   0.192  0.0977  0.0085 -0.3361
 6801TIP3    H141818   3.471   6.536   0.153  0.0274 -1.0255  1.8476
 6801TIP3    H241819   3.487   6.682   0.117  2.0790 -2.0410 -1.9008
 6802TIP3   OH241820   4.267   5.712  16.602 -0.5889  0.4122 -0.2681
 6802TIP3    H141821   4.264   5.807  16.590  2.1155  0.6910  0.5523
 6802TIP3    H241822   4.282   5.700  16.695 -3.1302 -0.9943  0.0497
 6803TIP3   OH241823   3.479   6.588   1.374  0.0170  0.0839  0.5792
 6803TIP3    H141824   3.413   6.616   1.311 -0.0814 -1.1128  0.1283
 6803TIP3    H241825   3.554   6.645   1.357 -1.0397  1.8280  1.4642
 6804TIP3   OH241826   6.228   0.262  15.054  0.0178 -0.5230 -0.1227
 6804TIP3    H141827   6.205   0.262  15.146  0.4062  2.3080  0.0365
 6804TIP3    H241828   6.295   0.193  15.047 -0.2075 -0.9701  1.6130
 6805TIP3   OH241829   5.910   5.816  12.538  0.4399 -0.1205  0.7810
 6805TIP3    H141830   5.911   5.796  12.445  0.4940  0.9412  0.5403
 6805TIP3    H241831   5.819   5.834  12.558  0.7815  2.7610  0.1940
 6806TIP3   OH241832   3.724   1.769  11.466  0.6844 -0.0050  0.6493
 6806TIP3    H141833   3.793   1.835  11.464 -0.2983  1.0534 -1.2959
 6806TIP3    H241834   3.768   1.688  11.490  2.3603  0.8977  0.7167
 6807TIP3   OH241835   2.353   0.485   0.696  0.0292 -0.2208  0.1145
 6807TIP3    H141836   2.418   0.556   0.688 -2.6400  2.9150  3.0975
 6807TIP3    H241837   2.318   0.475   0.607  1.4135  1.2892 -0.6646
 6808TIP3   OH241838   1.016   3.926  10.959  0.4670  0.0462 -0.2966
 6808TIP3    H141839   1.063   3.954  10.880  0.5445  0.7091 -0.0293
 6808TIP3    H241840   1.069   3.855  10.995  0.1306 -0.6343 -1.1435
 6809TIP3   OH241841   1.185   0.010  12.047 -0.4047  0.5339  0.0863
 6809TIP3    H141842   1.109   0.067  12.058  0.7651  2.1906 -0.0017
 6809TIP3    H241843   1.174  -0.028  11.960 -2.1017 -0.8427  0.8369
 6810TIP3   OH241844   3.743   6.696   3.262  0.1941  0.4093  0.1251
 6810TIP3    H141845   3.708   6.752   3.193 -1.0621 -1.1442 -0.5748
 6810TIP3    H241846   3.796   6.631   3.216 -0.7891 -0.7432  0.5564
 6811TIP3   OH241847   1.920   5.169  13.381 -0.5915 -0.4408 -0.3949
 6811TIP3    H141848   1.898   5.252  13.338 -0.1538 -0.8249 -1.3698
 6811TIP3    H241849   1.971   5.120  13.316  0.4917 -0.8428  0.7264
 6812TIP3   OH241850   3.641   2.912   3.626 -0.4450 -0.0688  0.2406
 6812TIP3    H141851   3.666   2.841   3.685  1.3512  0.2732 -0.0612
 6812TIP3    H241852   3.554   2.887   3.595  0.1926 -2.2395  0.0048
 6813TIP3   OH241853   5.603   0.341  11.334 -0.7076  0.0708  0.2380
 6813TIP3    H141854   5.654   0.405  11.285  0.2920  0.1935  1.4004
 6813TIP3    H241855   5.521   0.387  11.355 -1.2243 -0.0451 -1.4242
 6814TIP3   OH241856   4.011   4.808  12.854  0.0348 -0.2054 -0.6522
 6814TIP3    H141857   3.983   4.768  12.772  0.5147 -0.4767 -0.6801
 6814TIP3    H241858   4.043   4.736  12.907  1.1204  0.1574 -0.7903
 6815TIP3   OH241859   4.638   3.909   3.933  0.5302  0.2019  0.2204
 6815TIP3    H141860   4.560   3.954   3.899 -0.2278 -0.1605  1.4197
 6815TIP3    H241861   4.643   3.937   4.024  0.1182 -1.9915  0.9710
 6816TIP3   OH241862   0.882   4.901  11.138  0.1068 -0.4211 -0.0752
 6816TIP3    H141863   0.896   4.983  11.092 -2.0000 -0.5529 -1.1081
 6816TIP3    H241864   0.877   4.925  11.231 -0.8377  0.7014 -0.3925
 6817TIP3   OH241865   2.303   4.836  13.568 -0.1601  0.4459  0.2451
 6817TIP3    H141866   2.362   4.849  13.494 -0.6871 -1.1346 -0.4768
 6817TIP3    H241867   2.219   4.872  13.539 -0.1509  0.6156  0.4206
 6818TIP3   OH241868   1.795   4.314  14.808 -0.1119  0.1738  0.0035
 6818TIP3    H141869   1.729   4.382  14.815 -0.1296  0.1011  0.5428
 6818TIP3    H241870   1.860   4.350  14.747 -0.9339  0.0018 -0.9927
 6819TIP3   OH241871   5.423   2.435   1.877 -0.5940 -0.4524 -0.1286
 6819TIP3    H141872   5.500   2.377   1.875  0.1229  0.4567  0.5717
 6819TIP3    H241873   5.348   2.375   1.878  0.0281 -1.3641 -2.4374
 6820TIP3   OH241874   4.987   3.906  17.008  0.2349 -0.7800 -0.7138
 6820TIP3    H141875   5.059   3.843  17.012  0.2018 -0.7829 -0.0827
 6820TIP3    H241876   5.002   3.964  17.083 -1.1638 -1.6024  0.2463
 6821TIP3   OH241877   2.278   3.654   1.249  0.6391  0.3919 -0.1408
 6821TIP3    H141878   2.356   3.600   1.262  0.7442  0.5145 -0.2622
 6821TIP3    H241879   2.216   3.623   1.314  1.2025  1.0933  0.7466
 6822TIP3   OH241880   1.525   2.611  16.495  0.0959 -0.0290  0.1627
 6822TIP3    H141881   1.527   2.691  16.444 -0.8019 -0.0235  0.1217
 6822TIP3    H241882   1.439   2.572  16.477  0.6496 -1.1901 -0.1083
 6823TIP3   OH241883   2.686   3.852  15.499 -0.1147 -0.2123 -0.4641
 6823TIP3    H141884   2.705   3.759  15.507 -0.2306 -0.1433  0.7793
 6823TIP3    H241885   2.735   3.880  15.421 -0.0073 -1.2800 -0.7886
 6824TIP3   OH241886   4.860   0.298   6.239  0.1234 -0.6681 -0.0761
 6824TIP3    H141887   4.879   0.331   6.151 -0.1039  1.0346  0.4870
 6824TIP3    H241888   4.944   0.301   6.284 -0.2403  1.0879  0.5664
 6825TIP3   OH241889   1.057   0.924  13.374 -0.1844 -0.1099  0.1050
 6825TIP3    H141890   1.036   0.956  13.286  0.0524  3.5070  1.2017
 6825TIP3    H241891   0.978   0.877  13.402 -0.6299 -0.4641 -1.6489
 6826TIP3   OH241892   3.513   2.149  16.945 -0.0190  0.0605  0.0725
 6826TIP3    H141893   3.528   2.240  16.968  1.5497 -0.2279  0.2703
 6826TIP3    H241894   3.528   2.100  17.026 -1.7451 -0.3361  0.2106
 6827TIP3   OH241895   1.507   6.418  16.281 -0.1652 -0.1793  0.6175
 6827TIP3    H141896   1.566   6.374  16.220 -0.1600  1.1631 -0.3870
 6827TIP3    H241897   1.558   6.490  16.317 -1.2324  1.1968 -0.5082
 6828TIP3   OH241898   2.479   0.505   3.727  0.2337  0.0049  0.1352
 6828TIP3    H141899   2.505   0.413   3.730 -1.0580 -0.3683  0.7545
 6828TIP3    H241900   2.549   0.549   3.678  0.5060 -1.4327 -0.8197
 6829TIP3   OH241901   3.919   6.351   5.796  0.3938  0.1558  0.1829
 6829TIP3    H141902   3.947   6.390   5.879  0.7204  0.1359  0.0817
 6829TIP3    H241903   3.967   6.268   5.790 -0.7264 -0.5577  0.6731
 6830TIP3   OH241904   6.306   3.040   2.911  0.6231 -0.0657  0.3629
 6830TIP3    H141905   6.216   3.074   2.913  0.3163 -0.8033 -0.3860
 6830TIP3    H241906   6.338   3.062   2.824  1.3518  0.6137  0.7867
 6831TIP3   OH241907   5.795   3.591  11.743  0.2105  0.5237 -0.2801
 6831TIP3    H141908   5.833   3.639  11.670  0.4770 -0.4641 -0.8102
 6831TIP3    H241909   5.828   3.502  11.734 -1.7497 -0.2511 -0.4334
 6832TIP3   OH241910   2.432   2.630  16.802  0.6662 -0.0299  0.0787
 6832TIP3    H141911   2.368   2.608  16.869 -0.8423  2.0987 -0.5825
 6832TIP3    H241912   2.467   2.545  16.774  0.2159 -1.0642  2.4170
 6833TIP3   OH241913   5.926   2.574  15.138  0.0239  0.4745  0.9049
 6833TIP3    H141914   5.968   2.621  15.210  0.2379  1.4425  0.1884
 6833TIP3    H241915   5.982   2.498  15.123  0.4230  0.6960  1.2421
 6834TIP3   OH241916   0.029   1.786  12.858 -0.0373  0.0700  0.3602
 6834TIP3    H141917   0.066   1.726  12.923  1.4113 -0.0455 -0.5225
 6834TIP3    H241918  -0.006   1.858  12.910  2.1286  0.5587  1.2740
 6835TIP3   OH241919   4.668   3.497   4.680 -1.1817  0.2278  0.2315
 6835TIP3    H141920   4.736   3.468   4.620 -1.8107  0.8073 -0.7804
 6835TIP3    H241921   4.586   3.471   4.639 -1.6045  0.2449  1.0501
 6836TIP3   OH241922   2.746   5.929  15.684 -0.2996  1.0106  0.0670
 6836TIP3    H141923   2.698   5.984  15.746 -1.4758  1.3178 -1.0795
 6836TIP3    H241924   2.678   5.887  15.631  0.6725  0.6648 -0.9448
 6837TIP3   OH241925   0.196   3.661  13.438 -0.5008 -0.0435 -0.3749
 6837TIP3    H141926   0.254   3.716  13.491  0.1947 -0.6897 -0.4493
 6837TIP3    H241927   0.177   3.585  13.493 -1.2646  0.1562 -0.3619
 6838TIP3   OH241928   4.093   5.878   3.933 -0.2247  0.4468 -0.2812
 6838TIP3    H141929   4.020   5.921   3.977  0.8167  0.6613  1.3402
 6838TIP3    H241930   4.120   5.808   3.993  0.6609  0.1343 -1.0137
 6839TIP3   OH241931   3.238   2.622  15.214 -0.2930  0.5035 -0.2459
 6839TIP3    H141932   3.149   2.597  15.236 -0.5324  0.9395 -0.7019
 6839TIP3    H241933   3.236   2.641  15.120  1.2882 -3.8879 -1.4112
 6840TIP3   OH241934   2.179   5.969  13.543 -0.3591 -0.0676 -0.3223
 6840TIP3    H141935   2.260   6.020  13.541 -0.2078 -0.3248 -2.1333
 6840TIP3    H241936   2.180   5.918  13.462 -2.2805 -0.1638 -0.3353
 6841TIP3   OH241937   3.526   1.299  15.323 -0.0733 -0.2942  0.3445
 6841TIP3    H141938   3.488   1.282  15.409 -0.7037 -1.1453 -0.0911
 6841TIP3    H241939   3.578   1.222  15.303  0.2754  0.0086  0.0686
 6842TIP3   OH241940   1.907   3.614   0.375  0.0731 -0.5171  0.0484
 6842TIP3    H141941   1.878   3.523   0.387 -1.5201 -0.6174 -3.4110
 6842TIP3    H241942   1.874   3.639   0.289  0.7776  3.2812  0.6960
 6843TIP3   OH241943   6.741   1.900   2.550 -0.4375  0.2424  0.1225
 6843TIP3    H141944   6.794   1.968   2.509  0.6486 -1.4658 -1.4324
 6843TIP3    H241945   6.794   1.868   2.623 -0.6010  0.4828  0.3507
 6844TIP3   OH241946   2.344   4.317   5.324  0.5901  0.2369  0.9322
 6844TIP3    H141947   2.400   4.268   5.385 -0.3275 -0.9083  0.8998
 6844TIP3    H241948   2.405   4.360   5.265  1.4532 -1.5750  0.4366
 6845TIP3   OH241949   4.887   6.170   0.790  0.1165  0.0776 -0.0648
 6845TIP3    H141950   4.963   6.200   0.840 -0.5496 -0.3743  1.2534
 6845TIP3    H241951   4.826   6.244   0.793  0.0704  0.0450 -0.2032
 6846TIP3   OH241952   2.235   4.080   0.144  0.6544  0.1336 -0.0392
 6846TIP3    H141953   2.284   4.029   0.209 -1.4648 -0.4618  1.1961
 6846TIP3    H241954   2.161   4.116   0.193 -0.8076 -0.0088 -2.0286
 6847TIP3   OH241955   1.388   4.943  15.627 -0.4839  0.0976  0.1438
 6847TIP3    H141956   1.420   4.976  15.711  0.5657 -2.9972  1.1118
 6847TIP3    H241957   1.322   5.007  15.599 -0.4423  1.5523  3.0070
 6848TIP3   OH241958   2.853   5.387   3.332  0.2127 -0.0820 -0.2907
 6848TIP3    H141959   2.889   5.365   3.246  0.6778 -0.1218 -0.0880
 6848TIP3    H241960   2.920   5.360   3.394 -1.4462 -3.1597  0.3374
 6849TIP3   OH241961   3.209   1.099   1.023 -0.5049  0.0726  0.7735
 6849TIP3    H141962   3.185   1.145   1.104  0.0754  0.9552  0.4668
 6849TIP3    H241963   3.166   1.150   0.954  1.2440  1.0131  0.3115
 6850TIP3   OH241964   4.218   6.618   4.635 -0.1327 -0.3242  0.2954
 6850TIP3    H141965   4.153   6.550   4.649 -0.3393 -0.2468 -0.2560
 6850TIP3    H241966   4.174   6.682   4.578  0.5732 -0.5059 -0.4796
 6851TIP3   OH241967   1.330   5.002   4.501  0.0921 -1.0419 -0.2557
 6851TIP3    H141968   1.363   5.080   4.546  1.3787 -1.6939 -0.0191
 6851TIP3    H241969   1.405   4.971   4.450 -0.9197 -1.1509 -1.7037
 6852TIP3   OH241970   2.330   2.083  16.088  0.0865 -0.5716 -0.7407
 6852TIP3    H141971   2.312   2.136  16.010 -0.5329 -1.0282 -0.9256
 6852TIP3    H241972   2.261   2.107  16.150  0.1159 -0.7757 -0.6266
 6853TIP3   OH241973   5.156   4.985   5.381  0.1155 -0.0697 -0.0598
 6853TIP3    H141974   5.069   4.990   5.420 -0.5908  0.0641 -1.5642
 6853TIP3    H241975   5.144   4.930   5.303  1.1524  0.7686 -0.8430
 6854TIP3   OH241976   6.358   3.332  15.070  0.3983  0.9358 -0.0221
 6854TIP3    H141977   6.296   3.263  15.048  0.1165  0.6363  1.5746
 6854TIP3    H241978   6.410   3.344  14.991  0.8566 -1.5367 -0.1700
 6855TIP3   OH241979   6.587   4.895  14.797  0.3389  0.1132 -0.3566
 6855TIP3    H141980   6.674   4.926  14.772 -0.5896  0.8578 -3.1205
 6855TIP3    H241981   6.545   4.875  14.713 -1.8917 -0.9586  0.9403
 6856TIP3   OH241982   3.133   5.066  16.596  0.3735  0.2333 -0.0953
 6856TIP3    H141983   3.083   5.093  16.673 -2.1083 -2.4522 -0.6108
 6856TIP3    H241984   3.221   5.048  16.629 -0.2042  0.6820  1.7823
 6857TIP3   OH241985   1.927   0.153   0.268  0.0062  0.5441  0.2867
 6857TIP3    H141986   2.013   0.192   0.279  0.0397  0.5852 -0.1015
 6857TIP3    H241987   1.905   0.117   0.354 -0.2089  1.7752  0.7563
 6858TIP3   OH241988   1.179   0.805  16.160 -0.3443  0.2886 -0.1069
 6858TIP3    H141989   1.140   0.845  16.237 -0.4407 -1.7816  0.9881
 6858TIP3    H241990   1.273   0.803  16.178 -0.0223  2.1850 -1.2634
 6859TIP3   OH241991   1.227   1.557  12.458  0.1535 -0.1186 -0.3113
 6859TIP3    H141992   1.239   1.498  12.384  0.7759 -0.8731  0.3670
 6859TIP3    H241993   1.313   1.558  12.501  0.0105  0.9083 -0.0354
 6860TIP3   OH241994   5.962   1.993  10.911  0.4659  0.0025 -0.2845
 6860TIP3    H141995   5.990   2.060  10.849  0.2664 -0.5161 -0.9550
 6860TIP3    H241996   6.039   1.976  10.964  0.0703  1.9107  0.9899
 6861TIP3   OH241997   5.003   2.558   5.696 -0.4769 -0.2303 -0.2692
 6861TIP3    H141998   5.084   2.601   5.723  0.5805 -2.0711 -0.3443
 6861TIP3    H241999   5.017   2.538   5.603 -0.5288 -1.5538 -0.0059
 6862TIP3   OH242000   6.776   5.361  13.291 -0.0243 -0.2573 -0.8181
 6862TIP3    H142001   6.708   5.313  13.243  1.6393 -1.3714 -2.1565
 6862TIP3    H242002   6.806   5.427  13.229  1.3449 -0.9490 -0.9109
 6863TIP3   OH242003   2.272   6.409   1.930 -0.1986  0.4345  0.4654
 6863TIP3    H142004   2.246   6.381   1.842 -1.5746  1.0230  0.6522
 6863TIP3    H242005   2.189   6.426   1.974  0.4985  0.8263  1.6577
 6864TIP3   OH242006   6.483   4.172  14.540  0.5527 -0.2843  0.1707
 6864TIP3    H142007   6.499   4.081  14.517  0.3968 -0.8968  2.2994
 6864TIP3    H242008   6.390   4.174  14.563  0.8129  0.1594  1.1984
 6865TIP3   OH242009   3.046   4.100   1.437 -0.0408  0.2120 -0.2530
 6865TIP3    H142010   3.005   4.066   1.517  0.0656  1.8600  0.5319
 6865TIP3    H242011   3.059   4.193   1.454  2.0107  0.1819 -1.3497
 6866TIP3   OH242012   3.684   0.287   5.904 -0.3815 -0.3065  0.4090
 6866TIP3    H142013   3.590   0.302   5.909 -0.3070  1.3376 -1.6518
 6866TIP3    H242014   3.718   0.319   5.987 -1.7103 -2.3563  1.8573
 6867TIP3   OH242015   6.421   3.670  14.541  0.9077 -0.2496  0.0988
 6867TIP3    H142016   6.351   3.700  14.599  0.8436 -0.8426  0.3330
 6867TIP3    H242017   6.432   3.741  14.478 -0.8587 -0.7238 -0.7983
 6868TIP3   OH242018   2.821   4.135  14.501  0.1871 -0.3897  0.0892
 6868TIP3    H142019   2.895   4.196  14.493 -0.4436  0.1290 -3.4865
 6868TIP3    H242020   2.744   4.189  14.482 -0.8048 -1.5607  0.6478
 6869TIP3   OH242021   3.522   0.016  13.883  0.7896  1.3959 -0.4129
 6869TIP3    H142022   3.540   0.074  13.957 -0.4966  0.4225  0.7021
 6869TIP3    H242023   3.431   0.033  13.860  0.3679 -0.2173 -0.0246
 6870TIP3   OH242024   4.116   2.855   0.631 -0.2239 -0.6098  0.4588
 6870TIP3    H142025   4.176   2.909   0.579 -1.1825  0.9753  0.9305
 6870TIP3    H242026   4.160   2.770   0.637  0.9404 -0.1642 -1.0439
 6871TIP3   OH242027   5.011   1.893   5.394 -0.0304 -0.4273  0.2278
 6871TIP3    H142028   5.081   1.891   5.459 -0.6508 -0.3738  0.9153
 6871TIP3    H242029   4.989   1.986   5.385  1.4294 -0.2000 -1.6057
 6872TIP3   OH242030   1.465   2.555   4.781  0.2320 -0.4368  0.1372
 6872TIP3    H142031   1.537   2.502   4.747  0.0246 -0.1971 -0.7094
 6872TIP3    H242032   1.400   2.554   4.711  0.1243  0.7351  0.1921
 6873TIP3   OH242033   1.067   6.358  14.245  0.0253 -0.0858  0.8060
 6873TIP3    H142034   1.019   6.412  14.182  0.0514  0.1476  0.9862
 6873TIP3    H242035   1.102   6.420  14.309 -1.8623 -0.4889  2.3217
 6874TIP3   OH242036   1.807   3.837  13.788 -0.6647  0.0144  0.1431
 6874TIP3    H142037   1.756   3.824  13.709  0.2648  0.3068 -0.5229
 6874TIP3    H242038   1.866   3.761  13.791  1.2338  1.3478 -0.9946
 6875TIP3   OH242039   5.987   5.190  10.913  0.0731  0.5080 -0.1028
 6875TIP3    H142040   6.039   5.263  10.948  0.5954  0.2164 -0.2522
 6875TIP3    H242041   5.955   5.144  10.991  0.0757  0.6646 -0.0087
 6876TIP3   OH242042   0.162   6.351  14.899 -0.0549  0.1454  0.0024
 6876TIP3    H142043   0.149   6.446  14.893  2.8734  0.7259  1.2672
 6876TIP3    H242044   0.112   6.316  14.825  0.7001  2.8859 -1.9672
 6877TIP3   OH242045   6.222   4.024   2.758  0.2465 -0.1482 -0.2759
 6877TIP3    H142046   6.296   4.078   2.729  0.0293  0.5047  0.3637
 6877TIP3    H242047   6.261   3.959   2.816  0.5772 -1.0042 -1.4094
 6878TIP3   OH242048   5.975   5.710  14.190 -0.0247  0.0995 -0.2356
 6878TIP3    H142049   5.974   5.679  14.280 -0.7210 -0.4003 -0.4128
 6878TIP3    H242050   6.008   5.799  14.196 -2.6131  1.0853  0.8492
 6879TIP3   OH242051   6.326   2.261  14.899 -0.2275  0.3789  0.2357
 6879TIP3    H142052   6.343   2.251  14.805 -0.8448 -0.5301  0.2052
 6879TIP3    H242053   6.235   2.292  14.904 -0.8649 -1.4173  0.5590
 6880TIP3   OH242054   2.117   4.304  10.755 -0.1146  0.3689 -0.3923
 6880TIP3    H142055   2.137   4.224  10.707 -0.7548 -0.1931  0.2632
 6880TIP3    H242056   2.199   4.327  10.798 -0.1430 -0.3851  0.0702
 6881TIP3   OH242057   0.640   1.769   4.352 -0.7280 -0.4375 -0.4325
 6881TIP3    H142058   0.601   1.835   4.295 -0.0720  0.7543  0.4569
 6881TIP3    H242059   0.565   1.718   4.385 -1.1624 -0.7624 -1.8450
 6882TIP3   OH242060   0.761   3.238   5.375  0.0475  0.1100  0.3714
 6882TIP3    H142061   0.707   3.269   5.302  1.8170  2.3729 -0.0988
 6882TIP3    H242062   0.777   3.316   5.428 -1.2633 -1.4799  3.3553
 6883TIP3   OH242063   0.957   4.298   6.019 -0.0985 -0.0559 -0.4676
 6883TIP3    H142064   0.870   4.280   5.985  0.7623 -1.3604 -2.0860
 6883TIP3    H242065   1.013   4.232   5.979  1.2607 -0.8154  2.4209
 6884TIP3   OH242066   6.336   1.402   4.094 -0.0583 -0.1545 -0.0675
 6884TIP3    H142067   6.266   1.459   4.127  2.6818  2.0494  2.5024
 6884TIP3    H242068   6.414   1.458   4.095  2.4190 -3.3735  0.4928
 6885TIP3   OH242069   0.161   3.764  11.972  0.1770 -0.2955 -0.0146
 6885TIP3    H142070   0.189   3.853  11.950 -1.3960 -0.1535 -1.7382
 6885TIP3    H242071   0.186   3.712  11.896  1.0003 -1.3425  0.9410
 6886TIP3   OH242072   4.205   0.583  15.958  0.0535  0.6160 -0.0038
 6886TIP3    H142073   4.145   0.519  15.996  0.5965  0.5645  0.7772
 6886TIP3    H242074   4.174   0.593  15.868 -0.4335 -0.2541  0.0526
 6887TIP3   OH242075   1.562   3.318  16.728  0.7183 -0.2063  0.0311
 6887TIP3    H142076   1.599   3.373  16.658  2.5911  0.2763  1.3188
 6887TIP3    H242077   1.516   3.379  16.785 -2.6139 -0.8459 -1.7351
 6888TIP3   OH242078   2.594   5.674  11.779  0.6703  0.0798 -0.0106
 6888TIP3    H142079   2.511   5.632  11.755  0.0107  1.0598  0.4501
 6888TIP3    H242080   2.658   5.640  11.717 -0.5611  1.0279 -1.8945
 6889TIP3   OH242081   1.509   4.456  15.635  0.3425  0.1184  0.2990
 6889TIP3    H142082   1.435   4.517  15.632 -0.4223 -0.7768  0.0898
 6889TIP3    H242083   1.579   4.504  15.678  0.5746  1.9651 -1.9666
 6890TIP3   OH242084   1.318   1.123  16.708  0.4099 -0.3229 -0.0492
 6890TIP3    H142085   1.394   1.118  16.649 -0.7442 -1.0993 -1.5268
 6890TIP3    H242086   1.348   1.082  16.789  1.3948 -1.1414 -0.7988
 6891TIP3   OH242087   6.445   3.967   3.607 -0.0979  0.3767 -0.1736
 6891TIP3    H142088   6.464   3.906   3.678  0.0266  0.0026 -0.5269
 6891TIP3    H242089   6.489   4.048   3.632  0.3120  0.1137 -0.0343
 6892TIP3   OH242090   1.883   1.532  15.643  0.0853  0.3190  0.6183
 6892TIP3    H142091   1.900   1.438  15.642  1.4828  0.5498  0.2945
 6892TIP3    H242092   1.791   1.541  15.616  0.1488 -0.9051 -0.0531
 6893TIP3   OH242093   5.052   0.047   6.052  0.1180  0.2131 -0.7670
 6893TIP3    H142094   5.092  -0.012   5.988  0.7685 -0.1155 -0.0661
 6893TIP3    H242095   5.116   0.117   6.064  0.0865  0.1654 -0.3208
 6894TIP3   OH242096   3.769   5.016  16.108 -0.7317  0.5492  0.0085
 6894TIP3    H142097   3.810   4.964  16.039  1.6360  0.9552  1.0252
 6894TIP3    H242098   3.730   4.951  16.166 -0.6384  0.0921 -0.4312
 6895TIP3   OH242099   3.847   4.645   3.096  0.2787  0.1304  0.7995
 6895TIP3    H142100   3.847   4.642   3.000  0.1005 -0.5933  0.8187
 6895TIP3    H242101   3.924   4.698   3.117 -0.8610  2.1232  0.2324
 6896TIP3   OH242102   4.463   4.768   5.750 -0.7309 -0.2190 -0.3818
 6896TIP3    H142103   4.386   4.783   5.805  0.6172 -1.5150  1.9966
 6896TIP3    H242104   4.518   4.708   5.800  0.4687 -1.8091 -3.3445
 6897TIP3   OH242105   3.319   4.510  14.941 -0.2710 -0.2132  0.2143
 6897TIP3    H142106   3.372   4.498  14.862 -0.0079  0.2298  0.3240
 6897TIP3    H242107   3.279   4.424  14.956 -0.6247 -0.2007 -0.6171
 6898TIP3   OH242108   6.395   2.176   5.836  0.1064  0.0233 -0.5932
 6898TIP3    H142109   6.330   2.171   5.906  0.2987  0.8674 -0.3392
 6898TIP3    H242110   6.393   2.090   5.794 -1.1742  0.0353 -0.5862
 6899TIP3   OH242111   5.932   3.537  14.694 -0.6141  0.6670  0.2381
 6899TIP3    H142112   5.970   3.460  14.651 -1.4776  0.2772  0.1385
 6899TIP3    H242113   5.851   3.554  14.645  0.1042  2.3292 -0.4429
 6900TIP3   OH242114   3.912   4.891  14.984 -0.2137  0.1768  0.0521
 6900TIP3    H142115   3.871   4.871  15.068  2.4026  0.1089  1.4235
 6900TIP3    H242116   3.912   4.807  14.937 -1.3487  0.1286  0.1140
 6901TIP3   OH242117   2.857   2.952   1.991 -0.0048  0.0004 -0.3187
 6901TIP3    H142118   2.873   3.008   2.067 -0.5330  0.9282 -0.8743
 6901TIP3    H242119   2.761   2.952   1.981  0.0819  0.2470 -1.2404
 6902TIP3   OH242120   6.423   5.733  12.471 -0.1740  0.5788  0.2028
 6902TIP3    H142121   6.336   5.772  12.467  0.1422  1.5862  2.0284
 6902TIP3    H242122   6.420   5.676  12.548  0.5029 -0.1647 -0.2974
 6903TIP3   OH242123   4.018   5.940  13.077 -0.4905 -0.0006  0.4034
 6903TIP3    H142124   3.992   5.986  12.997  1.1836  1.5864  0.7076
 6903TIP3    H242125   4.096   5.987  13.107  0.1205 -1.8427  1.8566
 6904TIP3   OH242126   5.916   3.275  12.544  0.8361 -0.1925  0.9869
 6904TIP3    H142127   5.959   3.316  12.469  1.4143 -0.1475  1.3389
 6904TIP3    H242128   5.940   3.183  12.539  1.7565 -0.0092  1.7009
 6905TIP3   OH242129   6.231   3.690   1.227 -0.0326 -0.1047  0.3066
 6905TIP3    H142130   6.213   3.598   1.244  0.3876 -0.1755  0.3650
 6905TIP3    H242131   6.283   3.719   1.302 -0.8997  0.4046  0.7229
 6906TIP3   OH242132   0.242   0.196  15.855 -0.5959 -0.1285 -0.2021
 6906TIP3    H142133   0.222   0.282  15.891  1.2327  0.2358  0.0720
 6906TIP3    H242134   0.159   0.165  15.820 -1.8649  0.6480  1.9174
 6907TIP3   OH242135   5.693   4.270   5.302 -0.0725  0.1605  0.2674
 6907TIP3    H142136   5.746   4.332   5.351 -0.1584  0.1976  0.3135
 6907TIP3    H242137   5.623   4.244   5.363 -0.2283  0.2706  0.1356
 6908TIP3   OH242138   0.082   6.516  10.602 -1.1834  0.2314  0.4365
 6908TIP3    H142139   0.099   6.571  10.679  1.2269 -0.2358  0.3027
 6908TIP3    H242140   0.168   6.483  10.576 -2.0553 -0.3826 -1.9202
 6909TIP3   OH242141   2.132   4.791   0.218  0.4505  0.2828 -0.9425
 6909TIP3    H142142   2.088   4.871   0.190 -1.0091 -0.0335  0.2819
 6909TIP3    H242143   2.140   4.800   0.313  1.3718 -0.5014 -0.9253
 6910TIP3   OH242144   2.248   1.000   3.315 -0.0284 -0.2529  0.2338
 6910TIP3    H142145   2.274   0.941   3.243  0.1801  0.2471 -0.1039
 6910TIP3    H242146   2.268   0.950   3.394  1.9003  0.0563 -0.0025
 6911TIP3   OH242147   5.563   5.527  16.863  0.2994  0.7868 -0.2871
 6911TIP3    H142148   5.485   5.580  16.881 -0.5667  0.0151 -1.6095
 6911TIP3    H242149   5.636   5.581  16.892 -0.4600  3.1578 -2.4329
 6912TIP3   OH242150   1.904   1.470  14.355 -0.3138 -0.1835 -0.5289
 6912TIP3    H142151   1.894   1.547  14.299 -1.1530  1.1819  1.3854
 6912TIP3    H242152   1.864   1.495  14.438 -1.5939 -3.0832 -0.1451
 6913TIP3   OH242153   4.239   6.791  17.077 -0.2283  0.5544 -0.1451
 6913TIP3    H142154   4.309   6.726  17.067 -0.4446 -0.3741  3.0561
 6913TIP3    H242155   4.169   6.759  17.020  0.3892 -0.9472 -0.1218
 6914TIP3   OH242156   2.312   2.863   2.668 -0.5721 -0.2261  0.2887
 6914TIP3    H142157   2.279   2.935   2.614  1.9951  0.0044 -1.1357
 6914TIP3    H242158   2.308   2.897   2.758 -2.9747  0.1780  0.0995
 6915TIP3   OH242159   3.762   2.818  10.791  0.4734  0.0484 -0.2935
 6915TIP3    H142160   3.790   2.767  10.715  0.8972 -0.6263  0.3038
 6915TIP3    H242161   3.840   2.825  10.846  1.1118  3.2892 -1.3676
 6916TIP3   OH242162   3.305   4.939   6.119 -0.1089 -0.2284  0.8543
 6916TIP3    H142163   3.370   4.927   6.049  0.1523  0.1123  1.0378
 6916TIP3    H242164   3.227   4.969   6.074 -0.3179 -1.1736  0.5615
 6917TIP3   OH242165   0.047   4.674   4.930  0.4458 -0.0046  0.3756
 6917TIP3    H142166   0.084   4.762   4.928  0.0814  0.1519  0.4355
 6917TIP3    H242167   0.117   4.620   4.967  0.3194  0.4343  1.2786
 6918TIP3   OH242168   0.515   6.113  16.282  0.1353 -0.2128  0.1798
 6918TIP3    H142169   0.426   6.117  16.248  0.0030 -3.5664 -0.2643
 6918TIP3    H242170   0.505   6.101  16.376  0.3076  2.3003  0.5948
 6919TIP3   OH242171   2.646   2.389  12.562  0.0341 -0.0221  0.1395
 6919TIP3    H142172   2.560   2.425  12.541  0.4487  0.1251 -1.4032
 6919TIP3    H242173   2.671   2.339  12.485  1.8186  0.8814  0.0633
 6920TIP3   OH242174   1.408   0.579  14.145  0.1571 -0.1076  0.2526
 6920TIP3    H142175   1.450   0.603  14.227 -0.7504 -0.4820  0.8541
 6920TIP3    H242176   1.314   0.579  14.166 -0.0850 -0.2152 -0.7814
 6921TIP3   OH242177   1.439   4.303  16.922 -0.0528 -0.2069 -0.7175
 6921TIP3    H142178   1.455   4.394  16.896  0.1699 -0.3510 -1.0872
 6921TIP3    H242179   1.417   4.309  17.015 -0.3674  0.2611 -0.8170
 6922TIP3   OH242180   0.900   2.614   0.487 -0.6507 -0.4485  0.5906
 6922TIP3    H142181   0.805   2.627   0.484 -0.4001  1.5434 -1.1787
 6922TIP3    H242182   0.919   2.555   0.415 -0.3953  0.6574 -0.2747
 6923TIP3   OH242183   3.717   1.096  12.594  0.5904  0.2023 -0.3098
 6923TIP3    H142184   3.706   1.179  12.548 -1.2781 -0.5222 -1.2593
 6923TIP3    H242185   3.786   1.051  12.546  1.3618  1.0365 -0.0074
 6924TIP3   OH242186   1.538   6.703  15.385 -0.1653  0.1583 -0.1346
 6924TIP3    H142187   1.619   6.741  15.352  0.4136  0.1945  1.2305
 6924TIP3    H242188   1.566   6.631  15.442 -1.1039 -0.1385 -0.0151
 6925TIP3   OH242189   4.076   4.502   2.093 -0.3113 -0.5510  0.1160
 6925TIP3    H142190   4.058   4.574   2.153  0.4116 -1.2020  1.1450
 6925TIP3    H242191   4.123   4.543   2.020 -1.8499  0.3732 -0.4096
 6926TIP3   OH242192   5.849   4.291  15.681 -0.1504  0.5756 -0.0565
 6926TIP3    H142193   5.942   4.278  15.696  0.0461  2.0043  0.0442
 6926TIP3    H242194   5.831   4.242  15.600  0.2893 -1.1492  0.8378
 6927TIP3   OH242195   2.320   6.332   5.047 -0.0350 -0.1517  0.5277
 6927TIP3    H142196   2.342   6.281   4.969 -0.0492  0.0104  0.4171
 6927TIP3    H242197   2.283   6.268   5.107 -0.7698 -0.1384  0.0972
 6928TIP3   OH242198   0.071   0.534  14.208  0.1888 -0.1226 -0.3380
 6928TIP3    H142199   0.036   0.522  14.297  3.0679  2.6336  1.3785
 6928TIP3    H242200   0.046   0.623  14.184  0.0848 -0.5727 -2.0487
 6929TIP3   OH242201   5.731   4.947   6.248 -0.0365  0.1954 -0.2476
 6929TIP3    H142202   5.759   4.971   6.160  0.7995  0.0772 -0.0224
 6929TIP3    H242203   5.783   5.003   6.306  0.1416 -0.4137  0.1980
 6930TIP3   OH242204   0.885   0.415  11.908  0.3931 -0.1972  0.0827
 6930TIP3    H142205   0.968   0.462  11.896 -0.3429  1.7584  1.9101
 6930TIP3    H242206   0.825   0.482  11.941 -0.8650 -2.3502  2.5218
 6931TIP3   OH242207   0.703   6.591   4.078  0.0573  0.2627 -0.3542
 6931TIP3    H142208   0.716   6.499   4.056  0.1100  0.2805 -0.3964
 6931TIP3    H242209   0.618   6.613   4.038  0.1020  0.2657 -0.4472
 6932TIP3   OH242210   3.129   2.019  11.296  0.5382 -0.3318 -0.5193
 6932TIP3    H142211   3.161   2.065  11.374 -0.4435 -1.2772  0.4736
 6932TIP3    H242212   3.190   2.046  11.226  0.7019  1.5178  0.2621
 6933TIP3   OH242213   4.184   6.501   3.335  0.6058 -0.5912  0.2977
 6933TIP3    H142214   4.157   6.489   3.426 -0.3950  0.9484  0.2191
 6933TIP3    H242215   4.176   6.595   3.318  0.4307 -0.8770 -1.4858
 6934TIP3   OH242216   3.606   3.586   2.002 -0.4526 -0.2699  0.6895
 6934TIP3    H142217   3.690   3.630   1.988 -1.7036  2.7678  1.9578
 6934TIP3    H242218   3.616   3.540   2.086  0.3904 -1.2753  0.0676
 6935TIP3   OH242219   2.291   0.510  15.523 -0.4807 -0.4642  0.4113
 6935TIP3    H142220   2.294   0.543  15.612 -1.9790  0.1674  0.2568
 6935TIP3    H242221   2.261   0.584  15.470  1.5049 -0.4682 -0.8303
 6936TIP3   OH242222   4.686   6.781   2.112  0.1194  0.2764 -0.3895
 6936TIP3    H142223   4.615   6.745   2.166 -0.9833  3.7515  0.7112
 6936TIP3    H242224   4.667   6.751   2.024  0.1052 -2.8311  0.5454
 6937TIP3   OH242225   1.925   1.533  12.446  0.1355  0.3633  0.1418
 6937TIP3    H142226   1.884   1.611  12.410 -0.6949 -0.3663 -0.5333
 6937TIP3    H242227   2.011   1.529  12.405  0.1934  0.9273  0.2025
 6938TIP3   OH242228   3.135   4.715   2.145  0.5372 -0.9164  0.2416
 6938TIP3    H142229   3.227   4.705   2.119 -0.2796 -0.9135 -3.1391
 6938TIP3    H242230   3.136   4.780   2.215  2.9146  1.3219 -1.6918
 6939TIP3   OH242231   2.686   4.001   1.702  0.3345  0.3178 -0.4299
 6939TIP3    H142232   2.605   4.044   1.674 -0.9360 -0.0964  2.2856
 6939TIP3    H242233   2.738   4.072   1.740  0.9929  0.4688 -1.5810
 6940TIP3   OH242234   0.855   3.200  11.825 -0.0312  0.0433 -0.1090
 6940TIP3    H142235   0.919   3.257  11.784  0.1797  0.5129  0.8371
 6940TIP3    H242236   0.770   3.237  11.801  0.0952  0.4757  0.1008
 6941TIP3   OH242237   0.122   1.837  11.484 -0.7964  0.4343 -0.4092
 6941TIP3    H142238   0.106   1.832  11.389 -2.2100 -0.5134 -0.1546
 6941TIP3    H242239   0.176   1.760  11.502 -1.7352 -0.2055 -0.2494
 6942TIP3   OH242240   0.165   1.603   2.535  0.0533  0.2841 -0.0697
 6942TIP3    H142241   0.185   1.654   2.456  0.0304  1.2620  0.5324
 6942TIP3    H242242   0.118   1.665   2.591  1.6524  0.1997  1.4611
 6943TIP3   OH242243   5.275   4.744   1.645 -0.3253  0.1080 -0.3391
 6943TIP3    H142244   5.270   4.651   1.623 -0.7462 -0.0913  0.5327
 6943TIP3    H242245   5.260   4.790   1.562 -1.1115 -0.6018 -0.6065
 6944TIP3   OH242246   0.740   1.874  11.137 -0.5316  0.1500 -0.2035
 6944TIP3    H142247   0.829   1.841  11.125 -0.9416 -1.1936  0.2549
 6944TIP3    H242248   0.702   1.818  11.204 -1.9140  0.3146 -0.8048
 6945TIP3   OH242249   2.219   5.779  12.576 -0.3166  0.0446  0.0868
 6945TIP3    H142250   2.182   5.833  12.506  1.3389 -0.8001 -1.5225
 6945TIP3    H242251   2.186   5.818  12.657 -2.0830  1.2282 -1.1379
 6946TIP3   OH242252   4.429   3.041   2.857 -0.1604 -0.8300 -1.2428
 6946TIP3    H142253   4.488   3.074   2.790 -0.2686 -0.0175 -0.9434
 6946TIP3    H242254   4.423   2.947   2.839 -0.0774 -0.6480 -2.2838
 6947TIP3   OH242255   6.033   4.216   0.599  0.4798  0.0025 -0.5813
 6947TIP3    H142256   6.098   4.156   0.562  1.5016  0.9925 -0.4748
 6947TIP3    H242257   6.085   4.282   0.645 -0.4007  2.2216 -2.4991
 6948TIP3   OH242258   5.062   5.159   2.194  0.1887 -0.0027 -0.3067
 6948TIP3    H142259   5.090   5.221   2.261  0.3912 -0.4315  0.0152
 6948TIP3    H242260   5.139   5.146   2.139 -0.0218  0.4634 -0.7168
 6949TIP3   OH242261   0.169   6.521   2.946  0.1810  0.2034  0.0740
 6949TIP3    H142262   0.145   6.445   3.000  2.7051 -0.4860  0.3369
 6949TIP3    H242263   0.094   6.532   2.887 -0.7735 -1.7653  0.7983
 6950TIP3   OH242264   4.768   1.345   4.360 -0.1540 -0.1880 -0.1406
 6950TIP3    H142265   4.744   1.264   4.314 -0.9993  0.7237 -1.3969
 6950TIP3    H242266   4.841   1.380   4.309  0.4684 -0.3356  0.6312
 6951TIP3   OH242267   5.259   4.002   4.117  0.2124  0.4438  0.0112
 6951TIP3    H142268   5.320   3.966   4.053  0.8212  0.1052  0.7629
 6951TIP3    H242269   5.270   4.097   4.109  1.1507  0.3855  0.4122
 6952TIP3   OH242270   3.833   5.473   5.098  0.0032  0.0082 -0.1814
 6952TIP3    H142271   3.894   5.435   5.035 -0.7848  2.2863 -2.4673
 6952TIP3    H242272   3.748   5.467   5.056 -0.5233  1.8198  0.5189
 6953TIP3   OH242273   1.173   5.139  11.180 -0.1791  1.0039  0.4736
 6953TIP3    H142274   1.241   5.144  11.112  0.1934 -0.5658  0.6878
 6953TIP3    H242275   1.212   5.084  11.248 -2.4754 -2.1151 -0.4920
 6954TIP3   OH242276   6.541   2.907   6.075 -0.8447 -0.1862  0.7058
 6954TIP3    H142277   6.560   3.001   6.079 -1.2507 -0.1206  1.3905
 6954TIP3    H242278   6.626   2.864   6.078 -0.6712  0.1533  0.6546
 6955TIP3   OH242279   3.261   5.969  11.426 -0.1545 -0.7239  0.4776
 6955TIP3    H142280   3.328   5.902  11.413 -0.9447 -1.3132 -0.7876
 6955TIP3    H242281   3.262   5.987  11.520  0.5744 -1.9890  0.7309
 6956TIP3   OH242282   1.814   3.370   4.508 -0.1160  0.2008 -0.1164
 6956TIP3    H142283   1.869   3.439   4.471  0.0826 -0.0852 -0.3574
 6956TIP3    H242284   1.757   3.416   4.571  1.1042  0.3347  0.9218
 6957TIP3   OH242285   6.378   3.205   3.543  0.0790 -0.6216 -0.2525
 6957TIP3    H142286   6.377   3.244   3.631 -1.2077  1.8252 -1.2670
 6957TIP3    H242287   6.311   3.137   3.547 -2.4980  1.7390 -0.1736
 6958TIP3   OH242288   2.392   5.364   0.300  0.3870  0.8311  0.1064
 6958TIP3    H142289   2.326   5.426   0.329 -0.2113  0.3574 -0.2196
 6958TIP3    H242290   2.366   5.281   0.339  0.2808  0.4523 -0.7537
 6959TIP3   OH242291   4.243   1.285   5.238  0.1889  0.1745  0.0760
 6959TIP3    H142292   4.320   1.253   5.190 -0.4467 -0.9057 -0.2531
 6959TIP3    H242293   4.265   1.271   5.330  0.0203 -1.0209 -0.0516
 6960TIP3   OH242294   1.770   5.325  13.106  0.1475 -0.6376 -0.2188
 6960TIP3    H142295   1.692   5.322  13.051 -0.0594  0.6460 -0.0326
 6960TIP3    H242296   1.736   5.344  13.194  0.7184  1.2604 -0.3580
 6961TIP3   OH242297   5.278   1.031  14.749 -0.1525 -0.2892 -0.0247
 6961TIP3    H142298   5.217   1.103  14.767  0.4781  0.2022  0.1587
 6961TIP3    H242299   5.287   1.030  14.654  0.9142  0.7852  0.0469
 6962TIP3   OH242300   6.151   0.249  16.254 -0.3391  0.7132  0.0481
 6962TIP3    H142301   6.196   0.330  16.281  1.8920 -0.1921 -0.7192
 6962TIP3    H242302   6.109   0.217  16.333 -0.8154  2.3355  0.4874
 6963TIP3   OH242303   5.802   2.173  13.412  0.5243 -0.0104 -0.3251
 6963TIP3    H142304   5.746   2.249  13.429  1.9679  0.6401  1.8099
 6963TIP3    H242305   5.791   2.157  13.318 -1.9481  1.0795 -0.3150
 6964TIP3   OH242306   4.035   4.473  12.176 -0.2221  0.7601 -0.3869
 6964TIP3    H142307   3.974   4.418  12.226  1.1386  0.8344  1.4097
 6964TIP3    H242308   4.091   4.411  12.131  1.0258  0.6078  1.2886
 6965TIP3   OH242309   3.728   2.010  16.017  0.0147  0.0350  0.1148
 6965TIP3    H142310   3.713   2.089  16.068  0.3423  1.1422 -1.4445
 6965TIP3    H242311   3.823   1.996  16.020  0.0090 -0.0354  0.0023
 6966TIP3   OH242312   2.938   0.065   2.777  0.0898 -0.0097  0.4225
 6966TIP3    H142313   3.015   0.090   2.726 -0.0520  1.1141  0.7384
 6966TIP3    H242314   2.971   0.001   2.840  1.0244  1.3060  1.3162
 6967TIP3   OH242315   6.407   2.171   6.395  0.0055  0.0641 -0.2242
 6967TIP3    H142316   6.377   2.111   6.327  0.0577 -0.8731  0.5687
 6967TIP3    H242317   6.497   2.192   6.371  0.1968 -0.6813 -0.1640
 6968TIP3   OH242318   2.597   2.021  14.856  0.2506  0.2638 -0.4488
 6968TIP3    H142319   2.681   1.983  14.881  0.8152  1.6547 -0.1281
 6968TIP3    H242320   2.608   2.115  14.870 -0.9838  0.5948 -1.5129
 6969TIP3   OH242321   0.932   2.122  12.502 -0.2174 -0.5097  0.3626
 6969TIP3    H142322   0.999   2.180  12.538  0.4063 -1.1091  0.1911
 6969TIP3    H242323   0.951   2.120  12.408 -1.3396  0.4137  0.0812
 6970TIP3   OH242324   6.426   6.554  12.700 -0.0664 -0.2814 -0.5011
 6970TIP3    H142325   6.466   6.473  12.668  0.0888 -1.1749  1.7945
 6970TIP3    H242326   6.362   6.526  12.765 -1.0431  1.3874 -0.6705
 6971TIP3   OH242327   0.981   3.483  16.970  0.2170  0.2719 -0.6200
 6971TIP3    H142328   1.003   3.521  16.885 -1.3498  0.5696 -0.9254
 6971TIP3    H242329   0.885   3.485  16.973  0.2339  0.0069  1.0387
 6972TIP3   OH242330   0.592   6.085   6.504 -0.6760 -0.0686 -0.4086
 6972TIP3    H142331   0.632   6.171   6.518 -2.6240  0.8620 -0.2122
 6972TIP3    H242332   0.626   6.056   6.419  2.1532 -0.4271  0.7305
 6973TIP3   OH242333   4.051   2.568  12.439  0.1410 -0.3747 -0.2304
 6973TIP3    H142334   4.050   2.498  12.504  2.6346 -2.1989 -1.9959
 6973TIP3    H242335   4.142   2.597  12.437 -0.0887  0.3421 -2.1898
 6974TIP3   OH242336   2.399   4.274  16.643  0.3006 -0.3261 -0.1247
 6974TIP3    H142337   2.494   4.276  16.648  0.5756  0.1251 -3.1671
 6974TIP3    H242338   2.372   4.364  16.660  0.3678 -0.4982  0.9492
 6975TIP3   OH242339   2.245   5.050  14.742  0.0071  0.4313 -0.0833
 6975TIP3    H142340   2.209   4.980  14.687 -0.9603  0.7096  0.1720
 6975TIP3    H242341   2.300   5.004  14.806  0.2015  0.0006 -0.5548
 6976TIP3   OH242342   3.518   0.779  17.148  0.1207  0.2374  0.0180
 6976TIP3    H142343   3.509   0.867  17.111 -0.6060  0.0928 -0.1723
 6976TIP3    H242344   3.593   0.785  17.208  1.6452  0.3749 -1.7896
 6977TIP3   OH242345   2.479   0.540   4.523  0.4200 -0.3696 -0.2311
 6977TIP3    H142346   2.406   0.579   4.475  1.0096 -1.5465 -2.1766
 6977TIP3    H242347   2.513   0.611   4.577 -1.5708  0.4385  0.0477
 6978TIP3   OH242348   6.575   4.100   2.282 -0.4045  0.6534 -0.4834
 6978TIP3    H142349   6.515   4.045   2.231 -1.4407  0.4687  0.8716
 6978TIP3    H242350   6.576   4.183   2.235 -0.8866  0.3094 -1.1259
 6979TIP3   OH242351   2.569   2.315  12.858 -0.3610  0.6743 -0.2688
 6979TIP3    H142352   2.581   2.332  12.764  1.9227 -1.5509 -0.4783
 6979TIP3    H242353   2.656   2.324  12.895 -0.4971 -2.0758  0.9311
 6980TIP3   OH242354   0.246   0.812  15.244 -0.0523 -0.5595  0.0565
 6980TIP3    H142355   0.322   0.813  15.302 -0.4930 -0.3492  0.6444
 6980TIP3    H242356   0.186   0.749  15.284 -0.6012  0.0138  0.1546
 6981TIP3   OH242357   0.254   5.274   1.933  0.1887  0.7987  0.3189
 6981TIP3    H142358   0.326   5.321   1.890  0.0442  2.7292  2.0304
 6981TIP3    H242359   0.291   5.188   1.954  1.6765  1.3983  0.2908
 6982TIP3   OH242360   6.159   4.217  12.647 -0.8170  0.0944  0.0431
 6982TIP3    H142361   6.099   4.222  12.721  2.1110  0.8084  2.5796
 6982TIP3    H242362   6.190   4.306  12.635 -0.6982 -0.1396 -1.6005
 6983TIP3   OH242363   3.284   5.205   3.060 -0.5880 -0.4390  0.0854
 6983TIP3    H142364   3.312   5.281   3.008  0.1758 -1.7966 -1.5976
 6983TIP3    H242365   3.343   5.134   3.032 -2.4633 -2.1388  0.2030
 6984TIP3   OH242366   4.042   3.936  16.101 -0.1427 -0.0778 -0.3959
 6984TIP3    H142367   3.954   3.971  16.118 -1.9111 -2.2093 -3.9225
 6984TIP3    H242368   4.077   3.993  16.032 -1.0443 -2.1279 -2.6983
 6985TIP3   OH242369   4.443   0.718   4.128 -0.4398  0.1735  0.0491
 6985TIP3    H142370   4.390   0.781   4.080  1.0001  0.9235 -0.6220
 6985TIP3    H242371   4.467   0.764   4.208 -0.9977 -0.2605  0.4727
 6986TIP3   OH242372   5.964   4.499   4.022  0.2447 -0.1573 -0.2006
 6986TIP3    H142373   6.020   4.577   4.021 -2.2158  1.7472  0.4914
 6986TIP3    H242374   6.004   4.442   4.087  2.1436  0.4614 -0.7497
 6987TIP3   OH242375   3.550   3.912   4.812  0.1534 -0.1107  0.2477
 6987TIP3    H142376   3.460   3.894   4.842 -0.0125  1.0330  0.4688
 6987TIP3    H242377   3.550   4.005   4.792  1.5326  0.0937  1.0929
 6988TIP3   OH242378   4.971   0.651  16.066 -0.0099 -0.2134  0.2529
 6988TIP3    H142379   5.013   0.732  16.038 -0.2874  0.7688  2.4209
 6988TIP3    H242380   5.043   0.596  16.097 -0.0472  0.6333  1.9925
 6989TIP3   OH242381   5.830   5.783   0.219 -0.1497  0.3486 -0.7645
 6989TIP3    H142382   5.832   5.809   0.311 -0.7651 -0.6259 -0.4591
 6989TIP3    H242383   5.875   5.698   0.218 -2.0962 -0.7290 -0.9665
 6990TIP3   OH242384   4.511   6.441  13.969 -0.3311 -0.5705 -0.5182
 6990TIP3    H142385   4.481   6.528  13.941 -0.8674 -0.6094 -0.0686
 6990TIP3    H242386   4.601   6.436  13.936 -0.2974  0.1521 -0.5639
 6991TIP3   OH242387   3.050   0.556   0.044 -0.9161 -0.2057 -0.4480
 6991TIP3    H142388   3.091   0.506  -0.026 -0.8285  0.6246 -1.0126
 6991TIP3    H242389   3.103   0.539   0.121 -0.0720  0.0980 -0.9478
 6992TIP3   OH242390   6.716   4.753  12.872  0.1105 -0.4921  0.4482
 6992TIP3    H142391   6.754   4.746  12.785  0.6739  0.8974  0.5631
 6992TIP3    H242392   6.644   4.690  12.872 -0.6719  0.3270 -1.4365
 6993TIP3   OH242393   0.532   6.426   3.304 -0.2809 -0.0600 -0.4441
 6993TIP3    H142394   0.499   6.438   3.215  1.6549 -0.0840 -1.2123
 6993TIP3    H242395   0.507   6.337   3.327 -3.0063  0.7251  0.0943
 6994TIP3   OH242396   3.941   0.860  13.273 -0.3959  0.3677  0.6192
 6994TIP3    H142397   3.983   0.776  13.292  1.1200  1.6225  3.5810
 6994TIP3    H242398   3.848   0.844  13.286 -0.1717 -0.9372  0.7526
 6995TIP3   OH242399   1.313   1.090  12.426  0.0528 -0.3385 -0.4002
 6995TIP3    H142400   1.369   1.019  12.394  1.1943 -0.3277  1.4513
 6995TIP3    H242401   1.267   1.121  12.348  1.8054 -1.0905 -1.7899
 6996TIP3   OH242402   4.437   4.096   5.636  0.2216 -0.1099 -0.7813
 6996TIP3    H142403   4.382   4.097   5.558  1.2472  0.9677 -1.5153
 6996TIP3    H242404   4.446   4.187   5.662 -0.6990 -0.4841  1.0738
 6997TIP3   OH242405   3.402   0.539   3.175 -0.1038  0.3198  0.5078
 6997TIP3    H142406   3.444   0.550   3.261  2.0457  0.1054 -0.4379
 6997TIP3    H242407   3.430   0.615   3.125  0.2730 -0.5150 -0.5854
 6998TIP3   OH242408   1.327   4.082  11.324 -0.0369  0.0051 -0.2296
 6998TIP3    H142409   1.361   4.108  11.239 -0.3753  1.1248 -0.0402
 6998TIP3    H242410   1.254   4.141  11.341 -0.0194 -0.2344  0.8094
 6999TIP3   OH242411   5.645   4.589  15.231 -0.2543 -0.1903 -0.0024
 6999TIP3    H142412   5.679   4.676  15.251  0.3826 -0.0799 -1.4160
 6999TIP3    H242413   5.689   4.531  15.293  0.2858  0.3332  0.1101
 7000TIP3   OH242414   6.251   1.171   4.633 -0.0006 -0.4109 -0.0544
 7000TIP3    H142415   6.243   1.243   4.571 -0.1235  1.3577  1.9318
 7000TIP3    H242416   6.200   1.198   4.709 -1.2889 -3.2547  0.2364
 7001TIP3   OH242417   5.265   3.727  13.311 -0.2837 -0.8780  0.3738
 7001TIP3    H142418   5.286   3.705  13.220  0.6271  0.4627  0.2317
 7001TIP3    H242419   5.220   3.811  13.305 -1.4430 -1.4304  1.0736
 7002TIP3   OH242420   2.995   4.074   5.437  0.4310  0.3632  0.1307
 7002TIP3    H142421   3.051   4.127   5.381  0.8561  0.6924  0.8589
 7002TIP3    H242422   2.911   4.072   5.392  0.4423  1.5604  0.0371
 7003TIP3   OH242423   5.938   0.073   1.672  0.1858 -0.2465  0.2406
 7003TIP3    H142424   5.998   0.044   1.603 -0.3494  0.0803 -0.3683
 7003TIP3    H242425   5.877   0.001   1.684 -0.7409  0.3334 -0.8118
 7004TIP3   OH242426   1.690   3.187  16.520  0.3702 -0.2761 -0.3672
 7004TIP3    H142427   1.644   3.197  16.603  0.1910 -0.3580 -0.4546
 7004TIP3    H242428   1.780   3.212  16.538  1.0255 -2.9311  0.5415
 7005TIP3   OH242429   6.227   1.732   1.752  0.1772 -0.3027 -0.6540
 7005TIP3    H142430   6.292   1.750   1.683  2.3782  2.8648  1.9459
 7005TIP3    H242431   6.147   1.774   1.721  0.3138 -1.1763 -2.3352
 7006TIP3   OH242432   5.715   3.416   4.299  0.1958  0.3454 -0.8502
 7006TIP3    H142433   5.802   3.424   4.336 -0.0539 -0.9843  0.0819
 7006TIP3    H242434   5.657   3.406   4.374 -0.5669 -0.3795 -1.5068
 7007TIP3   OH242435   1.510   1.770  15.062  0.2462 -0.3502  0.4830
 7007TIP3    H142436   1.520   1.693  15.007 -1.6775 -0.7476  0.6372
 7007TIP3    H242437   1.513   1.736  15.152  1.8958  0.1100  0.6426
 7008TIP3   OH242438   0.578   0.980   5.372 -0.0872  0.1729 -0.1261
 7008TIP3    H142439   0.576   0.943   5.284 -4.9384 -0.7371  0.0559
 7008TIP3    H242440   0.577   0.903   5.430  0.9470  0.7442  0.6905
 7009TIP3   OH242441   2.707   3.585  11.494  0.7033  0.1044 -0.1149
 7009TIP3    H142442   2.774   3.651  11.516  1.1769 -0.3312 -0.2413
 7009TIP3    H242443   2.757   3.512  11.457  0.1802 -0.3285  0.0279
 7010TIP3   OH242444   4.605   4.655   4.769  0.0517 -0.3306  0.1156
 7010TIP3    H142445   4.643   4.616   4.848  0.2414 -2.0633 -0.7926
 7010TIP3    H242446   4.511   4.654   4.784  0.1490  0.6155  0.8666
 7011TIP3   OH242447   0.003   4.436  12.438 -0.0350  0.1485  0.2633
 7011TIP3    H142448   0.036   4.399  12.356 -0.4521  1.2570 -0.4330
 7011TIP3    H242449  -0.082   4.393  12.451 -0.1350  0.2395 -0.0816
 7012TIP3   OH242450   1.512   3.746   4.176 -0.0184  0.1832  0.5822
 7012TIP3    H142451   1.598   3.777   4.204 -0.0887  0.5869  0.3699
 7012TIP3    H242452   1.497   3.666   4.226  1.2959 -0.9262 -0.7116
 7013TIP3   OH242453   1.499   4.486  14.635 -0.1611  0.1973 -0.0826
 7013TIP3    H142454   1.403   4.497  14.637 -0.4480 -1.8851 -0.2831
 7013TIP3    H242455   1.521   4.488  14.542  0.1302  1.4674 -0.0046
 7014TIP3   OH242456   2.339   1.141   3.636  0.5135  0.4411 -0.1251
 7014TIP3    H142457   2.253   1.111   3.663  0.8678  0.0284  0.5621
 7014TIP3    H242458   2.401   1.090   3.689  1.2356 -0.4400 -1.7246
 7015TIP3   OH242459   3.830   5.443  15.097 -0.5020  0.0981  0.2618
 7015TIP3    H142460   3.863   5.361  15.134 -2.5385  0.4869  3.2651
 7015TIP3    H242461   3.735   5.437  15.107 -0.9712  1.4870 -2.5550
 7016TIP3   OH242462   2.973   3.404  15.164 -0.0991 -1.1769 -0.1296
 7016TIP3    H142463   2.898   3.458  15.187  1.0084  0.1297  0.5648
 7016TIP3    H242464   2.999   3.434  15.077  1.0706  0.1280  0.6219
 7017TIP3   OH242465   5.864   6.675   3.827 -0.8587 -0.2388 -0.0512
 7017TIP3    H142466   5.861   6.675   3.922 -0.0533 -1.6824  0.0013
 7017TIP3    H242467   5.908   6.757   3.804 -0.3252 -0.2667  0.8492
 7018TIP3   OH242468   1.257   3.046  15.086 -0.4832  0.1436  0.0105
 7018TIP3    H142469   1.317   2.993  15.034 -0.9469  0.7130 -1.1281
 7018TIP3    H242470   1.277   3.022  15.177 -0.7758 -2.0850 -0.4511
 7019TIP3   OH242471   4.838   6.355  15.422 -0.4385 -0.7117 -0.3497
 7019TIP3    H142472   4.771   6.372  15.356 -1.6994  0.1125  1.0866
 7019TIP3    H242473   4.875   6.441  15.441  1.1968 -1.1593 -1.2133
 7020TIP3   OH242474   4.395   6.572   4.262 -0.0991  0.3211 -0.3056
 7020TIP3    H142475   4.458   6.602   4.328 -0.4550 -0.4714  0.4146
 7020TIP3    H242476   4.369   6.485   4.292 -0.2470 -0.0761 -1.5193
 7021TIP3   OH242477   5.280   4.270   4.979 -0.4350  0.1603  0.6823
 7021TIP3    H142478   5.279   4.304   4.890  0.1088 -0.7178  0.3238
 7021TIP3    H242479   5.364   4.224   4.986 -0.0614  0.9929  1.9473
 7022TIP3   OH242480   4.003   1.744  14.245 -0.0897 -0.0335  0.0286
 7022TIP3    H142481   3.919   1.781  14.216  0.8199  1.9964 -0.1836
 7022TIP3    H242482   3.979   1.682  14.314 -1.7852  0.1841 -0.3225
 7023TIP3   OH242483   3.694   0.664  12.209  0.1876  0.1049 -0.0133
 7023TIP3    H142484   3.732   0.578  12.193 -0.1888 -0.5057  2.0533
 7023TIP3    H242485   3.607   0.660  12.170  0.7009  0.0893 -1.1944
 7024TIP3   OH242486   5.506   4.625   1.310 -0.1297  0.0579  0.6497
 7024TIP3    H142487   5.525   4.691   1.243 -0.3607 -0.9315 -0.4175
 7024TIP3    H242488   5.420   4.649   1.344 -0.4254  0.0354 -0.0769
 7025TIP3   OH242489   0.894   6.497  11.796  0.2457 -0.3915  0.2146
 7025TIP3    H142490   0.827   6.542  11.745 -1.1697 -0.4607  1.8933
 7025TIP3    H242491   0.884   6.405  11.774 -0.9675 -0.5291  1.1898
 7026TIP3   OH242492   4.814   2.157   2.901  0.1840 -0.1685 -0.0332
 7026TIP3    H142493   4.870   2.226   2.938 -0.1245  0.1389 -0.1409
 7026TIP3    H242494   4.876   2.092   2.868  0.5267  0.8006 -1.4015
 7027TIP3   OH242495   4.320   1.567  13.555 -0.3690  0.6735 -0.7411
 7027TIP3    H142496   4.349   1.582  13.465 -0.7420 -2.5492 -1.5187
 7027TIP3    H242497   4.233   1.607  13.559 -0.7801  0.0075 -2.1746
 7028TIP3   OH242498   3.532   4.943  14.224  0.4666 -0.3225  0.1428
 7028TIP3    H142499   3.603   5.007  14.230  1.2051 -1.0095 -0.8983
 7028TIP3    H242500   3.455   4.994  14.201  0.8495  0.3106  0.2498
 7029TIP3   OH242501   0.576   0.943  12.610 -0.0987  0.0724 -0.4272
 7029TIP3    H142502   0.663   0.926  12.573  0.3342  1.9626 -0.3493
 7029TIP3    H242503   0.593   0.980  12.696 -1.0624 -1.5285  0.5078
 7030TIP3   OH242504   1.324   0.127  14.394  0.4040  0.3587  0.3933
 7030TIP3    H142505   1.320   0.143  14.488 -0.3198 -0.6097  0.5481
 7030TIP3    H242506   1.289   0.207  14.355 -1.3452 -0.0128  1.0624
 7031TIP3   OH242507   4.138   5.632   1.642 -0.1080 -0.1780 -0.2482
 7031TIP3    H142508   4.078   5.573   1.687 -0.9060  1.6073  1.1898
 7031TIP3    H242509   4.219   5.627   1.692 -0.1334 -0.1821 -0.2072
 7032TIP3   OH242510   3.876   6.111   0.178  0.5542  0.1583 -0.0186
 7032TIP3    H142511   3.928   6.100   0.257  0.2049  0.2304  0.2238
 7032TIP3    H242512   3.818   6.035   0.177 -0.8137  1.1499  0.8507
 7033TIP3   OH242513   5.536   4.630  14.981  0.3572 -0.3675  0.2466
 7033TIP3    H142514   5.584   4.622  15.064  0.2526 -0.1264  0.3322
 7033TIP3    H242515   5.526   4.724  14.969  2.3800 -0.2776 -1.2003
 7034TIP3   OH242516   0.681   1.112   4.496 -0.4273  0.1986 -0.4027
 7034TIP3    H142517   0.587   1.119   4.507 -0.1560 -0.4154  4.3190
 7034TIP3    H242518   0.705   1.031   4.542  2.5689  1.1706 -0.0124
 7035TIP3   OH242519   0.141   6.796  12.993 -0.3872  0.3148  0.3940
 7035TIP3    H142520   0.172   6.873  12.945  1.4472  0.0555  1.0860
 7035TIP3    H242521   0.099   6.742  12.926 -1.1562  1.6039 -0.2106
 7036TIP3   OH242522   0.052   1.333  12.299  0.1543  0.0512  0.4151
 7036TIP3    H142523   0.096   1.325  12.384 -2.3626 -1.4765  1.7061
 7036TIP3    H242524   0.093   1.266  12.245  1.1328  0.3749  0.7415
 7037TIP3   OH242525   5.739   2.556   0.115 -0.1194  0.5170  0.3310
 7037TIP3    H142526   5.648   2.556   0.143  0.5126 -1.3228  2.7044
 7037TIP3    H242527   5.747   2.632   0.057 -3.0218  0.9552  0.3799
 7038TIP3   OH242528   0.260   0.420  15.415  0.1896  0.6440 -0.5478
 7038TIP3    H142529   0.329   0.354  15.415  0.6762  1.1474  0.0231
 7038TIP3    H242530   0.268   0.464  15.330  1.4137  1.5595  0.0164
 7039TIP3   OH242531   3.503   3.475   2.317  0.0446 -0.1751  0.2539
 7039TIP3    H142532   3.449   3.399   2.339  1.5207 -1.0302  1.0725
 7039TIP3    H242533   3.451   3.550   2.344 -0.7698 -0.9642  0.9231
 7040TIP3   OH242534   3.216   6.709  12.134  0.2845  0.0742 -0.1143
 7040TIP3    H142535   3.258   6.778  12.082  1.8561  0.4371  1.5517
 7040TIP3    H242536   3.127   6.705  12.100  1.6527 -1.0185 -4.1387
 7041TIP3   OH242537   1.517   3.136  12.220 -0.0609 -0.0605  0.1139
 7041TIP3    H142538   1.466   3.058  12.242 -1.5445  1.1542  1.1041
 7041TIP3    H242539   1.457   3.209  12.231  1.8309  1.4293  1.1320
 7042TIP3   OH242540   3.823   1.162   0.180 -0.6207 -0.3683 -0.2746
 7042TIP3    H142541   3.867   1.222   0.239 -1.4433 -0.6625  0.6768
 7042TIP3    H242542   3.890   1.099   0.155  0.1777  0.7466 -1.0557
 7043TIP3   OH242543   2.899   6.604  15.586 -0.1133  0.5945  0.0799
 7043TIP3    H142544   2.957   6.636  15.655  0.5074  0.3985 -0.3368
 7043TIP3    H242545   2.957   6.589  15.512 -0.0860 -2.6886  0.6072
 7044TIP3   OH242546   2.018   1.027   1.567 -0.2808  0.3297 -0.5161
 7044TIP3    H142547   2.073   1.072   1.503  0.7825 -0.8207 -0.4496
 7044TIP3    H242548   2.079   0.973   1.617 -1.3888 -0.4358  0.0437
 7045TIP3   OH242549   4.219   0.937  13.946 -0.5078  0.6534  0.0328
 7045TIP3    H142550   4.262   0.975  14.022 -0.3208 -0.3782  0.4579
 7045TIP3    H242551   4.180   1.012  13.901 -0.9401  1.2421  1.3340
 7046TIP3   OH242552   1.572   2.638   1.215 -0.0890 -0.4629  0.0373
 7046TIP3    H142553   1.582   2.547   1.186 -1.0539  0.4428 -3.5295
 7046TIP3    H242554   1.480   2.659   1.200  0.2731  1.3178  0.0807
 7047TIP3   OH242555   1.175   3.652   4.777 -0.4903 -0.4825 -0.4341
 7047TIP3    H142556   1.171   3.583   4.843  0.0682 -1.1888 -1.1259
 7047TIP3    H242557   1.252   3.631   4.724 -0.8931  0.0930 -1.2802
 7048TIP3   OH242558   0.801   5.081  13.303  0.2154 -0.5048 -0.0987
 7048TIP3    H142559   0.823   5.026  13.378 -3.9300  0.5612  2.2728
 7048TIP3    H242560   0.743   5.027  13.249  0.7074 -0.2704 -0.8812
 7049TIP3   OH242561   5.009   0.549  13.175 -0.1254  0.3100 -0.0069
 7049TIP3    H142562   4.957   0.622  13.209  1.7130  1.6190  0.1277
 7049TIP3    H242563   4.945   0.479  13.162 -1.8772  1.7504  0.3598
 7050TIP3   OH242564   4.292   1.850   1.356 -0.1538 -0.1188  0.4367
 7050TIP3    H142565   4.342   1.841   1.438 -0.3276  0.5586  0.6218
 7050TIP3    H242566   4.217   1.793   1.368  0.7821 -1.4825 -0.0124
 7051TIP3   OH242567   2.344   5.272   3.220 -0.3578  0.2749  0.7093
 7051TIP3    H142568   2.428   5.231   3.203 -0.1032  1.2413 -0.4903
 7051TIP3    H242569   2.279   5.204   3.199  0.0950 -0.2040  0.8479
 7052TIP3   OH242570   0.531   2.633   5.099 -0.1541 -0.0491  0.3970
 7052TIP3    H142571   0.609   2.619   5.153  0.9499  0.8820 -0.8955
 7052TIP3    H242572   0.560   2.614   5.010 -1.7427 -0.8433  0.0156
 7053TIP3   OH242573   1.179   0.362   4.227  0.5989 -0.0555  0.3745
 7053TIP3    H142574   1.180   0.275   4.188 -0.1084 -0.1579  0.5818
 7053TIP3    H242575   1.098   0.402   4.196  0.4118  0.1508  1.1016
 7054TIP3   OH242576   5.855   1.195   1.799  0.7394  0.2885 -0.6337
 7054TIP3    H142577   5.822   1.177   1.887  0.5287 -1.3682 -1.0131
 7054TIP3    H242578   5.801   1.267   1.767 -2.4079 -2.0520 -1.1038
 7055TIP3   OH242579   1.552   2.226   0.975  0.5276 -0.1306 -0.5905
 7055TIP3    H142580   1.617   2.178   1.026  0.3234 -0.1351 -0.3357
 7055TIP3    H242581   1.489   2.258   1.039  1.4706  1.7914 -0.5659
 7056TIP3   OH242582   3.079   0.372  12.030 -0.0159 -0.2808  0.6050
 7056TIP3    H142583   3.002   0.389  12.084 -1.2392 -0.5909 -0.9590
 7056TIP3    H242584   3.076   0.439  11.962  0.5711 -0.8848 -0.0344
 7057TIP3   OH242585   0.121   4.843   9.850 -0.1807  0.1068  0.2874
 7057TIP3    H142586   0.214   4.864   9.848  0.0961 -0.9803 -2.0356
 7057TIP3    H242587   0.079   4.919   9.891  1.5541  1.3514 -0.1695
 7058TIP3   OH242588   0.874   0.709   5.512 -0.1383  0.3283  0.5135
 7058TIP3    H142589   0.788   0.749   5.496 -0.3397 -0.7383 -1.2348
 7058TIP3    H242590   0.861   0.654   5.589 -0.3333  2.0573  1.8062
 7059TIP3   OH242591   4.338   0.155   4.181 -0.4520  0.0374  0.2974
 7059TIP3    H142592   4.320   0.061   4.174 -1.6445  0.3105 -0.7319
 7059TIP3    H242593   4.275   0.195   4.121  0.4790  1.4484  0.2276
 7060TIP3   OH242594   1.410   0.942  12.782  0.1277  0.3729 -0.2233
 7060TIP3    H142595   1.476   0.962  12.848 -1.4045  0.7677  1.2722
 7060TIP3    H242596   1.459   0.906  12.708  2.1792  2.2175  0.1369
 7061TIP3   OH242597   6.306   0.194   2.468  0.2209  0.3020 -0.5845
 7061TIP3    H142598   6.224   0.211   2.421 -0.2026 -0.9560 -0.3587
 7061TIP3    H242599   6.325   0.275   2.514 -0.9859  0.5769 -0.5393
 7062TIP3   OH242600   1.548   6.444   1.660 -1.1122 -0.4286 -0.4950
 7062TIP3    H142601   1.458   6.419   1.639 -1.0573  0.2780 -1.6726
 7062TIP3    H242602   1.587   6.469   1.576  0.2922 -1.0267 -0.0647
 7063TIP3   OH242603   3.573   6.556  13.967  0.2603 -0.2693  0.2532
 7063TIP3    H142604   3.564   6.644  13.929  0.6895 -0.8951 -1.3827
 7063TIP3    H242605   3.486   6.533  13.997 -0.4237 -0.2555 -1.6011
 7064TIP3   OH242606   5.982   3.121  15.709  0.2330 -0.6742 -0.1190
 7064TIP3    H142607   6.069   3.113  15.668  0.7446  1.3172  0.4974
 7064TIP3    H242608   5.992   3.077  15.794  1.3243  1.3514  0.8669
 7065TIP3   OH242609   2.743   2.851  13.290  0.1454 -0.7012 -0.0294
 7065TIP3    H142610   2.727   2.826  13.381 -0.1035 -2.4626 -0.5288
 7065TIP3    H242611   2.682   2.798  13.239 -1.1647  1.6905 -1.1467
 7066TIP3   OH242612   0.372   4.973  11.159 -0.1038 -0.0884 -0.1116
 7066TIP3    H142613   0.374   4.890  11.207  0.7745  0.9900  1.8624
 7066TIP3    H242614   0.304   5.024  11.203  0.0996  0.6099 -0.6052
 7067TIP3   OH242615   3.792   3.157  12.079 -0.5491  0.1484 -0.4333
 7067TIP3    H142616   3.776   3.065  12.100 -1.7091 -0.1350 -2.3308
 7067TIP3    H242617   3.770   3.204  12.159 -1.0811 -1.1273  0.1946
 7068TIP3   OH242618   1.904   0.444  12.865 -0.4115 -0.0698  0.5160
 7068TIP3    H142619   1.890   0.430  12.772  1.2111 -1.4031  0.4199
 7068TIP3    H242620   1.836   0.392  12.908 -0.9044  0.2175  0.0924
 7069TIP3   OH242621   2.266   6.054  14.024  0.9345 -0.1495  0.0572
 7069TIP3    H142622   2.273   6.030  14.116  1.7202 -0.2797 -0.0326
 7069TIP3    H242623   2.328   5.997  13.979  1.3675  0.6729 -0.4111
 7070TIP3   OH242624   0.871   0.652   6.196 -0.5382 -0.3830 -0.0710
 7070TIP3    H142625   0.908   0.681   6.279  1.2119 -0.4476 -0.7880
 7070TIP3    H242626   0.783   0.690   6.194 -0.4905 -0.0927  1.6274
 7071TIP3   OH242627   6.725   2.159   0.998 -0.0001  0.1899  0.0806
 7071TIP3    H142628   6.632   2.138   1.005  0.0911  0.0620  1.0156
 7071TIP3    H242629   6.747   2.138   0.907 -0.6924 -0.5757  0.0744
 7072TIP3   OH242630   4.850   1.579   2.739 -0.1829  0.1808  0.2620
 7072TIP3    H142631   4.930   1.541   2.777  0.8551  2.1025  0.1200
 7072TIP3    H242632   4.829   1.521   2.665  1.0516 -0.3849  0.3289
 7073TIP3   OH242633   6.708   4.520   5.935  0.6385 -0.6907 -0.3091
 7073TIP3    H142634   6.737   4.432   5.915 -2.5703 -2.0716  0.4736
 7073TIP3    H242635   6.773   4.554   5.997  1.7825 -2.5757 -0.4133
 7074TIP3   OH242636   1.543   6.669   5.800 -0.1066  0.3060 -0.5941
 7074TIP3    H142637   1.487   6.701   5.870 -1.0350  0.3645 -1.3399
 7074TIP3    H242638   1.624   6.642   5.843 -0.2275  1.4087  0.3341
 7075TIP3   OH242639   2.199   0.918  13.039  0.1436  0.2313 -0.2598
 7075TIP3    H142640   2.128   0.981  13.030 -0.8324 -0.9622 -1.3585
 7075TIP3    H242641   2.224   0.896  12.949 -0.2151 -1.6228  0.0509
 7076TIP3   OH242642   2.712   4.893  16.188  0.0958  0.6578 -0.3436
 7076TIP3    H142643   2.641   4.948  16.220 -0.5638  0.2838 -1.1389
 7076TIP3    H242644   2.788   4.951  16.184 -0.8267  1.8246 -2.2240
 7077TIP3   OH242645   1.340   2.739  14.376 -0.3272 -0.3082  0.1074
 7077TIP3    H142646   1.300   2.812  14.328 -0.5097 -0.0544  0.6415
 7077TIP3    H242647   1.306   2.747  14.465 -1.0043 -1.5227 -0.0144
 7078TIP3   OH242648   3.674   1.872   2.758  0.3574 -0.1563 -0.4499
 7078TIP3    H142649   3.644   1.789   2.722 -0.0045  0.4917 -1.6797
 7078TIP3    H242650   3.676   1.932   2.684  0.3367  1.0180  0.4585
 7079TIP3   OH242651   4.187   5.420  14.211  0.2785 -0.0491  0.1249
 7079TIP3    H142652   4.173   5.366  14.134 -0.6747 -1.0375  0.9441
 7079TIP3    H242653   4.178   5.510  14.180 -1.9884 -0.4639 -0.6167
 7080TIP3   OH242654   0.257   3.725  10.757 -0.0096  0.9806  0.1450
 7080TIP3    H142655   0.164   3.712  10.738  0.3671 -0.2812 -0.9748
 7080TIP3    H242656   0.274   3.817  10.737 -1.4096  1.7494  2.1922
 7081TIP3   OH242657   0.837   5.755  10.915  0.6261 -0.2016 -0.2343
 7081TIP3    H142658   0.839   5.659  10.922 -1.1204 -0.2652 -0.2169
 7081TIP3    H242659   0.772   5.782  10.980 -0.4828  0.8179 -1.7125
 7082TIP3   OH242660   6.324   4.847   2.331  0.1612  0.6684  0.0708
 7082TIP3    H142661   6.397   4.908   2.326  2.6513 -2.1149 -0.1022
 7082TIP3    H242662   6.273   4.876   2.407  1.4853  2.6357  0.2696
 7083TIP3   OH242663   6.181   6.266   2.384 -0.5201 -0.0379  0.2504
 7083TIP3    H142664   6.229   6.309   2.455  1.0945  0.9355 -1.3685
 7083TIP3    H242665   6.146   6.339   2.332 -0.5529 -0.7125 -0.6878
 7084TIP3   OH242666   5.134   5.248  11.885 -0.3256  0.5955 -0.2974
 7084TIP3    H142667   5.153   5.319  11.824  1.4454 -1.9133 -2.9481
 7084TIP3    H242668   5.191   5.265  11.960  1.4299  1.0745 -1.6687
 7085TIP3   OH242669   3.212   1.431  12.918 -0.1358 -0.1996 -0.0378
 7085TIP3    H142670   3.256   1.453  12.835  2.0183  0.4228  1.1887
 7085TIP3    H242671   3.187   1.339  12.908  0.7971 -0.3642 -1.1165
 7086TIP3   OH242672   6.164   0.812   5.651 -0.3287 -0.0288 -0.6183
 7086TIP3    H142673   6.221   0.738   5.671  1.7362  1.8248  0.7733
 7086TIP3    H242674   6.097   0.810   5.720 -0.7494 -0.9990 -1.0341
 7087TIP3   OH242675   3.880   2.145   0.343  0.2945 -0.7628 -0.6354
 7087TIP3    H142676   3.956   2.195   0.372  0.8248 -0.3353 -2.6423
 7087TIP3    H242677   3.807   2.179   0.396  1.5766 -1.8455  2.0043
 7088TIP3   OH242678   4.027   3.332  12.048  0.4785 -0.2798 -0.0355
 7088TIP3    H142679   3.937   3.306  12.031  0.5992 -0.9657  0.3781
 7088TIP3    H242680   4.073   3.251  12.069  1.6734 -0.2693 -2.2306
 7089TIP3   OH242681   4.515   0.029  16.958 -0.3396  0.6925  0.5711
 7089TIP3    H142682   4.603   0.019  16.922 -0.4921 -2.2593  0.8384
 7089TIP3    H242683   4.469   0.085  16.895  2.1830  4.0964  1.4443
 7090TIP3   OH242684   1.310   4.579  10.962 -0.1742 -0.1815 -0.1511
 7090TIP3    H142685   1.372   4.532  11.018 -0.3015 -1.5632 -1.1110
 7090TIP3    H242686   1.364   4.618  10.894 -0.0502  1.2618  0.7436
 7091TIP3   OH242687   4.171   5.032   2.755  0.7467  0.4920 -0.2550
 7091TIP3    H142688   4.242   4.968   2.745  2.3033  2.2408 -1.0426
 7091TIP3    H242689   4.191   5.076   2.838  0.0926  0.4662 -0.0776
 7092TIP3   OH242690   3.147   2.819   2.426 -0.2691  0.2656 -0.4506
 7092TIP3    H142691   3.224   2.820   2.483 -0.5495  1.1077 -0.0740
 7092TIP3    H242692   3.171   2.760   2.355 -0.1115 -1.2355  0.7941
 7093TIP3   OH242693   2.907   3.478   0.354  0.3630  0.6219 -0.1170
 7093TIP3    H142694   2.851   3.411   0.316  1.4862 -0.8842  0.7946
 7093TIP3    H242695   2.959   3.432   0.421  1.9096  2.1635 -0.1748
 7094TIP3   OH242696   4.475   0.044   4.794  0.2702 -0.2268 -0.3270
 7094TIP3    H142697   4.412  -0.001   4.850 -0.7647 -0.1016 -1.3506
 7094TIP3    H242698   4.559   0.004   4.815 -0.3712 -1.4452 -0.0097
 7095TIP3   OH242699   1.687   2.474   4.581 -0.0552  0.9112  0.6918
 7095TIP3    H142700   1.696   2.380   4.565 -0.6084  0.5134  2.5452
 7095TIP3    H242701   1.743   2.492   4.657  1.3868  2.4512 -0.6144
 7096TIP3   OH242702   0.755   4.269   0.360  0.0217  0.2276  0.3106
 7096TIP3    H142703   0.834   4.318   0.336 -0.3945  0.5799 -0.3692
 7096TIP3    H242704   0.787   4.183   0.386  0.6306  0.3615  0.0124
 7097TIP3   OH242705   6.780   3.329   4.632  0.3574 -0.2699 -0.4889
 7097TIP3    H142706   6.728   3.281   4.696  2.9487 -1.1685  1.0852
 7097TIP3    H242707   6.753   3.420   4.643 -1.4745 -0.7807 -0.4009
 7098TIP3   OH242708   1.189   6.102  12.799 -0.3432 -0.4021 -0.1563
 7098TIP3    H142709   1.282   6.081  12.789 -0.4849 -0.4278 -1.5945
 7098TIP3    H242710   1.144   6.024  12.768 -0.8625 -0.5647  0.9640
 7099TIP3   OH242711   0.754   6.328   4.649 -0.0220  0.5356 -0.0856
 7099TIP3    H142712   0.805   6.405   4.624  0.0348  1.1234  1.6697
 7099TIP3    H242713   0.745   6.336   4.744 -2.6325 -0.0234 -0.2188
 7100TIP3   OH242714   1.455   0.581  16.468 -0.0100 -0.3691  0.0271
 7100TIP3    H142715   1.429   0.579  16.376  1.8178  1.7875 -0.6156
 7100TIP3    H242716   1.395   0.520  16.511 -1.6617 -0.5785 -2.3790
 7101TIP3   OH242717   5.199   5.234  13.502  0.0473 -0.0689 -0.3582
 7101TIP3    H142718   5.241   5.227  13.588 -0.0742  1.0265 -0.1881
 7101TIP3    H242719   5.205   5.146  13.465  2.3816 -0.0016 -0.3037
 7102TIP3   OH242720   4.515   1.803  12.181 -0.0329  0.1279  0.0402
 7102TIP3    H142721   4.483   1.852  12.257  0.7192  0.1731  0.3352
 7102TIP3    H242722   4.605   1.779  12.204 -0.3850 -1.4390 -0.0702
 7103TIP3   OH242723   5.262   3.669   6.374 -0.2953  0.0035  0.5910
 7103TIP3    H142724   5.241   3.595   6.317  3.3629  0.1221 -1.2471
 7103TIP3    H242725   5.320   3.631   6.441 -0.0507  0.8359  0.8671
 7104TIP3   OH242726   5.614   4.152   1.633  0.4741 -0.1091 -0.0163
 7104TIP3    H142727   5.529   4.144   1.675  0.7569  0.9273  0.7728
 7104TIP3    H242728   5.595   4.185   1.545  0.0341 -0.3254 -0.0017
 7105TIP3   OH242729   5.938   4.612   3.524 -0.0275 -0.4255 -0.0079
 7105TIP3    H142730   5.936   4.623   3.429  0.2906  0.0951  0.0413
 7105TIP3    H242731   5.994   4.683   3.555  2.3750 -2.3366  0.3335
 7106TIP3   OH242732   0.769   6.456   3.733  0.0727  0.5019  0.0891
 7106TIP3    H142733   0.797   6.371   3.699 -1.1468  0.4352 -0.7971
 7106TIP3    H242734   0.802   6.519   3.670 -2.2606  0.3723 -1.3930
 7107TIP3   OH242735   4.087   6.126   4.587 -0.3982  0.9183 -0.1186
 7107TIP3    H142736   4.001   6.142   4.549 -0.5474 -0.9894 -0.6730
 7107TIP3    H242737   4.069   6.092   4.674 -0.2387  0.0733 -0.4079
 7108TIP3   OH242738   6.043   4.855  16.607  0.5832  0.4018  0.5257
 7108TIP3    H142739   6.026   4.771  16.650  0.3652  0.1808  0.0172
 7108TIP3    H242740   6.109   4.836  16.541 -0.5957  0.2844 -0.6659
 7109TIP3   OH242741   6.211   1.693  13.902 -0.2922  0.4544 -0.1847
 7109TIP3    H142742   6.124   1.732  13.901 -0.8656 -0.7423 -1.3428
 7109TIP3    H242743   6.197   1.603  13.872  1.3921  0.3723 -0.8625
 7110TIP3   OH242744   5.901   6.144   0.149  0.2514  0.3793  0.2169
 7110TIP3    H142745   5.814   6.140   0.110  1.1623 -0.8185 -1.9076
 7110TIP3    H242746   5.943   6.220   0.109  1.7608 -1.7772 -2.7040
 7111TIP3   OH242747   4.455   1.497  13.823 -0.0207 -0.2018 -0.0986
 7111TIP3    H142748   4.410   1.524  13.743  4.2353  2.1472 -2.1205
 7111TIP3    H242749   4.486   1.409  13.805  0.8696  0.2938 -1.1411
 7112TIP3   OH242750   0.573   0.833   0.227 -0.3261 -0.4563  0.0073
 7112TIP3    H142751   0.600   0.766   0.164 -0.7552 -1.9556  1.3533
 7112TIP3    H242752   0.488   0.863   0.196  0.1517 -0.0663 -0.9505
 7113TIP3   OH242753   3.709   5.168  17.141 -0.3574  0.2334 -0.0426
 7113TIP3    H142754   3.713   5.208  17.228  0.1666  0.0758  0.0064
 7113TIP3    H242755   3.624   5.123  17.140  0.2826 -1.0771  0.9756
 7114TIP3   OH242756   1.651   2.335  14.938  0.0068  0.3928 -0.7571
 7114TIP3    H142757   1.696   2.269  14.885  0.5311  0.2671 -0.1675
 7114TIP3    H242758   1.559   2.328  14.912  0.2811  0.4668 -1.7796
 7115TIP3   OH242759   4.813   0.183   6.501 -0.6345  0.1183  0.7567
 7115TIP3    H142760   4.730   0.168   6.546 -1.5261  0.7837 -0.5905
 7115TIP3    H242761   4.788   0.224   6.418  0.9436 -0.7664 -0.2131
 7116TIP3   OH242762   2.966   3.991   2.964 -0.7547  0.4861  0.3498
 7116TIP3    H142763   3.059   3.979   2.944 -1.1469 -0.1877 -1.1990
 7116TIP3    H242764   2.954   4.085   2.964 -0.0686  0.5812  0.5329
 7117TIP3   OH242765   5.034   4.789  16.298  0.4482  0.3656  0.0350
 7117TIP3    H142766   5.056   4.748  16.382  0.1219 -0.4623 -0.2683
 7117TIP3    H242767   5.052   4.721  16.233  1.0776  1.1310 -0.6061
 7118TIP3   OH242768   6.538   3.062   6.657 -0.0863  0.5456  0.2126
 7118TIP3    H142769   6.553   2.975   6.694 -0.2706  0.9066  1.1595
 7118TIP3    H242770   6.450   3.086   6.687 -0.8023  0.3155 -1.5589
 7119TIP3   OH242771   4.928   1.632   4.445 -0.2728  0.2712  0.3618
 7119TIP3    H142772   4.861   1.626   4.378 -0.8412  1.0896  0.8306
 7119TIP3    H242773   4.881   1.661   4.523  0.1526 -1.8335  1.4688
 7120TIP3   OH242774   0.551   5.417   3.410 -0.0728 -0.3631 -0.2418
 7120TIP3    H142775   0.531   5.329   3.441  0.2687  0.0737  1.3112
 7120TIP3    H242776   0.469   5.465   3.418 -0.4469 -0.6856 -1.7638
 7121TIP3   OH242777   4.726   1.810   2.113  0.0693  0.5457 -0.0303
 7121TIP3    H142778   4.698   1.772   2.030  1.7661  0.1395 -0.4461
 7121TIP3    H242779   4.702   1.744   2.178 -0.3865  0.4419 -0.2944
 7122TIP3   OH242780   2.892   4.713   5.247 -0.1220 -0.0866  0.1285
 7122TIP3    H142781   2.821   4.676   5.299  0.4779 -0.0980  0.9721
 7122TIP3    H242782   2.966   4.716   5.308  0.6418 -0.2270 -0.7762
 7123TIP3   OH242783   0.186   0.944   2.031  0.1474  0.5264  0.2406
 7123TIP3    H142784   0.233   1.015   1.986  1.1065  0.3561  0.9419
 7123TIP3    H242785   0.153   0.983   2.111 -1.6874  0.8632 -0.6238
 7124TIP3   OH242786   1.239   6.096  15.931 -0.2170 -0.7932  0.5564
 7124TIP3    H142787   1.293   6.145  15.869 -0.8485  0.2471  0.8048
 7124TIP3    H242788   1.220   6.013  15.886  0.8695 -0.8258  0.1276
 7125TIP3   OH242789   0.048   4.622   6.593  0.4177  0.3564  0.0487
 7125TIP3    H142790   0.115   4.638   6.660  3.5016  0.6005 -2.8274
 7125TIP3    H242791   0.060   4.530   6.569 -0.3197  0.4058 -0.5370
 7126TIP3   OH242792   3.486   6.541   4.435 -0.0255 -0.5797  0.1184
 7126TIP3    H142793   3.448   6.454   4.452 -1.5738 -0.2108 -1.2637
 7126TIP3    H242794   3.502   6.542   4.341 -1.5547  1.1996 -0.1621
 7127TIP3   OH242795   1.941   2.175  14.361  0.0692 -0.1322  0.5374
 7127TIP3    H142796   2.002   2.230  14.412  1.1301  0.1949 -1.0328
 7127TIP3    H242797   1.871   2.235  14.336  1.2543  0.5796 -1.2220
 7128TIP3   OH242798   4.166   5.203  11.982  0.4492  0.4778 -0.2441
 7128TIP3    H142799   4.151   5.171  12.071  0.5334  0.0969 -0.3657
 7128TIP3    H242800   4.119   5.287  11.979 -2.2116 -0.9370 -0.7918
 7129TIP3   OH242801   5.931   0.931   2.903 -0.5577  0.4546  0.4694
 7129TIP3    H142802   5.879   0.994   2.853 -1.0674 -0.3337 -0.0215
 7129TIP3    H242803   5.959   0.866   2.838  0.7671  0.6910  0.7930
 7130TIP3   OH242804   3.197   2.893   5.843 -0.8081 -0.1341 -0.3065
 7130TIP3    H142805   3.131   2.941   5.893 -0.1267 -0.5716  1.0466
 7130TIP3    H242806   3.280   2.917   5.882  0.1139  1.9086 -3.2141
 7131TIP3   OH242807   5.789   1.000  11.541 -0.5135  0.0283 -0.7538
 7131TIP3    H142808   5.833   1.026  11.460 -0.3191 -0.4224 -0.7933
 7131TIP3    H242809   5.790   0.905  11.540  2.8424 -0.1133  1.5639
 7132TIP3   OH242810   5.184   5.612   0.329 -0.3255  0.1589  0.0936
 7132TIP3    H142811   5.094   5.644   0.343 -0.5052 -0.4212  0.2874
 7132TIP3    H242812   5.200   5.629   0.236 -1.3316 -1.3997 -0.4092
 7133TIP3   OH242813   2.242   1.916  16.577  0.2857  0.2239  0.2412
 7133TIP3    H142814   2.149   1.902  16.558  0.3887 -0.1810  0.0260
 7133TIP3    H242815   2.271   1.835  16.618  1.1422 -0.6976 -1.9846
 7134TIP3   OH242816   1.880   1.588  11.605  0.3487 -0.0275 -0.0801
 7134TIP3    H142817   1.946   1.529  11.643 -0.6442 -2.3288 -1.6862
 7134TIP3    H242818   1.884   1.570  11.511 -0.9805  1.4872 -0.4600
 7135TIP3   OH242819   5.999   5.031  11.419 -0.2288 -0.2178  0.0314
 7135TIP3    H142820   5.906   5.009  11.409 -0.3930  0.9835 -1.5660
 7135TIP3    H242821   6.003   5.125  11.403  1.0482  0.1247  2.0241
 7136TIP3   OH242822   0.113   0.632   5.207  0.3787  0.7974 -0.1757
 7136TIP3    H142823   0.092   0.652   5.116 -0.2325  0.5892 -0.0821
 7136TIP3    H242824   0.134   0.539   5.208  0.4906  0.8223 -0.1210
 7137TIP3   OH242825   6.737   2.741  11.389  0.2315  0.3194 -0.1799
 7137TIP3    H142826   6.691   2.778  11.465  0.2199 -0.7266  0.3463
 7137TIP3    H242827   6.745   2.648  11.410  2.0609  0.3743 -0.5427
 7138TIP3   OH242828   3.939   3.013  15.661 -0.6483  0.1171  0.5889
 7138TIP3    H142829   4.024   3.031  15.701  0.0290  2.0756 -1.4911
 7138TIP3    H242830   3.960   2.957  15.586 -0.9207  1.6440 -0.6958
 7139TIP3   OH242831   3.023   6.058   3.878  0.4036 -0.3084  0.5928
 7139TIP3    H142832   3.013   5.995   3.806 -0.1277  0.0490  0.3488
 7139TIP3    H242833   3.088   6.017   3.936  0.8349 -0.6045 -0.0801
 7140TIP3   OH242834   2.314   3.090   5.209 -0.2542  0.8501  0.3930
 7140TIP3    H142835   2.404   3.095   5.176 -0.8650  0.6336 -1.4503
 7140TIP3    H242836   2.260   3.122   5.136 -1.6371  1.7423  1.7422
 7141TIP3   OH242837   1.893   2.070  12.901  0.9795  0.5818 -0.1871
 7141TIP3    H142838   1.967   2.064  12.840  1.3132 -1.5581  0.3255
 7141TIP3    H242839   1.933   2.094  12.984  0.9050  0.8223 -0.2215
 7142TIP3   OH242840   0.106   1.568  10.992  0.4510  0.5637  0.4363
 7142TIP3    H142841   0.066   1.576  10.906 -0.7067 -0.3832  0.8479
 7142TIP3    H242842   0.200   1.577  10.977  0.4402 -1.3078 -1.1866
 7143TIP3   OH242843   3.183   3.925   3.929  0.5279  0.0946  0.1944
 7143TIP3    H142844   3.240   3.992   3.968 -0.4956  0.0862  1.8116
 7143TIP3    H242845   3.119   3.906   3.997 -0.5873 -0.8959 -1.0790
 7144TIP3   OH242846   4.603   0.902   2.407 -0.3940 -0.3540 -0.4177
 7144TIP3    H142847   4.597   0.923   2.314  0.5455  0.1714 -0.3715
 7144TIP3    H242848   4.629   0.810   2.410 -2.4553 -0.9969 -0.6388
 7145TIP3   OH242849   2.171   3.839   1.465 -0.6784  0.1337  0.9789
 7145TIP3    H142850   2.099   3.889   1.501  0.2191  0.9894  1.6315
 7145TIP3    H242851   2.171   3.860   1.371  0.0001  1.7848  1.3255
 7146TIP3   OH242852   5.331   4.152   2.419  0.1235 -0.5302  0.3786
 7146TIP3    H142853   5.310   4.120   2.507  0.8803 -0.9892  0.3976
 7146TIP3    H242854   5.375   4.079   2.377 -0.8025 -0.5351 -0.6167
 7147TIP3   OH242855   3.447   2.628  15.398  0.1662 -0.0450 -0.1702
 7147TIP3    H142856   3.386   2.601  15.329 -0.2366  1.9079 -0.6190
 7147TIP3    H242857   3.459   2.722  15.385 -1.1351  0.7724  3.3403
 7148TIP3   OH242858   5.189   5.008  13.368 -0.2883 -0.3797  0.0513
 7148TIP3    H142859   5.211   4.990  13.277 -1.4041 -0.5002 -0.2174
 7148TIP3    H242860   5.119   4.946  13.388 -0.1967 -0.2197  0.9332
 7149TIP3   OH242861   6.788   6.390   0.865  0.7704  0.0744  0.7457
 7149TIP3    H142862   6.870   6.340   0.863  1.5754  1.2906  1.5081
 7149TIP3    H242863   6.789   6.432   0.951 -0.4937  0.3964  0.6116
 7150TIP3   OH242864   0.460   4.833  14.321 -0.3188 -0.3579  0.2075
 7150TIP3    H142865   0.376   4.800  14.354  0.3306 -1.1238  1.1637
 7150TIP3    H242866   0.519   4.758  14.329  0.6869  0.4554  0.4413
 7151TIP3   OH242867   0.496   4.091   2.871 -0.3583  0.1727 -0.4432
 7151TIP3    H142868   0.443   4.168   2.893  0.7394  2.1893 -3.9935
 7151TIP3    H242869   0.484   4.081   2.776  1.7027 -2.3917 -0.5346
 7152TIP3   OH242870   0.784   1.234   4.808  0.0641  0.2488 -0.4244
 7152TIP3    H142871   0.704   1.287   4.812  0.7038  1.1691  0.5715
 7152TIP3    H242872   0.855   1.297   4.820  1.0198 -0.4270 -2.1531
 7153TIP3   OH242873   3.973   2.420  16.609 -0.0356 -0.0961 -0.0074
 7153TIP3    H142874   3.901   2.417  16.671  0.9505 -0.4486  1.1637
 7153TIP3    H242875   3.980   2.512  16.584 -1.2179 -0.1426 -0.5601
 7154TIP3   OH242876   2.631   3.131   5.968 -0.2416  0.2871 -0.1923
 7154TIP3    H142877   2.716   3.090   5.982 -0.7776 -0.0444  2.6420
 7154TIP3    H242878   2.569   3.059   5.970 -0.9866  0.8948  2.7119
 7155TIP3   OH242879   0.814   5.851   0.934 -0.0390 -0.7798 -0.4315
 7155TIP3    H142880   0.854   5.785   0.877  0.8371 -0.5079 -0.1484
 7155TIP3    H242881   0.882   5.918   0.945  0.0174 -1.0589  1.3116
 7156TIP3   OH242882   1.699   3.875   0.273 -0.5272  0.4051  0.0925
 7156TIP3    H142883   1.660   3.799   0.315 -0.8402 -0.3725 -1.5301
 7156TIP3    H242884   1.645   3.949   0.300  1.3914  0.6210  3.9803
 7157TIP3   OH242885   1.553   4.791  15.451  0.0627  0.4100  0.2946
 7157TIP3    H142886   1.477   4.832  15.493  0.0730 -0.6129  1.3672
 7157TIP3    H242887   1.627   4.814  15.507  0.1771 -0.4271  0.5078
 7158TIP3   OH242888   0.360   0.694  14.759 -0.2668  0.1797  0.7713
 7158TIP3    H142889   0.284   0.666  14.809 -0.0449 -1.6846  0.1437
 7158TIP3    H242890   0.434   0.679  14.818 -0.0300 -1.7885  0.0415
 7159TIP3   OH242891   4.922   4.316  17.173 -0.4950  0.2149 -0.3256
 7159TIP3    H142892   4.843   4.305  17.119  0.1773 -0.6781 -1.1797
 7159TIP3    H242893   4.970   4.233  17.161  0.1606  0.4059  0.8574
 7160TIP3   OH242894   2.333   4.475  16.304 -0.3514 -0.1392  0.3517
 7160TIP3    H142895   2.337   4.549  16.244  1.9256  0.1442  0.7604
 7160TIP3    H242896   2.370   4.509  16.386 -0.3657 -1.4165  0.9114
 7161TIP3   OH242897   1.505   5.367   3.860  0.1382  0.4283  0.7236
 7161TIP3    H142898   1.511   5.453   3.817  2.3543  0.7157  1.4843
 7161TIP3    H242899   1.494   5.388   3.953 -0.0066 -0.1167  0.8277
 7162TIP3   OH242900   4.250   1.445   5.591  0.2260  0.5035 -0.1603
 7162TIP3    H142901   4.259   1.518   5.530 -1.3629  0.3361 -0.6146
 7162TIP3    H242902   4.276   1.481   5.676  0.2999  1.3413 -0.5345
 7163TIP3   OH242903   5.272   0.118   1.404 -0.4436  0.6244 -0.1437
 7163TIP3    H142904   5.332   0.070   1.460 -0.5039  0.4176 -0.2555
 7163TIP3    H242905   5.257   0.201   1.450 -0.3824  0.5136  0.0748
 7164TIP3   OH242906   4.658   3.878   4.530  0.1742  0.4559  0.0215
 7164TIP3    H142907   4.701   3.810   4.478  0.5703  0.5717  0.1931
 7164TIP3    H242908   4.690   3.863   4.619  1.2069  1.6002 -0.1294
 7165TIP3   OH242909   3.399   0.970   0.792  0.4972  0.5661 -0.0895
 7165TIP3    H142910   3.381   0.927   0.875  0.2051  2.2945  0.7816
 7165TIP3    H242911   3.495   0.972   0.786  0.5161  0.3119  0.1219
 7166TIP3   OH242912   1.600   0.077  13.273  0.0367 -0.4667 -0.0034
 7166TIP3    H142913   1.602   0.101  13.181  1.9454  0.2032  0.1721
 7166TIP3    H242914   1.569  -0.014  13.273 -0.1446 -0.4276 -1.2834
 7167TIP3   OH242915   6.114   6.759   5.906 -0.0033  0.4971 -0.0385
 7167TIP3    H142916   6.108   6.852   5.885 -2.1088  0.7450  1.3431
 7167TIP3    H242917   6.068   6.715   5.834 -1.6134  0.8050  0.7710
 7168TIP3   OH242918   2.474   2.347  16.722  0.0540 -0.3758 -0.6019
 7168TIP3    H142919   2.477   2.253  16.736 -0.7191 -0.4700 -0.9995
 7168TIP3    H242920   2.382   2.365  16.702  0.3061  0.3717 -1.1380
 7169TIP3   OH242921   2.499   3.754   0.412  0.5746 -0.5832 -0.2336
 7169TIP3    H142922   2.461   3.754   0.500  0.3477 -1.4690 -0.3245
 7169TIP3    H242923   2.525   3.663   0.397  0.3428 -0.4998 -1.2029
 7170TIP3   OH242924   1.194   2.131   5.474 -0.0989  0.4391  0.4501
 7170TIP3    H142925   1.130   2.140   5.403 -0.7738 -2.3276  0.5824
 7170TIP3    H242926   1.279   2.128   5.430 -0.3590  0.6847 -0.0742
 7171TIP3   OH242927   5.135   4.404  10.969 -0.6356 -0.3435 -0.2368
 7171TIP3    H142928   5.135   4.468  11.041 -3.3811 -0.7045  0.2027
 7171TIP3    H242929   5.130   4.319  11.012 -0.0657 -0.6895 -0.8425
 7172TIP3   OH242930   2.223   0.184   3.236 -0.2970  0.0634 -0.2462
 7172TIP3    H142931   2.292   0.187   3.170 -0.2490  2.2758 -0.1690
 7172TIP3    H242932   2.176   0.102   3.219  1.1527 -0.5580 -1.4947
 7173TIP3   OH242933   2.716   0.224  13.163 -0.5717  0.8250  0.0741
 7173TIP3    H142934   2.805   0.259  13.161 -0.1755 -0.1645 -1.2637
 7173TIP3    H242935   2.666   0.282  13.106 -0.1590 -0.0592 -1.2617
 7174TIP3   OH242936   5.924   2.932  14.225 -0.7459  0.0401 -0.3308
 7174TIP3    H142937   5.941   2.882  14.145  2.5667  0.7681 -0.2207
 7174TIP3    H242938   5.934   2.868  14.295  3.1513  0.5599 -0.2120
 7175TIP3   OH242939   1.686   6.092   0.847 -0.4484  0.1687 -0.0263
 7175TIP3    H142940   1.761   6.149   0.830  0.0977 -0.0181  1.5362
 7175TIP3    H242941   1.611   6.152   0.849 -0.0816  0.6314  0.1763
 7176TIP3   OH242942   3.483   0.926  16.272 -0.0074 -0.2102 -0.3861
 7176TIP3    H142943   3.460   0.837  16.299 -1.9240  0.7510  1.4861
 7176TIP3    H242944   3.402   0.961  16.236  0.5142  1.0202 -0.3850
 7177TIP3   OH242945   4.731   5.589   4.543 -0.5083  0.2430 -0.3762
 7177TIP3    H142946   4.794   5.530   4.501  1.9487  1.8507  0.7834
 7177TIP3    H242947   4.690   5.536   4.611  0.5628 -0.5616 -0.3284
 7178TIP3   OH242948   5.745   1.074   2.734 -0.2180 -0.4487 -0.1778
 7178TIP3    H142949   5.731   1.044   2.645 -2.2464  0.5862 -0.2409
 7178TIP3    H242950   5.670   1.041   2.783 -0.1603  0.6890  0.7173
 7179TIP3   OH242951   3.919   0.225  17.065  0.2788  0.2033  0.1311
 7179TIP3    H142952   3.953   0.267  17.144 -0.2953  2.3798 -0.6918
 7179TIP3    H242953   3.929   0.291  16.996 -0.8833 -0.9573 -1.2277
 7180TIP3   OH242954   1.487   0.350  13.711  0.0815  0.4490 -0.0591
 7180TIP3    H142955   1.555   0.391  13.657  0.5917  0.1569  0.3533
 7180TIP3    H242956   1.535   0.301  13.778 -0.4625 -1.5478 -1.0411
 7181TIP3   OH242957   0.263   5.734   4.377 -0.1141 -0.0193 -0.1848
 7181TIP3    H142958   0.274   5.828   4.366 -0.5934  0.2889  1.6115
 7181TIP3    H242959   0.169   5.719   4.370 -0.2299 -0.0817  1.1883
 7182TIP3   OH242960   1.812   6.754  13.907  0.3300  0.2670  0.0056
 7182TIP3    H142961   1.736   6.738  13.850  0.6010 -2.9101  0.3725
 7182TIP3    H242962   1.887   6.750  13.848  0.4142  0.7163  0.0731
 7183TIP3   OH242963   1.635   0.585  15.516 -0.2229 -0.0910 -0.1033
 7183TIP3    H142964   1.576   0.614  15.446 -0.4711 -2.3771 -0.9421
 7183TIP3    H242965   1.688   0.516  15.476  2.1657  0.9698  1.0024
 7184TIP3   OH242966   1.073   0.721   2.809 -0.2404 -0.4112  0.5808
 7184TIP3    H142967   1.127   0.664   2.755  0.8881  0.5820  0.6222
 7184TIP3    H242968   1.112   0.714   2.897  0.2283  0.7705  0.4876
 7185TIP3   OH242969   0.513   3.671   3.256  0.0327  0.0527 -0.4778
 7185TIP3    H142970   0.565   3.699   3.331  1.4835 -1.8414 -0.7194
 7185TIP3    H242971   0.561   3.702   3.180 -0.1472 -0.1598 -0.6796
 7186TIP3   OH242972   6.672   1.980   1.853 -0.1926 -0.7269 -0.5659
 7186TIP3    H142973   6.653   1.917   1.923  1.2142  0.3821  0.8736
 7186TIP3    H242974   6.597   2.040   1.855 -0.0647 -0.5769  0.1546
 7187TIP3   OH242975   3.932   2.817  11.047 -0.0694  0.0949  1.0594
 7187TIP3    H142976   3.892   2.802  11.133 -2.0118 -0.5792  0.1024
 7187TIP3    H242977   3.988   2.741  11.033  1.2797  0.8142  2.2125
 7188TIP3   OH242978   5.956   5.358   0.992 -0.0160 -0.6162  0.7670
 7188TIP3    H142979   5.961   5.426   0.925 -0.8436 -0.6126  0.7010
 7188TIP3    H242980   5.863   5.352   1.013  0.1694 -1.0477  1.4764
 7189TIP3   OH242981   5.019   1.494   1.587  0.0105  0.0190  0.1795
 7189TIP3    H142982   5.061   1.421   1.633  0.5457 -0.2368 -0.7091
 7189TIP3    H242983   5.073   1.570   1.609  0.2835 -0.1081 -0.0479
 7190TIP3   OH242984   2.215   5.678  13.944 -0.3365 -0.4982 -0.5306
 7190TIP3    H142985   2.165   5.728  13.879 -1.6146 -0.4763  0.4225
 7190TIP3    H242986   2.260   5.611  13.892  0.1203  0.6294 -1.6341
 7191TIP3   OH242987   4.148   6.752   1.769 -0.0325  0.4988 -0.3022
 7191TIP3    H142988   4.066   6.743   1.721 -0.4131  0.5436  0.3414
 7191TIP3    H242989   4.142   6.837   1.812  0.5520  0.7137 -0.6320
 7192TIP3   OH242990   6.195   1.452  13.327 -0.1231  0.0459  0.6130
 7192TIP3    H142991   6.248   1.493  13.259  0.0015 -0.0815  0.6335
 7192TIP3    H242992   6.105   1.459  13.295  0.0121 -0.7654  0.0387
 7193TIP3   OH242993   2.850   0.833   3.099  0.0913 -0.3299 -0.3994
 7193TIP3    H142994   2.841   0.739   3.116  0.7958 -0.5194 -1.0577
 7193TIP3    H242995   2.944   0.847   3.090  0.0245  0.5294  0.1785
 7194TIP3   OH242996   5.315   3.498   4.392 -0.1173  0.0340 -0.1296
 7194TIP3    H142997   5.385   3.448   4.435 -2.4486 -0.6201  3.3270
 7194TIP3    H242998   5.307   3.458   4.306  3.3191 -0.1753 -0.5188
 7195TIP3   OH242999   5.014   3.716   0.719 -0.7659 -0.8374 -0.0363
 7195TIP3    H143000   5.058   3.655   0.660 -0.8434  0.4919 -1.5574
 7195TIP3    H243001   5.072   3.723   0.794  0.5875 -0.7544 -1.0485
 7196TIP3   OH243002   1.556   4.029   3.304 -0.4350 -0.1768  0.1911
 7196TIP3    H143003   1.597   3.976   3.373  0.0695  0.2831  0.2435
 7196TIP3    H243004   1.589   3.991   3.223  3.5996  2.7430  0.1524
 7197TIP3   OH243005   6.000   0.533   1.979 -0.2955 -0.2171 -0.0522
 7197TIP3    H143006   6.005   0.627   1.963  2.1766 -0.0389  1.2466
 7197TIP3    H243007   6.056   0.494   1.912 -0.6840 -0.6868 -0.1033
 7198TIP3   OH243008   1.330   1.148  15.216 -0.1682 -0.0358  0.1820
 7198TIP3    H143009   1.325   1.054  15.200 -0.9367  0.0728 -0.2828
 7198TIP3    H243010   1.267   1.186  15.154  1.9004  0.9994 -1.4305
 7199TIP3   OH243011   1.398   3.983   0.974  0.6390 -0.0355 -0.5387
 7199TIP3    H143012   1.388   4.066   0.927 -0.4151 -0.5998 -1.3355
 7199TIP3    H243013   1.423   4.009   1.063  1.6555  1.0843 -1.1088
 7200TIP3   OH243014   1.432   3.863  16.447  0.1807 -0.1176  0.3334
 7200TIP3    H143015   1.437   3.825  16.359 -2.2238  0.3089 -0.0501
 7200TIP3    H243016   1.413   3.956  16.432  2.0948  0.4784  1.3120
 7201TIP3   OH243017   1.191   3.504   5.275  0.0067 -0.5179  0.2854
 7201TIP3    H143018   1.224   3.418   5.303  0.5919 -0.5013 -0.3229
 7201TIP3    H243019   1.265   3.563   5.286 -0.2128 -0.2087  0.1273
 7202TIP3   OH243020   1.834   1.026  11.336 -0.2286 -0.1423  0.0310
 7202TIP3    H143021   1.923   0.996  11.319  0.5746  1.2486  1.4220
 7202TIP3    H243022   1.780   0.948  11.330  1.1750 -1.1244 -0.2439
 7203TIP3   OH243023   0.886   5.948  15.990  0.6868  0.1418 -0.6856
 7203TIP3    H143024   0.982   5.954  15.990  0.6668  0.5605 -0.0579
 7203TIP3    H243025   0.859   5.990  15.909  1.0574 -0.4800 -1.1425
 7204TIP3   OH243026   1.972   0.102   4.335  0.2960  0.0488 -0.6700
 7204TIP3    H143027   1.930   0.026   4.295 -0.6492  0.5951 -0.7351
 7204TIP3    H243028   1.929   0.178   4.296  2.1167  0.6680 -1.5682
 7205TIP3   OH243029   6.795   3.773  11.021 -0.4058 -0.6771 -0.1504
 7205TIP3    H143030   6.847   3.852  11.032 -0.7829 -0.6487  1.7871
 7205TIP3    H243031   6.767   3.775  10.930 -1.8900  2.3765  0.2533
 7206TIP3   OH243032   1.524   6.522  12.781  0.3010 -0.4620 -0.1272
 7206TIP3    H143033   1.460   6.472  12.833  0.5200 -0.6162 -0.0048
 7206TIP3    H243034   1.530   6.607  12.827 -1.9022  0.6440 -1.6888
 7207TIP3   OH243035   1.259   2.585  14.059 -0.1269 -0.0065 -0.2132
 7207TIP3    H143036   1.326   2.652  14.054  1.8359 -1.7558  1.0642
 7207TIP3    H243037   1.184   2.629  14.101  0.9217  1.4822  0.1694
 7208TIP3   OH243038   3.781   0.081  13.707  0.4106 -0.0385 -0.6462
 7208TIP3    H143039   3.720   0.147  13.674  1.4804  0.9031 -0.8086
 7208TIP3    H243040   3.729   0.028  13.766 -0.7272  0.3338 -1.2823
 7209TIP3   OH243041   2.355   1.325  11.089  0.0673 -0.4266 -0.0052
 7209TIP3    H143042   2.407   1.398  11.122  1.2155 -1.1954 -0.0545
 7209TIP3    H243043   2.379   1.318  10.997  0.3391 -1.1497  0.1074
 7210TIP3   OH243044   0.641   5.306  15.658  0.2147  0.0026 -0.7308
 7210TIP3    H143045   0.623   5.381  15.601 -1.4152 -1.1177 -1.7667
 7210TIP3    H243046   0.576   5.241  15.633  0.3530 -1.0567  1.4998
 7211TIP3   OH243047   1.860   3.434   0.000  0.0965  0.6895 -0.1111
 7211TIP3    H143048   1.874   3.523   0.033  1.0561 -0.6495  3.6405
 7211TIP3    H243049   1.782   3.404   0.046  1.4155 -1.2950  1.0006
 7212TIP3   OH243050   6.145   6.229   0.900 -0.3229  0.2253 -0.1753
 7212TIP3    H143051   6.195   6.158   0.939 -2.7165 -0.7821  1.2878
 7212TIP3    H243052   6.200   6.307   0.912  0.6221 -0.6963  1.9374
 7213TIP3   OH243053   4.320   4.609   1.024  0.1259 -0.7633 -0.1033
 7213TIP3    H143054   4.376   4.683   1.047  1.7955 -2.0490  0.2143
 7213TIP3    H243055   4.359   4.534   1.070 -1.9273 -1.7393  0.1944
 7214TIP3   OH243056   0.956   1.108   5.780 -0.1986 -0.2097  0.3426
 7214TIP3    H143057   0.898   1.036   5.757 -0.4269  0.3854 -1.0980
 7214TIP3    H243058   0.898   1.185   5.783  0.1291  0.0113  1.3133
 7215TIP3   OH243059   4.102   3.674  15.537  0.2571 -0.0272 -0.1690
 7215TIP3    H143060   4.019   3.666  15.490  0.5960 -0.6078 -0.7005
 7215TIP3    H243061   4.106   3.765  15.565  0.1016  0.3772 -1.4120
 7216TIP3   OH243062   2.688   5.667   0.387 -0.1144  0.2044  0.3750
 7216TIP3    H143063   2.718   5.757   0.371 -0.8183  0.2332 -0.9434
 7216TIP3    H243064   2.593   5.671   0.380 -0.3587 -0.2111  2.7983
 7217TIP3   OH243065   6.723   5.889   0.452  0.4546  0.4136  0.1179
 7217TIP3    H143066   6.704   5.901   0.359  2.1381 -0.4534 -0.4014
 7217TIP3    H243067   6.638   5.885   0.495 -0.4433 -1.3867 -1.7030
 7218TIP3   OH243068   3.862   0.788  13.983  0.4665  0.2199  0.7053
 7218TIP3    H143069   3.918   0.761  14.056  0.0560 -2.0006  0.2682
 7218TIP3    H243070   3.774   0.788  14.019  0.2273 -1.1833  0.1710
 7219TIP3   OH243071   4.906   4.071  12.579 -0.2363 -0.3691 -0.3810
 7219TIP3    H143072   4.992   4.068  12.620  0.6079 -0.8689 -2.1020
 7219TIP3    H243073   4.857   4.134  12.632  1.1177 -0.2161  0.7537
 7220TIP3   OH243074   2.141   6.381   4.179  0.5101 -0.2897 -0.2374
 7220TIP3    H143075   2.234   6.389   4.201  0.5882 -0.7680 -0.3778
 7220TIP3    H243076   2.140   6.348   4.089  0.2266 -1.5799  0.2110
 7221TIP3   OH243077   4.262   4.519   3.943  0.1011 -0.3454 -1.2150
 7221TIP3    H143078   4.286   4.479   4.027 -2.2516  0.3484 -0.1115
 7221TIP3    H243079   4.306   4.604   3.944  0.5768 -0.5901 -0.9675
 7222TIP3   OH243080   1.729   0.736  16.229 -0.6704 -0.6432  0.2550
 7222TIP3    H143081   1.723   0.640  16.234  0.4612 -0.7710 -0.5571
 7222TIP3    H243082   1.795   0.753  16.163  1.8759  0.6444  2.9158
 7223TIP3   OH243083   0.768   6.345  10.876  0.3230 -0.3529  0.1517
 7223TIP3    H143084   0.705   6.290  10.922 -1.1922 -0.5109 -1.9163
 7223TIP3    H243085   0.848   6.340  10.928 -1.2171 -0.4974  2.6776
 7224TIP3   OH243086   0.299   3.559   1.680  0.3849  0.0298 -0.4186
 7224TIP3    H143087   0.362   3.534   1.747  0.1718  0.3868 -0.0752
 7224TIP3    H243088   0.333   3.522   1.599  0.7555 -0.2285 -0.1474
 7225TIP3   OH243089   3.471   0.017  17.160  0.4635 -0.1732  0.1562
 7225TIP3    H143090   3.436   0.098  17.197 -0.2866 -0.4373  0.0247
 7225TIP3    H243091   3.556   0.043  17.124 -0.6022  1.0140 -1.6663
 7226TIP3   OH243092   6.215   2.733  13.823 -0.2001 -0.7020 -0.1797
 7226TIP3    H143093   6.212   2.738  13.728 -0.6670 -1.5634 -0.2194
 7226TIP3    H243094   6.219   2.640  13.842 -2.0274 -0.6496  0.6853
 7227TIP3   OH243095   3.464   4.143   5.356 -0.5319  0.7518 -0.1485
 7227TIP3    H143096   3.468   4.095   5.272  0.0013  2.2163 -0.9993
 7227TIP3    H243097   3.444   4.233   5.331  1.0656  1.5303  1.1599
 7228TIP3   OH243098   2.325   1.390   3.519  0.0727  0.2459  0.1886
 7228TIP3    H143099   2.341   1.305   3.559  1.5079  0.4061  0.0100
 7228TIP3    H243100   2.237   1.383   3.483  0.3342 -1.3321 -0.2323
 7229TIP3   OH243101   1.957   3.250  14.684  0.4715 -0.4025  0.2485
 7229TIP3    H143102   1.979   3.164  14.719  1.3388  1.0583  3.7099
 7229TIP3    H243103   2.028   3.269  14.622  1.4361 -1.3293  1.0347
 7230TIP3   OH243104   4.109   0.614   2.371  0.4065  0.1255  0.0097
 7230TIP3    H143105   4.029   0.659   2.397  0.6372 -1.0532  3.1966
 7230TIP3    H243106   4.179   0.677   2.390  0.4808 -0.2765  1.1394
 7231TIP3   OH243107   4.585   3.427  15.800 -0.1206  0.1646 -0.5879
 7231TIP3    H143108   4.602   3.515  15.835 -0.3335  0.1913 -0.5503
 7231TIP3    H243109   4.665   3.404  15.752  0.9202 -0.5796  1.3626
 7232TIP3   OH243110   2.914   1.865   3.389  0.2351  0.2702  0.0187
 7232TIP3    H143111   2.822   1.867   3.415  0.6558 -0.7790  1.8076
 7232TIP3    H243112   2.935   1.771   3.385  1.1898  0.4949 -0.5007
 7233TIP3   OH243113   6.097   2.674  13.182  0.0158 -0.7709 -0.1573
 7233TIP3    H143114   6.099   2.765  13.212 -2.8783 -0.7756  0.3948
 7233TIP3    H243115   6.177   2.635  13.217 -0.0208  0.8926  1.9687
 7234TIP3   OH243116   0.747   4.182   2.889  0.2089 -0.1926  0.3043
 7234TIP3    H143117   0.760   4.214   2.800 -0.4145 -1.1217 -0.1333
 7234TIP3    H243118   0.667   4.130   2.885  0.2849 -0.4192  1.3645
 7235TIP3   OH243119   2.908   5.108  16.079 -0.0725 -0.3830  0.0620
 7235TIP3    H143120   2.879   5.100  15.988  0.4963 -0.1476 -0.1479
 7235TIP3    H243121   2.972   5.179  16.077 -1.5344  1.0142  1.0212
 7236TIP3   OH243122   3.834   5.875   5.542 -0.7182  0.0493 -0.7109
 7236TIP3    H143123   3.768   5.941   5.522 -1.2997 -0.8055 -1.6930
 7236TIP3    H243124   3.818   5.853   5.634 -1.2602  0.4479 -0.7039
 7237TIP3   OH243125   4.646   5.086   4.265 -0.4642  0.2797 -0.6332
 7237TIP3    H143126   4.678   5.001   4.234 -0.4397 -0.1340  0.5011
 7237TIP3    H243127   4.638   5.076   4.360  1.4688  2.1699 -0.2079
 7238TIP3   OH243128   6.116   2.004  11.399 -0.2015 -0.4596  0.3193
 7238TIP3    H143129   6.116   2.015  11.304 -0.0431  0.9803  0.4667
 7238TIP3    H243130   6.193   2.052  11.429  0.0074 -1.2769  1.1480
 7239TIP3   OH243131   6.136   1.434   0.655 -0.0083 -0.3450 -0.1283
 7239TIP3    H143132   6.100   1.495   0.719 -0.0040 -2.9240  2.5054
 7239TIP3    H243133   6.061   1.412   0.599 -1.0784 -0.9372  1.4523
 7240TIP3   OH243134   2.519   1.821   1.877 -0.4084 -0.4607 -0.2370
 7240TIP3    H143135   2.496   1.778   1.794 -1.6209  0.0111 -0.1661
 7240TIP3    H243136   2.469   1.773   1.943 -0.1599 -0.2471  0.1058
 7241TIP3   OH243137   3.255   1.406   4.103  0.1803  0.2089 -0.0004
 7241TIP3    H143138   3.300   1.374   4.025  1.6391  0.7538  0.5816
 7241TIP3    H243139   3.310   1.477   4.135 -0.3761 -0.0142  1.5271
 7242TIP3   OH243140   4.549   3.739  16.512  0.3747  0.2383  0.3616
 7242TIP3    H143141   4.638   3.717  16.485 -0.0621  0.3125 -1.2512
 7242TIP3    H243142   4.552   3.833  16.532  0.8258  0.0712  1.1056
 7243TIP3   OH243143   1.871   3.514   0.786 -0.4836  0.1165 -0.1465
 7243TIP3    H143144   1.931   3.566   0.733 -0.4949 -0.2273 -0.5006
 7243TIP3    H243145   1.867   3.560   0.870  1.7853 -0.8389  0.5840
 7244TIP3   OH243146   0.693   6.144  12.578 -0.5367  0.2242  0.1967
 7244TIP3    H143147   0.757   6.128  12.647 -0.2908 -0.9387 -0.2709
 7244TIP3    H243148   0.681   6.058  12.536  0.0881  1.0720 -1.8684
 7245TIP3   OH243149   1.545   5.118  12.135  0.1612 -0.4153  0.1758
 7245TIP3    H143150   1.567   5.136  12.227 -0.3835  0.2056  0.1893
 7245TIP3    H243151   1.527   5.204  12.098  0.8473 -0.6121 -0.6448
 7246TIP3   OH243152   1.318   1.196  13.017  0.0691 -0.0071  0.1607
 7246TIP3    H143153   1.359   1.206  13.102 -1.3202 -0.4837  0.9126
 7246TIP3    H243154   1.391   1.189  12.955  1.0816  0.9770  1.2213
 7247TIP3   OH243155   6.337   4.636  17.092 -0.0568 -0.7245  0.3239
 7247TIP3    H143156   6.294   4.597  17.017 -1.6235  1.1551  0.1970
 7247TIP3    H243157   6.412   4.683  17.056 -1.7709  1.6343 -0.3910
 7248TIP3   OH243158   3.244   1.712   4.841 -0.2772  0.1847  0.0590
 7248TIP3    H143159   3.271   1.780   4.902 -1.7061  1.6411 -0.8565
 7248TIP3    H243160   3.322   1.694   4.789  0.1511  1.0687  0.3764
 7249TIP3   OH243161   1.895   6.702  16.823  0.3968 -0.1369 -0.7379
 7249TIP3    H143162   1.849   6.619  16.816  0.4483 -0.2100 -0.2160
 7249TIP3    H243163   1.980   6.686  16.782 -0.2039  0.1370 -2.1535
 7250TIP3   OH243164   1.441   6.675  14.464 -0.0381  0.3848  0.7314
 7250TIP3    H143165   1.407   6.744  14.406 -0.2577  0.3080  0.7683
 7250TIP3    H243166   1.535   6.672  14.444 -0.2073 -0.0258 -0.0229
 7251TIP3   OH243167   2.353   4.134  11.053  0.3244 -0.1915  0.5250
 7251TIP3    H143168   2.301   4.079  11.112  0.3728 -1.3486 -0.4732
 7251TIP3    H243169   2.292   4.202  11.025 -0.1814 -0.5878  0.6369
 7252TIP3   OH243170   1.654   5.703   3.204  0.1903  0.1565  0.3627
 7252TIP3    H143171   1.683   5.636   3.142 -1.2442  0.7548 -1.0326
 7252TIP3    H243172   1.637   5.655   3.285 -0.0508 -1.0542 -0.3702
 7253TIP3   OH243173   1.862   1.024   0.357 -0.1587  0.1985  0.0336
 7253TIP3    H143174   1.945   1.001   0.316 -0.5033  0.1342 -0.6420
 7253TIP3    H243175   1.878   1.014   0.451  0.9573  1.3439  0.0037
 7254TIP3   OH243176   0.174   3.170  12.094 -0.1817 -0.4120 -0.1888
 7254TIP3    H143177   0.112   3.099  12.111  0.0930 -0.9620 -1.3454
 7254TIP3    H243178   0.122   3.238  12.052  0.0843 -1.1380 -1.7608
 7255TIP3   OH243179   5.210   5.523  17.004  1.1465 -0.4318 -0.0483
 7255TIP3    H143180   5.260   5.573  16.939 -1.7817  2.4569 -0.3470
 7255TIP3    H243181   5.172   5.451  16.954  1.6306 -0.2218 -0.7416
 7256TIP3   OH243182   0.851   4.342  12.147 -0.1807  0.3515  0.2958
 7256TIP3    H143183   0.847   4.412  12.081 -1.1795 -1.7066 -2.0108
 7256TIP3    H243184   0.925   4.288  12.121 -1.2610 -1.1208  0.0975
 7257TIP3   OH243185   4.224   0.294  16.946 -0.6634  0.2216  0.1471
 7257TIP3    H143186   4.239   0.360  17.014 -2.5302  0.1074  0.7215
 7257TIP3    H243187   4.255   0.212  16.985 -0.4149  0.3953  0.3136
 7258TIP3   OH243188   4.358   0.982  17.172  0.0589 -0.1286  0.0785
 7258TIP3    H143189   4.414   0.904  17.180 -0.8564 -0.7055  1.2648
 7258TIP3    H243190   4.410   1.052  17.210  0.4992 -0.3716 -0.0650
 7259TIP3   OH243191   1.869   4.937  13.533 -0.1347  0.3000  0.4246
 7259TIP3    H143192   1.839   4.939  13.442 -0.0244 -0.7836  0.3432
 7259TIP3    H243193   1.902   5.025  13.549  0.7130  0.2588 -0.8932
 7260TIP3   OH243194   1.173   1.851   0.435  0.7726  0.4312 -0.0418
 7260TIP3    H143195   1.197   1.927   0.488 -0.5325  0.3658  0.6841
 7260TIP3    H243196   1.162   1.780   0.499  2.6209 -0.5819 -0.7601
 7261TIP3   OH243197   4.693   3.786  15.576 -0.2647 -0.3903  0.1593
 7261TIP3    H143198   4.786   3.774  15.593 -0.0264 -0.5301 -1.1439
 7261TIP3    H243199   4.689   3.856  15.512 -1.0928 -0.0802  0.5348
 7262TIP3   OH243200   2.838   5.312   6.092  0.1770 -0.2926  0.0967
 7262TIP3    H143201   2.868   5.307   6.183  1.1247 -0.6181 -0.2164
 7262TIP3    H243202   2.745   5.334   6.098  0.2610 -0.1740  1.1384
 7263TIP3   OH243203   0.192   4.637  14.778 -0.0045 -0.0341  0.4280
 7263TIP3    H143204   0.153   4.630  14.866 -0.3183 -0.0857  0.2871
 7263TIP3    H243205   0.243   4.557  14.768 -0.7262 -0.4823  0.2009
 7264TIP3   OH243206   2.880   3.817  12.724 -0.1867  0.1481  0.5058
 7264TIP3    H143207   2.898   3.725  12.743  0.8632  0.1491 -0.3239
 7264TIP3    H243208   2.785   3.824  12.722 -0.2751 -0.9300  0.5575
 7265TIP3   OH243209   0.667   1.072  14.299  0.2346  0.1026 -0.3406
 7265TIP3    H143210   0.656   1.072  14.394  0.4927  0.7082 -0.3043
 7265TIP3    H243211   0.580   1.090  14.265  0.1085 -0.2836 -0.2242
 7266TIP3   OH243212   3.147   3.544  14.088 -0.1210  0.3772 -0.1802
 7266TIP3    H143213   3.073   3.541  14.028  0.5874 -1.2340 -1.0472
 7266TIP3    H243214   3.190   3.459  14.077  1.5890  1.0846  0.6411
 7267TIP3   OH243215   3.187   5.010  10.938  0.0654 -0.4377 -0.5167
 7267TIP3    H143216   3.272   4.981  10.906  1.3000  3.4566 -1.2266
 7267TIP3    H243217   3.124   4.967  10.881  1.7479 -0.7295 -2.2459
 7268TIP3   OH243218   0.300   0.454  14.610  0.1626 -0.2993  0.2812
 7268TIP3    H143219   0.271   0.443  14.700  0.8320 -1.7584  0.3510
 7268TIP3    H243220   0.360   0.529  14.613 -0.8162  0.4905  0.7762
 7269TIP3   OH243221   5.894   5.561  13.692 -0.3301  0.5756 -0.1370
 7269TIP3    H143222   5.841   5.515  13.628 -1.0016  2.7520 -1.2383
 7269TIP3    H243223   5.913   5.495  13.759  1.3790 -2.1389 -3.0240
 7270TIP3   OH243224   3.994   5.715  13.222 -0.2124  0.1546 -0.0305
 7270TIP3    H143225   3.976   5.793  13.170  1.0367  0.2213 -0.4033
 7270TIP3    H243226   3.920   5.657  13.205 -1.5270  1.5085  0.8062
 7271TIP3   OH243227   6.169   2.510   6.156 -0.3539 -0.5966 -0.5227
 7271TIP3    H143228   6.216   2.584   6.118 -0.4592 -0.3329 -0.1504
 7271TIP3    H243229   6.236   2.460   6.203 -0.4076 -0.3189 -0.1424
 7272TIP3   OH243230   6.686   0.999   4.575 -0.3184 -0.5054  0.1021
 7272TIP3    H143231   6.630   1.043   4.511  0.8635  0.5202 -0.2661
 7272TIP3    H243232   6.681   1.055   4.653  1.5260  0.5908 -0.5054
 7273TIP3   OH243233   6.221   0.579   2.146 -0.5003  0.2303  0.1869
 7273TIP3    H143234   6.144   0.541   2.105 -1.2703  1.1881  0.7316
 7273TIP3    H243235   6.288   0.510   2.139 -1.8504 -1.2555  1.1609
 7274TIP3   OH243236   0.404   4.651   5.619  0.1952  0.1100 -0.5219
 7274TIP3    H143237   0.459   4.650   5.540 -0.0472  1.0874 -0.7232
 7274TIP3    H243238   0.342   4.579   5.606  0.4902 -0.0650 -0.9824
 7275TIP3   OH243239   3.266   1.473  13.629 -0.4030 -0.1364 -0.2463
 7275TIP3    H143240   3.316   1.439  13.555 -0.6388 -1.9751  0.3785
 7275TIP3    H243241   3.245   1.564  13.606 -1.1906 -0.9058 -2.8147
 7276TIP3   OH243242   3.307   4.357   4.383  0.2677  0.6544 -0.1151
 7276TIP3    H143243   3.348   4.350   4.470 -0.7425  1.0770  0.4141
 7276TIP3    H243244   3.363   4.418   4.335 -0.1521  1.8667  0.8668
 7277TIP3   OH243245   5.353   5.454   2.267  0.0350 -0.0127 -0.1252
 7277TIP3    H143246   5.330   5.382   2.208 -0.5180  0.9089 -1.0702
 7277TIP3    H243247   5.442   5.435   2.295  0.1145 -0.7468 -0.8445
 7278TIP3   OH243248   4.737   5.060  12.101  0.0030 -0.1983 -0.1150
 7278TIP3    H143249   4.809   5.015  12.056  0.4499  0.6286 -0.2297
 7278TIP3    H243250   4.658   5.024  12.061  0.3495 -0.8806 -0.2081
 7279TIP3   OH243251   5.473   1.612   5.153  0.3045 -0.0000  0.0781
 7279TIP3    H143252   5.427   1.634   5.072 -0.8687  0.7395  0.9033
 7279TIP3    H243253   5.566   1.626   5.133  0.0801 -0.3578 -1.2865
 7280TIP3   OH243254   6.447   0.112   5.184  0.3233 -0.1377  0.3111
 7280TIP3    H143255   6.408   0.033   5.147 -1.4385  1.4572 -1.4114
 7280TIP3    H243256   6.379   0.149   5.240  1.2148  0.0710  1.2961
 7281TIP3   OH243257   2.343   1.856   0.665  0.2161 -0.3858 -0.0221
 7281TIP3    H143258   2.393   1.852   0.747 -0.4168 -0.0682  0.3923
 7281TIP3    H243259   2.326   1.765   0.643  2.3161 -0.5914 -1.0361
 7282TIP3   OH243260   0.439   0.073   5.060  0.3518 -0.1988  0.3414
 7282TIP3    H143261   0.401   0.057   4.974  0.3009  3.4539 -0.4645
 7282TIP3    H243262   0.400   0.005   5.116 -1.4616 -1.2230 -1.9869
 7283TIP3   OH243263   4.969   4.883  11.989  0.0137 -0.1194  0.2028
 7283TIP3    H143264   4.980   4.797  11.947 -2.3832 -0.6518  0.4946
 7283TIP3    H243265   4.967   4.945  11.916 -2.1660 -0.8173 -0.4059
 7284TIP3   OH243266   6.715   4.183  10.899 -0.0921  0.0552 -0.4417
 7284TIP3    H143267   6.718   4.095  10.861 -0.2867 -0.4518  0.6839
 7284TIP3    H243268   6.689   4.169  10.990 -2.6161  1.4633 -0.8521
 7285TIP3   OH243269   1.269   0.551   3.758  0.1572 -0.0380 -0.2336
 7285TIP3    H143270   1.210   0.553   3.834  0.7367  0.0501  0.2248
 7285TIP3    H243271   1.249   0.469   3.714 -0.3794  0.0407 -0.1403
 7286TIP3   OH243272   3.391   3.607  12.766 -0.3272  0.5603 -0.4313
 7286TIP3    H143273   3.441   3.623  12.846  1.2625 -0.4989 -1.1390
 7286TIP3    H243274   3.303   3.586  12.796 -0.1658  1.6829  0.9365
 7287TIP3   OH243275   2.676   6.634   1.607 -0.5591 -0.1288  0.5832
 7287TIP3    H143276   2.677   6.702   1.674  0.5634 -0.7110  1.1797
 7287TIP3    H243277   2.697   6.553   1.654 -1.7673 -0.8909 -0.1298
 7288TIP3   OH243278   3.945   2.043   2.705 -0.4043  0.4097 -0.1574
 7288TIP3    H143279   4.021   2.056   2.761  0.5958  2.7118 -1.8504
 7288TIP3    H243280   3.944   1.949   2.686  1.3476  0.1629  0.7758
 7289TIP3   OH243281   2.908   6.541   4.461 -0.2064  0.0396  0.2423
 7289TIP3    H143282   2.849   6.481   4.507  1.3099 -3.0957 -1.5355
 7289TIP3    H243283   2.880   6.535   4.369  1.1534  0.6042 -0.2280
 7290TIP3   OH243284   0.788   2.939  15.554 -0.2694 -0.3929  0.4797
 7290TIP3    H143285   0.875   2.936  15.514 -1.5427  1.3752 -2.8662
 7290TIP3    H243286   0.791   3.014  15.614  0.3086  0.2867 -0.3692
 7291TIP3   OH243287   6.477   2.670   0.260 -0.3420 -0.0272  0.3537
 7291TIP3    H143288   6.555   2.724   0.251  0.8836 -1.5246  1.4629
 7291TIP3    H243289   6.452   2.679   0.352 -0.9354 -0.2701  0.2206
 7292TIP3   OH243290   0.079   0.261   1.556 -0.1598  0.4316  0.6357
 7292TIP3    H143291   0.084   0.300   1.469 -0.9627 -0.6833  0.0687
 7292TIP3    H243292   0.146   0.193   1.556 -0.3096  0.2819  0.8025
 7293TIP3   OH243293   3.084   1.309   5.028  0.7071 -0.2921  0.4010
 7293TIP3    H143294   3.010   1.249   5.019  0.1211  0.2248  1.6055
 7293TIP3    H243295   3.089   1.354   4.944 -0.1869 -0.5243  0.2178
 7294TIP3   OH243296   5.405   4.486   5.536  0.5320  0.0496 -0.2256
 7294TIP3    H143297   5.311   4.467   5.536  0.2627  1.0242  2.4248
 7294TIP3    H243298   5.416   4.550   5.466 -1.2260  1.6132  0.8415
 7295TIP3   OH243299   0.584   3.753  15.962  0.0945 -0.5724 -0.0994
 7295TIP3    H143300   0.550   3.824  16.017 -0.7210 -0.1883 -1.0609
 7295TIP3    H243301   0.614   3.686  16.024  2.8696  1.4305  0.9444
 7296TIP3   OH243302   1.132   5.676  11.129 -0.3522 -0.3615 -0.0765
 7296TIP3    H143303   1.168   5.653  11.044  1.1041 -0.2860  0.4784
 7296TIP3    H243304   1.121   5.593  11.175 -0.5858 -0.3630 -0.1360
 7297TIP3   OH243305   5.183   3.530  15.726  0.3965 -0.7568  0.8120
 7297TIP3    H143306   5.201   3.457  15.785 -0.6870 -0.1088  2.0201
 7297TIP3    H243307   5.089   3.546  15.737  0.1454 -0.6217 -1.1452
 7298TIP3   OH243308   1.801   6.776  14.742  0.4734  0.2512  0.4760
 7298TIP3    H143309   1.803   6.683  14.720 -0.6605  0.5513 -1.0508
 7298TIP3    H243310   1.746   6.782  14.819 -1.9430 -0.0904 -1.1259
 7299TIP3   OH243311   6.388   0.990  10.501 -0.3127  0.5627  0.1095
 7299TIP3    H143312   6.332   1.042  10.443 -0.1844 -0.3316 -0.8482
 7299TIP3    H243313   6.377   1.030  10.587 -0.9963  1.5353 -0.4103
 7300TIP3   OH243314   0.165   5.138  14.551 -0.1101  0.1885  0.3798
 7300TIP3    H143315   0.240   5.082  14.568  0.0374  0.1989 -0.2133
 7300TIP3    H243316   0.160   5.196  14.627  0.4893  0.1946  0.4195
 7301TIP3   OH243317   1.874   1.607  16.071  0.4569  0.2821  0.0540
 7301TIP3    H143318   1.821   1.668  16.019  1.0870  2.0703  1.4009
 7301TIP3    H243319   1.963   1.619  16.038  0.4982 -0.4094 -0.1005
 7302TIP3   OH243320   5.094   1.063   4.451  0.0640 -0.7578  0.0648
 7302TIP3    H143321   5.151   0.987   4.464 -3.1365 -3.2743  0.9090
 7302TIP3    H243322   5.044   1.069   4.533 -0.8625  1.3281 -0.5842
 7303TIP3   OH243323   1.862   1.114  16.184  0.2075 -0.5078 -0.6810
 7303TIP3    H143324   1.833   1.127  16.274  1.5657 -0.1353 -0.2818
 7303TIP3    H243325   1.889   1.201  16.155  0.8531 -0.8330 -1.0622
 7304TIP3   OH243326   5.761   6.641  14.596  0.5692 -0.1571 -0.5477
 7304TIP3    H143327   5.667   6.645  14.615  0.4298  0.9082 -1.3551
 7304TIP3    H243328   5.790   6.558  14.635 -0.7722 -0.6726 -0.5875
 7305TIP3   OH243329   3.791   2.708   0.979 -0.1301  0.2374 -0.3884
 7305TIP3    H143330   3.857   2.776   0.990 -0.6423  1.0014 -1.8283
 7305TIP3    H243331   3.710   2.748   1.012 -0.0527 -0.4370  0.6868
 7306TIP3   OH243332   3.943   4.903  12.381 -0.3378  0.1626 -0.1989
 7306TIP3    H143333   4.007   4.959  12.425 -0.9788  1.4639 -0.8494
 7306TIP3    H243334   3.903   4.851  12.451 -0.4305  1.2478  0.5737
 7307TIP3   OH243335   4.090   5.333  16.861  0.8126  0.1029  0.1210
 7307TIP3    H143336   4.104   5.308  16.770  2.7592 -0.7106  0.6012
 7307TIP3    H243337   4.178   5.349  16.895 -0.0040  2.3218  1.3493
 7308TIP3   OH243338   5.371   4.206   2.861 -0.2185  0.2148  0.0275
 7308TIP3    H143339   5.309   4.231   2.929  2.5936 -1.1827  3.4121
 7308TIP3    H243340   5.419   4.287   2.841 -1.3765  0.7367 -0.7158
 7309TIP3   OH243341   0.563   5.474   3.993 -0.4273 -0.0090  0.4953
 7309TIP3    H143342   0.599   5.472   4.082 -0.6669  0.7749  0.6133
 7309TIP3    H243343   0.469   5.485   4.005 -0.3700  0.9091  0.1324
 7310TIP3   OH243344   2.147   2.778   3.010 -0.2890 -0.0219  0.5136
 7310TIP3    H143345   2.122   2.710   3.073  0.7180 -1.6762 -0.7571
 7310TIP3    H243346   2.070   2.788   2.954 -0.2919 -0.4804  0.4298
 7311TIP3   OH243347   1.483   6.616  13.240 -0.0898  0.5591  0.3436
 7311TIP3    H143348   1.535   6.544  13.274 -1.1632  0.0500  0.9488
 7311TIP3    H243349   1.460   6.590  13.151  0.6135  0.7644  0.0893
 7312TIP3   OH243350   2.539   3.109  17.008  0.0942  0.4079  0.2959
 7312TIP3    H143351   2.461   3.114  17.063 -0.7993 -0.3585 -0.8583
 7312TIP3    H243352   2.611   3.094  17.070 -0.4138  2.6209  1.5394
 7313TIP3   OH243353   3.730   3.352  16.451  0.3233  0.1865 -0.3709
 7313TIP3    H143354   3.669   3.426  16.461 -0.5545 -0.3122 -1.8148
 7313TIP3    H243355   3.685   3.291  16.394  1.4199 -1.0839  0.0621
 7314TIP3   OH243356   5.609   5.699   2.200 -0.1870 -0.3673  0.1093
 7314TIP3    H143357   5.562   5.732   2.124 -0.8213 -0.6660  0.3636
 7314TIP3    H243358   5.618   5.605   2.184 -0.9111 -0.5473  0.6999
 7315TIP3   OH243359   1.073   5.180  13.563  0.1341  1.0072  0.1470
 7315TIP3    H143360   1.112   5.150  13.481 -0.0282 -0.2815  0.5200
 7315TIP3    H243361   1.024   5.104  13.595  0.7312  1.2582  1.7517
 7316TIP3   OH243362   2.132   1.962   5.194  0.4878 -0.3004 -0.2097
 7316TIP3    H143363   2.096   1.910   5.122 -1.0368  0.9030 -0.3784
 7316TIP3    H243364   2.220   1.986   5.165 -0.0069 -0.0447 -1.5611
 7317TIP3   OH243365   0.325   4.379  14.886 -0.1952 -0.5460 -0.3260
 7317TIP3    H143366   0.236   4.380  14.921 -0.2840 -1.0190 -0.5389
 7317TIP3    H243367   0.324   4.311  14.819  0.4619 -0.9087  0.0288
 7318TIP3   OH243368   5.940   2.081  11.614 -0.0465  0.2279 -0.0602
 7318TIP3    H143369   5.855   2.048  11.586 -0.5227 -1.2465  2.8057
 7318TIP3    H243370   5.995   2.072  11.536 -2.0165 -0.4581 -1.4807
 7319TIP3   OH243371   5.719   5.456  11.771  0.1276  0.7755  0.1060
 7319TIP3    H143372   5.735   5.544  11.737  0.7703  0.4970 -0.3197
 7319TIP3    H243373   5.804   5.414  11.770 -0.2801 -0.0672 -0.3176
 7320TIP3   OH243374   1.814   5.374  13.952  0.1871 -0.4704 -0.1165
 7320TIP3    H143375   1.835   5.416  13.868  1.3502 -1.1091 -0.1589
 7320TIP3    H243376   1.809   5.447  14.014 -1.4770  0.1003 -0.8579
 7321TIP3   OH243377   1.086   3.962   5.348  0.4175 -0.3726  1.1944
 7321TIP3    H143378   1.043   3.913   5.279 -0.0939  0.5190  0.8547
 7321TIP3    H243379   1.128   3.896   5.403  1.3830 -1.0608 -0.3182
 7322TIP3   OH243380   4.975   3.501  15.145 -0.2735  0.9451  0.6148
 7322TIP3    H143381   4.985   3.567  15.214  0.6198  3.0062 -1.3555
 7322TIP3    H243382   5.020   3.539  15.070 -0.8038 -1.4217 -0.9808
 7323TIP3   OH243383   0.546   2.422  15.859 -0.5173 -0.4207  0.0941
 7323TIP3    H143384   0.486   2.355  15.891 -1.2183 -0.0256 -0.3794
 7323TIP3    H243385   0.526   2.500  15.911  0.6042 -0.6787  0.9574
 7324TIP3   OH243386   4.263   3.075   3.506 -0.7358 -0.2515  0.5726
 7324TIP3    H143387   4.354   3.074   3.535 -0.9345 -0.9189  1.1908
 7324TIP3    H243388   4.212   3.078   3.586 -1.2863 -1.5309  0.2854
 7325TIP3   OH243389   0.363   5.337  11.229  0.1762 -0.6487  0.1646
 7325TIP3    H143390   0.326   5.389  11.158 -0.1494  0.8176  1.3591
 7325TIP3    H243391   0.312   5.257  11.230  0.7482 -1.0906 -1.7864
 7326TIP3   OH243392   6.297   0.935   1.827  0.1620 -0.4226  0.0004
 7326TIP3    H143393   6.386   0.911   1.854  0.2112  0.3402  0.5438
 7326TIP3    H243394   6.290   0.904   1.737  0.5166 -1.6714  0.3834
 7327TIP3   OH243395   5.106   4.600  11.149  0.3493 -1.2561  0.1814
 7327TIP3    H143396   5.101   4.666  11.079  0.0010 -0.6319  0.7841
 7327TIP3    H243397   5.176   4.631  11.206  0.4114 -1.5941  0.2889
 7328TIP3   OH243398   5.174   4.062   0.719 -0.3015  0.4710  0.2294
 7328TIP3    H143399   5.231   4.113   0.777  1.8530 -1.2527 -0.2018
 7328TIP3    H243400   5.136   3.995   0.777 -1.6835  1.4181  0.4505
 7329TIP3   OH243401   1.277   4.667  13.248 -0.0318 -0.3148  0.0103
 7329TIP3    H143402   1.345   4.603  13.267  2.8477  2.2384 -0.9968
 7329TIP3    H243403   1.243   4.694  13.334  3.1685  1.2515  0.9140
 7330TIP3   OH243404   1.964   4.663  13.595  0.2390  0.2687 -0.1085
 7330TIP3    H143405   1.978   4.614  13.514 -1.2478  0.8934 -0.7814
 7330TIP3    H243406   1.901   4.731  13.571 -2.8385 -1.4741  2.2339
 7331TIP3   OH243407   5.677   5.498  12.327  0.0364 -0.3884  0.1365
 7331TIP3    H143408   5.596   5.550  12.324  0.3998  0.1469 -0.4364
 7331TIP3    H243409   5.646   5.408  12.336 -0.6789 -0.3373 -1.4149
 7332TIP3   OH243410   0.681   1.864  14.059  0.7054 -0.2431  0.1496
 7332TIP3    H143411   0.765   1.820  14.054  0.2463 -1.0434 -0.9909
 7332TIP3    H243412   0.626   1.819  13.995 -0.1580  1.2061 -0.1936
 7333TIP3   OH243413   1.375   6.644  11.751 -0.3204 -0.7617 -0.2801
 7333TIP3    H143414   1.373   6.717  11.689  0.5406  0.3074  0.9056
 7333TIP3    H243415   1.338   6.570  11.702 -0.8237  0.3493 -1.6471
 7334TIP3   OH243416   1.283   0.835   2.079  0.5850 -0.0888  0.1162
 7334TIP3    H143417   1.223   0.800   2.145 -0.2359 -1.7161 -1.4114
 7334TIP3    H243418   1.370   0.822   2.116  0.0942  1.7295  2.1073
 7335TIP3   OH243419   6.523   3.395  12.386 -0.1965  0.0118  0.4527
 7335TIP3    H143420   6.553   3.305  12.398  0.1465 -0.0317 -0.6239
 7335TIP3    H243421   6.564   3.423  12.304  0.5985  1.5348  1.3289
 7336TIP3   OH243422   3.876   4.177   2.646 -0.1935  0.0135  0.4782
 7336TIP3    H143423   3.806   4.227   2.605 -0.2445 -0.0574  0.4786
 7336TIP3    H243424   3.946   4.176   2.580 -0.4964 -0.6007  0.1584
 7337TIP3   OH243425   5.578   1.965  10.748  0.2270  0.0984  0.0884
 7337TIP3    H143426   5.628   1.977  10.668 -0.9211 -1.1952 -0.8839
 7337TIP3    H243427   5.487   1.982  10.722 -0.1528 -0.2537  1.1270
 7338TIP3   OH243428   3.066   1.650  15.858 -0.0489  0.3797  0.0769
 7338TIP3    H143429   3.083   1.730  15.808  1.9253  1.2434  2.0001
 7338TIP3    H243430   3.044   1.680  15.946 -3.6897 -1.1021 -0.1358
 7339TIP3   OH243431   1.608   1.078  16.757  0.0145 -0.1640  0.0135
 7339TIP3    H143432   1.695   1.071  16.797 -0.2735  0.1621  0.6937
 7339TIP3    H243433   1.603   1.168  16.726 -0.1871 -0.1038  0.2197
 7340TIP3   OH243434   2.457   6.041   0.692  0.0699  0.6534 -0.2506
 7340TIP3    H143435   2.389   6.108   0.681 -0.1683  0.4292 -0.1399
 7340TIP3    H243436   2.424   5.984   0.762  0.9038  1.2230  0.6413
 7341TIP3   OH243437   4.818   2.553  11.421 -0.0184 -0.9826 -0.1555
 7341TIP3    H143438   4.846   2.610  11.349 -1.6138  0.3674  0.2279
 7341TIP3    H243439   4.858   2.592  11.499 -0.6662 -0.6889  0.0378
 7342TIP3   OH243440   1.106   4.161   5.714  0.2665  0.1086  0.1962
 7342TIP3    H143441   1.110   4.107   5.792 -1.5041 -2.1136 -1.1286
 7342TIP3    H243442   1.175   4.125   5.657  0.2680  0.4293 -0.0086
 7343TIP3   OH243443   5.742   5.722   5.297  0.0574  0.0039  0.2862
 7343TIP3    H143444   5.723   5.661   5.368  1.1235 -0.2204  0.3949
 7343TIP3    H243445   5.747   5.808   5.340 -0.4518  0.0360  0.2886
 7344TIP3   OH243446   1.372   0.563   1.910 -0.2870  0.2181 -0.6764
 7344TIP3    H143447   1.328   0.634   1.957 -0.8639 -1.2286  1.1136
 7344TIP3    H243448   1.355   0.485   1.963 -0.6136 -1.4960 -3.1306
 7345TIP3   OH243449   2.250   4.181  15.467 -0.0846 -0.1159 -0.0637
 7345TIP3    H143450   2.285   4.267  15.443 -1.0820 -0.0572 -1.3920
 7345TIP3    H243451   2.327   4.124  15.467  0.4453  0.5793 -0.0642
 7346TIP3   OH243452   0.961   5.477  10.984  0.0778  0.1085 -0.6392
 7346TIP3    H143453   1.035   5.486  11.044  0.3771  1.1368 -1.1435
 7346TIP3    H243454   0.999   5.440  10.905  0.1040  0.7924 -0.9577
 7347TIP3   OH243455   4.298   6.329  12.241  0.0507  0.0355 -0.5562
 7347TIP3    H143456   4.300   6.236  12.260 -0.2341 -0.2320 -1.7634
 7347TIP3    H243457   4.205   6.351  12.233  0.1401  0.0053 -2.0866
 7348TIP3   OH243458   0.000   5.098   2.327 -0.0568  0.3641 -0.3270
 7348TIP3    H143459   0.074   5.150   2.357  0.3903 -0.5520  0.2129
 7348TIP3    H243460   0.024   5.071   2.239 -1.0568  2.4686 -1.3135
 7349TIP3   OH243461   0.012   4.661   5.722  0.4960  0.3416  0.1278
 7349TIP3    H143462   0.049   4.611   5.650 -2.8695  0.3817 -1.8103
 7349TIP3    H243463  -0.017   4.594   5.785  1.1257  0.2038  0.2876
 7350TIP3   OH243464   6.721   3.383   4.349  0.5723  0.8508  0.2250
 7350TIP3    H143465   6.655   3.453   4.348  0.3820  0.6895 -1.3438
 7350TIP3    H243466   6.739   3.368   4.442 -0.4389  1.9914  0.6310
 7351TIP3   OH243467   6.741   3.634  12.390  0.3626  0.5168 -0.4448
 7351TIP3    H143468   6.653   3.654  12.423 -0.2077  1.1441 -2.2442
 7351TIP3    H243469   6.733   3.548  12.350  0.6694  0.3955 -0.2431
 7352TIP3   OH243470   1.010   5.822  11.954 -0.1219 -0.5993 -0.2991
 7352TIP3    H143471   1.083   5.763  11.938 -0.2463 -1.0208  0.5828
 7352TIP3    H243472   0.989   5.809  12.047  0.6606  1.7594  0.2858
 7353TIP3   OH243473   4.796   3.640   1.846  0.0301 -0.1069 -0.0451
 7353TIP3    H143474   4.832   3.642   1.757 -1.5465  2.3176 -0.7108
 7353TIP3    H243475   4.864   3.679   1.900 -0.0688  0.9733 -0.6749
 7354TIP3   OH243476   4.725   0.259   5.416 -0.0999  0.0315  0.0773
 7354TIP3    H143477   4.747   0.280   5.507 -1.6715  1.7657  0.1173
 7354TIP3    H243478   4.808   0.269   5.369  0.8024 -1.1965  1.3246
 7355TIP3   OH243479   2.747   3.934  11.755 -0.6299 -0.2995 -0.9012
 7355TIP3    H143480   2.762   4.029  11.763  0.2858 -0.3186 -2.1676
 7355TIP3    H243481   2.652   3.924  11.767 -0.4006  0.3380  2.7880
 7356TIP3   OH243482   3.993   4.919   2.452  0.0248  0.0817  0.0799
 7356TIP3    H143483   4.074   4.966   2.430  1.0286 -1.5168  0.1971
 7356TIP3    H243484   4.001   4.901   2.545 -1.2139  1.2420  0.4319
 7357TIP3   OH243485   0.967   1.958   0.012  0.3472  0.0631 -0.2597
 7357TIP3    H143486   1.062   1.946   0.017  0.2484 -0.2239  1.8072
 7357TIP3    H243487   0.956   2.052  -0.003  1.0056  0.8813  3.4149
 7358TIP3   OH243488   1.587   6.281   2.038 -0.1338 -0.0017 -0.4245
 7358TIP3    H143489   1.618   6.363   2.000  1.6447 -0.9431 -1.0921
 7358TIP3    H243490   1.491   6.289   2.037 -0.0097  2.2528  0.0134
 7359TIP3   OH243491   2.332   3.266   1.100 -0.5147  0.5546 -0.2806
 7359TIP3    H143492   2.275   3.294   1.029 -0.8107  0.8898  0.0796
 7359TIP3    H243493   2.419   3.297   1.075 -0.5236  0.2128 -0.7391
 7360TIP3   OH243494   5.741   3.172   5.586 -0.5764 -0.3225  0.5043
 7360TIP3    H143495   5.779   3.259   5.578  2.0859 -1.2614  1.7256
 7360TIP3    H243496   5.704   3.153   5.499  3.9115 -0.1447 -1.7173
 7361TIP3   OH243497   6.102   0.532  15.670 -0.5907 -0.7998 -0.6177
 7361TIP3    H143498   6.119   0.571  15.756 -0.9434 -0.5825 -0.6433
 7361TIP3    H243499   6.013   0.559  15.650 -0.6568 -1.2076 -0.8637
 7362TIP3   OH243500   4.584   6.464  14.425 -1.1086  0.3747 -0.4235
 7362TIP3    H143501   4.579   6.375  14.392  0.8050 -0.4189  1.2348
 7362TIP3    H243502   4.626   6.513  14.354  1.3570 -0.9359  0.0105
 7363TIP3   OH243503   0.432   0.518  13.475 -0.2182  0.2476  0.2254
 7363TIP3    H143504   0.397   0.429  13.466 -2.3091  0.8519  1.5462
 7363TIP3    H243505   0.454   0.526  13.567  1.9885  0.4633 -0.2716
 7364TIP3   OH243506   4.750   6.636   4.241  0.1617 -0.6527  0.0721
 7364TIP3    H143507   4.791   6.695   4.176  1.8844 -2.0922 -0.2223
 7364TIP3    H243508   4.732   6.693   4.316 -0.5689  0.7619 -1.1252
 7365TIP3   OH243509   2.248   6.063  12.703  0.1870 -0.4151  0.2757
 7365TIP3    H143510   2.200   6.064  12.620 -0.1245 -1.2543  0.4330
 7365TIP3    H243511   2.185   6.094  12.767  0.3625  0.0321  0.2332
 7366TIP3   OH243512   5.884   4.938   3.984 -0.0017 -0.7038  0.5001
 7366TIP3    H143513   5.789   4.935   3.997 -0.2598 -1.2181 -1.2546
 7366TIP3    H243514   5.920   4.912   4.068 -1.3204  1.9832  2.0404
 7367TIP3   OH243515   2.766   0.867  16.632  0.1204  0.6397 -0.2220
 7367TIP3    H143516   2.842   0.882  16.577 -0.4562  2.1058 -0.6535
 7367TIP3    H243517   2.766   0.772  16.647  2.0410  0.6176 -0.1533
 7368TIP3   OH243518   2.536   4.574   3.121 -0.6088  0.2459 -0.0967
 7368TIP3    H143519   2.558   4.514   3.049 -0.8494  2.1016 -1.8092
 7368TIP3    H243520   2.614   4.573   3.177 -0.5848 -1.5758 -0.0788
 7369TIP3   OH243521   3.363   2.799   5.442 -0.4722 -0.2493 -0.6073
 7369TIP3    H143522   3.407   2.854   5.507 -0.6006 -0.7562 -0.0833
 7369TIP3    H243523   3.413   2.812   5.361  0.3881 -0.5053 -0.1233
 7370TIP3   OH243524   0.163   5.444   1.114 -0.3120 -0.7328  0.3780
 7370TIP3    H143525   0.148   5.417   1.204 -0.0553  0.7387  0.8953
 7370TIP3    H243526   0.177   5.539   1.119 -0.4329 -0.5950 -1.2267
 7371TIP3   OH243527   2.217   2.963   1.713  0.2668  0.2799  0.4730
 7371TIP3    H143528   2.192   2.871   1.702  2.5091 -0.6898  2.5834
 7371TIP3    H243529   2.136   3.006   1.740 -0.7510 -1.1284 -0.1817
 7372TIP3   OH243530   3.150   6.189  12.910  0.1537  0.3376 -0.4708
 7372TIP3    H143531   3.228   6.241  12.929  2.1235 -2.2981 -0.6632
 7372TIP3    H243532   3.161   6.160  12.820 -0.8638 -0.3742 -0.3891
 7373TIP3   OH243533   0.863   5.529  13.724  0.2836 -0.1830 -0.0257
 7373TIP3    H143534   0.938   5.515  13.781  1.1961  0.8781 -0.9142
 7373TIP3    H243535   0.857   5.624  13.715 -1.2646 -0.2367  0.1406
 7374TIP3   OH243536   3.576   0.115  16.468  0.3649 -0.4695 -0.6715
 7374TIP3    H143537   3.643   0.180  16.488  0.2623 -0.5621  0.0100
 7374TIP3    H243538   3.562   0.123  16.374  0.4108  0.4350 -0.6079
 7375TIP3   OH243539   0.615   5.413   2.534 -0.1747 -0.4697 -0.0707
 7375TIP3    H143540   0.548   5.426   2.467 -2.2153 -0.8701  1.7952
 7375TIP3    H243541   0.586   5.336   2.582  0.3046  0.7500  2.2957
 7376TIP3   OH243542   1.655   1.562   1.961  0.2135  0.1462  0.1659
 7376TIP3    H143543   1.728   1.615   1.929  0.8352  0.3133  1.7444
 7376TIP3    H243544   1.631   1.603   2.044 -0.3761 -1.0770  0.6240
 7377TIP3   OH243545   5.786   4.644   3.835 -0.2434  0.1028 -0.1794
 7377TIP3    H143546   5.810   4.587   3.762  1.5225  0.5243  0.0192
 7377TIP3    H243547   5.783   4.586   3.911  1.2813  0.1742 -0.0267
 7378TIP3   OH243548   0.417   0.944  16.070  0.0074 -0.4338 -0.2403
 7378TIP3    H143549   0.438   0.851  16.080 -0.5193 -0.5796 -0.4958
 7378TIP3    H243550   0.397   0.974  16.159  0.3052 -0.5325 -0.1382
 7379TIP3   OH243551   4.673   6.575   3.314  0.1224  0.2429  0.2198
 7379TIP3    H143552   4.713   6.621   3.387 -1.4283  1.3062  0.4620
 7379TIP3    H243553   4.646   6.644   3.254 -0.2127 -0.5015 -0.5078
 7380TIP3   OH243554   5.260   5.377   3.255  0.0322  0.1549  0.2158
 7380TIP3    H143555   5.295   5.343   3.337 -1.0236  1.7073  1.3674
 7380TIP3    H243556   5.248   5.299   3.200 -0.6956 -1.1217  2.0954
 7381TIP3   OH243557   0.020   4.175   1.083 -0.6538 -0.3372 -0.2334
 7381TIP3    H143558   0.007   4.109   1.152  0.0289 -1.1101 -0.8156
 7381TIP3    H243559  -0.054   4.162   1.024 -0.4836 -0.6403 -0.3842
 7382TIP3   OH243560   5.927   3.313   3.793 -0.1983 -0.6345  0.5445
 7382TIP3    H143561   5.857   3.299   3.858 -0.3647 -0.2122  0.4552
 7382TIP3    H243562   5.963   3.225   3.779 -1.3326 -1.0213 -0.1165
 7383TIP3   OH243563   0.049   5.433  16.806 -0.3427 -0.1621 -0.0081
 7383TIP3    H143564   0.027   5.361  16.865  1.9621 -2.0335 -1.2388
 7383TIP3    H243565   0.110   5.394  16.743  2.6452  3.2888  0.4226
 7384TIP3   OH243566   5.036   2.764  15.602  0.5071 -0.3215  0.3659
 7384TIP3    H143567   5.123   2.795  15.578 -0.3038  1.4434 -0.4814
 7384TIP3    H243568   4.989   2.843  15.629 -1.1119 -1.0810 -0.1065
 7385TIP3   OH243569   2.729   6.547  11.203  0.3726  0.7703 -0.1131
 7385TIP3    H143570   2.743   6.630  11.157 -0.5087  0.9545 -0.0601
 7385TIP3    H243571   2.705   6.485  11.134  0.9039  0.5788 -0.1360
 7386TIP3   OH243572   2.833   3.603  12.151 -0.9527  0.2501  0.0664
 7386TIP3    H143573   2.770   3.621  12.221 -1.6068  1.2228 -0.7403
 7386TIP3    H243574   2.806   3.661  12.080  1.2916  1.1956 -0.0800
 7387TIP3   OH243575   1.459   4.268   5.735 -0.6760  0.6838 -0.2174
 7387TIP3    H143576   1.544   4.239   5.768 -1.4962 -0.2385  1.1892
 7387TIP3    H243577   1.480   4.332   5.667  1.1398 -0.3434 -0.6743
 7388TIP3   OH243578   6.550   4.151  13.612  0.2838 -0.2910 -0.1482
 7388TIP3    H143579   6.576   4.198  13.691 -0.3286  2.3348 -1.3982
 7388TIP3    H243580   6.596   4.196  13.541 -2.2886  0.0808 -1.7093
 7389TIP3   OH243581   1.772   3.835  12.595  0.1391  0.9714  0.6696
 7389TIP3    H143582   1.768   3.770  12.525 -1.7036  1.7266 -0.0123
 7389TIP3    H243583   1.829   3.797  12.661  1.0677 -0.2409 -0.7775
 7390TIP3   OH243584   2.075   6.497   3.171 -0.4912  0.1305 -0.5134
 7390TIP3    H143585   2.025   6.422   3.203  1.3514 -0.6538  0.6764
 7390TIP3    H243586   2.069   6.491   3.076 -0.4667 -1.4829 -0.4437
 7391TIP3   OH243587   0.718   4.452   1.372  0.3882  0.0542  0.6044
 7391TIP3    H143588   0.743   4.360   1.380  3.2123  0.2157 -3.3428
 7391TIP3    H243589   0.639   4.451   1.318 -0.5980 -0.0161  1.9919
 7392TIP3   OH243590   5.332   6.187  13.140 -0.5661  0.1493  0.1389
 7392TIP3    H143591   5.351   6.280  13.152 -1.7546  0.2335  1.7172
 7392TIP3    H243592   5.302   6.180  13.049  2.7766  0.6590 -1.1317
 7393TIP3   OH243593   5.709   1.395  12.395  0.0344  0.3588 -0.1123
 7393TIP3    H143594   5.642   1.399  12.464 -1.1761 -1.6318 -1.0990
 7393TIP3    H243595   5.693   1.473  12.342 -1.8811 -0.3303 -0.6156
 7394TIP3   OH243596   5.140   1.576  11.072 -0.2778  0.1919  0.3594
 7394TIP3    H143597   5.188   1.501  11.108 -2.9000 -1.7364  0.1224
 7394TIP3    H243598   5.184   1.595  10.989  2.7159  1.4458  2.0597
 7395TIP3   OH243599   5.435   0.098  14.366  0.2760 -0.4374  0.2949
 7395TIP3    H143600   5.351   0.130  14.399  0.2541  0.7837 -0.8744
 7395TIP3    H243601   5.464   0.165  14.305  1.4239 -1.5227 -0.4007
 7396TIP3   OH243602   4.831   5.157  13.720  0.0953 -0.7757  0.2965
 7396TIP3    H143603   4.841   5.213  13.643  1.9517  0.6700  1.5014
 7396TIP3    H243604   4.764   5.201  13.773 -0.1463 -0.9853  0.1653
 7397TIP3   OH243605   0.569   3.110  14.710 -0.4751 -0.3095 -0.7071
 7397TIP3    H143606   0.576   3.196  14.670  0.0437 -0.6611 -1.4037
 7397TIP3    H243607   0.656   3.094  14.747 -0.8522 -0.1313  0.2822
 7398TIP3   OH243608   2.443   1.274   1.281  0.0927 -0.8728 -0.4847
 7398TIP3    H143609   2.506   1.346   1.272 -0.9821  0.1102 -0.3884
 7398TIP3    H243610   2.360   1.311   1.252 -0.6223 -1.8836  0.2062
 7399TIP3   OH243611   4.249   5.249  15.900  0.6742 -0.5407  0.1473
 7399TIP3    H143612   4.161   5.234  15.934  1.4972 -1.2800  2.0329
 7399TIP3    H243613   4.266   5.342  15.916  1.1986 -0.9571  2.2388
 7400TIP3   OH243614   1.075   5.704  14.403 -0.0860 -0.4338 -0.1996
 7400TIP3    H143615   1.096   5.610  14.403 -0.7369 -0.5998  0.5909
 7400TIP3    H243616   1.102   5.733  14.490 -1.2379 -0.2197  0.0946
 7401TIP3   OH243617   2.161   3.649  14.250 -0.3206  0.5096 -0.0152
 7401TIP3    H143618   2.104   3.650  14.173 -1.3129 -0.0169  0.7039
 7401TIP3    H243619   2.214   3.570  14.238 -1.3645 -0.2735  0.4742
 7402TIP3   OH243620   0.011   1.073   3.198  0.0453  0.0062 -0.0738
 7402TIP3    H143621   0.005   0.978   3.192 -1.5059  0.0830 -0.0602
 7402TIP3    H243622   0.057   1.089   3.280 -0.9914 -0.7279  0.6700
 7403TIP3   OH243623   2.158   5.036   2.056  0.5247 -0.0740  0.7488
 7403TIP3    H143624   2.122   5.094   2.123 -3.6095 -0.0310 -1.1783
 7403TIP3    H243625   2.142   5.081   1.973  1.5309 -1.9356 -0.5440
 7404TIP3   OH243626   0.629   5.780   0.137  0.7110  0.5313 -0.2152
 7404TIP3    H143627   0.597   5.857   0.090  0.2405  0.6267  0.2569
 7404TIP3    H243628   0.717   5.803   0.165  1.1795  0.3123 -1.4224
 7405TIP3   OH243629   5.537   4.868   1.693 -1.3440 -0.9041  0.6416
 7405TIP3    H143630   5.533   4.893   1.785 -0.6201 -1.0380  0.7186
 7405TIP3    H243631   5.477   4.793   1.685 -1.3093 -0.9737  1.0310
 7406TIP3   OH243632   1.604   1.251   5.508  0.2830 -0.0399 -1.0085
 7406TIP3    H143633   1.555   1.329   5.534 -0.7797 -1.4324  1.5008
 7406TIP3    H243634   1.537   1.192   5.473  0.6630 -0.7663 -0.5211
 7407TIP3   OH243635   4.101   5.254   5.404  0.2480  0.6516  0.1383
 7407TIP3    H143636   4.089   5.248   5.499 -0.2436  0.2588  0.0553
 7407TIP3    H243637   4.082   5.345   5.383 -0.5725  0.5203  0.2927
 7408TIP3   OH243638   5.814   1.499   4.419  0.5039 -0.5006 -0.2712
 7408TIP3    H143639   5.822   1.594   4.412  2.4145 -0.7512 -2.6626
 7408TIP3    H243640   5.759   1.474   4.345  1.7240 -1.3907 -0.9088
 7409TIP3   OH243641   2.201   5.519  12.707  0.0126 -0.9303 -0.2086
 7409TIP3    H143642   2.180   5.592  12.649 -0.7545 -0.9448  0.0394
 7409TIP3    H243643   2.267   5.469  12.659  0.3806 -0.2050 -0.4800
 7410TIP3   OH243644   1.495   1.206   0.525  0.0918  0.5082  0.0642
 7410TIP3    H143645   1.547   1.270   0.476 -1.5288  3.8720  2.3708
 7410TIP3    H243646   1.556   1.134   0.541  2.3407  1.7989 -1.9093
 7411TIP3   OH243647   3.388   3.080   0.170  0.6470 -0.0473  0.5107
 7411TIP3    H143648   3.373   3.167   0.206  2.4902 -0.4960  2.6296
 7411TIP3    H243649   3.300   3.041   0.165 -0.4072  2.3283 -1.9070
 7412TIP3   OH243650   0.933   4.692  16.598  0.0998 -0.2808 -0.0008
 7412TIP3    H143651   0.922   4.729  16.686  0.0106  0.1722 -0.2025
 7412TIP3    H243652   0.966   4.603  16.614  0.3038 -0.1216  0.4838
 7413TIP3   OH243653   0.029   0.719   1.527 -0.7609  0.0594 -0.2683
 7413TIP3    H143654   0.026   0.696   1.434 -0.8174 -1.0934  0.0046
 7413TIP3    H243655   0.121   0.706   1.552 -0.9664 -0.7244  0.0945
 7414TIP3   OH243656   2.819   3.178   3.349  0.3643  0.5762 -0.2511
 7414TIP3    H143657   2.801   3.107   3.288 -1.9176 -0.0198  1.0153
 7414TIP3    H243658   2.837   3.254   3.293 -1.9119  0.1217 -1.7022
 7415TIP3   OH243659   1.806   0.961   4.857 -0.1182 -0.1075 -0.0957
 7415TIP3    H143660   1.736   0.942   4.919  0.7320  0.5744  1.1254
 7415TIP3    H243661   1.793   1.052   4.833  0.1024 -0.0980 -0.1794
 7416TIP3   OH243662   3.453   6.234   5.307 -0.5399 -0.2074  0.1871
 7416TIP3    H143663   3.358   6.241   5.301 -0.4273  0.4612 -1.7151
 7416TIP3    H243664   3.486   6.298   5.243  1.1666 -0.7942  0.4174
 7417TIP3   OH243665   5.756   3.717   1.444  0.3700  0.0630 -0.5310
 7417TIP3    H143666   5.737   3.633   1.485  0.8829 -0.1782 -0.7850
 7417TIP3    H243667   5.678   3.770   1.460  0.6582  0.0593  0.9761
 7418TIP3   OH243668   0.967   0.960   2.563  0.2833  0.5341 -0.9182
 7418TIP3    H143669   0.936   0.951   2.653 -0.2966  1.7492 -0.9760
 7418TIP3    H243670   0.938   1.047   2.536  2.2560  1.0606 -1.5593
 7419TIP3   OH243671   3.421   0.594  11.391  0.2595  0.1037  0.1018
 7419TIP3    H143672   3.476   0.580  11.313  2.4404 -0.7652  1.6841
 7419TIP3    H243673   3.457   0.673  11.431 -1.2886  0.9273 -0.0707
 7420TIP3   OH243674   3.140   1.882   0.970 -0.0708 -0.6416 -0.0576
 7420TIP3    H143675   3.223   1.852   0.932  0.7720 -2.2191  2.7449
 7420TIP3    H243676   3.089   1.803   0.983 -0.8058 -0.0412  0.8824
 7421TIP3   OH243677   2.696   6.236  11.953 -0.2358 -0.6505 -0.4645
 7421TIP3    H143678   2.618   6.182  11.952  0.2242 -1.3620  0.4959
 7421TIP3    H243679   2.721   6.245  11.861  0.0391 -2.6180 -0.6178
 7422TIP3   OH243680   3.734   0.046  17.019  0.0625  0.4984  0.1076
 7422TIP3    H143681   3.777   0.131  17.023  0.6520  0.2676 -0.9442
 7422TIP3    H243682   3.798  -0.015  17.057  0.0444  0.3705 -0.0681
 7423TIP3   OH243683   2.027   2.593   4.451  0.0919  0.0531  0.5466
 7423TIP3    H143684   1.999   2.680   4.480  1.4061 -0.0379  2.2480
 7423TIP3    H243685   2.067   2.608   4.365 -2.4445  0.5915 -0.6322
 7424TIP3   OH243686   5.115   0.621   0.629  0.1029 -0.5167  0.3903
 7424TIP3    H143687   5.184   0.603   0.565  0.4363 -1.0320  0.8865
 7424TIP3    H243688   5.119   0.716   0.642 -0.4169 -0.3019 -0.8440
 7425TIP3   OH243689   2.411   2.210  15.557  0.0274  0.4947 -0.4205
 7425TIP3    H143690   2.325   2.225  15.519  0.3593 -0.6644 -1.6845
 7425TIP3    H243691   2.445   2.297  15.576 -1.9486  0.9593  1.3967
 7426TIP3   OH243692   2.402   2.700   4.537 -0.2130 -0.0082  0.2360
 7426TIP3    H143693   2.437   2.618   4.573  1.1821  0.1184 -0.7293
 7426TIP3    H243694   2.405   2.761   4.611 -0.3264 -0.5573  0.7032
 7427TIP3   OH243695   3.823   4.320  15.175  0.3360 -0.6083  0.0824
 7427TIP3    H143696   3.762   4.380  15.217 -0.2893  0.6256 -2.4035
 7427TIP3    H243697   3.909   4.348  15.207 -0.1357 -0.0740  0.9197
 7428TIP3   OH243698   6.239   5.981  10.836  0.2780  0.2492 -0.2047
 7428TIP3    H143699   6.244   6.074  10.816 -1.6371 -0.1188 -2.9488
 7428TIP3    H243700   6.327   5.947  10.822  0.6708  1.4023 -0.5574
 7429TIP3   OH243701   6.358   0.694  11.776 -0.2847 -0.0487 -0.2366
 7429TIP3    H143702   6.328   0.775  11.736 -1.0875 -0.8771 -1.3894
 7429TIP3    H243703   6.306   0.686  11.856 -1.2924 -0.1638 -0.8889
 7430TIP3   OH243704   2.255   6.237   0.685  0.2499 -0.5863  0.5137
 7430TIP3    H143705   2.285   6.247   0.776  0.2651  0.1616  0.4339
 7430TIP3    H243706   2.228   6.325   0.659 -0.8824 -1.0127  0.1841
 7431TIP3   OH243707   1.439   5.167   0.386 -0.1101 -0.4049  0.0551
 7431TIP3    H143708   1.505   5.235   0.374  0.5499 -1.2793 -1.6501
 7431TIP3    H243709   1.419   5.169   0.479  1.9106  0.2551  0.5299
 7432TIP3   OH243710   0.254   1.260  15.576 -0.2746 -0.3804  0.2110
 7432TIP3    H143711   0.336   1.289  15.617 -0.5565 -0.6898  1.0157
 7432TIP3    H243712   0.257   1.298  15.488 -0.2288  1.3501  0.9121
 7433TIP3   OH243713   3.286   2.823  14.639 -0.2798  0.2405  0.5328
 7433TIP3    H143714   3.202   2.843  14.681 -1.0108  1.5854 -1.4291
 7433TIP3    H243715   3.263   2.784  14.555  1.1253 -1.6542  0.9601
 7434TIP3   OH243716   2.081   6.619  11.656  0.1340  0.1690 -0.0921
 7434TIP3    H143717   2.143   6.570  11.601  1.6304  0.6742  1.0827
 7434TIP3    H243718   1.998   6.615  11.608  0.9471 -0.9517 -1.4759
 7435TIP3   OH243719   4.996   3.127   5.824 -0.0823  0.2422  1.0689
 7435TIP3    H143720   4.970   3.219   5.828 -0.2606  0.2127  0.6120
 7435TIP3    H243721   4.935   3.088   5.762  2.0608  0.5166 -1.3740
 7436TIP3   OH243722   0.178   5.362   1.360 -0.6249  0.0762 -1.1543
 7436TIP3    H143723   0.240   5.361   1.433 -1.2380  3.8177 -0.4083
 7436TIP3    H243724   0.114   5.294   1.383 -0.0880  0.2476  1.1180
 7437TIP3   OH243725   0.737   5.106   0.863  0.4016 -0.1126 -0.0449
 7437TIP3    H143726   0.683   5.085   0.939  0.7497  1.1564  0.5819
 7437TIP3    H243727   0.818   5.142   0.900 -0.3629  2.8160 -0.9678
 7438TIP3   OH243728   6.246   3.992  15.928 -0.0534 -0.3313  0.0771
 7438TIP3    H143729   6.315   4.035  15.876 -1.8049  0.9457 -1.3192
 7438TIP3    H243730   6.274   3.901  15.934  2.3035  0.3458  0.5308
 7439TIP3   OH243731   3.692   2.307  15.702  0.1338 -0.0248  0.2628
 7439TIP3    H143732   3.682   2.333  15.793 -0.2096 -0.9228  0.4890
 7439TIP3    H243733   3.769   2.356  15.671 -1.1021  2.0725  0.3410
 7440TIP3   OH243734   5.038   2.455  13.199 -0.2167 -0.3409 -0.1077
 7440TIP3    H143735   5.083   2.520  13.253 -1.0863 -0.6745  1.0526
 7440TIP3    H243736   5.004   2.391  13.261 -3.2806  0.4730 -0.7667
 7441TIP3   OH243737   6.149   2.925   4.591 -0.1788  0.4332 -0.1868
 7441TIP3    H143738   6.202   2.964   4.522  2.1331 -4.5184 -1.6886
 7441TIP3    H243739   6.080   2.878   4.544  0.6649 -1.9675  0.8033
 7442TIP3   OH243740   1.822   6.551   0.635 -0.7943 -0.0207 -0.0691
 7442TIP3    H143741   1.886   6.594   0.578 -2.1207  1.6431 -0.3889
 7442TIP3    H243742   1.874   6.501   0.697  0.7356 -0.6060 -1.7480
 7443TIP3   OH243743   0.426   0.638  16.047  0.1166 -0.4420  0.5744
 7443TIP3    H143744   0.465   0.603  15.967 -0.7923  0.0057 -0.0940
 7443TIP3    H243745   0.436   0.569  16.112  2.8039 -0.0191  0.7212
 7444TIP3   OH243746   3.167   3.553   2.369 -0.5447 -0.1376 -0.5073
 7444TIP3    H143747   3.110   3.555   2.446 -0.4330 -0.8017 -0.4063
 7444TIP3    H243748   3.241   3.609   2.392 -1.0777  0.6266 -0.5875
 7445TIP3   OH243749   1.745   5.254  11.855  0.0882  0.5625  0.6744
 7445TIP3    H143750   1.670   5.194  11.860  1.9143 -1.8485  0.6397
 7445TIP3    H243751   1.758   5.283  11.945 -0.6420  0.7357  0.7353
 7446TIP3   OH243752   6.748   2.105  15.523 -0.2445  0.0918  0.4510
 7446TIP3    H143753   6.832   2.116  15.479 -0.6167  2.0229  0.1439
 7446TIP3    H243754   6.762   2.141  15.611 -1.0379  1.5114  0.0224
 7447TIP3   OH243755   1.445   0.763   5.625  0.0122  0.3979 -0.1009
 7447TIP3    H143756   1.484   0.736   5.542  0.2142  0.1428  0.0769
 7447TIP3    H243757   1.446   0.859   5.621 -0.8979  0.3841 -0.8166
 7448TIP3   OH243758   0.830   4.373   4.213  0.8109  0.5770 -0.0115
 7448TIP3    H143759   0.838   4.421   4.295 -2.2350  0.9076  0.2251
 7448TIP3    H243760   0.873   4.429   4.148 -0.9287  2.7528  0.5912
 7449TIP3   OH243761   0.921   4.597   4.070 -0.0980  0.3128  0.0563
 7449TIP3    H143762   0.841   4.648   4.080 -0.6838 -0.2090 -1.7335
 7449TIP3    H243763   0.967   4.637   3.996  1.5656  0.8918  1.3271
 7450TIP3   OH243764   6.503   0.166   6.143 -0.1716 -0.1265  0.2791
 7450TIP3    H143765   6.550   0.234   6.189 -0.1441  0.2898 -0.3498
 7450TIP3    H243766   6.539   0.084   6.177  0.6205  0.1816  0.2056
 7451TIP3   OH243767   5.264   2.350   3.973 -0.2030  0.2326  0.7870
 7451TIP3    H143768   5.202   2.294   3.925  0.7492 -0.3700  0.2207
 7451TIP3    H243769   5.219   2.372   4.054 -0.4029 -1.8242  1.2882
 7452TIP3   OH243770   5.218   6.329  10.528  0.2063 -0.3645 -0.0800
 7452TIP3    H143771   5.251   6.368  10.447  1.6291 -0.7722  0.2813
 7452TIP3    H243772   5.293   6.328  10.587 -0.9669  0.5143  1.4878
 7453TIP3   OH243773   3.249   1.588  15.508 -0.0333  0.0389  0.3201
 7453TIP3    H143774   3.342   1.564  15.513 -0.5939 -2.4276 -0.0208
 7453TIP3    H243775   3.243   1.642  15.429  0.8735 -1.1899 -0.6391
 7454TIP3   OH243776   2.384   5.792   2.869 -0.1239  0.4715 -0.0641
 7454TIP3    H143777   2.435   5.821   2.945  0.1308  0.3836 -0.1971
 7454TIP3    H243778   2.437   5.819   2.794 -0.9605  1.6735 -0.2545
 7455TIP3   OH243779   0.138   1.623  13.898 -0.1541  0.4093  0.1759
 7455TIP3    H143780   0.186   1.568  13.960 -3.9334 -3.0409  0.4196
 7455TIP3    H243781   0.056   1.644  13.941 -1.8444  0.1103 -2.6184
 7456TIP3   OH243782   6.376   2.115   3.075 -0.0610  0.2528 -0.0646
 7456TIP3    H143783   6.411   2.052   3.013 -0.3450 -1.8502  1.7941
 7456TIP3    H243784   6.442   2.184   3.079  1.0484 -0.7161 -0.9446
 7457TIP3   OH243785   0.058   1.075   5.546  0.4176  0.0312 -0.0578
 7457TIP3    H143786   0.007   1.155   5.559  0.6943  0.4451 -1.4260
 7457TIP3    H243787  -0.005   1.004   5.559  0.1296  0.4557  0.9953
 7458TIP3   OH243788   0.867   4.368   2.564  0.2627  0.0004 -0.3581
 7458TIP3    H143789   0.811   4.292   2.547  0.1055  0.1119 -0.3347
 7458TIP3    H243790   0.935   4.334   2.622 -0.2596  0.0670  0.3046
 7459TIP3   OH243791   6.073   4.546  12.058  0.5093 -0.1814  0.3636
 7459TIP3    H143792   6.062   4.540  11.964  0.5174  2.3756  0.1248
 7459TIP3    H243793   6.168   4.555  12.071  0.5864 -1.3088  0.7117
 7460TIP3   OH243794   1.975   4.851  12.995 -0.1235 -0.2726 -0.1746
 7460TIP3    H143795   1.983   4.888  12.907 -0.4261  0.1393 -0.0332
 7460TIP3    H243796   2.029   4.910  13.049  0.4809 -0.8218 -0.1653
 7461TIP3   OH243797   5.076   0.785  15.092 -0.2814  0.2102  0.0551
 7461TIP3    H143798   5.043   0.835  15.167  0.0213 -1.2919  1.2465
 7461TIP3    H243799   5.013   0.801  15.022 -0.5351  1.7140  0.6005
 7462TIP3   OH243800   2.131   3.356   0.256  0.0575 -0.0801 -0.3012
 7462TIP3    H143801   2.039   3.330   0.251  0.1078 -0.4759  0.5020
 7462TIP3    H243802   2.129   3.442   0.298  0.0578 -0.1810 -0.0898
 7463TIP3   OH243803   2.988   4.772   2.573  0.4344  0.1120  0.0509
 7463TIP3    H143804   3.041   4.845   2.607  0.1550  0.3197  0.0406
 7463TIP3    H243805   2.987   4.786   2.478  1.8030 -0.8583 -0.1458
 7464TIP3   OH243806   2.556   4.539  14.254  0.4467  0.3214 -0.2255
 7464TIP3    H143807   2.558   4.454  14.299  1.8620  0.6247  0.3160
 7464TIP3    H243808   2.611   4.596  14.307 -0.2224  1.5097 -0.7665
 7465TIP3   OH243809   6.743   5.248   4.578  0.6146  0.2047 -0.0714
 7465TIP3    H143810   6.678   5.205   4.522  0.7379 -1.7654  1.2165
 7465TIP3    H243811   6.815   5.270   4.519 -0.1986  0.2173 -1.0800
 7466TIP3   OH243812   3.886   3.531   0.580  0.4138 -0.7158 -0.2941
 7466TIP3    H143813   3.823   3.600   0.599 -0.9582 -1.8777 -0.4399
 7466TIP3    H243814   3.907   3.542   0.488  1.2066  0.2900  0.0014
 7467TIP3   OH243815   2.580   3.179  13.754  0.3282  0.5418 -0.1306
 7467TIP3    H143816   2.508   3.132  13.796  1.6802 -3.1126 -1.5011
 7467TIP3    H243817   2.543   3.209  13.671  0.4026 -1.8567 -1.1154
 7468TIP3   OH243818   6.123   4.151  15.082 -0.0138 -0.6371  0.0488
 7468TIP3    H143819   6.074   4.232  15.070  0.1221 -0.3847  1.0370
 7468TIP3    H243820   6.213   4.180  15.098  1.0762 -1.1456 -4.0010
 7469TIP3   OH243821   3.448   0.486   1.004 -0.4895  0.6709 -0.7769
 7469TIP3    H143822   3.416   0.550   1.066  0.0284 -0.0196  0.2295
 7469TIP3    H243823   3.503   0.427   1.056 -0.1620 -0.0090 -1.8547
 7470TIP3   OH243824   2.832   0.471  11.663  0.3388 -0.4983  0.1688
 7470TIP3    H143825   2.904   0.417  11.631 -0.0985  0.3696 -2.5861
 7470TIP3    H243826   2.753   0.420  11.642  0.0405 -0.3682  0.9266
 7471TIP3   OH243827   2.916   6.101  14.076 -0.2571  0.1780  0.5035
 7471TIP3    H143828   2.858   6.141  14.141  1.9215  2.1848  1.3472
 7471TIP3    H243829   2.997   6.084  14.124  0.8716  0.2422 -1.2991
 7472TIP3   OH243830   6.592   0.521  16.867  0.1683 -0.0296 -0.0596
 7472TIP3    H143831   6.558   0.470  16.941  1.7965 -2.6711 -0.9538
 7472TIP3    H243832   6.679   0.548  16.895  0.5547 -0.5252 -0.7333
 7473TIP3   OH243833   3.716   4.466   3.756  0.2078  0.2345 -0.1324
 7473TIP3    H143834   3.714   4.381   3.712  0.2604 -0.2766  0.8238
 7473TIP3    H243835   3.681   4.449   3.843 -2.3455  1.7247 -0.7639
 7474TIP3   OH243836   5.678   5.654   1.308  0.0100 -0.4931 -0.0009
 7474TIP3    H143837   5.699   5.730   1.362  2.1002 -0.5377 -0.6739
 7474TIP3    H243838   5.725   5.581   1.350 -2.1557 -1.5399  0.7860
 7475TIP3   OH243839   1.498   0.598  14.944  0.3891 -0.2373  0.2030
 7475TIP3    H143840   1.497   0.658  14.870  0.8137 -1.3268 -0.7183
 7475TIP3    H243841   1.581   0.615  14.988  1.4914 -1.5342 -1.2698
 7476TIP3   OH243842   0.708   6.761  11.445 -0.0756  0.0935 -0.2575
 7476TIP3    H143843   0.772   6.825  11.413  0.4668  0.2077  1.0061
 7476TIP3    H243844   0.655   6.740  11.368  1.4426  0.0272 -1.3345
 7477TIP3   OH243845   0.477   2.679  16.667  0.6527 -0.1776 -0.3871
 7477TIP3    H143846   0.526   2.610  16.712 -1.9779 -1.8686  0.0898
 7477TIP3    H243847   0.386   2.647  16.666 -0.7779  3.4322  0.1331
 7478TIP3   OH243848   0.707   0.829  11.408  0.6505  0.1385  0.0313
 7478TIP3    H143849   0.646   0.844  11.480  0.1504 -2.2580  0.2024
 7478TIP3    H243850   0.651   0.808  11.333  1.2173  0.0092 -0.3629
 7479TIP3   OH243851   0.465   3.763   2.714 -0.5847  0.1820  0.0340
 7479TIP3    H143852   0.486   3.705   2.787  0.2654  1.6583  0.9984
 7479TIP3    H243853   0.386   3.809   2.742 -1.9216 -1.2538 -1.2019
 7480TIP3   OH243854   6.465   2.523  15.489 -0.0436  0.1947 -0.4851
 7480TIP3    H143855   6.508   2.437  15.488 -0.9526 -0.4059  2.5949
 7480TIP3    H243856   6.372   2.503  15.485 -0.2524  1.0807 -0.1234
 7481TIP3   OH243857   4.250   6.047   2.646 -0.0340  0.1039 -0.1072
 7481TIP3    H143858   4.244   6.038   2.551 -0.1996 -2.5716  0.0622
 7481TIP3    H243859   4.344   6.058   2.663 -0.1761  2.6459 -0.6268
 7482TIP3   OH243860   1.848   6.460  11.053  0.2579 -0.0112 -0.2596
 7482TIP3    H143861   1.885   6.487  10.969 -0.6995  1.0054 -0.3689
 7482TIP3    H243862   1.800   6.536  11.085 -1.0463 -1.0085  0.2780
 7483TIP3   OH243863   3.798   0.829   1.979  0.0925  0.0383 -0.5331
 7483TIP3    H143864   3.784   0.832   2.074 -1.5147 -1.5796 -0.6650
 7483TIP3    H243865   3.854   0.752   1.966 -2.7447 -2.0882 -1.1062
 7484TIP3   OH243866   0.137   5.976  12.449  0.2055 -0.1923  0.1984
 7484TIP3    H143867   0.126   6.032  12.372 -1.7992 -1.3705 -0.4351
 7484TIP3    H243868   0.105   6.028  12.522  0.3608  0.2491 -0.0446
 7485TIP3   OH243869   3.435   2.565   5.572 -0.5033  0.3987  0.0085
 7485TIP3    H143870   3.401   2.632   5.513 -1.9856  0.2581  0.6629
 7485TIP3    H243871   3.467   2.496   5.514 -3.4896 -0.5143 -0.7133
 7486TIP3   OH243872   0.216   4.322   1.218 -0.4842 -0.6643  0.0449
 7486TIP3    H143873   0.207   4.402   1.166 -1.0030  0.8924  2.3697
 7486TIP3    H243874   0.145   4.266   1.187 -1.7103  0.8152  0.0382
 7487TIP3   OH243875   2.122   3.405   0.606  0.1677  0.3300  0.0618
 7487TIP3    H143876   2.144   3.372   0.519  2.0816  1.2515  0.1609
 7487TIP3    H243877   2.099   3.497   0.592  1.2296  0.6921  0.6093
 7488TIP3   OH243878   6.151   3.718  16.329  0.2478 -0.5605 -0.4007
 7488TIP3    H143879   6.111   3.656  16.389 -0.8635 -0.2705 -0.8246
 7488TIP3    H243880   6.163   3.798  16.381  1.9003 -1.1626  0.2142
 7489TIP3   OH243881   1.366   6.415  15.409  0.0002  0.3202 -0.0647
 7489TIP3    H143882   1.391   6.331  15.372  0.2857  0.4211 -0.1069
 7489TIP3    H243883   1.305   6.452  15.345  0.4010  0.4420 -0.3839
 7490TIP3   OH243884   1.551   6.188  13.873 -0.1425  0.5919 -0.0346
 7490TIP3    H143885   1.535   6.278  13.845  0.4583  0.3077 -1.3520
 7490TIP3    H243886   1.578   6.196  13.964 -1.8579  1.5778  0.4387
 7491TIP3   OH243887   1.219   1.758  11.324  0.3070  0.7313  0.3020
 7491TIP3    H143888   1.247   1.678  11.280  0.1016  0.8688 -0.0910
 7491TIP3    H243889   1.272   1.827  11.284 -0.3537  0.9476 -0.2166
 7492TIP3   OH243890   4.760   5.096   1.644 -0.3248  0.6083  0.2029
 7492TIP3    H143891   4.740   5.183   1.610  0.7247  1.0675  0.7330
 7492TIP3    H243892   4.847   5.076   1.610  0.2360  0.5733  1.6041
 7493TIP3   OH243893   4.955   1.192  14.494 -0.0561  0.6943 -0.2224
 7493TIP3    H143894   5.036   1.232  14.526  0.4699 -1.0452  0.7652
 7493TIP3    H243895   4.914   1.155  14.572 -0.4061 -0.8033 -1.0666
 7494TIP3   OH243896   6.648   6.189  11.716  0.1542  0.4287 -0.3936
 7494TIP3    H143897   6.672   6.262  11.660  1.0969  1.1992  0.9760
 7494TIP3    H243898   6.721   6.128  11.709 -0.0917  0.1498 -0.5993
 7495TIP3   OH243899   3.900   2.286   4.204  0.0694 -0.5373 -0.2711
 7495TIP3    H143900   3.833   2.314   4.141 -0.1905 -1.4524 -0.4090
 7495TIP3    H243901   3.876   2.330   4.285 -1.0545 -1.3285 -0.1641
 7496TIP3   OH243902   4.773   4.544   2.905  0.4987 -0.4822  0.1928
 7496TIP3    H143903   4.715   4.505   2.839  2.1755 -0.0035 -1.6782
 7496TIP3    H243904   4.818   4.469   2.944 -0.7522 -0.7949  1.0654
 7497TIP3   OH243905   3.783   4.738  13.115 -0.7438  0.1990  0.0063
 7497TIP3    H143906   3.878   4.733  13.125 -0.9623 -3.4818  2.3435
 7497TIP3    H243907   3.752   4.766  13.201 -1.8260  1.7357 -0.8464
 7498TIP3   OH243908   2.218   6.081   5.138 -0.6608  0.0022 -0.5718
 7498TIP3    H143909   2.181   6.014   5.195 -0.2965 -0.6084 -1.0309
 7498TIP3    H243910   2.144   6.110   5.084 -0.6752 -0.5501 -0.8589
 7499TIP3   OH243911   4.926   5.666  17.051  0.4250  0.2796  0.5367
 7499TIP3    H143912   4.987   5.740  17.059  0.1583  0.5018  0.5539
 7499TIP3    H243913   4.907   5.660  16.957  2.3564 -1.3463  0.1824
 7500TIP3   OH243914   5.480   3.833   3.026  0.2385  0.0648  0.2907
 7500TIP3    H143915   5.487   3.907   3.086  1.7569 -0.9195  1.3965
 7500TIP3    H243916   5.552   3.775   3.051 -0.1924 -1.2348 -1.3184
 7501TIP3   OH243917   4.967   6.101  15.307 -0.8304 -0.3294 -0.5868
 7501TIP3    H143918   4.906   6.173  15.323 -0.6925 -0.3709  0.1435
 7501TIP3    H243919   5.051   6.145  15.292 -0.8143 -0.3233 -0.4774
 7502TIP3   OH243920   6.111   2.107   1.524 -0.3677  0.3583  0.3796
 7502TIP3    H143921   6.187   2.137   1.474  0.1245  1.4214  1.6981
 7502TIP3    H243922   6.074   2.187   1.562 -0.7766 -0.3870  1.6075
 7503TIP3   OH243923   6.123   4.874  14.101 -0.1842 -0.3437 -0.1340
 7503TIP3    H143924   6.180   4.801  14.080 -0.4200  0.2641 -3.3594
 7503TIP3    H243925   6.034   4.842  14.084 -0.1849  1.1665 -3.8605
 7504TIP3   OH243926   1.432   2.445   5.049  0.5757  0.0026 -0.0972
 7504TIP3    H143927   1.517   2.405   5.071  1.6907  2.1627 -0.1659
 7504TIP3    H243928   1.435   2.458   4.954  1.1062  1.9184  0.1276
 7505TIP3   OH243929   5.743   0.113   5.535 -0.5742  0.4996  0.1958
 7505TIP3    H143930   5.812   0.097   5.599 -0.5027 -2.1110 -0.4319
 7505TIP3    H243931   5.783   0.172   5.471  0.9893 -0.6408  0.0551
 7506TIP3   OH243932   1.438   6.111   0.250 -0.3358  0.1803 -0.3844
 7506TIP3    H143933   1.423   6.138   0.340 -1.7870 -2.2208  0.1951
 7506TIP3    H243934   1.388   6.173   0.197  0.0808  1.2751  0.4697
 7507TIP3   OH243935   4.591   6.190   1.580 -0.5668  0.1134  0.1505
 7507TIP3    H143936   4.500   6.210   1.556 -0.1460  0.1375 -1.4967
 7507TIP3    H243937   4.642   6.260   1.540  0.2862 -0.5516  0.0607
 7508TIP3   OH243938   6.496   6.455   0.287  0.0330  0.3080 -0.9151
 7508TIP3    H143939   6.508   6.363   0.307  0.7798  0.3690 -1.0352
 7508TIP3    H243940   6.492   6.458   0.191  2.1819  0.6105 -1.0424
 7509TIP3   OH243941   3.331   0.751  16.588  0.3431  0.6565 -0.4715
 7509TIP3    H143942   3.278   0.728  16.665  1.5363 -1.4318 -0.2035
 7509TIP3    H243943   3.395   0.814  16.621  2.3304 -1.9242  0.8994
 7510TIP3   OH243944   1.242   3.185   1.562  0.1774 -0.4274  0.2766
 7510TIP3    H143945   1.292   3.243   1.619 -0.4625  1.5018 -1.0105
 7510TIP3    H243946   1.306   3.122   1.530  0.7219 -1.0176  2.3637
 7511TIP3   OH243947   5.752   1.988   1.399 -0.2915  0.3078 -0.0865
 7511TIP3    H143948   5.783   2.073   1.368  2.6796 -0.8571 -0.5312
 7511TIP3    H243949   5.759   1.994   1.495 -0.7485  0.7598 -0.0728
 7512TIP3   OH243950   4.244   4.227   2.840 -0.2096  0.1237 -0.0232
 7512TIP3    H143951   4.266   4.134   2.850  2.1341  0.7658  1.5520
 7512TIP3    H243952   4.165   4.238   2.892 -0.4813 -0.9551 -0.1718
 7513TIP3   OH243953   2.715   5.994   1.585 -0.1678 -0.8101  0.0689
 7513TIP3    H143954   2.651   5.924   1.599 -2.0606  0.9871  0.8248
 7513TIP3    H243955   2.729   6.031   1.673  2.0209 -1.2052 -0.0600
 7514TIP3   OH243956   1.022   3.175  15.985  0.5430  0.1220  0.5690
 7514TIP3    H143957   1.117   3.164  15.984  0.4311 -1.0760 -0.7398
 7514TIP3    H243958   0.992   3.133  15.904 -1.2937 -1.4127  1.9423
 7515TIP3   OH243959   0.300   5.708   5.936  0.6707  0.7840 -0.0419
 7515TIP3    H143960   0.257   5.624   5.954  1.4137  0.4755  0.3220
 7515TIP3    H243961   0.254   5.743   5.860 -0.9029  0.9373  0.9156
 7516TIP3   OH243962   6.695   4.361  16.486 -0.4695 -0.1088  0.1566
 7516TIP3    H143963   6.760   4.291  16.488 -0.9240 -0.5335  1.3163
 7516TIP3    H243964   6.697   4.397  16.575 -2.0877 -0.3880  0.3276
 7517TIP3   OH243965   5.076   6.482   4.443 -0.4379  0.6528 -0.5075
 7517TIP3    H143966   5.117   6.561   4.477 -0.1265  0.1625  0.2723
 7517TIP3    H243967   5.136   6.411   4.466 -0.6546  0.1983 -1.3067
 7518TIP3   OH243968   6.245   4.461  16.896  0.4582  0.0737  0.1090
 7518TIP3    H143969   6.252   4.458  16.801 -2.8965 -1.9695 -0.2337
 7518TIP3    H243970   6.322   4.414  16.927  1.6557  0.8377 -1.5249
 7519TIP3   OH243971   4.752   4.132   0.466 -0.5982  0.6401  0.2233
 7519TIP3    H143972   4.673   4.078   0.473  0.2910 -0.9838 -1.3862
 7519TIP3    H243973   4.732   4.194   0.396  0.1917 -1.1239 -1.6736
 7520TIP3   OH243974   3.490   2.993   5.614  0.0170  0.2555 -0.0524
 7520TIP3    H143975   3.536   2.984   5.697 -1.6371 -0.4776  0.8164
 7520TIP3    H243976   3.540   3.060   5.567  2.1369 -0.7148  0.6923
 7521TIP3   OH243977   6.295   4.695   3.264  0.4020  0.1047  0.0587
 7521TIP3    H143978   6.316   4.692   3.170 -1.0318 -0.8703 -0.2572
 7521TIP3    H243979   6.263   4.784   3.278  2.3334  0.8529  0.0468
 7522TIP3   OH243980   6.222   6.276   0.531 -0.6603  0.0074  0.6319
 7522TIP3    H143981   6.274   6.335   0.585 -1.8541 -1.6137  3.7609
 7522TIP3    H243982   6.287   6.228   0.479  0.5518  1.5304  0.6566
 7523TIP3   OH243983   2.778   1.721  16.784  0.6126  0.3719  0.3531
 7523TIP3    H143984   2.869   1.745  16.800  0.7154  0.4755 -0.3561
 7523TIP3    H243985   2.783   1.653  16.717  0.1128  1.2176 -0.5686
 7524TIP3   OH243986   4.065   3.897  10.922 -0.4237  0.0058  0.2279
 7524TIP3    H143987   4.097   3.958  10.856 -0.2714  0.3694  0.6361
 7524TIP3    H243988   4.112   3.920  11.002  1.4528 -2.1658 -0.1349
 7525TIP3   OH243989   5.654   5.483  13.906  0.1528 -0.0739  0.1749
 7525TIP3    H143990   5.728   5.543  13.900  0.4535 -0.3679  0.8890
 7525TIP3    H243991   5.650   5.457  13.998  0.0488 -1.1753 -0.1161
 7526TIP3   OH243992   2.585   5.866   2.678 -0.2563 -0.0592 -0.0546
 7526TIP3    H143993   2.594   5.907   2.764 -0.8509 -1.0162  0.4725
 7526TIP3    H243994   2.674   5.837   2.656 -0.1874 -0.2324  0.4472
 7527TIP3   OH243995   0.379   3.149   4.835  0.5542 -0.5757  0.0904
 7527TIP3    H143996   0.329   3.195   4.767  0.0388  0.9757  1.4699
 7527TIP3    H243997   0.314   3.130   4.903  1.1701 -1.6212  0.4025
 7528TIP3   OH243998   2.311   5.456  13.529  0.1003  0.1851 -0.0379
 7528TIP3    H143999   2.280   5.506  13.453 -0.2236  0.8251  0.5009
 7528TIP3    H244000   2.233   5.443  13.583  0.1445 -1.0759 -0.2512
 7529TIP3   OH244001   0.004   2.049  12.668  0.6963  0.3304  0.1332
 7529TIP3    H144002  -0.002   1.954  12.656  0.0904  0.5102 -1.0955
 7529TIP3    H244003  -0.046   2.086  12.596  0.7734  1.5959  0.7000
 7530TIP3   OH244004   5.274   2.448  16.296  0.2113 -0.5395 -0.1288
 7530TIP3    H144005   5.191   2.430  16.252  0.2316 -0.5642 -0.1556
 7530TIP3    H244006   5.250   2.460  16.388  0.4692 -2.8344  0.2934
 7531TIP3   OH244007   6.257   6.701   4.147 -0.1622  0.1864 -0.3091
 7531TIP3    H144008   6.303   6.784   4.142 -0.6868  0.4979 -0.0474
 7531TIP3    H244009   6.316   6.644   4.197  1.1274 -0.2603 -2.2094
 7532TIP3   OH244010   6.174   5.901   2.156  0.3376  0.1027 -0.0631
 7532TIP3    H144011   6.143   5.929   2.242  1.6048 -0.0572  0.4687
 7532TIP3    H244012   6.188   5.807   2.166  1.8209  0.3087  0.0055
 7533TIP3   OH244013   6.647   1.795   4.976 -0.3160  0.2306 -0.0056
 7533TIP3    H144014   6.558   1.791   4.943  0.2031 -0.5393 -1.3927
 7533TIP3    H244015   6.658   1.886   5.004 -2.0526 -0.0460  1.7932
 7534TIP3   OH244016   1.826   0.488   5.571 -0.0488  0.0851 -0.5016
 7534TIP3    H144017   1.740   0.469   5.608  0.6152 -1.0795  0.4889
 7534TIP3    H244018   1.815   0.474   5.477 -0.1332 -3.3904 -0.0863
 7535TIP3   OH244019   0.983   2.533  12.420 -0.2221  0.2229 -0.1107
 7535TIP3    H144020   1.015   2.596  12.356  1.1416  0.1112  0.4268
 7535TIP3    H244021   0.899   2.503  12.384  0.5133  0.1381 -1.8528
 7536TIP3   OH244022   0.933   2.975   1.659 -0.3682  0.1732 -0.1367
 7536TIP3    H144023   0.933   3.000   1.752 -2.7440  0.7615 -0.2466
 7536TIP3    H244024   0.945   3.058   1.612 -0.3981  0.0381 -0.3835
 7537TIP3   OH244025   4.830   4.394  11.697  0.4056  0.4702  0.3689
 7537TIP3    H144026   4.807   4.312  11.653  0.9508  1.1026 -1.1855
 7537TIP3    H244027   4.848   4.369  11.787 -0.3625 -0.9666  0.1548
 7538TIP3   OH244028   1.727   6.781   5.631 -0.5999  0.3598  0.0776
 7538TIP3    H144029   1.748   6.798   5.722 -0.3071 -0.2866  0.1383
 7538TIP3    H244030   1.631   6.773   5.629 -0.6528  0.9749  0.2186
 7539TIP3   OH244031   4.367   1.396  11.268 -0.1430 -0.5167 -0.1391
 7539TIP3    H144032   4.358   1.457  11.196 -1.0849 -1.4198 -0.8085
 7539TIP3    H244033   4.343   1.447  11.346 -0.5547  0.0689 -0.6393
 7540TIP3   OH244034   0.011   5.034   2.051  0.1388 -0.7341  0.9118
 7540TIP3    H144035   0.095   4.990   2.043  1.0019  0.7887  1.1151
 7540TIP3    H244036  -0.029   5.025   1.965  1.2107 -0.1766  0.3283
 7541TIP3   OH244037   4.944   6.034  16.163 -0.0080 -0.0869 -0.3340
 7541TIP3    H144038   4.954   6.110  16.106 -0.7009  0.1250 -0.1847
 7541TIP3    H244039   4.869   6.056  16.219 -0.0061 -0.7396 -0.0673
 7542TIP3   OH244040   6.383   5.758  11.583  0.2985  1.0050 -0.0167
 7542TIP3    H144041   6.358   5.733  11.672  0.8542 -1.1790 -0.4099
 7542TIP3    H244042   6.454   5.821  11.595  0.1426  0.9959  1.0707
 7543TIP3   OH244043   1.635   2.414  12.932  0.2229 -0.2194 -0.2548
 7543TIP3    H144044   1.621   2.380  13.020  1.3998 -0.1978 -0.0363
 7543TIP3    H244045   1.615   2.341  12.874 -2.9104  0.4363 -0.1587
 7544TIP3   OH244046   1.934   2.118  15.659 -0.3459  0.2042 -0.0691
 7544TIP3    H144047   2.012   2.159  15.622 -0.2131  1.3472  1.3640
 7544TIP3    H244048   1.861   2.168  15.622 -0.3216  0.0902 -0.2718
 7545TIP3   OH244049   5.637   5.400   0.987  0.6582  0.5386 -0.3520
 7545TIP3    H144050   5.620   5.493   0.995 -1.5559  0.0400  1.8950
 7545TIP3    H244051   5.624   5.365   1.075  0.9045 -1.9660 -1.2273
 7546TIP3   OH244052   1.190   4.671   6.609  0.4577 -0.0238 -0.6171
 7546TIP3    H144053   1.111   4.677   6.556 -1.0241 -1.3691  1.3081
 7546TIP3    H244054   1.256   4.721   6.560 -1.4201  0.7209 -2.5218
 7547TIP3   OH244055   3.352   1.912   4.594 -0.1040 -0.2350  0.4423
 7547TIP3    H144056   3.373   1.822   4.620  2.5002  0.1598 -0.0626
 7547TIP3    H244057   3.386   1.920   4.505  0.1001  1.3818  0.6307
 7548TIP3   OH244058   3.082   3.012  13.900 -0.4820  0.1475 -0.5467
 7548TIP3    H144059   3.050   2.924  13.881  0.8183 -0.4700  0.0349
 7548TIP3    H244060   3.091   3.015  13.995 -0.9936  1.0881 -0.5145
 7549TIP3   OH244061   2.981   0.817  16.495  0.0237  0.2558 -0.0772
 7549TIP3    H144062   3.014   0.903  16.473 -0.8651  0.6503  0.0590
 7549TIP3    H244063   2.989   0.766  16.415  1.2987  0.2079  0.0585
 7550TIP3   OH244064   1.803   4.268   4.354  0.0533 -0.0662 -0.0859
 7550TIP3    H144065   1.722   4.252   4.403 -0.3591 -1.2307 -1.1045
 7550TIP3    H244066   1.791   4.222   4.271  1.4993  0.2953 -0.5310
 7551TIP3   OH244067   2.998   3.907  11.350 -0.0541 -0.1946  0.0264
 7551TIP3    H144068   2.920   3.960  11.365  2.1016  3.0065  0.7117
 7551TIP3    H244069   3.041   3.947  11.274  1.3031 -1.4540  0.0708
 7552TIP3   OH244070   2.801   5.098  16.365 -0.0740  0.8288 -0.7477
 7552TIP3    H144071   2.709   5.122  16.349 -0.1630  0.7138 -0.4091
 7552TIP3    H244072   2.809   5.094  16.460  0.2559  0.7303 -0.7780
 7553TIP3   OH244073   6.007   5.903   2.788  0.3112 -0.2134 -0.2732
 7553TIP3    H144074   5.914   5.922   2.777  0.3867  1.8549  1.8751
 7553TIP3    H244075   6.010   5.811   2.813 -1.2687 -0.0358  0.6810
 7554TIP3   OH244076   5.583   6.658  13.969  0.1454  0.0795  0.6413
 7554TIP3    H144077   5.615   6.633  14.055  2.1060 -0.6151 -0.2293
 7554TIP3    H244078   5.618   6.747  13.956  0.8903 -0.2846  0.0969
 7555TIP3   OH244079   2.879   6.571  14.633  0.1688  0.4750  0.1242
 7555TIP3    H144080   2.792   6.610  14.647  0.7949  1.6004  1.0787
 7555TIP3    H244081   2.932   6.606  14.704  1.7756  0.9494 -1.2449
 7556TIP3   OH244082   6.093   0.933  11.493 -0.0376  0.0232  0.0994
 7556TIP3    H144083   6.159   0.865  11.510  0.7524  0.9657  0.9064
 7556TIP3    H244084   6.127   0.980  11.417 -1.0819 -1.0685 -1.0895
 7557TIP3   OH244085   4.027   0.122   2.615 -0.1525 -0.5805  0.7939
 7557TIP3    H144086   3.992   0.034   2.602 -0.3771 -0.3281 -0.5172
 7557TIP3    H244087   4.115   0.119   2.577 -0.9071  0.2571 -1.1678
 7558TIP3   OH244088   2.802   0.156  13.576 -0.1863  0.1869  0.5680
 7558TIP3    H144089   2.886   0.198  13.594 -0.7589  1.7649 -0.2482
 7558TIP3    H244090   2.741   0.228  13.562 -1.6860 -0.9158  1.0865
 7559TIP3   OH244091   0.306   5.899   4.679  0.7438  0.1421 -0.0951
 7559TIP3    H144092   0.288   5.821   4.627 -0.0093  1.1969 -1.4793
 7559TIP3    H244093   0.301   5.972   4.617  3.5671  1.1519  0.6819
 7560TIP3   OH244094   6.634   3.060   2.992 -0.0695  0.1959 -0.2112
 7560TIP3    H144095   6.687   3.099   3.061 -1.1831  1.1689  0.1346
 7560TIP3    H244096   6.576   2.999   3.039 -0.8300  0.8605 -0.2572
 7561TIP3   OH244097   3.347   0.355  13.182  0.0151  1.0648 -0.1021
 7561TIP3    H144098   3.307   0.279  13.139 -1.3306  0.6166  1.8256
 7561TIP3    H244099   3.362   0.327  13.272  1.9084  2.2762  0.0311
 7562TIP3   OH244100   0.373   0.222  15.211  0.0584  0.2545 -0.4791
 7562TIP3    H144101   0.391   0.270  15.131  1.7886  0.5624  0.0354
 7562TIP3    H244102   0.280   0.202  15.208 -0.4590  2.5221 -1.3247
 7563TIP3   OH244103   0.100   2.972   2.887  0.0229 -0.6128 -0.0266
 7563TIP3    H144104   0.028   3.029   2.914  0.9135  0.7976 -0.5385
 7563TIP3    H244105   0.100   2.900   2.951 -1.0877 -0.0168  0.6601
 7564TIP3   OH244106   4.627   6.116  16.002  0.5123  0.0820 -0.0522
 7564TIP3    H144107   4.566   6.081  16.066  0.2925 -1.1619 -0.8927
 7564TIP3    H244108   4.688   6.044  15.984  1.0058  0.6373 -0.6992
 7565TIP3   OH244109   3.877   2.751   1.679  0.2744  0.0338 -0.3385
 7565TIP3    H144110   3.934   2.676   1.693  1.3638  0.5681 -1.6770
 7565TIP3    H244111   3.862   2.754   1.585 -0.8168  0.7464 -0.1695
 7566TIP3   OH244112   1.694   6.114  11.615  0.4338 -0.4403  0.5639
 7566TIP3    H144113   1.617   6.060  11.633  0.1031 -0.0739  0.2501
 7566TIP3    H244114   1.733   6.128  11.702 -0.4017  0.1918  0.8526
 7567TIP3   OH244115   0.617   3.277  10.720 -0.3496  0.3008 -0.2750
 7567TIP3    H144116   0.688   3.225  10.684  1.1474  1.0696  1.4170
 7567TIP3    H244117   0.601   3.345  10.655 -1.5197 -1.4902 -1.9514
 7568TIP3   OH244118   5.720   5.436  11.365 -0.0742 -0.3126  0.0743
 7568TIP3    H144119   5.725   5.520  11.411 -0.8680 -1.0795  1.6318
 7568TIP3    H244120   5.646   5.391  11.405 -0.4692 -1.2492 -1.6335
 7569TIP3   OH244121   1.344   2.294  15.423  0.4933 -0.3252  0.0031
 7569TIP3    H144122   1.250   2.308  15.440  0.1420 -0.8227 -1.4049
 7569TIP3    H244123   1.388   2.351  15.486 -0.7576  0.0642  0.5654
 7570TIP3   OH244124   1.440   5.184  16.130  0.2792 -0.1827  0.0086
 7570TIP3    H144125   1.439   5.273  16.165  0.7964  1.7278 -4.1720
 7570TIP3    H244126   1.528   5.152  16.147  0.6619  0.8500  0.0137
 7571TIP3   OH244127   4.147   3.062  12.129  0.3838 -0.1381 -0.8606
 7571TIP3    H144128   4.110   2.986  12.086  0.4311 -1.7288  1.7401
 7571TIP3    H244129   4.241   3.057  12.110  0.4649 -1.0592 -0.2476
 7572TIP3   OH244130   1.082   6.272   2.534 -0.1419 -0.2077 -0.0391
 7572TIP3    H144131   1.009   6.281   2.473  0.7269 -0.8877 -1.2372
 7572TIP3    H244132   1.114   6.183   2.521  2.7610  0.9289 -1.8382
 7573TIP3   OH244133   0.396   5.190   3.487 -0.4963 -0.7676  0.6554
 7573TIP3    H144134   0.428   5.123   3.426 -1.2088 -1.5689  1.1268
 7573TIP3    H244135   0.314   5.154   3.521 -0.9038  0.3642  0.9152
 7574TIP3   OH244136   5.711   1.481   3.723 -0.3192 -0.1450  0.1388
 7574TIP3    H144137   5.694   1.572   3.698 -3.2900 -0.4606  0.6107
 7574TIP3    H244138   5.760   1.487   3.805  1.4807  0.9538 -0.9518
 7575TIP3   OH244139   0.090   5.679  10.452 -0.3324 -0.5229 -0.2747
 7575TIP3    H144140   0.143   5.751  10.419 -0.7532 -1.0120 -2.1928
 7575TIP3    H244141   0.077   5.623  10.375 -1.1128 -1.9544  0.8533
 7576TIP3   OH244142   3.137   1.541  14.504 -0.6321  0.7108 -0.2683
 7576TIP3    H144143   3.230   1.544  14.486 -0.3891 -0.6762  0.5376
 7576TIP3    H244144   3.131   1.554  14.599 -1.1864  0.1216 -0.2155
 7577TIP3   OH244145   0.076   5.517   6.013  0.4580 -0.5706 -0.0685
 7577TIP3    H144146   0.119   5.468   6.083 -1.0108 -1.6024  0.1607
 7577TIP3    H244147   0.042   5.595   6.056 -1.0054 -1.5138  0.5450
 7578TIP3   OH244148   0.158   0.196  10.415 -0.3617  0.4531  0.0235
 7578TIP3    H144149   0.212   0.249  10.357 -2.4952  0.8460 -1.7684
 7578TIP3    H244150   0.101   0.146  10.355 -1.4749 -0.4672  1.7613
 7579TIP3   OH244151   2.876   3.298   1.546 -0.3785  0.0948 -0.3019
 7579TIP3    H144152   2.865   3.287   1.641 -0.0040 -1.2511 -0.3890
 7579TIP3    H244153   2.938   3.230   1.521 -0.0195  0.8083 -1.4359
 7580TIP3   OH244154   4.318   0.101  11.685 -0.0530 -0.0725 -0.0073
 7580TIP3    H144155   4.262   0.174  11.659 -0.8263 -0.5598  0.2524
 7580TIP3    H244156   4.257   0.034  11.715  0.7350  0.1021  2.1628
 7581TIP3   OH244157   2.284   5.288  13.192  0.1349  0.0841  0.4359
 7581TIP3    H144158   2.284   5.227  13.265  0.5754  0.0015  0.3682
 7581TIP3    H244159   2.371   5.329  13.194  0.7211 -1.0091 -0.9534
 7582TIP3   OH244160   4.030   5.238  15.154  0.2855 -0.4082  0.7211
 7582TIP3    H144161   4.020   5.171  15.221  1.2315 -2.0953 -0.7482
 7582TIP3    H244162   4.090   5.302  15.193 -0.9126 -0.1932  2.2762
 7583TIP3   OH244163   3.610   6.166  12.372  0.1875 -0.0910  0.1791
 7583TIP3    H144164   3.574   6.211  12.448  3.5101 -1.0398  2.5474
 7583TIP3    H244165   3.625   6.236  12.308  0.8441  1.4421  1.9105
 7584TIP3   OH244166   2.792   4.277   2.708 -0.3291  0.1141  0.4010
 7584TIP3    H144167   2.708   4.248   2.674 -0.9861  2.4968 -0.1124
 7584TIP3    H244168   2.820   4.346   2.649  1.9554 -0.5130  0.6481
 7585TIP3   OH244169   1.155   1.958  16.614  0.0582  0.5927  0.3646
 7585TIP3    H144170   1.098   2.018  16.661  0.8182  1.0375  0.7396
 7585TIP3    H244171   1.243   1.993  16.627  0.4023  0.0225 -0.3509
 7586TIP3   OH244172   4.141   4.460  11.798  0.0331 -0.0677  0.3379
 7586TIP3    H144173   4.128   4.545  11.838 -1.7361 -0.6915  1.2063
 7586TIP3    H244174   4.138   4.398  11.871 -0.6238 -1.0144 -0.4670
 7587TIP3   OH244175   6.545   0.167  16.308  0.6854 -0.1112  0.9315
 7587TIP3    H144176   6.555   0.210  16.223 -1.3751  0.8019  1.0866
 7587TIP3    H244177   6.534   0.074  16.287  2.7564 -0.2938  0.4269
 7588TIP3   OH244178   2.117   0.085   3.727 -0.2263 -0.0464 -0.4014
 7588TIP3    H144179   2.067   0.067   3.807  0.6619 -1.9755 -0.2326
 7588TIP3    H244180   2.165   0.165   3.746 -0.5904 -0.0879  0.7344
 7589TIP3   OH244181   4.591   4.286  14.815  0.3769 -0.1937  0.4307
 7589TIP3    H144182   4.644   4.357  14.850 -0.0780 -0.2408  1.2679
 7589TIP3    H244183   4.528   4.267  14.885  0.5019 -1.4272  0.2279
 7590TIP3   OH244184   5.107   1.604  15.103  0.3954 -0.2155 -0.0749
 7590TIP3    H144185   5.096   1.653  15.022 -1.2967  0.8089  0.6968
 7590TIP3    H244186   5.176   1.650  15.150 -0.0257  0.4345 -0.0787
 7591TIP3   OH244187   1.233   5.127   1.264 -0.1373 -0.3254 -0.1100
 7591TIP3    H144188   1.284   5.133   1.183 -1.1941 -3.6002 -1.1635
 7591TIP3    H244189   1.284   5.069   1.320 -0.5336  0.0932  0.6994
 7592TIP3   OH244190   1.786   3.631   5.688  0.8124 -0.2459 -0.1347
 7592TIP3    H144191   1.839   3.634   5.767 -0.1011 -0.4550  0.4974
 7592TIP3    H244192   1.850   3.623   5.617  1.6966  1.0106  0.4890
 7593TIP3   OH244193   2.370   6.224   4.809 -0.0460 -0.5437 -0.5106
 7593TIP3    H144194   2.298   6.268   4.763 -0.3125 -1.2718 -0.8080
 7593TIP3    H244195   2.385   6.144   4.759  1.1158 -0.3050 -0.5697
 7594TIP3   OH244196   0.775   5.987  10.669  0.1332 -0.3160  0.5552
 7594TIP3    H144197   0.751   5.935  10.593  1.0409 -0.5394  0.4077
 7594TIP3    H244198   0.701   6.046  10.683 -0.1074 -0.3846 -0.3973
 7595TIP3   OH244199   0.383   2.620  16.270  0.4998  0.6516  0.4092
 7595TIP3    H144200   0.396   2.532  16.306 -2.4966  0.0610  0.2788
 7595TIP3    H244201   0.467   2.664  16.284  2.0125 -2.1239  0.7039
 7596TIP3   OH244202   1.964   0.610  16.510  0.1993 -0.5184 -0.3753
 7596TIP3    H144203   2.003   0.533  16.551 -2.4622 -1.8051 -0.0978
 7596TIP3    H244204   2.007   0.684  16.554  0.8075 -1.8409  1.3978
 7597TIP3   OH244205   1.127   2.726  14.826 -0.1531 -0.1540  0.0816
 7597TIP3    H144206   1.198   2.692  14.772  0.9240  0.4345  1.0546
 7597TIP3    H244207   1.139   2.683  14.911  0.1683  1.2615  0.7952
 7598TIP3   OH244208   0.553   5.886  16.985 -0.1106  0.3159  0.4207
 7598TIP3    H144209   0.585   5.796  16.992 -1.6109 -0.1872  1.3095
 7598TIP3    H244210   0.458   5.878  16.994 -0.3290  1.9367 -0.1212
 7599TIP3   OH244211   5.934   5.033   6.415 -0.3999  1.0435 -0.0861
 7599TIP3    H144212   5.997   4.971   6.451 -0.8497  0.6565  0.0303
 7599TIP3    H244213   5.988   5.096   6.366 -0.1073 -0.9244 -2.5033
 7600TIP3   OH244214   1.514   2.803  15.383  0.0096  0.9277  0.0682
 7600TIP3    H144215   1.536   2.750  15.306 -2.1869  0.1436 -0.0966
 7600TIP3    H244216   1.586   2.789  15.444  1.4655  1.0076 -1.5396
 7601TIP3   OH244217   1.504   0.516   1.353 -0.2158 -0.0787 -0.5054
 7601TIP3    H144218   1.583   0.570   1.353 -1.6374  2.2524  2.0456
 7601TIP3    H244219   1.436   0.573   1.319 -1.2584 -1.2178 -0.3907
 7602TIP3   OH244220   4.012   1.582  15.296 -0.0090 -0.6105 -0.2940
 7602TIP3    H144221   3.930   1.567  15.344  0.1167 -1.2734 -0.2736
 7602TIP3    H244222   4.060   1.499  15.304  0.2945 -0.5105 -1.0281
 7603TIP3   OH244223   6.744   4.814   1.528 -0.0632  0.5721  0.0824
 7603TIP3    H144224   6.800   4.845   1.600  0.8912  0.3224 -0.5247
 7603TIP3    H244225   6.657   4.806   1.567  0.0356  2.2359  0.7144
 7604TIP3   OH244226   1.661   0.153   2.746 -1.0566 -0.1121 -0.2615
 7604TIP3    H144227   1.668   0.140   2.652 -0.3833  0.8831 -0.3637
 7604TIP3    H244228   1.742   0.198   2.770 -1.7902  0.8118  0.5723
 7605TIP3   OH244229   5.546   0.832  14.455  0.0177 -0.7187  0.3153
 7605TIP3    H144230   5.589   0.747  14.449 -0.0708 -0.7963  0.7376
 7605TIP3    H244231   5.509   0.847  14.367 -1.7429 -2.0658  0.7649
 7606TIP3   OH244232   0.574   3.019   1.264  0.0898  0.4349  0.3946
 7606TIP3    H144233   0.565   2.964   1.187 -0.0986  1.8338 -0.6176
 7606TIP3    H244234   0.487   3.055   1.279  0.6756  2.3505 -0.4576
 7607TIP3   OH244235   1.140   1.399   1.074  0.7363  0.4803  0.4157
 7607TIP3    H144236   1.136   1.455   0.997  2.4454  2.1896  1.4698
 7607TIP3    H244237   1.061   1.420   1.124 -0.7370 -1.1232 -1.0652
 7608TIP3   OH244238   4.314   6.542  11.247  0.3234 -0.2458  0.0674
 7608TIP3    H144239   4.310   6.609  11.179  2.6479 -0.3764 -0.2929
 7608TIP3    H244240   4.395   6.561  11.295 -0.6593 -0.8443  2.0837
 7609TIP3   OH244241   6.568   2.862   0.684  0.4109 -0.4536  0.0845
 7609TIP3    H144242   6.562   2.951   0.720  0.6130 -0.6704  0.6746
 7609TIP3    H244243   6.528   2.868   0.597 -1.2119 -0.1661  0.8074
 7610TIP3   OH244244   1.000   0.966   0.914  0.1285 -0.1056 -0.1513
 7610TIP3    H144245   1.024   0.879   0.945  0.2900  0.1830  0.5630
 7610TIP3    H244246   0.935   0.997   0.978  1.9380  1.3010  1.1296
 7611TIP3   OH244247   5.646   2.084  17.119 -0.3739  0.6778  0.0657
 7611TIP3    H144248   5.647   2.102  17.024 -0.4974 -1.9431 -0.4885
 7611TIP3    H244249   5.574   2.138  17.152 -0.7226  1.1989 -1.4203
 7612TIP3   OH244250   2.659   0.674  11.344  0.0713  0.2399 -0.0009
 7612TIP3    H144251   2.620   0.626  11.270 -0.2025  0.0715  0.2493
 7612TIP3    H244252   2.753   0.664  11.332  0.0250  0.0478 -0.2207
 7613TIP3   OH244253   1.217   0.637  11.450  0.4410 -0.0464  0.0599
 7613TIP3    H144254   1.212   0.552  11.493  1.9200  0.2100  0.8090
 7613TIP3    H244255   1.199   0.700  11.520 -1.0260  0.2723 -0.5670
 7614TIP3   OH244256   4.610   5.867  11.869  0.1597 -0.5494 -0.4694
 7614TIP3    H144257   4.530   5.909  11.837  0.4943 -0.2685 -0.9471
 7614TIP3    H244258   4.614   5.784  11.823  2.5045  1.2972 -4.0777
 7615TIP3   OH244259   3.633   3.122  13.862  0.2980  0.1309  0.3182
 7615TIP3    H144260   3.720   3.105  13.827  0.6695  1.9497  0.2597
 7615TIP3    H244261   3.637   3.212  13.893 -1.1949 -0.1586  1.4890
 7616TIP3   OH244262   6.745   1.830  14.023  0.2058 -0.2739 -0.1989
 7616TIP3    H144263   6.681   1.876  14.077  1.8277  1.4837  0.3115
 7616TIP3    H244264   6.731   1.864  13.935  0.0219 -0.3778 -0.2109
 7617TIP3   OH244265   2.953   4.240   4.768 -0.3432 -0.4947  0.1255
 7617TIP3    H144266   3.035   4.194   4.786  0.2360  0.3397 -0.3225
 7617TIP3    H244267   2.885   4.177   4.790  0.4284 -1.8027 -1.0789
 7618TIP3   OH244268   4.838   6.599   3.072 -0.7773  0.6451 -0.0631
 7618TIP3    H144269   4.822   6.678   3.123 -1.2504  0.5544 -0.0626
 7618TIP3    H244270   4.861   6.631   2.984 -0.4157  0.7916  0.0839
 7619TIP3   OH244271   3.991   1.402  13.349 -0.0603 -0.1394  0.2635
 7619TIP3    H144272   3.928   1.441  13.410  1.4384  0.8164  1.2978
 7619TIP3    H244273   3.998   1.311  13.376 -2.5843 -0.8916 -1.2949
 7620TIP3   OH244274   1.244   5.955  14.949 -0.8142  0.0586 -0.0743
 7620TIP3    H144275   1.329   5.934  14.987 -0.8510  1.2359  0.7003
 7620TIP3    H244276   1.202   6.012  15.013 -1.3236  1.2193 -1.3825
 7621TIP3   OH244277   2.533   2.135   1.798  0.2964  0.2337  0.4478
 7621TIP3    H144278   2.548   2.188   1.721  0.9094  0.3219  0.6237
 7621TIP3    H244279   2.533   2.197   1.871 -0.2615  0.1499  0.5236
 7622TIP3   OH244280   4.308   1.687   4.967  0.2294 -0.5392  0.2656
 7622TIP3    H144281   4.362   1.756   4.931 -1.2857  0.5971  0.0672
 7622TIP3    H244282   4.290   1.629   4.893  0.4394 -0.4313  0.1304
 7623TIP3   OH244283   1.648   5.849   6.429 -0.3436 -0.0679  0.3731
 7623TIP3    H144284   1.678   5.888   6.511  0.4395  0.0208  0.0496
 7623TIP3    H244285   1.725   5.850   6.372 -0.7823 -0.4686 -0.2384
 7624TIP3   OH244286   3.092   3.550  14.960  0.2804  0.2065  0.1118
 7624TIP3    H144287   3.170   3.605  14.956  0.8554 -0.6565 -3.5230
 7624TIP3    H244288   3.023   3.604  14.922 -0.2604 -0.0205  0.7497
 7625TIP3   OH244289   5.669   4.728  11.805  0.6450  0.6896 -0.1663
 7625TIP3    H144290   5.698   4.746  11.715 -0.0772  2.6282 -0.0456
 7625TIP3    H244291   5.575   4.712  11.797  0.8304 -0.6515  0.0836
 7626TIP3   OH244292   4.180   2.667  13.900  0.3547  0.0086 -0.0400
 7626TIP3    H144293   4.271   2.647  13.879  0.3204  1.7007 -2.2538
 7626TIP3    H244294   4.185   2.739  13.963  0.5963  0.3174 -0.4015
 7627TIP3   OH244295   2.278   5.079  12.660  0.3395  0.5925 -0.0684
 7627TIP3    H144296   2.251   5.018  12.729 -1.4862 -0.8303 -1.9422
 7627TIP3    H244297   2.317   5.024  12.593 -1.5806  1.3713 -1.9295
 7628TIP3   OH244298   6.657   6.517  12.913  0.1996 -0.0793 -0.0121
 7628TIP3    H144299   6.620   6.445  12.965  0.6584 -1.1267 -1.0723
 7628TIP3    H244300   6.590   6.585  12.915 -0.4408 -0.7101  0.6704
 7629TIP3   OH244301   3.710   4.010  14.887  0.5894 -0.1130  0.4304
 7629TIP3    H144302   3.798   4.001  14.924  0.7785 -0.0715 -0.0048
 7629TIP3    H244303   3.722   4.067  14.811  0.1556  0.0475  0.4816
 7630TIP3   OH244304   1.948   3.275   5.500 -0.4743 -0.4271 -0.5709
 7630TIP3    H144305   1.919   3.185   5.518  0.7519 -0.1731  3.7396
 7630TIP3    H244306   1.874   3.329   5.527  0.8937 -0.0899  3.1326
 7631TIP3   OH244307   1.624   2.793  12.797  0.6049 -0.3218  0.3293
 7631TIP3    H144308   1.641   2.814  12.889  1.1680  1.4926 -0.1406
 7631TIP3    H244309   1.545   2.842  12.775  0.7294 -0.3855 -0.2768
 7632TIP3   OH244310   0.457   5.186   5.798 -0.6336  0.6152 -0.2164
 7632TIP3    H144311   0.386   5.206   5.859  0.0821  0.9553  0.5268
 7632TIP3    H244312   0.533   5.232   5.834  0.4103 -1.2047  0.0263
 7633TIP3   OH244313   2.248   5.077  15.958  0.0721  0.5662  0.9206
 7633TIP3    H144314   2.301   5.012  15.913 -1.3484 -1.2937  1.8021
 7633TIP3    H244315   2.270   5.160  15.915  0.1554 -0.8126 -1.8895
 7634TIP3   OH244316   3.685   1.700  15.752  0.6065 -0.1859 -0.3039
 7634TIP3    H144317   3.629   1.766  15.793  0.0040 -1.6733  1.3698
 7634TIP3    H244318   3.770   1.743  15.742  0.0999  0.9809  0.3124
 7635TIP3   OH244319   3.401   0.735   0.217 -0.1028 -0.1469  0.0546
 7635TIP3    H144320   3.330   0.799   0.228  0.9737  0.8665  1.5767
 7635TIP3    H244321   3.425   0.741   0.125 -0.8002  0.8203 -0.0829
 7636TIP3   OH244322   2.700   0.466   2.727  0.0101 -0.4358  0.0318
 7636TIP3    H144323   2.609   0.478   2.699  0.3911  1.5381 -0.5476
 7636TIP3    H244324   2.720   0.375   2.707 -1.8123 -0.8939  0.1190
 7637TIP3   OH244325   0.483   3.643  12.241 -0.4404  0.3536  0.5082
 7637TIP3    H144326   0.488   3.737  12.257  0.6187  0.6924 -1.5822
 7637TIP3    H244327   0.453   3.606  12.325 -0.2107  2.4499  1.5668
 7638TIP3   OH244328   1.019   1.997   3.986  0.0798 -0.1968  0.1915
 7638TIP3    H144329   0.987   2.057   3.918  0.1887 -0.2934  0.0536
 7638TIP3    H244330   0.999   1.910   3.952  2.7073 -0.4156 -1.0979
 7639TIP3   OH244331   2.463   4.092  13.622 -0.0006  0.4938  0.0987
 7639TIP3    H144332   2.484   4.160  13.686  0.9648 -0.2187  0.5615
 7639TIP3    H244333   2.461   4.138  13.538 -2.8220  1.7536  0.7282
 7640TIP3   OH244334   5.775   0.684  17.084 -1.1517 -0.3917  0.1645
 7640TIP3    H144335   5.817   0.748  17.026 -0.8699  1.7472  2.5708
 7640TIP3    H244336   5.748   0.613  17.025  0.4810  0.9030 -2.3281
 7641TIP3   OH244337   1.262   1.600   6.605  0.8013 -0.6006 -0.2527
 7641TIP3    H144338   1.331   1.588   6.540  0.0469 -2.5343 -0.7664
 7641TIP3    H244339   1.294   1.552   6.682  0.1313 -1.3208 -0.4205
 7642TIP3   OH244340   4.287   5.966  14.262  0.6065 -0.4102  0.3585
 7642TIP3    H144341   4.302   5.874  14.283  0.6875 -0.7235 -0.9777
 7642TIP3    H244342   4.373   6.000  14.237  0.2361 -0.5575 -1.2308
 7643TIP3   OH244343   3.932   2.366   1.667 -0.2459 -0.0851 -0.0081
 7643TIP3    H144344   3.932   2.360   1.571  0.2403  2.5541 -0.2453
 7643TIP3    H244345   4.005   2.423   1.688 -0.1016 -0.9190  2.0064
 7644TIP3   OH244346   3.106   5.741  11.398  0.2443 -0.1408 -0.3035
 7644TIP3    H144347   3.141   5.830  11.396 -0.2432  0.0373 -1.3037
 7644TIP3    H244348   3.021   5.747  11.355  1.1063 -1.4586 -2.3345
 7645TIP3   OH244349   3.974   0.700  15.077 -1.0089  0.2642 -0.3413
 7645TIP3    H144350   3.940   0.779  15.034  1.4099  1.1636 -0.7584
 7645TIP3    H244351   3.964   0.717  15.170 -0.3944  1.1504 -0.4225
 7646TIP3   OH244352   1.840   0.432  12.538 -0.4549  0.6773 -0.3153
 7646TIP3    H144353   1.816   0.404  12.450  0.7954 -2.3057  0.1775
 7646TIP3    H244354   1.911   0.494  12.525 -0.1272  0.1039 -1.4156
 7647TIP3   OH244355   5.387   2.935  16.284 -0.5315 -0.4281 -0.0551
 7647TIP3    H144356   5.414   2.890  16.364 -0.9708 -1.3092 -0.3871
 7647TIP3    H244357   5.424   2.882  16.214  1.4108  1.3280 -0.4543
 7648TIP3   OH244358   6.370   4.216   1.791  0.3427 -0.1298 -0.4098
 7648TIP3    H144359   6.459   4.247   1.806  0.0448  2.1168 -2.5650
 7648TIP3    H244360   6.354   4.234   1.698 -3.3401  2.4775  0.4899
 7649TIP3   OH244361   0.275   0.209   5.437 -0.1502 -0.0498 -0.3244
 7649TIP3    H144362   0.351   0.152   5.426 -0.1821  0.0490 -1.1019
 7649TIP3    H244363   0.290   0.281   5.375 -0.4237  0.4575  0.1878
 7650TIP3   OH244364   0.172   6.490  13.867  0.5305  0.4164  0.4214
 7650TIP3    H144365   0.150   6.442  13.946  2.4156 -0.4683  0.4749
 7650TIP3    H244366   0.095   6.481  13.810 -0.2402 -0.2292  1.5428
 7651TIP3   OH244367   0.959   4.837  12.761 -0.5061 -0.0924 -0.1381
 7651TIP3    H144368   0.953   4.754  12.715  0.5609 -1.5656  2.1974
 7651TIP3    H244369   0.902   4.826  12.837  0.9401  0.6223  1.1050
 7652TIP3   OH244370   3.351   4.737  14.671 -0.4415  0.4443  0.2912
 7652TIP3    H144371   3.304   4.790  14.606 -0.2034 -0.9411 -1.0518
 7652TIP3    H244372   3.443   4.756  14.655 -0.3795  0.0436  0.1820
 7653TIP3   OH244373   1.700   0.274   0.080  0.2065  0.0304 -0.3086
 7653TIP3    H144374   1.767   0.309   0.140 -0.2684  0.0085  0.2422
 7653TIP3    H244375   1.743   0.199   0.038  0.0538 -0.9125  1.1469
 7654TIP3   OH244376   5.169   3.933  14.803 -0.4419  0.1671 -0.6824
 7654TIP3    H144377   5.139   3.918  14.713  1.1899 -0.2140 -1.2064
 7654TIP3    H244378   5.158   4.027  14.816 -1.6941  0.0577 -0.8848
 7655TIP3   OH244379   0.650   4.751  16.233  0.1919 -0.4796 -0.4393
 7655TIP3    H144380   0.582   4.808  16.268  1.5319  0.8935 -0.0022
 7655TIP3    H244381   0.690   4.710  16.309  2.3182  1.6043 -0.3515
 7656TIP3   OH244382   2.384   0.008   2.808  0.0751 -0.2290  0.0381
 7656TIP3    H144383   2.323  -0.051   2.766  0.8755 -0.7780 -0.3766
 7656TIP3    H244384   2.387   0.085   2.751 -1.4170  0.4965  0.8855
 7657TIP3   OH244385   2.102   2.751  14.742  0.5425  0.0794  0.0681
 7657TIP3    H144386   2.057   2.669  14.765  0.3860 -0.0777 -0.7486
 7657TIP3    H244387   2.191   2.739  14.775  0.1434  0.1741  1.2262
 7658TIP3   OH244388   4.051   3.951   2.428  0.6161 -0.3736 -0.2768
 7658TIP3    H144389   4.076   4.032   2.471  3.1198 -0.0132 -2.1459
 7658TIP3    H244390   4.024   3.978   2.340  2.1339 -1.5308 -1.1564
 7659TIP3   OH244391   3.698   3.759  16.489 -0.0234 -0.8193 -0.0533
 7659TIP3    H144392   3.790   3.742  16.467  0.1325  0.5922 -0.5848
 7659TIP3    H244393   3.701   3.834  16.549 -0.9468  1.3423 -2.5359
 7660TIP3   OH244394   4.905   5.356   1.280  0.3654  0.0726 -0.6891
 7660TIP3    H144395   4.938   5.270   1.306  0.9282  0.1419 -1.1508
 7660TIP3    H244396   4.830   5.337   1.223  1.2829 -0.1533 -1.8591
 7661TIP3   OH244397   1.821   5.615  14.115  0.0982  0.1135  0.4035
 7661TIP3    H144398   1.740   5.643  14.158  0.0145 -1.1563  1.1248
 7661TIP3    H244399   1.815   5.652  14.027 -0.6355  1.1497  0.8668
 7662TIP3   OH244400   2.427   4.983   4.228  0.1359  0.3454  0.6883
 7662TIP3    H144401   2.509   5.031   4.233  0.8464 -0.8732  1.3732
 7662TIP3    H244402   2.364   5.037   4.276  0.0702  2.1087 -1.2651
 7663TIP3   OH244403   6.330   2.924  10.907 -0.4370 -0.0109 -0.2220
 7663TIP3    H144404   6.307   2.901  10.997  0.9414 -1.2493 -0.1550
 7663TIP3    H244405   6.247   2.926  10.860 -1.2391  1.1565  1.1647
 7664TIP3   OH244406   5.481   4.930  13.454 -0.3679  0.1296 -0.2354
 7664TIP3    H144407   5.408   4.982  13.420  1.3606  2.4261 -0.7229
 7664TIP3    H244408   5.492   4.859  13.391 -1.9217 -0.0465 -0.3354
 7665TIP3   OH244409   5.703   5.205  16.491 -0.8225 -0.4400  0.1020
 7665TIP3    H144410   5.637   5.136  16.492 -0.4907 -0.7550  0.5957
 7665TIP3    H244411   5.662   5.279  16.537 -2.0192  0.5131 -2.3256
 7666TIP3   OH244412   2.467   2.652   2.989 -1.0043 -0.1136  0.2956
 7666TIP3    H144413   2.416   2.712   3.044  0.6282  1.4282  0.2395
 7666TIP3    H244414   2.542   2.705   2.960 -0.7459 -1.4954 -1.7494
 7667TIP3   OH244415   6.179   3.623   3.780 -0.0524  0.1103 -0.2441
 7667TIP3    H144416   6.262   3.666   3.800  0.6648 -1.4600  0.3695
 7667TIP3    H244417   6.202   3.556   3.716 -1.0851  0.4867 -1.0202
 7668TIP3   OH244418   1.960   5.908   4.326  0.1689  0.1646  0.1275
 7668TIP3    H144419   2.054   5.927   4.326 -0.1382  1.8441 -0.0120
 7668TIP3    H244420   1.945   5.861   4.244  0.9008 -0.2990  0.2442
 7669TIP3   OH244421   3.537   6.068   5.031 -0.4992 -0.5171 -0.7488
 7669TIP3    H144422   3.524   6.140   5.093  1.7484 -0.1164 -0.6760
 7669TIP3    H244423   3.518   5.989   5.081 -0.6667 -0.1011 -0.1461
 7670TIP3   OH244424   0.978   2.016  12.251  0.2648  0.0607 -0.0388
 7670TIP3    H144425   0.913   1.960  12.209  1.7628 -0.3802 -1.9290
 7670TIP3    H244426   1.051   1.958  12.271  0.6390  0.7928  0.8074
 7671TIP3   OH244427   3.276   5.575   1.252  0.1648  0.0087  0.2522
 7671TIP3    H144428   3.230   5.596   1.170  1.4918 -0.4300 -0.6454
 7671TIP3    H244429   3.212   5.592   1.321 -0.8095  0.9240 -0.8404
 7672TIP3   OH244430   2.225   3.594   0.413  0.2419 -0.5633 -0.3104
 7672TIP3    H144431   2.319   3.612   0.408  0.0361  0.5353 -0.5234
 7672TIP3    H244432   2.183   3.679   0.396 -0.8095 -1.2848 -1.5010
 7673TIP3   OH244433   2.170   3.175  10.988 -0.1819 -0.0894  0.2817
 7673TIP3    H144434   2.239   3.171  11.055 -0.6625 -0.1852  0.7799
 7673TIP3    H244435   2.127   3.089  10.994 -1.7408  0.7318  1.4946
 7674TIP3   OH244436   5.169   4.043  15.826 -0.7664 -0.5259 -0.1555
 7674TIP3    H144437   5.178   3.989  15.748  1.8869 -1.3137  0.5774
 7674TIP3    H244438   5.077   4.035  15.850 -1.3207 -1.4605 -2.3264
 7675TIP3   OH244439   0.383   0.565   0.158  0.1452  0.3919 -0.4124
 7675TIP3    H144440   0.342   0.616   0.228  1.2578 -0.4123  0.8765
 7675TIP3    H244441   0.329   0.485   0.153  0.4091  0.1901 -0.0600
 7676TIP3   OH244442   1.925   6.571   1.005 -0.6051 -0.6213  0.5683
 7676TIP3    H144443   1.872   6.490   1.007  1.4342 -2.0275  2.1786
 7676TIP3    H244444   1.861   6.641   1.016 -2.3035 -2.1265  0.8808
 7677TIP3   OH244445   3.480   6.489  11.483 -0.2132 -0.0150 -0.2350
 7677TIP3    H144446   3.531   6.462  11.407  1.1462  1.4732  0.1082
 7677TIP3    H244447   3.401   6.435  11.479  0.6176 -1.1889 -1.7152
 7678TIP3   OH244448   3.872   2.129   4.607 -0.3283  0.2561 -0.0514
 7678TIP3    H144449   3.819   2.208   4.605  0.8553  1.0697 -0.7973
 7678TIP3    H244450   3.824   2.069   4.663 -1.0172  1.6766  0.9338
 7679TIP3   OH244451   2.175   6.149  14.884 -0.0321  0.1584 -0.9829
 7679TIP3    H144452   2.160   6.127  14.976  0.3880  0.1671 -0.9097
 7679TIP3    H244453   2.091   6.183  14.854 -1.2650 -3.0337 -1.5597
 7680TIP3   OH244454   1.130   4.298  11.095 -0.0500  0.6709  0.2277
 7680TIP3    H144455   1.215   4.266  11.064 -0.9398 -2.2741  0.5548
 7680TIP3    H244456   1.149   4.333  11.183  0.6611 -1.2689  0.9034
 7681TIP3   OH244457   3.640   0.893  14.577  0.3073 -0.1330 -0.2403
 7681TIP3    H144458   3.713   0.952  14.563  2.0312 -2.1474 -0.2412
 7681TIP3    H244459   3.601   0.922  14.660  0.4296  1.5893 -0.7584
 7682TIP3   OH244460   2.483   6.449   1.528  0.3371  0.4057 -0.3715
 7682TIP3    H144461   2.536   6.515   1.572  0.2950  0.1288  0.0957
 7682TIP3    H244462   2.422   6.500   1.474  0.9147  0.7265 -0.7237
 7683TIP3   OH244463   5.083   6.458   4.937 -0.2077  0.8009  0.3591
 7683TIP3    H144464   5.067   6.542   4.893 -1.6089  0.4057  0.0602
 7683TIP3    H244465   5.176   6.440   4.923 -0.2952  1.4317 -1.1266
 7684TIP3   OH244466   3.017   0.446   5.191  0.3796 -0.1672 -0.1266
 7684TIP3    H144467   3.099   0.396   5.203  0.5271  0.4794  2.1591
 7684TIP3    H244468   3.046   0.531   5.159  0.5047 -0.2489 -0.2363
 7685TIP3   OH244469   6.151   0.472  17.097 -0.4737  0.2595 -0.3966
 7685TIP3    H144470   6.078   0.413  17.078 -2.3893  2.8479 -1.5896
 7685TIP3    H244471   6.160   0.467  17.193 -1.7557 -0.6046 -0.2870
 7686TIP3   OH244472   2.569   2.091   2.090  0.3190  0.6443  0.1601
 7686TIP3    H144473   2.586   2.162   2.151  0.5896  0.0305  0.8061
 7686TIP3    H244474   2.505   2.035   2.135 -1.7575  1.7061 -1.2989
 7687TIP3   OH244475   4.537   1.791   0.188 -0.0233  0.6697  0.2464
 7687TIP3    H144476   4.508   1.849   0.117 -0.1534 -0.0256 -0.2869
 7687TIP3    H244477   4.632   1.787   0.178 -0.2461 -1.8799 -1.9152
 7688TIP3   OH244478   4.416   4.980  13.689  1.3031  0.2977 -0.8338
 7688TIP3    H144479   4.403   5.062  13.641 -0.6372 -0.1071 -1.0608
 7688TIP3    H244480   4.380   4.912  13.632  2.6872 -0.7256 -0.5513
 7689TIP3   OH244481   3.533   6.591  12.470  0.5546 -0.0488 -0.0708
 7689TIP3    H144482   3.518   6.685  12.476 -1.7496 -0.2614 -1.3693
 7689TIP3    H244483   3.451   6.556  12.436  2.2658 -2.1947 -2.3463
 7690TIP3   OH244484   0.667   3.798   5.527 -0.4992  0.0738 -0.1771
 7690TIP3    H144485   0.748   3.837   5.561 -0.8320  2.4350 -1.8082
 7690TIP3    H244486   0.608   3.795   5.603 -0.2380  2.3271  0.1980
 7691TIP3   OH244487   3.857   4.820   5.540  0.8753  0.6154  0.4306
 7691TIP3    H144488   3.805   4.788   5.614 -0.2257  1.2788 -0.0184
 7691TIP3    H244489   3.900   4.742   5.505 -0.5390 -0.1475  0.2820
 7692TIP3   OH244490   2.453   5.875   5.441 -0.0040 -0.5391  0.1978
 7692TIP3    H144491   2.447   5.879   5.346 -1.3213  0.4457  0.2846
 7692TIP3    H244492   2.477   5.964   5.468  1.3805 -1.0477  0.7550
 7693TIP3   OH244493   5.089   0.184   3.306  0.5064 -0.0381  0.4356
 7693TIP3    H144494   5.169   0.146   3.270  0.1433 -1.7832  1.3901
 7693TIP3    H244495   5.068   0.129   3.381 -0.1784  1.9505  1.7744
 7694TIP3   OH244496   3.017   2.669  12.607  0.7016 -0.1848 -0.3976
 7694TIP3    H144497   3.018   2.667  12.511 -0.8485 -1.7138 -0.4322
 7694TIP3    H244498   3.046   2.757  12.629 -2.1163  1.4289 -2.4212
 7695TIP3   OH244499   3.824   3.739  13.864  0.5493 -0.4811 -0.0791
 7695TIP3    H144500   3.801   3.658  13.909  0.5044 -0.7560 -0.5905
 7695TIP3    H244501   3.907   3.766  13.903  2.0710 -2.2998 -1.8210
 7696TIP3   OH244502   0.419   0.527   0.599  0.6001  0.9169  0.0235
 7696TIP3    H144503   0.373   0.574   0.669  2.0715  1.3484  0.7489
 7696TIP3    H244504   0.511   0.549   0.613  0.9689  0.6856 -1.8283
 7697TIP3   OH244505   2.448   4.610  15.960 -0.2704 -0.8864 -0.2603
 7697TIP3    H144506   2.454   4.539  16.024 -2.1146 -1.9117 -1.1569
 7697TIP3    H244507   2.395   4.677  16.002 -2.7616 -2.1787 -1.1310
 7698TIP3   OH244508   3.776   1.082  16.570 -0.3098 -0.0809  0.4274
 7698TIP3    H144509   3.783   0.991  16.541  0.7233  0.1081  0.0327
 7698TIP3    H244510   3.767   1.132  16.489 -2.5965  0.0737  0.7035
 7699TIP3   OH244511   0.114   1.384   0.350  0.0511  0.1835 -0.0832
 7699TIP3    H144512   0.066   1.302   0.365 -0.8363  0.3797 -1.6177
 7699TIP3    H244513   0.166   1.396   0.429 -2.1452 -0.2510  1.5059
 7700TIP3   OH244514   3.595   5.452   4.048  0.0491 -0.0645  0.4271
 7700TIP3    H144515   3.534   5.501   3.993 -0.6671  1.2346  2.2766
 7700TIP3    H244516   3.543   5.378   4.081  0.5389 -0.9649 -0.7428
 7701TIP3   OH244517   4.635   0.810  15.806 -0.2735 -0.0918 -0.2095
 7701TIP3    H144518   4.674   0.764  15.880 -1.4541  0.1503  0.5975
 7701TIP3    H244519   4.559   0.855  15.844 -1.6757 -1.0138 -1.8117
 7702TIP3   OH244520   0.373   2.344  12.862 -0.3895 -0.5362 -0.6073
 7702TIP3    H144521   0.344   2.253  12.870  2.1029 -1.7829 -3.6404
 7702TIP3    H244522   0.307   2.386  12.807 -1.0438 -0.7233  0.0121
 7703TIP3   OH244523   4.888   2.181  11.392  0.8823 -0.3223  0.2932
 7703TIP3    H144524   4.944   2.107  11.419  2.3163  0.8709  0.7695
 7703TIP3    H244525   4.934   2.258  11.425 -0.3245  0.8286 -0.6194
 7704TIP3   OH244526   0.127   1.832  15.396 -0.1088  0.2326 -0.4634
 7704TIP3    H144527   0.175   1.844  15.314  1.4578 -1.6878  0.1012
 7704TIP3    H244528   0.114   1.737  15.402 -1.9254  0.5011  0.5878
 7705TIP3   OH244529   0.361   5.373  13.548 -0.3919  0.1077 -0.6528
 7705TIP3    H144530   0.331   5.290  13.586  0.7288  1.1432  2.9610
 7705TIP3    H244531   0.456   5.365  13.547 -0.0875  1.9904  1.9131
 7706TIP3   OH244532   4.799   5.285   2.247 -0.2256 -0.1259 -0.3482
 7706TIP3    H144533   4.887   5.256   2.226  1.0064  1.3309  2.3175
 7706TIP3    H244534   4.771   5.228   2.319 -0.8790  0.3493 -0.2117
 7707TIP3   OH244535   3.350   5.495  15.756  0.0315  0.5218 -0.5172
 7707TIP3    H144536   3.282   5.479  15.821  1.7371 -0.7517  1.0788
 7707TIP3    H244537   3.317   5.568  15.703 -1.8670  0.9499  1.1473
 7708TIP3   OH244538   1.980   5.744   3.107 -0.6735 -0.2546 -0.1262
 7708TIP3    H144539   1.941   5.823   3.069 -0.7844 -0.0486  0.4163
 7708TIP3    H244540   2.030   5.775   3.182 -0.1890 -0.6248 -0.2861
 7709TIP3   OH244541   3.779   3.226  15.527 -0.5387  0.5199  0.2155
 7709TIP3    H144542   3.733   3.192  15.451 -0.1775  0.9212 -0.1859
 7709TIP3    H244543   3.839   3.156  15.553 -1.3788 -0.0157  0.7548
 7710TIP3   OH244544   2.647   6.396  12.741 -0.9675 -0.2320 -0.4266
 7710TIP3    H144545   2.576   6.333  12.727  0.0083 -1.2233 -1.1280
 7710TIP3    H244546   2.720   6.343  12.771 -0.8590  0.9491  1.5137
 7711TIP3   OH244547   2.724   6.030  13.129 -0.0580 -0.6163  0.0218
 7711TIP3    H144548   2.647   6.084  13.116  0.8904  0.5973 -0.7965
 7711TIP3    H244549   2.690   5.945  13.158 -1.5860  0.3486  1.1570
 7712TIP3   OH244550   1.885   4.793   1.805  0.1351 -0.1099  0.0871
 7712TIP3    H144551   1.800   4.771   1.768  0.5255 -0.4087 -0.6509
 7712TIP3    H244552   1.864   4.838   1.887 -0.7952  1.3782 -0.8975
 7713TIP3   OH244553   2.097   1.720  15.318 -0.1637 -0.3041  0.2299
 7713TIP3    H144554   2.139   1.785  15.262  1.1049 -1.8091 -0.6288
 7713TIP3    H244555   2.097   1.760  15.405 -0.8869  1.4836 -0.5383
 7714TIP3   OH244556   0.087   2.779   2.362  0.1341  0.4928 -0.3372
 7714TIP3    H144557   0.107   2.812   2.450  0.9856  0.8150 -0.6349
 7714TIP3    H244558   0.127   2.692   2.360  0.4635  0.6478 -0.5362
 7715TIP3   OH244559   1.219   1.651   0.613  0.6000 -0.3708  0.0377
 7715TIP3    H144560   1.220   1.718   0.681  1.4758 -0.0459 -0.2888
 7715TIP3    H244561   1.308   1.617   0.611  0.6101 -0.3181 -0.9996
 7716TIP3   OH244562   0.134   1.284   4.013 -1.0312 -0.4760  0.3707
 7716TIP3    H144563   0.122   1.208   3.955 -0.9277 -1.1975  1.2708
 7716TIP3    H244564   0.217   1.323   3.984 -0.8856 -0.9395  0.1416
 7717TIP3   OH244565   2.996   6.503   2.601  0.2462  0.8153  0.3444
 7717TIP3    H144566   2.926   6.440   2.586 -0.5305  1.8384 -0.4686
 7717TIP3    H244567   3.026   6.485   2.690 -0.8135  0.1391  0.5821
 7718TIP3   OH244568   6.190   2.889   2.579  0.4761 -0.0559 -0.1536
 7718TIP3    H144569   6.108   2.838   2.574  0.3388  0.0520  0.8035
 7718TIP3    H244570   6.249   2.845   2.517  0.0612 -0.8271 -0.0148
 7719TIP3   OH244571   3.612   4.323  15.765  0.2082  0.1548 -0.1588
 7719TIP3    H144572   3.616   4.410  15.726 -0.5234  0.3017  0.0750
 7719TIP3    H244573   3.523   4.292  15.747 -0.6022  0.7389  2.4277
 7720TIP3   OH244574   1.322   4.545   0.429 -0.1710 -0.2482  0.1626
 7720TIP3    H144575   1.357   4.507   0.510  1.5625  2.1160  0.6166
 7720TIP3    H244576   1.228   4.552   0.446  0.0051 -0.8187  1.5409
 7721TIP3   OH244577   5.282   4.617  15.297 -0.0411 -0.2275 -0.3108
 7721TIP3    H144578   5.269   4.702  15.338 -2.7186 -0.8197  0.2717
 7721TIP3    H244579   5.376   4.599  15.307 -0.0623  0.8303  3.2665
 7722TIP3   OH244580   0.956   2.878   4.084 -0.2584 -0.0632  0.1559
 7722TIP3    H144581   0.873   2.845   4.048  1.0278 -1.3532 -1.8265
 7722TIP3    H244582   0.968   2.829   4.165 -0.1403 -1.9128 -0.9322
 7723TIP3   OH244583   1.889   4.034   6.566 -0.7803 -0.1359 -0.2685
 7723TIP3    H144584   1.922   3.996   6.648  1.1548  0.2280 -0.8150
 7723TIP3    H244585   1.795   4.045   6.580 -0.4293  0.4039  2.1238
 7724TIP3   OH244586   4.089   5.905  14.470 -0.2783 -0.4434  0.0638
 7724TIP3    H144587   4.172   5.919  14.424  0.1609  1.5693  1.3306
 7724TIP3    H244588   4.102   5.825  14.521  0.8023 -0.2889  0.0423
 7725TIP3   OH244589   2.718   5.019   0.085  0.2268  0.1515 -0.0209
 7725TIP3    H144590   2.805   4.989   0.058  0.0679 -0.6168  0.2861
 7725TIP3    H244591   2.732   5.055   0.172  0.3734  0.7395 -0.2857
 7726TIP3   OH244592   4.699   5.191   5.417 -0.8250  0.4020 -0.1095
 7726TIP3    H144593   4.625   5.250   5.413 -1.2642 -0.2149 -1.9302
 7726TIP3    H244594   4.769   5.236   5.371 -1.5406 -0.9067 -2.6799
 7727TIP3   OH244595   1.567   0.002  12.500  0.2569 -0.2211 -0.4990
 7727TIP3    H144596   1.491   0.048  12.465  1.4086  1.7430 -0.5677
 7727TIP3    H244597   1.639   0.028  12.443  1.1989 -1.1268  0.2399
 7728TIP3   OH244598   0.944   3.749   0.298 -0.1917 -0.4594  0.3348
 7728TIP3    H144599   1.019   3.746   0.358  0.5185  0.0141 -0.4882
 7728TIP3    H244600   0.952   3.670   0.245  0.6491  0.3285 -0.7784
 7729TIP3   OH244601   1.287   0.230  14.640  0.2675 -0.1259 -0.0195
 7729TIP3    H144602   1.341   0.285  14.697  0.2429 -1.7366  1.6102
 7729TIP3    H244603   1.204   0.278  14.632  1.6384  2.1564 -2.1947
 7730TIP3   OH244604   3.497   5.216   4.156  0.2328 -0.6877 -0.4136
 7730TIP3    H144605   3.481   5.144   4.095 -1.4648 -1.5916  0.9868
 7730TIP3    H244606   3.538   5.174   4.232  0.6907  0.1065 -0.2171
 7731TIP3   OH244607   2.736   3.523  15.220  0.1740 -0.2804  0.1106
 7731TIP3    H144608   2.746   3.611  15.184  0.8914 -0.2019  0.4764
 7731TIP3    H244609   2.744   3.535  15.315  0.1204 -0.7190  0.1749
 7732TIP3   OH244610   0.130   4.982  16.891  0.1230  0.0073  0.4767
 7732TIP3    H144611   0.079   5.019  16.964 -1.5642 -0.5565 -0.3613
 7732TIP3    H244612   0.089   5.018  16.813  0.1131 -1.5431 -0.2750
 7733TIP3   OH244613   5.159   0.054   5.679  0.3245 -0.3080  0.3672
 7733TIP3    H144614   5.096  -0.009   5.644  0.1614 -0.0447  0.1772
 7733TIP3    H244615   5.232   0.001   5.711  0.7938 -0.5151 -1.0143
 7734TIP3   OH244616   5.955   2.852  12.862  0.1801 -0.4295 -0.2247
 7734TIP3    H144617   5.917   2.893  12.939  0.9021 -0.3783  0.1191
 7734TIP3    H244618   5.881   2.830  12.806 -0.2196  1.8028 -0.6535
 7735TIP3   OH244619   0.750   5.306   2.867 -0.1908  0.0373  0.1355
 7735TIP3    H144620   0.703   5.372   2.918 -0.4290  0.5300 -0.6952
 7735TIP3    H244621   0.839   5.307   2.902 -0.6759 -0.5978  1.4336
 7736TIP3   OH244622   5.907   2.252  14.993  0.1156 -0.5208 -0.5077
 7736TIP3    H144623   5.838   2.237  15.057  0.0595  0.6479 -0.2737
 7736TIP3    H244624   5.861   2.265  14.910 -0.0086  0.8794 -0.2404
 7737TIP3   OH244625   1.723   6.736  15.160  0.5090 -0.4785 -0.2253
 7737TIP3    H144626   1.680   6.736  15.075 -0.9890  0.3545  0.4825
 7737TIP3    H244627   1.800   6.681  15.149 -0.1657 -1.1379 -1.8589
 7738TIP3   OH244628   2.978   6.268  11.143  0.3813 -0.2216  0.0477
 7738TIP3    H144629   2.926   6.247  11.066 -2.2551  2.9501  0.7394
 7738TIP3    H244630   3.043   6.198  11.148 -1.4768 -2.4095 -3.0324
 7739TIP3   OH244631   6.167   1.955   1.157 -0.8645 -0.1033 -0.0235
 7739TIP3    H144632   6.101   1.926   1.094 -1.3218  0.6878  0.0756
 7739TIP3    H244633   6.141   1.914   1.239 -1.5387  0.6090  0.1293
 7740TIP3   OH244634   4.887   4.206   4.365  0.3665 -0.3842  0.1408
 7740TIP3    H144635   4.875   4.133   4.426 -0.4207  1.4313  2.3047
 7740TIP3    H244636   4.889   4.284   4.421  0.9102  1.3055 -2.0829
 7741TIP3   OH244637   3.497   2.279   3.208  0.0730 -0.1124  0.2919
 7741TIP3    H144638   3.561   2.209   3.199 -0.8011 -0.9992  0.7236
 7741TIP3    H244639   3.507   2.310   3.298 -0.2898 -0.4447  0.4483
 7742TIP3   OH244640   0.370   5.816   4.953 -0.1256  0.1587 -0.0797
 7742TIP3    H144641   0.375   5.846   4.863 -0.1394 -0.0690 -0.1586
 7742TIP3    H244642   0.312   5.739   4.949  1.1829 -0.8610 -0.1452
 7743TIP3   OH244643   0.840   0.469   4.198  1.1059 -0.0251 -0.7239
 7743TIP3    H144644   0.760   0.513   4.167 -0.4585 -1.4903  0.9749
 7743TIP3    H244645   0.839   0.385   4.153 -0.3588 -1.5325  1.8662
 7744TIP3   OH244646   0.055   0.424  11.904 -0.1676  0.2228 -0.3578
 7744TIP3    H144647   0.137   0.472  11.905  0.0285 -0.1039 -0.5196
 7744TIP3    H244648  -0.012   0.489  11.926  0.1866  0.3916  0.2524
 7745TIP3   OH244649   6.569   2.358   0.086  0.2237 -0.4714  0.3321
 7745TIP3    H144650   6.573   2.426   0.019 -0.3378 -0.2944  0.4702
 7745TIP3    H244651   6.660   2.344   0.111  0.6510 -1.8884 -1.7966
 7746TIP3   OH244652   3.506   2.365  11.290  0.2058 -0.2543  0.0638
 7746TIP3    H144653   3.544   2.296  11.343 -1.5524 -0.4876  1.1028
 7746TIP3    H244654   3.503   2.329  11.201  0.1155 -1.1866  0.4381
 7747TIP3   OH244655   2.210   1.529  12.712  0.1923  0.5011  0.8420
 7747TIP3    H144656   2.167   1.614  12.724 -0.1804  0.1106  2.4820
 7747TIP3    H244657   2.286   1.532  12.770  0.4409 -0.1157  0.5502
 7748TIP3   OH244658   2.673   3.609  13.864 -0.2497  0.3865 -0.2178
 7748TIP3    H144659   2.738   3.595  13.933  0.3593  0.2693 -0.8110
 7748TIP3    H244660   2.711   3.569  13.786 -1.4128 -0.4339 -0.3857
 7749TIP3   OH244661   2.448   3.608  11.435 -0.0754  0.0561  0.1521
 7749TIP3    H144662   2.542   3.602  11.452 -0.4510 -2.4825  1.8542
 7749TIP3    H244663   2.408   3.548  11.498 -2.9511  1.7660  0.1268
 7750TIP3   OH244664   3.673   5.867   5.997  0.9641 -0.0161 -0.1820
 7750TIP3    H144665   3.581   5.842   5.997  0.3871  1.7034  2.0872
 7750TIP3    H244666   3.716   5.805   5.938 -1.4804 -1.4487 -0.5607
 7751TIP3   OH244667   6.115   2.906  14.776  0.4310 -0.2204 -0.0774
 7751TIP3    H144668   6.153   2.977  14.725 -0.9893 -0.5181 -1.6292
 7751TIP3    H244669   6.166   2.829  14.751 -1.4103 -0.7446 -2.6486
 7752TIP3   OH244670   6.049   5.157  12.549 -0.3376 -0.3085 -0.1187
 7752TIP3    H144671   5.972   5.123  12.594  1.6807 -1.3913  2.7989
 7752TIP3    H244672   6.069   5.239  12.595  1.3555 -1.0611  0.5421
 7753TIP3   OH244673   3.790   4.996  12.881  0.3182  0.9529 -0.6513
 7753TIP3    H144674   3.858   4.930  12.890 -1.1049 -0.7395 -1.6077
 7753TIP3    H244675   3.769   5.021  12.971  0.3358 -0.5220 -0.2105
 7754TIP3   OH244676   2.003   0.335  11.502 -0.6894  0.3647  0.7558
 7754TIP3    H144677   1.958   0.418  11.490  1.8329  1.5441 -1.8463
 7754TIP3    H244678   2.081   0.357  11.553 -0.6095 -0.6745  1.1075
 7755TIP3   OH244679   1.322   1.064  14.614 -0.4163  0.0148  0.1857
 7755TIP3    H144680   1.243   1.074  14.667  0.7550  0.1214  1.9866
 7755TIP3    H244681   1.394   1.066  14.677  0.9953 -0.8917 -1.3185
 7756TIP3   OH244682   5.359   2.973  14.219  0.1577  0.1115  0.4618
 7756TIP3    H144683   5.445   2.957  14.257  0.9657  1.6285 -0.6173
 7756TIP3    H244684   5.345   3.067  14.229 -1.8073 -0.2230  1.4270
 7757TIP3   OH244685   3.821   4.727  17.151  0.1550  0.3038 -0.4782
 7757TIP3    H144686   3.899   4.751  17.102  0.9134 -0.5092  0.2995
 7757TIP3    H244687   3.748   4.760  17.099  0.9640 -0.0163 -1.8420
 7758TIP3   OH244688   4.737   0.285   5.717  0.0807  0.1227 -1.2144
 7758TIP3    H144689   4.771   0.362   5.764  0.3950  0.6367 -2.2425
 7758TIP3    H244690   4.782   0.211   5.757  1.0897  0.6365 -1.3440
 7759TIP3   OH244691   2.508   0.187  16.887 -0.2050  0.5520  0.2337
 7759TIP3    H144692   2.534   0.255  16.949  2.8975  0.5952 -0.9264
 7759TIP3    H244693   2.546   0.106  16.923 -0.4879  0.1507 -0.3515
 7760TIP3   OH244694   5.325   1.572  15.595 -0.2778 -0.1413 -0.3343
 7760TIP3    H144695   5.340   1.646  15.535 -1.4089 -1.2321 -2.0726
 7760TIP3    H244696   5.387   1.505  15.565  0.6051  0.0011  1.1059
 7761TIP3   OH244697   5.021   6.560  12.414  0.2204  0.1632 -0.3566
 7761TIP3    H144698   5.030   6.567  12.509  0.0107  0.2735 -0.3429
 7761TIP3    H244699   4.928   6.543  12.401  0.3827 -0.6315 -0.4988
 7762TIP3   OH244700   0.455   1.563   4.396 -0.2388  0.2166 -0.0822
 7762TIP3    H144701   0.470   1.471   4.415 -0.1093  0.6539  2.2791
 7762TIP3    H244702   0.360   1.574   4.403 -0.3731  0.1048 -1.3929
 7763TIP3   OH244703   1.769   3.872   3.940 -0.5634  0.0674 -0.1460
 7763TIP3    H144704   1.773   3.777   3.935 -1.3261  0.0619 -0.7625
 7763TIP3    H244705   1.810   3.903   3.859 -0.0120  0.2772  0.2049
 7764TIP3   OH244706   3.592   0.459   4.262 -0.2281 -0.0787  0.5357
 7764TIP3    H144707   3.672   0.427   4.219  0.0229  0.1956  0.7972
 7764TIP3    H244708   3.582   0.548   4.229 -0.0703  0.1097  1.0001
 7765TIP3   OH244709   3.223   2.643   4.281  0.3384  0.0062 -0.0566
 7765TIP3    H144710   3.170   2.722   4.270  0.2975 -0.2300 -1.8333
 7765TIP3    H244711   3.199   2.587   4.207 -0.6542 -2.3035  1.8618
 7766TIP3   OH244712   6.740   0.680  14.476  0.2489 -1.0721 -0.1496
 7766TIP3    H144713   6.779   0.593  14.485  2.1744 -0.0994  2.5645
 7766TIP3    H244714   6.814   0.740  14.484 -1.3501  0.8566  1.3404
 7767TIP3   OH244715   4.843   4.656  13.804 -0.1534  0.3317  0.0749
 7767TIP3    H144716   4.759   4.625  13.838  0.0523  0.4296  0.6881
 7767TIP3    H244717   4.820   4.723  13.740 -0.6249 -1.3198 -1.5560
 7768TIP3   OH244718   5.816   1.136   5.104 -1.1132  0.0778  0.4086
 7768TIP3    H144719   5.774   1.212   5.063 -0.5694  0.0472 -0.2190
 7768TIP3    H244720   5.877   1.174   5.167 -0.9821  0.1565  0.2339
 7769TIP3   OH244721   0.159   0.713  15.977  0.1399 -0.3297 -0.3776
 7769TIP3    H144722   0.254   0.714  15.990 -0.0482 -1.4307  1.4421
 7769TIP3    H244723   0.123   0.715  16.066 -1.5122 -1.9012 -0.9538
 7770TIP3   OH244724   1.789   2.703   5.122  0.8219 -0.1297  0.2766
 7770TIP3    H144725   1.857   2.656   5.075 -0.6704 -1.0972 -1.0257
 7770TIP3    H244726   1.756   2.767   5.059  2.2952  2.2380  1.7708
 7771TIP3   OH244727   2.948   2.405  16.354 -0.1437 -0.1555 -0.1853
 7771TIP3    H144728   2.938   2.500  16.353  0.9775  0.0064  1.1140
 7771TIP3    H244729   2.868   2.373  16.395  1.3430  0.6358  3.8217
 7772TIP3   OH244730   6.228   5.086  14.941 -0.2651  0.0470 -0.7842
 7772TIP3    H144731   6.302   5.123  14.893 -0.1699  2.0671  0.7723
 7772TIP3    H244732   6.259   5.000  14.969 -0.1117 -0.9624 -3.6806
 7773TIP3   OH244733   3.639   1.546  13.048  0.4933 -0.4040  0.2610
 7773TIP3    H144734   3.731   1.540  13.020  0.3152  0.1908 -0.4720
 7773TIP3    H244735   3.638   1.503  13.133  0.8980 -3.0159 -0.9451
 7774TIP3   OH244736   4.661   5.389  12.991 -0.0470 -0.3146  0.6421
 7774TIP3    H144737   4.660   5.413  13.084  0.1366 -1.6420  1.0007
 7774TIP3    H244738   4.672   5.294  12.991  0.4166 -0.2760 -0.7529
 7775TIP3   OH244739   6.649   2.342  14.371  0.5815 -0.0691  0.2390
 7775TIP3    H144740   6.693   2.398  14.434  0.3875 -0.1471  0.4454
 7775TIP3    H244741   6.720   2.300  14.322  0.7491  1.4635 -0.9229
 7776TIP3   OH244742   3.855   0.667   4.088  0.0523  0.2393 -0.0320
 7776TIP3    H144743   3.806   0.686   4.008  2.3001 -0.2854 -1.6299
 7776TIP3    H244744   3.885   0.752   4.120 -3.9730  0.9389  2.5713
 7777TIP3   OH244745   1.470   1.520   5.583 -0.6302 -0.1690  0.0631
 7777TIP3    H144746   1.378   1.515   5.556 -1.5312  2.2962  2.2991
 7777TIP3    H244747   1.498   1.607   5.557  0.8230 -0.5565  0.2493
 7778TIP3   OH244748   1.666   1.744   4.921 -0.8469 -0.2199  0.7113
 7778TIP3    H144749   1.649   1.822   4.974  0.7570  1.3332 -0.9004
 7778TIP3    H244750   1.595   1.743   4.857 -1.2132 -0.4574  1.1167
 7779TIP3   OH244751   1.088   2.634  12.153 -0.0542 -0.2974  0.0745
 7779TIP3    H144752   1.077   2.606  12.063  2.5775 -0.9150 -0.1295
 7779TIP3    H244753   1.078   2.729  12.150 -1.9768 -0.4666 -0.4516
 7780TIP3   OH244754   6.612   4.799  15.815  0.8075  0.9041  0.3407
 7780TIP3    H144755   6.707   4.788  15.816  0.5063 -3.1871  1.2770
 7780TIP3    H244756   6.577   4.710  15.827 -3.1703  2.1369 -0.5428
 7781TIP3   OH244757   5.528   0.839  13.077  0.1465 -0.4669  0.6270
 7781TIP3    H144758   5.567   0.828  12.991  1.7822 -1.0663  1.4150
 7781TIP3    H244759   5.435   0.818  13.064 -0.3470  2.4592 -1.6165
 7782TIP3   OH244760   1.073   1.542  14.287 -0.0090  0.1845 -0.1668
 7782TIP3    H144761   1.075   1.628  14.329  1.7558  0.5924 -0.9861
 7782TIP3    H244762   1.039   1.484  14.354  1.7951  0.9762  1.5427
 7783TIP3   OH244763   3.373   4.160  14.561 -0.3861 -0.5792  0.5088
 7783TIP3    H144764   3.360   4.085  14.618 -0.1410 -0.4585  0.7270
 7783TIP3    H244765   3.330   4.233  14.606 -1.1596 -0.7097  0.0030
 7784TIP3   OH244766   1.057   3.323  11.328 -0.7876  0.4992 -0.1247
 7784TIP3    H144767   1.142   3.292  11.358  0.3699  3.1879 -0.3988
 7784TIP3    H244768   1.002   3.322  11.406 -0.0791  0.1760  0.3845
 7785TIP3   OH244769   4.922   2.327  14.990 -0.3106  0.2729 -0.3155
 7785TIP3    H144770   4.977   2.338  15.068 -1.0469 -1.2417  0.4696
 7785TIP3    H244771   4.973   2.364  14.919  0.9372  0.5462  0.6839
 7786TIP3   OH244772   1.431   4.989   1.412  0.2975 -0.0694 -0.0973
 7786TIP3    H144773   1.410   4.940   1.491 -0.2459  1.3528  0.6646
 7786TIP3    H244774   1.440   4.922   1.344 -1.6231 -1.1379  0.6330
 7787TIP3   OH244775   2.585   5.097  11.591 -0.0644  0.2185 -0.4046
 7787TIP3    H144776   2.571   5.012  11.550  1.5642 -0.0511 -0.4848
 7787TIP3    H244777   2.502   5.117  11.634 -0.2170 -1.8670  0.4125
 7788TIP3   OH244778   5.602   1.770  16.735 -0.3197 -0.3182 -0.1326
 7788TIP3    H144779   5.601   1.861  16.703  2.2140 -0.0870  0.2418
 7788TIP3    H244780   5.657   1.723  16.672 -0.3191 -1.2279  0.5244
 7789TIP3   OH244781   0.634   5.926   0.511 -0.7939  0.1596  0.0670
 7789TIP3    H144782   0.701   5.982   0.551 -1.0037  0.8707 -0.5683
 7789TIP3    H244783   0.563   5.987   0.487 -1.3803 -0.4920  0.1128
 7790TIP3   OH244784   1.359   0.934   4.840 -0.2652  1.0889  0.0799
 7790TIP3    H144785   1.374   0.994   4.914 -0.3264  0.9933  0.1699
 7790TIP3    H244786   1.441   0.935   4.792  0.6018 -0.5539  1.3804
 7791TIP3   OH244787   4.535   2.771   4.812 -0.0819  0.2183  0.3879
 7791TIP3    H144788   4.485   2.844   4.776 -1.4620 -0.7060  0.3688
 7791TIP3    H244789   4.495   2.753   4.897  0.8796  0.1072  0.8321
 7792TIP3   OH244790   2.798   3.311  12.239 -0.7350 -0.1648  0.2610
 7792TIP3    H144791   2.866   3.323  12.304 -0.3072 -1.7589  0.1587
 7792TIP3    H244792   2.767   3.399  12.220  0.5785  0.5058  1.0639
 7793TIP3   OH244793   5.676   6.471   1.957 -0.3057 -0.1839 -0.1695
 7793TIP3    H144794   5.586   6.450   1.934 -0.1157 -2.2865  0.7415
 7793TIP3    H244795   5.729   6.421   1.895  0.2908  1.8221 -1.3498
 7794TIP3   OH244796   5.949   4.368   1.192 -0.5230 -0.1504  0.2581
 7794TIP3    H144797   5.980   4.307   1.258 -0.9573 -2.0240 -1.1686
 7794TIP3    H244798   5.860   4.337   1.171 -0.8235  1.0854 -0.3855
 7795TIP3   OH244799   2.505   5.698   4.642 -0.0741  0.1795 -0.1205
 7795TIP3    H144800   2.590   5.717   4.601 -0.5136  0.6362 -0.8580
 7795TIP3    H244801   2.453   5.659   4.571 -1.4245  2.5520 -0.5372
 7796TIP3   OH244802   1.569   0.512   0.173 -0.3332  0.2060 -0.5556
 7796TIP3    H144803   1.572   0.581   0.240 -0.7065 -0.3483  0.0364
 7796TIP3    H244804   1.608   0.436   0.216  0.1259  0.0511 -1.2271
 7797TIP3   OH244805   4.916   4.455   1.864 -0.1995 -0.1113  0.6547
 7797TIP3    H144806   4.882   4.398   1.932 -0.5972  0.9141  1.3529
 7797TIP3    H244807   5.005   4.478   1.894 -0.1050 -0.2324  0.4665
 7798TIP3   OH244808   4.603   0.520   5.876 -0.4132  0.3195 -0.6877
 7798TIP3    H144809   4.606   0.615   5.864  0.2401  0.1825 -1.7988
 7798TIP3    H244810   4.589   0.508   5.970  0.0241  1.5102 -0.4504
 7799TIP3   OH244811   3.893   4.175  11.912  0.0928 -0.3024 -0.9244
 7799TIP3    H144812   3.865   4.258  11.873 -0.5471  0.0157  0.1969
 7799TIP3    H244813   3.818   4.117  11.903 -1.0889  0.5810  2.1708
 7800TIP3   OH244814   1.263   3.243   5.406  0.3349  0.3749 -0.4182
 7800TIP3    H144815   1.196   3.269   5.470 -0.9101 -0.3128 -1.3942
 7800TIP3    H244816   1.328   3.195   5.458 -1.3141 -1.3325  0.1816
 7801TIP3   OH244817   1.521   1.267   1.438  0.4586  0.1948  0.0055
 7801TIP3    H144818   1.428   1.282   1.423  0.4947 -0.0311 -0.4805
 7801TIP3    H244819   1.524   1.195   1.501  0.2958  1.4835  1.5441
 7802TIP3   OH244820   4.702   2.939   2.660  0.2795 -0.1738 -0.5885
 7802TIP3    H144821   4.752   3.004   2.709 -0.4836 -0.8244  1.1485
 7802TIP3    H244822   4.687   2.980   2.575  0.4339  1.6255  0.1910
 7803TIP3   OH244823   0.988   1.536  11.346  0.1213  0.0496  0.4768
 7803TIP3    H144824   1.044   1.478  11.399  1.5964 -1.3326 -2.3397
 7803TIP3    H244825   1.009   1.512  11.256 -3.8775  0.6695 -0.7880
 7804TIP3   OH244826   6.695   0.651  12.156  0.2098  0.0458  0.5297
 7804TIP3    H144827   6.624   0.628  12.215  1.1585 -1.3711  1.1759
 7804TIP3    H244828   6.652   0.683  12.077 -1.1749 -1.8005  0.4886
 7805TIP3   OH244829   2.634   1.830   3.593  0.3024  0.7866  0.3671
 7805TIP3    H144830   2.588   1.837   3.510  1.2387  0.4549 -0.1829
 7805TIP3    H244831   2.595   1.899   3.648 -1.2842  0.1127  0.1364
 7806TIP3   OH244832   2.685   3.087  15.376 -0.1992  0.4017  0.0845
 7806TIP3    H144833   2.628   3.036  15.434  1.4545 -1.1021  0.4643
 7806TIP3    H244834   2.759   3.112  15.430 -0.1636  1.7788 -0.5616
 7807TIP3   OH244835   6.373   5.507  14.925 -0.4608 -0.1160 -0.4329
 7807TIP3    H144836   6.424   5.531  15.003 -1.3557 -1.9951  0.8258
 7807TIP3    H244837   6.354   5.590  14.882  0.1128  0.9841  1.3252
 7808TIP3   OH244838   0.164   0.517  13.043 -0.2347 -0.0090 -0.2516
 7808TIP3    H144839   0.168   0.591  12.983  0.5148 -0.0403 -0.2551
 7808TIP3    H244840   0.174   0.557  13.130 -1.5844  0.0658 -0.1045
 7809TIP3   OH244841   4.399   2.561   1.193 -0.5811  0.2912  0.0670
 7809TIP3    H144842   4.481   2.514   1.177 -0.7724 -0.3720  0.9646
 7809TIP3    H244843   4.374   2.595   1.107  0.2604 -0.1081 -0.3492
 7810TIP3   OH244844   5.083   1.336  12.748  0.0886 -0.9746  0.0828
 7810TIP3    H144845   5.113   1.408  12.693 -0.0849 -1.6762 -0.9544
 7810TIP3    H244846   5.025   1.285  12.692 -0.3805 -1.5111  1.0340
 7811TIP3   OH244847   0.229   3.652   3.268  0.0033  0.4110  0.4010
 7811TIP3    H144848   0.324   3.659   3.270 -0.0495  1.2065  0.4324
 7811TIP3    H244849   0.204   3.635   3.359  0.2432 -2.0686  0.0891
 7812TIP3   OH244850   6.508   2.013   2.835  0.0729 -0.3053 -0.4134
 7812TIP3    H144851   6.601   2.005   2.858  0.6317  0.8846 -2.0518
 7812TIP3    H244852   6.498   2.105   2.811 -2.2964  0.4203  2.7143
 7813TIP3   OH244853   0.650   6.389  12.892  0.2814 -0.2524  0.1066
 7813TIP3    H144854   0.638   6.319  12.956 -3.2797 -2.3739 -2.5087
 7813TIP3    H244855   0.733   6.369  12.849 -0.2573 -2.4432 -0.0172
 7814TIP3   OH244856   1.662   5.635   2.531 -0.1957  0.0463 -0.0247
 7814TIP3    H144857   1.718   5.649   2.608  0.6566 -0.0195 -0.6210
 7814TIP3    H244858   1.724   5.626   2.458 -0.7850 -3.0327 -0.2938
 7815TIP3   OH244859   5.535   2.160  11.418 -0.0485 -0.0929  0.3586
 7815TIP3    H144860   5.627   2.184  11.409 -0.0561 -0.1832  0.0249
 7815TIP3    H244861   5.498   2.173  11.331 -0.7698  1.7163  0.8787
 7816TIP3   OH244862   2.549   2.931   6.321  0.1651 -0.3688  0.2704
 7816TIP3    H144863   2.478   2.906   6.262  0.1667 -2.7492  1.1537
 7816TIP3    H244864   2.512   2.924   6.409  0.7946  0.9186  0.6701
 7817TIP3   OH244865   2.020   1.911   0.223 -0.1584 -0.5281 -0.2015
 7817TIP3    H144866   1.981   1.967   0.291  0.3034 -0.0056 -0.3647
 7817TIP3    H244867   2.072   1.970   0.170 -1.0141 -0.8108 -1.4101
 7818TIP3   OH244868   6.271   3.080  15.198  0.3260 -0.3135  0.0835
 7818TIP3    H144869   6.290   3.098  15.106  2.1876 -0.4372  0.4191
 7818TIP3    H244870   6.252   3.166  15.236 -0.2622 -0.2392 -0.3524
 7819TIP3   OH244871   3.417   1.448  15.897 -0.5675 -0.2350 -0.3862
 7819TIP3    H144872   3.419   1.542  15.911 -0.4529 -0.4833  1.7512
 7819TIP3    H244873   3.480   1.432  15.827  2.3036  1.0190  1.6860
 7820TIP3   OH244874   5.886   4.957   4.618 -0.1580  0.6129  0.2599
 7820TIP3    H144875   5.964   5.010   4.631 -0.4641  0.6920  1.9282
 7820TIP3    H244876   5.898   4.881   4.674 -1.3050  0.6782  0.6340
 7821TIP3   OH244877   6.452   0.655  13.354 -0.4222 -0.2709 -0.0336
 7821TIP3    H144878   6.449   0.562  13.334  1.2416 -0.2814 -0.3854
 7821TIP3    H244879   6.456   0.659  13.449 -1.8824 -0.4859  0.0523
 7822TIP3   OH244880   2.879   1.009  12.177 -0.1606 -0.3114 -0.1720
 7822TIP3    H144881   2.826   1.084  12.150  0.0044 -0.7175 -1.7569
 7822TIP3    H244882   2.955   1.012  12.120 -0.7057 -2.3333 -1.1137
 7823TIP3   OH244883   1.631   1.698   1.650 -0.1268 -0.4716 -0.1335
 7823TIP3    H144884   1.673   1.617   1.622 -0.3609 -0.0473 -1.8522
 7823TIP3    H244885   1.556   1.670   1.702 -1.5044 -1.4905 -2.5310
 7824TIP3   OH244886   6.416   1.180   5.053 -0.4275  0.1030  0.2163
 7824TIP3    H144887   6.473   1.206   4.980 -0.5964  0.9070  0.3720
 7824TIP3    H244888   6.334   1.226   5.037 -0.6488 -0.1459  0.6323
 7825TIP3   OH244889   6.436   1.741   4.321 -0.1614  0.1463 -0.4378
 7825TIP3    H144890   6.470   1.697   4.242  0.2324 -1.4191  0.5668
 7825TIP3    H244891   6.342   1.745   4.307  0.0342  1.1990 -1.6177
 7826TIP3   OH244892   1.791   2.675  12.627  0.4316 -0.0903  0.2725
 7826TIP3    H144893   1.735   2.704  12.698 -0.5655 -2.0971  0.3903
 7826TIP3    H244894   1.752   2.713  12.548 -0.3695 -0.4306  0.4932
 7827TIP3   OH244895   2.584   4.217  11.675  0.3516  0.8365 -0.0427
 7827TIP3    H144896   2.558   4.193  11.764 -1.8718  1.3358 -0.5051
 7827TIP3    H244897   2.680   4.213  11.676  0.3180 -1.7209  1.6340
 7828TIP3   OH244898   1.329   4.149   4.838 -0.2003  0.3288 -0.3575
 7828TIP3    H144899   1.290   4.198   4.765  0.2810 -1.8495 -2.2102
 7828TIP3    H244900   1.291   4.061   4.830  3.3586 -1.3322 -0.9582
 7829TIP3   OH244901   5.669   1.679   0.150  0.3443  0.2642 -0.6047
 7829TIP3    H144902   5.719   1.720   0.221 -0.1561 -0.9866  0.5185
 7829TIP3    H244903   5.618   1.750   0.113 -0.7518  0.6634  1.4922
 7830TIP3   OH244904   5.606   0.177  12.063 -0.5998 -0.4429 -0.1798
 7830TIP3    H144905   5.584   0.154  11.972 -0.9326 -0.0261 -0.2068
 7830TIP3    H244906   5.527   0.221  12.096  0.5553  2.1470 -0.6341
 7831TIP3   OH244907   3.593   4.546   1.976 -0.8841  0.2163 -0.3003
 7831TIP3    H144908   3.614   4.497   2.056  0.2659 -0.7803 -1.1731
 7831TIP3    H244909   3.623   4.635   1.995  1.1517 -0.4138 -0.2502
 7832TIP3   OH244910   0.181   4.339  12.245 -0.2517 -0.8163  0.7466
 7832TIP3    H144911   0.240   4.278  12.288  0.5464 -0.1882  0.5628
 7832TIP3    H244912   0.144   4.289  12.172  0.5863 -1.0151  0.4441
 7833TIP3   OH244913   5.742   1.611  13.311  0.3428  0.1959  0.5172
 7833TIP3    H144914   5.702   1.635  13.227  1.6298 -0.9961 -0.4810
 7833TIP3    H244915   5.724   1.517  13.320  0.7733  0.1814  1.2685
 7834TIP3   OH244916   2.591   4.834  16.508 -0.2226  0.2361 -0.1389
 7834TIP3    H144917   2.678   4.875  16.498 -0.4869  0.8354 -0.0158
 7834TIP3    H244918   2.534   4.906  16.535 -1.1161  0.2206 -1.8629
 7835TIP3   OH244919   0.453   3.136   2.384 -0.4485 -0.2938 -0.2232
 7835TIP3    H144920   0.523   3.164   2.443 -0.7271  1.4271 -0.6309
 7835TIP3    H244921   0.498   3.102   2.307 -0.0577  0.2055 -0.2181
 7836TIP3   OH244922   1.063   6.161   5.712  0.0013  0.0737  0.7928
 7836TIP3    H144923   1.143   6.166   5.661  0.2861  1.0777  1.3114
 7836TIP3    H244924   1.092   6.169   5.803 -0.6581  0.1489  1.0011
 7837TIP3   OH244925   3.846   2.765  12.484 -0.0628  0.1177  0.1747
 7837TIP3    H144926   3.830   2.704  12.556  0.0662  0.2590  0.3244
 7837TIP3    H244927   3.939   2.755  12.464  0.0328  0.4909  0.4108
 7838TIP3   OH244928   3.113   4.109  10.891  0.2736 -0.3930 -0.2266
 7838TIP3    H144929   3.181   4.050  10.860  1.0460  0.8787 -1.0752
 7838TIP3    H244930   3.096   4.167  10.816 -0.1563  0.6935  0.6830
 7839TIP3   OH244931   5.959   1.271  11.686  0.9788  0.0103 -0.1301
 7839TIP3    H144932   5.888   1.330  11.713 -0.1006 -1.2415 -0.1320
 7839TIP3    H244933   6.019   1.327  11.636  0.5398  1.3166  0.7575
 7840TIP3   OH244934   2.868   1.386   5.253  0.1612  0.0336 -0.0360
 7840TIP3    H144935   2.950   1.342   5.276 -0.3154  0.1948  2.2008
 7840TIP3    H244936   2.862   1.459   5.315 -1.5429  0.1685 -0.3152
 7841TIP3   OH244937   4.811   2.204   2.485 -0.4788 -0.4136  0.7382
 7841TIP3    H144938   4.859   2.278   2.523  0.4903 -0.9948  0.6734
 7841TIP3    H244939   4.718   2.228   2.496 -0.1926  1.0709  0.2014
 7842TIP3   OH244940   3.734   6.148   0.908 -0.0452 -0.4995 -0.0783
 7842TIP3    H144941   3.678   6.140   0.830  0.0365  0.8877 -0.3055
 7842TIP3    H244942   3.738   6.059   0.943 -2.2363 -0.7018 -0.1599
 7843TIP3   OH244943   3.281   4.223  13.552 -0.0515  0.2652 -0.6760
 7843TIP3    H144944   3.230   4.199  13.629 -1.9388  1.3439 -1.5156
 7843TIP3    H244945   3.216   4.253  13.488  1.1930 -2.3238 -3.4256
 7844TIP3   OH244946   2.604   1.654   4.235  0.4660 -0.2221 -0.4063
 7844TIP3    H144947   2.642   1.566   4.228 -0.6199 -0.8623  1.0491
 7844TIP3    H244948   2.541   1.646   4.307 -0.7341  1.3748 -1.2269
 7845TIP3   OH244949   6.598   6.633   3.011  0.4354 -0.5244  0.1079
 7845TIP3    H144950   6.667   6.689   3.047  0.7208 -0.9331  0.1966
 7845TIP3    H244951   6.557   6.593   3.087  0.4404 -0.6825  0.0272
 7846TIP3   OH244952   0.755   0.261  16.239  0.0025  0.1123  0.7153
 7846TIP3    H144953   0.767   0.183  16.295 -0.9762 -0.7511 -0.2244
 7846TIP3    H244954   0.662   0.259  16.216  0.1869  1.0106 -0.1455
 7847TIP3   OH244955   6.708   1.080  13.802  0.3283 -0.2309  0.1302
 7847TIP3    H144956   6.740   1.121  13.883 -1.3446 -1.9473  1.7688
 7847TIP3    H244957   6.640   1.139  13.770 -0.0678 -0.2844  0.8555
 7848TIP3   OH244958   5.235   0.557  11.713 -0.2603 -0.1537  0.3769
 7848TIP3    H144959   5.217   0.465  11.733  1.7909 -1.0701 -1.5922
 7848TIP3    H244960   5.301   0.582  11.777 -1.4664  0.2665  1.4905
 7849TIP3   OH244961   3.975   2.797   3.688  0.1352  0.1985 -0.1872
 7849TIP3    H144962   4.006   2.769   3.602 -0.8449  1.7755 -1.1085
 7849TIP3    H244963   3.962   2.892   3.679 -2.8236 -0.0093  0.7269
 7850TIP3   OH244964   2.774   2.603  13.943 -0.4454 -0.1952 -0.6526
 7850TIP3    H144965   2.756   2.533  13.880 -1.0670  0.5437 -1.3121
 7850TIP3    H244966   2.689   2.625  13.980 -0.3044  0.4292 -0.6818
 7851TIP3   OH244967   3.780   5.302   2.748  0.4780  0.4140  0.4554
 7851TIP3    H144968   3.695   5.269   2.718  0.3829  1.6693 -0.7762
 7851TIP3    H244969   3.763   5.336   2.836  0.0611 -0.6673  0.8072
 7852TIP3   OH244970   2.457   3.313   4.807 -0.1311 -0.2265 -0.0560
 7852TIP3    H144971   2.520   3.272   4.867 -0.2760 -0.1706  0.1317
 7852TIP3    H244972   2.461   3.258   4.729 -0.1770 -0.4816  0.1214
 7853TIP3   OH244973   3.208   2.590  16.460 -0.5889 -0.5180  0.3209
 7853TIP3    H144974   3.153   2.579  16.537 -1.6286  1.1852 -0.1250
 7853TIP3    H244975   3.147   2.609  16.389  0.4331 -0.7049 -0.6407
 7854TIP3   OH244976   3.379   4.067  16.371 -0.4189  0.3768  0.8172
 7854TIP3    H144977   3.372   4.162  16.365 -2.2316  0.3316  1.6203
 7854TIP3    H244978   3.377   4.037  16.280 -1.9358  1.0046  0.6149
 7855TIP3   OH244979   4.715   4.729   5.535 -0.0920 -0.1638  0.4644
 7855TIP3    H144980   4.628   4.734   5.573  0.0294  0.7027  0.6651
 7855TIP3    H244981   4.718   4.802   5.472 -0.7420 -2.3133 -2.2254
 7856TIP3   OH244982   0.018   2.516  14.482 -1.0387 -0.0432 -0.1886
 7856TIP3    H144983   0.045   2.601  14.516  0.8978 -1.1758  1.2824
 7856TIP3    H244984   0.067   2.505  14.400 -0.4121 -0.2042  0.2027
 7857TIP3   OH244985   2.808   3.033   1.206 -0.3551 -0.3760 -0.3329
 7857TIP3    H144986   2.847   3.120   1.211  0.3034 -0.5916 -1.4912
 7857TIP3    H244987   2.721   3.045   1.244 -0.7133  1.0625 -1.4875
 7858TIP3   OH244988   1.327   6.246   2.035 -0.5274  0.5760 -0.0593
 7858TIP3    H144989   1.326   6.214   2.125 -1.8535 -2.3075 -0.9940
 7858TIP3    H244990   1.245   6.295   2.026  0.2834  2.1206  0.6519
 7859TIP3   OH244991   4.643   6.706  13.292 -0.5614 -0.1162  0.2603
 7859TIP3    H144992   4.685   6.792  13.278 -0.9476  0.1768  0.8888
 7859TIP3    H244993   4.576   6.722  13.358 -0.6512 -0.9052  0.3707
 7860TIP3   OH244994   6.718   0.429   1.702 -0.5809  0.2849 -0.4535
 7860TIP3    H144995   6.774   0.376   1.644  0.1834 -0.1359  0.6280
 7860TIP3    H244996   6.656   0.472   1.643 -1.4844 -2.0900 -1.3775
 7861TIP3   OH244997   1.129   4.240   0.188  0.1333  0.8219 -0.0590
 7861TIP3    H144998   1.068   4.182   0.143 -0.6979  1.2739  0.4646
 7861TIP3    H244999   1.213   4.196   0.181 -0.6567 -1.0106  1.2778
 7862TIP3   OH245000   3.874   3.247   4.678 -0.2867 -0.3433  0.2232
 7862TIP3    H145001   3.847   3.160   4.710 -0.4333 -0.0953  0.7772
 7862TIP3    H245002   3.892   3.233   4.585 -0.0837 -1.0225  0.3591
 7863TIP3   OH245003   3.418   2.594  15.665  0.0395 -0.3979 -0.6476
 7863TIP3    H145004   3.326   2.599  15.689  0.0238 -2.6899 -0.0213
 7863TIP3    H245005   3.418   2.606  15.570 -0.7246  0.8974 -0.5191
 7864TIP3   OH245006   0.732   1.078  16.732  0.3410 -0.2131 -0.0151
 7864TIP3    H145007   0.782   1.160  16.734  0.3390 -0.1743  2.5391
 7864TIP3    H245008   0.652   1.100  16.685  1.5148  0.4643 -1.7821
 7865TIP3   OH245009   0.724   3.147   0.296 -0.1013 -0.5088  0.2374
 7865TIP3    H145010   0.700   3.238   0.280  1.4976 -0.0857  0.1484
 7865TIP3    H245011   0.666   3.097   0.238  0.2162  0.5559 -1.0424
 7866TIP3   OH245012   5.693   3.765   0.671 -0.1240  0.3649 -0.1052
 7866TIP3    H145013   5.768   3.806   0.629  0.5125 -1.0352 -0.4000
 7866TIP3    H245014   5.715   3.764   0.764 -0.0611  0.5318 -0.1188
 7867TIP3   OH245015   6.690   1.970  16.082  0.0053 -0.0653  0.3505
 7867TIP3    H145016   6.611   1.956  16.135  0.8275 -0.2552  1.5630
 7867TIP3    H245017   6.680   2.058  16.047 -0.2810  0.3086  1.3388
 7868TIP3   OH245018   5.735   0.132   5.984  0.3723 -0.4471 -0.2414
 7868TIP3    H145019   5.641   0.136   5.969  0.4966 -1.3730 -1.4678
 7868TIP3    H245020   5.757   0.039   5.977  1.4944 -0.1615 -0.8311
 7869TIP3   OH245021   1.382   2.917   1.779  0.0810  0.6568  0.2464
 7869TIP3    H145022   1.416   2.964   1.854  0.6580 -1.2934  1.2678
 7869TIP3    H245023   1.288   2.912   1.793  0.1740  0.4153  0.7863
 7870TIP3   OH245024   4.940   4.526  15.649 -0.3684 -0.8778 -0.1550
 7870TIP3    H145025   4.898   4.612  15.638 -1.0065 -1.0753  0.6549
 7870TIP3    H245026   5.028   4.547  15.681 -0.0572 -0.4836 -1.2318
 7871TIP3   OH245027   1.435   4.810  12.824 -0.2221 -0.0273  0.4946
 7871TIP3    H145028   1.350   4.830  12.785  1.2102  1.0639 -2.3392
 7871TIP3    H245029   1.462   4.728  12.782  1.0915  0.8463 -0.4235
 7872TIP3   OH245030   6.623   2.409  12.326  0.1165 -0.0241 -0.7013
 7872TIP3    H145031   6.545   2.450  12.363  1.8583  2.0948  0.8147
 7872TIP3    H245032   6.623   2.436  12.234 -0.1051  1.2982 -0.3302
 7873TIP3   OH245033   1.218   1.679   5.499  0.2604  0.0895  0.2092
 7873TIP3    H145034   1.295   1.728   5.528 -0.0489  1.4240 -1.0971
 7873TIP3    H245035   1.171   1.658   5.579  0.9895  0.9598  0.8863
 7874TIP3   OH245036   5.905   1.563   5.622  0.2995 -0.1578 -0.2515
 7874TIP3    H145037   5.904   1.624   5.695  0.7641 -0.7922  0.2913
 7874TIP3    H245038   5.814   1.561   5.592  0.0902  0.0469  0.3489
 7875TIP3   OH245039   3.929   0.876  12.827 -0.0420 -0.0093  0.1058
 7875TIP3    H145040   4.010   0.914  12.793 -0.4002  1.1839  0.5193
 7875TIP3    H245041   3.957   0.815  12.895  0.5663 -0.6299 -0.6951
 7876TIP3   OH245042   4.686   2.003  16.996 -0.3913  0.0479 -0.1131
 7876TIP3    H145043   4.753   1.949  16.953 -0.9115 -1.2639  0.6650
 7876TIP3    H245044   4.634   1.941  17.047 -0.4292  1.3997  1.6012
 7877TIP3   OH245045   1.456   5.233   0.096 -0.2180  0.2426 -0.4353
 7877TIP3    H145046   1.535   5.189   0.065 -1.0389 -0.6077 -1.4090
 7877TIP3    H245047   1.460   5.225   0.191  0.7746  0.0678 -0.4768
 7878TIP3   OH245048   0.511   4.019   4.579 -0.0770 -0.6734  0.3808
 7878TIP3    H145049   0.602   4.050   4.578  0.2029 -1.3829 -1.8240
 7878TIP3    H245050   0.463   4.084   4.529 -0.3941 -1.3041 -0.1500
 7879TIP3   OH245051   3.104   5.884  15.938 -0.1726 -0.2126 -0.1807
 7879TIP3    H145052   3.015   5.917  15.924  0.3760  0.8803 -1.2454
 7879TIP3    H245053   3.092   5.809  15.996 -2.0599 -1.6228 -2.2228
 7880TIP3   OH245054   4.771   5.945   0.933  0.4378  0.1737  0.7003
 7880TIP3    H145055   4.811   6.008   0.873  1.0790  0.9327  1.8742
 7880TIP3    H245056   4.688   5.922   0.892  0.1758  1.8026  0.2492
 7881TIP3   OH245057   2.010   0.821   5.203  0.2224 -0.5310 -0.1051
 7881TIP3    H145058   1.998   0.792   5.294  0.6372 -3.2832 -0.8459
 7881TIP3    H245059   2.019   0.741   5.153  2.7555  0.9432 -2.2567
 7882TIP3   OH245060   3.133   6.382   1.909  0.3901  0.3633 -0.0183
 7882TIP3    H145061   3.139   6.360   2.002 -1.9467  1.3259  0.4208
 7882TIP3    H245062   3.123   6.298   1.865 -2.2370  0.0305  1.0199
 7883TIP3   OH245063   5.582   3.622   2.636  0.0246 -0.2081  0.2958
 7883TIP3    H145064   5.568   3.710   2.672 -0.1308 -0.2778  0.4085
 7883TIP3    H245065   5.674   3.603   2.654 -0.0580 -0.2520  0.6828
 7884TIP3   OH245066   5.934   1.837   0.966 -0.8115  0.0172 -0.2661
 7884TIP3    H145067   5.949   1.744   0.952  1.6868  0.0595  1.5325
 7884TIP3    H245068   5.898   1.843   1.055  1.5684  0.8624  0.7125
 7885TIP3   OH245069   6.736   3.833  11.331 -0.1903  0.4304 -0.5083
 7885TIP3    H145070   6.776   3.797  11.252  3.9442 -2.2190  2.4278
 7885TIP3    H245071   6.710   3.757  11.382  0.3631  1.8596  2.0762
 7886TIP3   OH245072   2.123   0.646  16.254 -0.1420  0.2703  0.0752
 7886TIP3    H145073   2.191   0.693  16.303 -0.7544 -0.0504  1.2862
 7886TIP3    H245074   2.070   0.604  16.322 -2.6269  1.9375 -0.6845
 7887TIP3   OH245075   6.479   4.243  15.414 -0.4554  0.1400 -0.0712
 7887TIP3    H145076   6.500   4.315  15.474  0.5121 -0.5363  0.4294
 7887TIP3    H245077   6.518   4.166  15.455 -1.4290 -0.6617 -0.6341
 7888TIP3   OH245078   2.082   2.808  15.809  0.1629  0.0098 -0.0364
 7888TIP3    H145079   2.004   2.828  15.757 -0.3588  0.0505  0.7392
 7888TIP3    H245080   2.050   2.804  15.900  1.0639  0.0370  0.2942
 7889TIP3   OH245081   2.569   6.448   3.877 -0.5829  0.0910 -0.6725
 7889TIP3    H145082   2.618   6.366   3.867  0.1113  0.4651 -0.3591
 7889TIP3    H245083   2.554   6.455   3.971  0.0530  0.7299 -0.6179
 7890TIP3   OH245084   6.697   5.065  12.337 -0.5126  0.5221  0.0043
 7890TIP3    H145085   6.660   5.043  12.423  0.3182 -0.7124  0.0761
 7890TIP3    H245086   6.699   5.160  12.336 -1.5037  0.5815  0.9341
 7891TIP3   OH245087   0.058   0.702   2.699  0.3246 -0.1726 -0.2301
 7891TIP3    H145088  -0.007   0.730   2.763  0.8327  0.1240  0.1599
 7891TIP3    H245089   0.142   0.710   2.744  0.7623  0.7401 -1.1755
 7892TIP3   OH245090   3.805   6.272  12.723  0.6294 -0.4056  0.2828
 7892TIP3    H145091   3.723   6.282  12.675  1.1504 -0.7598 -0.7055
 7892TIP3    H245092   3.870   6.251  12.656  1.4578 -0.5144  1.0962
 7893TIP3   OH245093   5.067   1.720   2.626 -0.5223  0.4188 -0.0085
 7893TIP3    H145094   5.113   1.733   2.709 -1.3478  0.2691  0.4846
 7893TIP3    H245095   4.988   1.672   2.650 -1.0687  0.9040 -0.7933
 7894TIP3   OH245096   6.775   4.845  13.320  0.2018 -0.2504  0.3730
 7894TIP3    H145097   6.843   4.778  13.321  0.9279  0.4300 -0.9338
 7894TIP3    H245098   6.822   4.927  13.305 -0.8892  0.2587 -0.4249
 7895TIP3   OH245099   4.168   6.386  16.994  0.1979 -0.1414  0.0364
 7895TIP3    H145100   4.254   6.384  16.953  0.6375 -0.2531  0.9569
 7895TIP3    H245101   4.140   6.477  16.987  1.3496  0.3753  1.6728
 7896TIP3   OH245102   0.977   4.520  11.810  0.0900  0.2620  0.0681
 7896TIP3    H145103   0.897   4.491  11.854  0.0985 -0.8370 -0.6122
 7896TIP3    H245104   0.961   4.612  11.791 -0.4447  0.4200  1.1737
 7897TIP3   OH245105   3.220   2.450   5.030 -0.3985 -0.1752 -0.1142
 7897TIP3    H145106   3.259   2.363   5.031  0.1314  0.0528  1.0154
 7897TIP3    H245107   3.221   2.477   4.938 -0.6860 -1.4053 -0.4930
 7898TIP3   OH245108   6.202   5.767  17.074 -0.0663  0.0423  0.2213
 7898TIP3    H145109   6.255   5.743  17.150  0.7985  0.8014 -0.1231
 7898TIP3    H245110   6.127   5.814  17.111 -0.4248 -0.8676  0.6944
 7899TIP3   OH245111   3.729   5.971   3.783 -0.5172 -0.2599 -0.4270
 7899TIP3    H145112   3.784   5.930   3.716  1.2633  1.1358  0.0944
 7899TIP3    H245113   3.759   5.932   3.865  0.6765  1.4668 -0.0033
 7900TIP3   OH245114   6.733   4.771   1.003 -0.0926 -0.5322  0.8003
 7900TIP3    H145115   6.721   4.780   0.909  0.3553  0.4115  0.8147
 7900TIP3    H245116   6.723   4.677   1.020 -1.2540 -0.5791 -0.0161
 7901TIP3   OH245117   6.445   0.277   4.520  0.5908  0.5265  0.3295
 7901TIP3    H145118   6.504   0.329   4.467 -0.7859  1.1797 -0.6259
 7901TIP3    H245119   6.474   0.187   4.508  0.7177  0.7285 -1.0301
 7902TIP3   OH245120   5.533   4.106  10.942 -0.2198  0.5481 -0.1652
 7902TIP3    H145121   5.501   4.037  10.883 -1.4152 -0.3417  1.4234
 7902TIP3    H245122   5.455   4.157  10.963  0.3077  1.2291  0.1604
 7903TIP3   OH245123   2.555   3.137  13.177  0.0743  0.2958  0.2162
 7903TIP3    H145124   2.610   3.092  13.112  0.9371  1.0981  0.3698
 7903TIP3    H245125   2.517   3.210  13.129 -0.2220  0.2143  0.3233
 7904TIP3   OH245126   5.627   0.536   5.158  0.3867 -0.3964  0.1917
 7904TIP3    H145127   5.681   0.593   5.212  0.3345  0.9605 -1.1171
 7904TIP3    H245128   5.689   0.474   5.119  0.8162  0.3491 -0.3180
 7905TIP3   OH245129   0.800   1.168  16.304  0.5637 -0.0962  0.1706
 7905TIP3    H145130   0.872   1.162  16.366  1.5124  0.1949 -0.8565
 7905TIP3    H245131   0.816   1.097  16.242 -0.6928 -0.7525  0.5688
 7906TIP3   OH245132   0.041   1.560  16.320 -0.2576  0.2795  0.1156
 7906TIP3    H145133  -0.006   1.567  16.403 -0.9271  2.6398 -0.4124
 7906TIP3    H245134  -0.027   1.550  16.254  0.1966 -0.1574 -0.2989
 7907TIP3   OH245135   4.700   0.632  15.033  0.7155 -0.2467 -0.5103
 7907TIP3    H145136   4.736   0.543  15.036 -2.1519 -1.4932  0.7383
 7907TIP3    H245137   4.652   0.641  15.115 -0.7165  1.7096 -1.4827
 7908TIP3   OH245138   4.131   1.932  10.142  0.0358 -0.4955  0.6230
 7908TIP3    H145139   4.161   1.987  10.214 -0.8440  1.1327 -0.2118
 7908TIP3    H245140   4.098   1.853  10.185 -2.9878  1.4901  2.3585
 7909TIP3   OH245141   6.105   2.548   1.164  0.2858  0.3094 -0.3172
 7909TIP3    H145142   6.108   2.470   1.220 -0.7246 -1.0346 -2.0139
 7909TIP3    H245143   6.014   2.552   1.133  0.4203  1.9422 -0.6037
 7910TIP3   OH245144   1.039   1.971  12.934 -0.0911 -0.3829  0.0436
 7910TIP3    H145145   1.103   1.914  12.978 -0.0598 -0.6021 -0.2880
 7910TIP3    H245146   1.027   1.932  12.848  1.3042  1.0970 -0.8896
 7911TIP3   OH245147   2.153   5.275   5.256  0.5829 -0.3002 -0.1530
 7911TIP3    H145148   2.220   5.343   5.264  1.2123 -1.0926  2.1427
 7911TIP3    H245149   2.194   5.207   5.202  0.3052  0.6941 -1.6466
 7912TIP3   OH245150   5.986   3.854  11.564 -0.6122 -0.1724  0.1726
 7912TIP3    H145151   5.923   3.790  11.531 -0.1649  0.6907 -2.6528
 7912TIP3    H245152   6.070   3.807  11.565 -0.5283 -0.0522 -0.5487
 7913TIP3   OH245153   4.861   2.821  14.334 -0.3881 -0.0088  0.1560
 7913TIP3    H145154   4.840   2.780  14.418  0.7592  1.8412  1.4463
 7913TIP3    H245155   4.919   2.894  14.357  0.3304  0.3075 -2.3096
 7914TIP3   OH245156   1.979   0.426  15.026  0.2511 -0.3084 -0.3440
 7914TIP3    H145157   2.012   0.434  14.936  0.5461 -0.9207 -0.2958
 7914TIP3    H245158   2.018   0.345  15.059  2.6090  1.4316  1.3910
 7915TIP3   OH245159   1.207   4.686  16.785  0.7660 -0.3085  0.0042
 7915TIP3    H145160   1.207   4.689  16.880  1.3881 -0.6250  0.0207
 7915TIP3    H245161   1.170   4.599  16.764  0.0126  0.0192 -0.0624
 7916TIP3   OH245162   2.150   3.648   3.496 -0.2403 -0.4599 -0.5072
 7916TIP3    H145163   2.217   3.705   3.534 -0.6015 -1.4263  1.6973
 7916TIP3    H245164   2.182   3.631   3.407  1.9462 -0.1136  0.1427
 7917TIP3   OH245165   3.171   2.313  15.604 -0.0479 -0.3483  0.5790
 7917TIP3    H145166   3.162   2.263  15.685 -1.6870 -0.2605  0.4840
 7917TIP3    H245167   3.110   2.271  15.543  0.3154  0.3039 -0.2565
 7918TIP3   OH245168   1.465   0.853   6.066  0.0658 -0.2082  0.3048
 7918TIP3    H145169   1.416   0.867   6.148  1.9890 -0.6185  1.6004
 7918TIP3    H245170   1.537   0.916   6.071  0.6146 -0.7352 -0.7454
 7919TIP3   OH245171   2.864   3.994  13.765  0.0115 -0.0693  0.6765
 7919TIP3    H145172   2.812   3.972  13.842  0.9986 -1.2600  1.0471
 7919TIP3    H245173   2.883   3.909  13.725 -0.6457  0.5496 -1.0056
 7920TIP3   OH245174   2.862   0.168   0.034  0.0928 -0.6542  0.4212
 7920TIP3    H145175   2.955   0.148   0.046 -0.0270 -2.0083 -0.6374
 7920TIP3    H245176   2.841   0.131  -0.052 -0.9901  1.2663 -0.2003
 7921TIP3   OH245177   3.753   2.456   1.080  0.1730 -0.2131  0.4698
 7921TIP3    H145178   3.703   2.405   1.016  1.5350 -1.2217  0.1766
 7921TIP3    H245179   3.757   2.544   1.042 -1.3735 -0.0939  0.5151
 7922TIP3   OH245180   5.727   5.305  12.617 -0.2099  0.1916 -0.0357
 7922TIP3    H145181   5.763   5.331  12.533 -0.4300 -0.0949 -0.2228
 7922TIP3    H245182   5.803   5.298  12.675  0.0786 -0.6844 -0.4972
 7923TIP3   OH245183   2.500   5.877  13.659  0.4396 -0.4517 -0.3094
 7923TIP3    H145184   2.510   5.785  13.635 -1.3671 -1.3190  1.9572
 7923TIP3    H245185   2.478   5.875  13.752  1.9905  2.3948  0.2279
 7924TIP3   OH245186   4.686   5.966   1.278 -0.0375  0.2646 -0.3047
 7924TIP3    H145187   4.632   5.912   1.220 -0.0215  0.5458 -0.5804
 7924TIP3    H245188   4.659   5.938   1.366  1.5605 -1.8004 -0.3853
 7925TIP3   OH245189   6.406   4.090  12.487  0.4295  0.3369  0.2821
 7925TIP3    H145190   6.355   4.087  12.406 -2.2563 -1.7115  1.8812
 7925TIP3    H245191   6.407   4.183  12.511 -1.2506  0.6471 -0.6500
 7926TIP3   OH245192   6.487   6.366   5.009  0.2299 -0.1913 -0.0428
 7926TIP3    H145193   6.502   6.424   5.083  1.4295  0.2437 -0.6127
 7926TIP3    H245194   6.552   6.296   5.020  1.0437  0.3668 -1.1702
 7927TIP3   OH245195   3.646   3.098   5.882  0.0040 -0.3705 -0.4537
 7927TIP3    H145196   3.671   3.170   5.939 -1.1635 -0.7284  0.5617
 7927TIP3    H245197   3.725   3.044   5.876  0.0499 -0.5660  1.2356
 7928TIP3   OH245198   0.732   6.183   2.923  0.3418  0.2992 -0.0791
 7928TIP3    H145199   0.801   6.122   2.899 -1.1941 -1.2675 -0.7866
 7928TIP3    H245200   0.726   6.243   2.849  0.0713 -0.4125 -0.6583
 7929TIP3   OH245201   4.894   4.822  15.649 -0.4859 -1.3173 -0.8829
 7929TIP3    H145202   4.815   4.784  15.611 -0.5624 -0.7259 -1.3395
 7929TIP3    H245203   4.868   4.850  15.737 -1.8441  2.0270 -2.1576
 7930TIP3   OH245204   6.631   3.774  11.656  0.4262  0.5575  0.1793
 7930TIP3    H145205   6.693   3.758  11.584 -2.8927 -1.2034 -2.6050
 7930TIP3    H245206   6.546   3.782  11.612 -2.7205 -5.2071  3.9359
 7931TIP3   OH245207   2.487   5.085   1.954  0.7254 -0.6479  0.3973
 7931TIP3    H145208   2.507   5.169   1.995 -0.2532 -1.2081  2.1188
 7931TIP3    H245209   2.424   5.106   1.885  3.0259  0.4249 -1.5555
 7932TIP3   OH245210   5.736   1.406  11.287 -0.3543 -0.0590  0.1011
 7932TIP3    H145211   5.647   1.371  11.290 -1.2827  1.9234 -1.5793
 7932TIP3    H245212   5.771   1.375  11.203  0.0673  0.1791  0.1846
 7933TIP3   OH245213   6.092   5.172   2.734 -0.3960 -0.0303 -0.0696
 7933TIP3    H145214   6.039   5.125   2.670 -0.1732  1.1124 -1.1192
 7933TIP3    H245215   6.087   5.118   2.813 -1.4072 -1.0040 -0.7692
 7934TIP3   OH245216   2.889   2.795  16.818 -0.1928 -0.1160 -0.1363
 7934TIP3    H145217   2.978   2.790  16.784  0.3349  1.3981  0.8784
 7934TIP3    H245218   2.833   2.784  16.742  0.9094  0.9879 -1.1496
 7935TIP3   OH245219   2.459   1.590  11.142 -0.6962  0.2754 -0.5092
 7935TIP3    H145220   2.421   1.669  11.180  0.7920  0.8678 -0.1927
 7935TIP3    H245221   2.499   1.619  11.060 -3.1312 -0.8340 -2.2544
 7936TIP3   OH245222   4.414   3.783  12.853  0.2777  0.2433  0.2702
 7936TIP3    H145223   4.424   3.869  12.813 -0.3139 -0.2455 -0.9919
 7936TIP3    H245224   4.494   3.736  12.827  0.5836  0.3954  0.9271
 7937TIP3   OH245225   0.329   1.998   3.880 -0.3260  0.0693 -0.0855
 7937TIP3    H145226   0.392   1.992   3.808  1.1644 -1.9755  1.2910
 7937TIP3    H245227   0.336   1.915   3.926 -1.4652  1.1549  2.2536
 7938TIP3   OH245228   1.441   6.530  11.399 -0.3825  0.2611 -0.0474
 7938TIP3    H145229   1.380   6.486  11.458 -1.2888  2.0677  0.4247
 7938TIP3    H245230   1.525   6.528  11.445 -0.9215  1.0305  1.0068
 7939TIP3   OH245231   0.851   5.487  14.135  0.2031 -0.3291  0.7754
 7939TIP3    H145232   0.785   5.523  14.076  0.9401 -0.9326 -0.4568
 7939TIP3    H245233   0.840   5.536  14.217 -0.9567  0.4043  0.2047
 7940TIP3   OH245234   4.304   1.756   0.329  0.1212 -0.4706  0.2080
 7940TIP3    H145235   4.379   1.760   0.269 -0.0824 -2.2456 -0.2045
 7940TIP3    H245236   4.270   1.667   0.320 -0.0885 -0.7305  2.7591
 7941TIP3   OH245237   3.817   3.150   0.043 -0.1609  0.1478  0.1218
 7941TIP3    H145238   3.888   3.183   0.098 -0.5086 -0.8826  1.2183
 7941TIP3    H245239   3.741   3.203   0.068 -0.1122  0.2941 -0.0352
 7942TIP3   OH245240   5.323   5.054   2.886  0.2923 -0.1654 -0.0635
 7942TIP3    H145241   5.261   4.995   2.843  1.2937 -1.2773 -0.0173
 7942TIP3    H245242   5.344   5.119   2.818 -1.6488  0.8606  0.2209
 7943TIP3   OH245243   4.856   5.772   0.115 -0.2836  0.4442 -0.2373
 7943TIP3    H145244   4.850   5.868   0.117  0.3517  0.4781  0.6070
 7943TIP3    H245245   4.913   5.754   0.040 -0.0536  0.7507 -0.1376
 7944TIP3   OH245246   3.647   6.722   0.658  0.3346 -0.2983  0.2983
 7944TIP3    H145247   3.654   6.741   0.564  1.2769 -1.5767  0.0902
 7944TIP3    H245248   3.578   6.657   0.664  0.1224 -0.0545  0.5302
 7945TIP3   OH245249   3.002   4.832  12.454 -0.5171  0.4766  0.0581
 7945TIP3    H145250   3.059   4.904  12.425 -0.0126 -0.6053 -1.8193
 7945TIP3    H245251   2.944   4.817  12.379  1.5862 -3.2252 -1.0472
 7946TIP3   OH245252   6.304   3.975   1.232  0.1117  0.1690  0.3417
 7946TIP3    H145253   6.228   3.927   1.266 -0.5453  0.8433 -0.1556
 7946TIP3    H245254   6.308   3.952   1.139  1.1494 -0.6743  0.5693
 7947TIP3   OH245255   4.431   1.796  11.914 -0.0335 -0.1357  0.1787
 7947TIP3    H145256   4.461   1.804  12.004  2.0345  2.5231 -0.6085
 7947TIP3    H245257   4.344   1.837  11.914 -1.0907 -2.2122  1.2954
 7948TIP3   OH245258   3.129   0.835   3.048 -0.5144  0.3472  0.4037
 7948TIP3    H145259   3.183   0.781   2.990  0.7309  1.0007  0.9228
 7948TIP3    H245260   3.159   0.924   3.032 -0.2774  0.5601  1.8900
 7949TIP3   OH245261   6.395   3.686  12.468 -0.3307 -0.5214 -0.3184
 7949TIP3    H145262   6.439   3.771  12.473  0.7612 -0.9726 -1.5595
 7949TIP3    H245263   6.348   3.679  12.551 -2.2278  2.2171 -1.0260
 7950TIP3   OH245264   4.246   5.528   3.413 -0.0959 -0.0254 -0.1813
 7950TIP3    H145265   4.307   5.552   3.343  1.5497 -0.8029  0.9185
 7950TIP3    H245266   4.247   5.432   3.414  0.5547 -0.0379  1.3973
 7951TIP3   OH245267   3.990   4.198   1.606  0.3056 -0.1839 -0.2770
 7951TIP3    H145268   4.060   4.161   1.660 -0.7530  0.7662  1.8943
 7951TIP3    H245269   3.938   4.122   1.579 -0.0410 -0.6075  1.4374
 7952TIP3   OH245270   2.075   6.651  14.566 -0.2924  0.8397 -0.1460
 7952TIP3    H145271   2.087   6.724  14.627 -2.5851  1.3004 -0.1337
 7952TIP3    H245272   2.009   6.596  14.608  2.0510 -1.8413  0.2957
 7953TIP3   OH245273   2.388   1.978  14.692 -0.3617 -0.0168  0.3003
 7953TIP3    H145274   2.341   1.908  14.737 -0.1174  0.1991  0.9136
 7953TIP3    H245275   2.472   1.982  14.737  0.4583 -0.7305 -1.0962
 7954TIP3   OH245276   6.512   4.756   5.639  0.3613 -0.1059  0.0184
 7954TIP3    H145277   6.599   4.716   5.640  0.1907 -0.5050 -0.3444
 7954TIP3    H245278   6.516   4.827   5.703  0.9965 -0.0307 -0.1042
 7955TIP3   OH245279   2.502   4.066  15.463 -1.0565  0.0197 -0.6427
 7955TIP3    H145280   2.574   4.117  15.426 -0.3782  1.7727  2.7427
 7955TIP3    H245281   2.536   3.976  15.467  0.5631  0.6305 -0.0786
 7956TIP3   OH245282   1.173   2.442  12.928 -0.0763 -0.8935 -0.2371
 7956TIP3    H145283   1.192   2.444  12.834  0.1041 -1.6665 -0.2204
 7956TIP3    H245284   1.082   2.471  12.935  0.6490  1.7272 -0.4166
 7957TIP3   OH245285   0.913   1.493   6.008 -0.2440  0.7173  0.8241
 7957TIP3    H145286   0.866   1.416   6.040  0.7315  0.2520  1.1672
 7957TIP3    H245287   0.855   1.566   6.029 -1.4505  0.0522 -0.0187
 7958TIP3   OH245288   4.897   5.926   4.224 -0.7683 -0.1559  0.1365
 7958TIP3    H145289   4.843   5.858   4.184 -0.4311 -0.3431 -0.0043
 7958TIP3    H245290   4.848   6.007   4.209 -2.9828 -0.6881  3.3924
 7959TIP3   OH245291   5.647   1.184   4.125  0.3096  0.4966 -0.5869
 7959TIP3    H145292   5.589   1.193   4.050  1.3484 -0.5720 -1.5483
 7959TIP3    H245293   5.603   1.121   4.182  0.1856  0.2298 -0.9732
 7960TIP3   OH245294   4.650   4.642  13.042 -0.0849 -0.4315 -0.2920
 7960TIP3    H145295   4.670   4.556  13.080 -3.5583 -1.2815 -0.0077
 7960TIP3    H245296   4.711   4.702  13.085  1.7425 -2.5681  0.2938
 7961TIP3   OH245297   6.067   5.568  13.940  0.1156  1.0377 -0.4180
 7961TIP3    H145298   6.060   5.614  14.023  1.7442  1.6337 -0.5884
 7961TIP3    H245299   6.136   5.614  13.892  1.3485 -1.1464 -0.8716
 7962TIP3   OH245300   3.650   1.081   5.428 -0.4519 -0.0681  0.3084
 7962TIP3    H145301   3.584   1.025   5.388 -0.1634  0.0376 -0.3260
 7962TIP3    H245302   3.695   1.122   5.354  2.1092 -2.1384  0.5802
 7963TIP3   OH245303   3.129   3.180  15.011 -0.2711 -0.2380  0.0835
 7963TIP3    H145304   3.121   3.204  15.103 -0.5992 -1.5322  0.4166
 7963TIP3    H245305   3.201   3.234  14.978  0.5750 -0.5083  1.3883
 7964TIP3   OH245306   3.123   3.787   3.695  0.0171 -0.3205  0.3045
 7964TIP3    H145307   3.162   3.814   3.778 -1.8535  0.7966  0.8788
 7964TIP3    H245308   3.032   3.766   3.717 -0.4671 -0.1754 -1.4136
 7965TIP3   OH245309   0.624   2.077  13.245 -0.0504  0.6370 -0.9715
 7965TIP3    H145310   0.666   1.991  13.253 -1.4995 -0.0297  0.0720
 7965TIP3    H245311   0.693   2.140  13.268  0.2880 -0.4458  1.3342
 7966TIP3   OH245312   6.662   3.132  10.579  0.1878 -0.0783 -0.3595
 7966TIP3    H145313   6.746   3.173  10.596  0.2260 -0.3709  0.1842
 7966TIP3    H245314   6.674   3.040  10.604 -0.4560 -0.0031  0.2849
 7967TIP3   OH245315   2.283   5.905  12.181 -0.0545 -0.2356 -0.4205
 7967TIP3    H145316   2.296   5.815  12.212  1.8075 -0.1102 -0.6952
 7967TIP3    H245317   2.278   5.897  12.086  1.5224  0.0386 -0.5580
 7968TIP3   OH245318   1.429   3.476   6.320 -0.2640  0.2037  0.0841
 7968TIP3    H145319   1.418   3.485   6.415  0.4463 -0.2187  0.2145
 7968TIP3    H245320   1.353   3.425   6.292 -0.0056 -0.4659  0.5706
 7969TIP3   OH245321   0.229   1.328  13.202  0.3351 -0.0909  0.2472
 7969TIP3    H145322   0.179   1.399  13.162  1.8600  0.0958 -1.4664
 7969TIP3    H245323   0.199   1.249  13.158  3.0195  0.2675 -2.5291
 7970TIP3   OH245324   4.622   3.338   2.479  0.4217 -0.1226  0.2983
 7970TIP3    H145325   4.584   3.398   2.543 -0.9824  0.0998 -0.6993
 7970TIP3    H245326   4.649   3.396   2.407 -2.0189 -0.6958 -1.2013
 7971TIP3   OH245327   4.206   3.570  11.327  0.4065 -0.5950 -0.2173
 7971TIP3    H145328   4.254   3.540  11.404 -1.2524  2.9023  2.4323
 7971TIP3    H245329   4.117   3.539  11.341  0.1637 -0.2609 -0.9519
 7972TIP3   OH245330   6.425   2.206  15.248 -0.2120 -0.5356  0.2223
 7972TIP3    H145331   6.333   2.187  15.227 -0.2477 -0.4290  0.2807
 7972TIP3    H245332   6.427   2.211  15.344  0.0026 -1.2944  0.2598
 7973TIP3   OH245333   3.895   1.867   5.015  0.3566 -0.1949 -0.3184
 7973TIP3    H145334   3.977   1.892   5.058  0.3664  0.1896 -0.5525
 7973TIP3    H245335   3.922   1.805   4.947  0.2057 -1.7826  1.0121
 7974TIP3   OH245336   6.463   1.245  13.214 -0.2307 -0.6189  0.5647
 7974TIP3    H145337   6.388   1.185  13.213  0.5139 -1.5775 -0.2466
 7974TIP3    H245338   6.456   1.291  13.297 -0.9623 -1.6830  1.1190
 7975TIP3   OH245339   1.844   3.687   0.098 -0.1007 -0.6568  0.2046
 7975TIP3    H145340   1.803   3.737   0.169  0.0269 -1.0805  0.5844
 7975TIP3    H245341   1.858   3.751   0.029  1.1700  0.1322  1.1324
 7976TIP3   OH245342   6.761   3.952   3.813  0.1100 -0.6763  0.2710
 7976TIP3    H145343   6.720   3.891   3.752 -1.1409  2.7721 -2.7341
 7976TIP3    H245344   6.855   3.935   3.805  0.0325 -0.1882 -3.0653
 7977TIP3   OH245345   1.611   1.484  15.106  0.1773 -0.1477 -0.1124
 7977TIP3    H145346   1.554   1.449  15.174  1.0765  2.0616  1.9041
 7977TIP3    H245347   1.699   1.458  15.132  0.6259  1.5468  0.1316
 7978TIP3   OH245348   5.714   0.293   0.308 -0.0708  0.3352 -0.2959
 7978TIP3    H145349   5.763   0.276   0.228  0.4973  1.8733 -0.3024
 7978TIP3    H245350   5.623   0.296   0.280  0.0658  0.2233 -0.7656
 7979TIP3   OH245351   0.043   2.476   4.658 -0.2366 -0.6213 -0.3065
 7979TIP3    H145352  -0.002   2.463   4.741  0.0842  0.1770  0.0023
 7979TIP3    H245353   0.102   2.400   4.650  1.6398  0.5357  1.4747
 7980TIP3   OH245354   6.095   6.398   3.736  0.3485 -0.3002 -0.2203
 7980TIP3    H145355   6.008   6.358   3.727  0.1581  0.4030 -1.6391
 7980TIP3    H245356   6.079   6.479   3.785  0.2365 -0.2587 -0.3265
 7981TIP3   OH245357   5.018   4.024   5.197  0.0931  0.1812 -0.0719
 7981TIP3    H145358   4.999   4.113   5.167  2.5727  0.6769 -0.3787
 7981TIP3    H245359   5.052   4.036   5.286  0.2782 -0.4702 -0.0481
 7982TIP3   OH245360   0.115   1.834  16.272  0.0757 -0.3465  0.3296
 7982TIP3    H145361   0.103   1.746  16.236  0.3216  0.1752 -1.1072
 7982TIP3    H245362   0.039   1.847  16.329 -1.1161 -0.6971 -1.1160
 7983TIP3   OH245363   2.956   2.260   3.296  0.5869 -0.1384 -0.1936
 7983TIP3    H145364   2.955   2.258   3.200 -0.7268 -1.8746 -0.1808
 7983TIP3    H245365   3.040   2.302   3.318  1.3777 -0.6308 -2.0822
 7984TIP3   OH245366   4.705   1.857   4.979 -0.5530 -0.5789  0.2854
 7984TIP3    H145367   4.757   1.781   4.951 -1.6022 -0.8229 -1.1687
 7984TIP3    H245368   4.652   1.878   4.902  0.9396  2.7449  0.0046
 7985TIP3   OH245369   3.879   6.014   2.119  0.2978  0.2441 -0.0282
 7985TIP3    H145370   3.938   5.938   2.120  1.2919  0.9880 -0.7316
 7985TIP3    H245371   3.887   6.050   2.031 -0.9860  0.5562 -0.0368
 7986TIP3   OH245372   6.514   5.995  15.291  0.2626  0.0044 -0.8685
 7986TIP3    H145373   6.525   5.965  15.201  2.2828 -2.4472  0.0780
 7986TIP3    H245374   6.428   5.961  15.317  0.6797 -1.3620 -1.1809
 7987TIP3   OH245375   4.187   3.539   2.220 -0.3700  0.2670  0.0760
 7987TIP3    H145376   4.197   3.496   2.135 -1.2494 -0.4743  0.3299
 7987TIP3    H245377   4.277   3.551   2.252 -0.0772 -0.5545 -0.4132
 7988TIP3   OH245378   4.985   4.548  12.680  0.1406  0.3511 -0.3689
 7988TIP3    H145379   4.984   4.642  12.692  1.8874  0.4161 -0.5770
 7988TIP3    H245380   5.060   4.531  12.624  0.2785 -1.2269  0.2351
 7989TIP3   OH245381   4.685   6.243  15.647 -0.0367 -0.3047  0.4709
 7989TIP3    H145382   4.704   6.309  15.581 -0.1428  0.2561  0.9883
 7989TIP3    H245383   4.634   6.176  15.602 -2.1951  1.2098  0.5057
 7990TIP3   OH245384   0.758   4.357   0.745  0.2665  0.7227  0.8094
 7990TIP3    H145385   0.678   4.347   0.693  0.1191 -2.1796  1.4305
 7990TIP3    H245386   0.829   4.358   0.680 -0.1488  2.7808  0.2941
 7991TIP3   OH245387   6.662   4.458  15.618  0.2461 -0.0798 -0.2435
 7991TIP3    H145388   6.663   4.540  15.569 -0.3576 -1.0708 -2.0161
 7991TIP3    H245389   6.754   4.434  15.628  0.4189  0.7371  0.1759
 7992TIP3   OH245390   4.686   1.722  11.874 -0.1661  0.0114 -0.6817
 7992TIP3    H145391   4.595   1.752  11.881  0.0649  0.4193  0.9901
 7992TIP3    H245392   4.688   1.641  11.925  0.8801  1.2103  1.2786
 7993TIP3   OH245393   4.041   5.984   1.261  0.1153  1.1119 -0.2961
 7993TIP3    H145394   4.091   6.065   1.258  3.8895 -0.8098  2.6104
 7993TIP3    H245395   4.090   5.923   1.206 -1.0760  0.0340 -0.2164
 7994TIP3   OH245396   6.346   5.898  16.839 -0.4308  0.0186 -0.8659
 7994TIP3    H145397   6.303   5.977  16.807  0.3541  0.3990 -1.0062
 7994TIP3    H245398   6.295   5.873  16.916  0.0330  1.3829 -0.0716
 7995TIP3   OH245399   0.898   2.949  11.304 -0.3559 -0.3342 -0.0203
 7995TIP3    H145400   0.847   2.906  11.373  0.2181  2.6822  2.5476
 7995TIP3    H245401   0.885   3.043  11.320  2.0673  0.5208 -2.3278
 7996TIP3   OH245402   0.648   4.844   3.596  0.5728  0.5064 -0.5379
 7996TIP3    H145403   0.575   4.906   3.600  0.1022 -0.0624 -0.1580
 7996TIP3    H245404   0.634   4.784   3.669  0.2076 -0.9203 -1.7188
 7997TIP3   OH245405   2.338   2.995  11.433  0.0971  0.0534  0.0762
 7997TIP3    H145406   2.339   3.077  11.482  0.7816  0.5521 -0.7339
 7997TIP3    H245407   2.295   3.018  11.350  1.2753 -0.1066 -0.6094
 7998TIP3   OH245408   1.140   2.325  14.921 -0.8274 -0.3380  0.0975
 7998TIP3    H145409   1.139   2.232  14.940 -0.3014 -0.2883  0.3734
 7998TIP3    H245410   1.100   2.332  14.834 -1.0863 -0.7910  0.1758
 7999TIP3   OH245411   5.493   5.186  10.649  0.3055 -0.3277  0.0692
 7999TIP3    H145412   5.398   5.201  10.650  0.3885  0.2625 -0.6792
 7999TIP3    H245413   5.504   5.106  10.701 -0.6211 -0.5200 -0.0008
 8000TIP3   OH245414   0.895   0.148   3.245  0.1636 -0.8692  0.3495
 8000TIP3    H145415   0.924   0.077   3.187 -0.8883  0.2433 -1.6313
 8000TIP3    H245416   0.817   0.113   3.287 -0.6583 -0.7717 -1.0127
 8001TIP3   OH245417   0.674   0.757   0.818  0.2817 -0.3180 -0.3701
 8001TIP3    H145418   0.742   0.825   0.814 -0.7503  0.7237 -0.7873
 8001TIP3    H245419   0.716   0.679   0.783  1.8191 -0.1852  1.0550
 8002TIP3   OH245420   3.946   3.925  15.746 -0.7221  0.2738 -0.0162
 8002TIP3    H145421   4.041   3.939  15.752 -0.7687  0.1692  1.1493
 8002TIP3    H245422   3.911   4.012  15.724 -0.2659  0.0366 -1.8342
 8003TIP3   OH245423   0.611   4.901  13.191 -0.0347  0.1948 -0.6399
 8003TIP3    H145424   0.562   4.972  13.234 -1.1000 -1.7182  1.5423
 8003TIP3    H245425   0.563   4.885  13.110 -1.5060  0.1250  0.1990
 8004TIP3   OH245426   0.342   1.997   0.905 -0.3638 -0.2432 -0.0270
 8004TIP3    H145427   0.250   1.986   0.882 -0.9738 -0.0542  2.0508
 8004TIP3    H245428   0.369   1.911   0.935  0.5188 -0.5914 -1.7287
 8005TIP3   OH245429   1.879   1.293   0.237  0.2424  0.4765 -0.0360
 8005TIP3    H145430   1.833   1.226   0.289 -0.9020  0.5336 -0.9362
 8005TIP3    H245431   1.826   1.303   0.158  2.7059 -0.7257 -1.9963
 8006TIP3   OH245432   5.192   4.921  14.413  0.1745 -0.0807 -0.1490
 8006TIP3    H145433   5.173   4.910  14.320  0.6673 -1.4637 -0.1069
 8006TIP3    H245434   5.159   5.009  14.434 -1.6502 -0.4668 -1.1812
 8007TIP3   OH245435   2.181   2.555   5.245  0.3222  0.1006  0.1152
 8007TIP3    H145436   2.197   2.649   5.255  1.1107 -0.0499  0.2987
 8007TIP3    H245437   2.119   2.550   5.172 -0.6004  0.8203  0.8223
 8008TIP3   OH245438   0.112   5.960  13.746 -0.5673  0.0782  0.1798
 8008TIP3    H145439   0.086   6.044  13.709 -0.1829 -0.4280 -1.3545
 8008TIP3    H245440   0.052   5.897  13.706  0.7372 -0.6590 -0.7021
 8009TIP3   OH245441   3.337   0.606   3.642  0.0353  0.5045 -0.3239
 8009TIP3    H145442   3.379   0.650   3.568 -0.4724 -1.1704 -1.6791
 8009TIP3    H245443   3.286   0.674   3.685  2.2960  2.0905  0.0221
 8010TIP3   OH245444   4.079   0.547   3.269 -0.5448 -0.1492  0.0672
 8010TIP3    H145445   4.174   0.544   3.283 -0.5550  0.9206  0.4650
 8010TIP3    H245446   4.069   0.548   3.174 -0.1377  0.1639  0.0248
 8011TIP3   OH245447   0.970   3.768   3.819  0.3519 -0.0874  0.1185
 8011TIP3    H145448   0.941   3.720   3.742  0.2181  2.4803 -1.5430
 8011TIP3    H245449   1.051   3.811   3.792  1.9825 -1.4297  2.4202
 8012TIP3   OH245450   2.482   2.061  16.665 -0.0933 -0.4207 -0.4308
 8012TIP3    H145451   2.407   2.037  16.609 -0.5436  0.8777 -0.4183
 8012TIP3    H245452   2.555   2.012  16.628 -0.6743 -0.6781 -1.2931
 8013TIP3   OH245453   2.478   5.031   3.935 -0.9044 -0.1436 -0.0781
 8013TIP3    H145454   2.399   5.053   3.984 -1.2472 -1.1437 -0.1539
 8013TIP3    H245455   2.449   4.969   3.869 -0.1524 -0.0891 -0.4720
 8014TIP3   OH245456   6.325   4.840   2.995 -0.4830  0.2492 -0.5077
 8014TIP3    H145457   6.345   4.921   3.041 -0.4875 -0.4412  0.7696
 8014TIP3    H245458   6.342   4.859   2.903  0.4147  1.4086 -0.1219
 8015TIP3   OH245459   2.184   3.170  15.500  0.2482 -0.0333  0.0383
 8015TIP3    H145460   2.243   3.129  15.562  0.8984  0.6262 -0.1203
 8015TIP3    H245461   2.238   3.185  15.422  0.0803  1.2052  0.1307
 8016TIP3   OH245462   3.201   4.390   5.900 -0.1220 -0.1487 -0.0509
 8016TIP3    H145463   3.106   4.382   5.891 -0.3510  0.5207  1.4445
 8016TIP3    H245464   3.214   4.413   5.992  1.4315  0.7254 -0.4662
 8017TIP3   OH245465   3.383   5.577  11.960 -0.7166 -0.3014 -0.0949
 8017TIP3    H145466   3.472   5.560  11.990 -0.4397 -1.0743 -1.2882
 8017TIP3    H245467   3.353   5.650  12.014  0.3687 -0.5057  0.8235
 8018TIP3   OH245468   4.064   5.600  15.282  0.4854 -0.2673  0.4386
 8018TIP3    H145469   4.095   5.515  15.315  1.7220 -0.6448 -1.5384
 8018TIP3    H245470   3.974   5.606  15.314  0.5888 -2.0074  1.2114
 8019TIP3   OH245471   0.178   5.428  15.658 -0.0989  0.0409  0.4780
 8019TIP3    H145472   0.140   5.513  15.682  0.3117  0.7202 -1.1148
 8019TIP3    H245473   0.173   5.376  15.738 -0.8772  1.3762  1.3433
 8020TIP3   OH245474   5.348   2.749   3.356 -0.8034  0.2355 -0.1971
 8020TIP3    H145475   5.426   2.695   3.357 -0.9500  0.0187 -0.3490
 8020TIP3    H245476   5.380   2.839   3.363 -0.5595  0.1292  0.0435
 8021TIP3   OH245477   2.762   1.595  14.147  0.3117 -0.0462 -0.4394
 8021TIP3    H145478   2.803   1.543  14.216  0.0305 -0.5778 -0.6672
 8021TIP3    H245479   2.694   1.647  14.192  2.1161  1.9243  0.1924
 8022TIP3   OH245480   3.794   2.165   5.345  0.3146 -0.1960  0.2592
 8022TIP3    H145481   3.751   2.114   5.276  0.8120 -1.0809  0.5847
 8022TIP3    H245482   3.881   2.183   5.311  0.1013  0.5363  0.1020
 8023TIP3   OH245483   3.174   4.643  15.825  0.4725  0.2488 -0.4096
 8023TIP3    H145484   3.142   4.733  15.832  0.9513  0.3085  1.5496
 8023TIP3    H245485   3.130   4.597  15.897 -0.9052 -1.4830 -2.2603
 8024TIP3   OH245486   5.390   0.481  11.417 -0.3641 -0.3654  0.2263
 8024TIP3    H145487   5.320   0.415  11.420 -1.0365  0.3150 -0.0863
 8024TIP3    H245488   5.344   0.565  11.421  0.5446  0.0940  1.6816
 8025TIP3   OH245489   3.441   3.317   5.267  0.2147  0.4039 -0.3315
 8025TIP3    H145490   3.451   3.357   5.353 -0.3363  0.4176 -0.2674
 8025TIP3    H245491   3.424   3.224   5.285  0.0948  0.4072 -0.4216
 8026TIP3   OH245492   2.760   4.310  13.054 -0.1247  1.1128 -0.1482
 8026TIP3    H145493   2.695   4.358  13.106 -0.0177  1.0135  0.0807
 8026TIP3    H245494   2.809   4.378  13.008  0.1742  1.2371  0.3499
 8027TIP3   OH245495   4.456   6.398  16.199  0.3423 -0.6164 -0.0022
 8027TIP3    H145496   4.455   6.303  16.210  1.2768 -0.6440 -0.1350
 8027TIP3    H245497   4.548   6.420  16.188  0.3574  0.5163  1.9082
 8028TIP3   OH245498   3.873   4.126  13.893  0.1355  0.2526 -0.6637
 8028TIP3    H145499   3.893   4.042  13.852  2.2440  0.9924 -1.2694
 8028TIP3    H245500   3.936   4.134  13.965 -0.0743  1.2734 -0.5671
 8029TIP3   OH245501   4.545   6.534   1.125  0.7348  0.3913 -0.2363
 8029TIP3    H145502   4.572   6.604   1.065  3.1481  0.5659  0.9269
 8029TIP3    H245503   4.614   6.469   1.118 -0.3301 -0.8540  0.3892
 8030TIP3   OH245504   0.772   0.504   1.481  0.5591  0.1091 -0.1602
 8030TIP3    H145505   0.686   0.465   1.466  0.8471 -0.9027  0.7018
 8030TIP3    H245506   0.815   0.444   1.542  0.2145  2.8528  3.1207
 8031TIP3   OH245507   1.337   5.521  10.625  0.4631  0.0292  0.3051
 8031TIP3    H145508   1.416   5.526  10.678  0.5144 -0.8556  0.3368
 8031TIP3    H245509   1.367   5.487  10.540  0.3690  1.3341 -0.2733
 8032TIP3   OH245510   0.752   5.005  12.257  0.7443 -0.5985  0.1602
 8032TIP3    H145511   0.678   5.024  12.200  0.8833 -0.1797  0.1174
 8032TIP3    H245512   0.724   5.034  12.344  0.9887 -0.1152  0.0795
 8033TIP3   OH245513   6.759   4.361   0.756 -0.8674 -0.2941  0.0367
 8033TIP3    H145514   6.778   4.292   0.692  0.2386  1.3760 -1.5747
 8033TIP3    H245515   6.678   4.334   0.799 -0.4438 -2.5771 -0.5032
 8034TIP3   OH245516   3.945   3.738  11.574 -0.0454 -0.8555 -1.0102
 8034TIP3    H145517   3.960   3.644  11.584  3.0273 -0.2892  0.9461
 8034TIP3    H245518   3.921   3.768  11.662  0.7441  0.4343 -1.2087
 8035TIP3   OH245519   4.490   0.038  15.216 -0.3653  0.4521 -0.0402
 8035TIP3    H145520   4.493   0.129  15.244  2.9687  0.4532 -0.0550
 8035TIP3    H245521   4.397   0.015  15.221 -1.1753  3.4560  1.0804
 8036TIP3   OH245522   3.362   0.588  15.336 -0.6244 -0.1808 -0.4560
 8036TIP3    H145523   3.387   0.590  15.428  2.0681  1.2336 -1.1154
 8036TIP3    H245524   3.267   0.599  15.336 -0.6153  0.4587  2.1113
 8037TIP3   OH245525   2.438   5.075   0.613  0.0441  0.0477  1.2904
 8037TIP3    H145526   2.510   5.138   0.617  0.4620 -0.4666  2.0417
 8037TIP3    H245527   2.362   5.124   0.645 -0.0271  0.6810  0.2060
 8038TIP3   OH245528   4.264   1.081  11.839 -0.2254  0.2395 -0.2995
 8038TIP3    H145529   4.290   1.116  11.924  0.1346  0.3810 -0.4616
 8038TIP3    H245530   4.265   0.986  11.851  1.8362  0.1638 -0.6805
 8039TIP3   OH245531   4.970   2.265  12.480  0.2407  0.0369  0.6466
 8039TIP3    H145532   4.968   2.296  12.570  0.7436 -0.3068  0.7811
 8039TIP3    H245533   5.025   2.187  12.483  0.3055  0.0563  0.0308
 8040TIP3   OH245534   2.392   4.505  15.698 -0.3761  0.1220 -0.2632
 8040TIP3    H145535   2.468   4.484  15.642  0.0363  0.1220  0.2910
 8040TIP3    H245536   2.421   4.483  15.786 -0.7340  0.9124  0.0529
 8041TIP3   OH245537   6.066   6.461   2.805 -0.1283  0.2896 -0.5408
 8041TIP3    H145538   6.053   6.367   2.797 -0.8917  0.4196 -0.9279
 8041TIP3    H245539   6.089   6.474   2.897  1.6543 -0.4386 -0.8511
 8042TIP3   OH245540   5.261   3.832   5.973 -0.4304 -0.1613  0.6563
 8042TIP3    H145541   5.256   3.862   6.064 -0.6451  1.4624  0.1403
 8042TIP3    H245542   5.354   3.840   5.949 -0.5724  0.6336  0.3521
 8043TIP3   OH245543   1.641   0.225   6.113  0.0566  0.0651  0.2347
 8043TIP3    H145544   1.708   0.286   6.081  1.0145 -1.4768 -0.8360
 8043TIP3    H245545   1.683   0.180   6.186  0.4408 -1.3284 -0.8149
 8044TIP3   OH245546   5.994   0.278  12.875 -0.0692  0.5534  0.0100
 8044TIP3    H145547   5.901   0.273  12.850 -0.7873  2.3708  2.0107
 8044TIP3    H245548   5.994   0.263  12.970  1.7690  0.0735 -0.0310
 8045TIP3   OH245549   5.321   5.715  13.917  0.5853 -0.0843 -0.2365
 8045TIP3    H145550   5.366   5.723  13.833 -0.7136 -0.3408 -0.9876
 8045TIP3    H245551   5.290   5.804  13.937  0.3739 -0.1343 -0.3370
 8046TIP3   OH245552   1.990   3.216  12.730  0.2614 -0.4568  0.7018
 8046TIP3    H145553   1.930   3.290  12.723  1.4447  0.4845  0.2224
 8046TIP3    H245554   1.939   3.140  12.701 -0.6025  0.3655  0.0341
 8047TIP3   OH245555   6.247   4.857  16.450 -0.3315  0.5752 -0.5804
 8047TIP3    H145556   6.222   4.917  16.380 -0.9008 -1.1656 -1.9390
 8047TIP3    H245557   6.342   4.862  16.453 -0.2839  0.5472 -1.6378
 8048TIP3   OH245558   4.353   4.467  12.368  0.6247 -0.5366  0.3986
 8048TIP3    H145559   4.320   4.406  12.302 -0.4084  0.1270  0.2844
 8048TIP3    H245560   4.404   4.531  12.318  1.0884 -0.8700  0.4333
 8049TIP3   OH245561   3.147   2.705   5.641  0.0425  0.2223  0.3090
 8049TIP3    H145562   3.218   2.715   5.578 -0.8425  1.0731 -0.5916
 8049TIP3    H245563   3.163   2.773   5.706 -0.7908  1.4794 -0.7526
 8050TIP3   OH245564   6.080   2.667  11.877 -0.0664  0.3097 -0.0132
 8050TIP3    H145565   6.110   2.754  11.900 -0.6689  0.5763 -0.2172
 8050TIP3    H245566   6.065   2.670  11.782 -2.5537  0.7729  0.3395
 8051TIP3   OH245567   5.465   0.477  17.168  0.5994 -0.0483 -0.6175
 8051TIP3    H145568   5.374   0.507  17.167  0.2608 -1.0658 -1.0296
 8051TIP3    H245569   5.503   0.513  17.087  0.5822  0.3824 -0.4408
 8052TIP3   OH245570   1.899   6.197  15.317 -0.1821  0.5221  0.0850
 8052TIP3    H145571   1.850   6.203  15.399  1.7253  2.3777  1.2133
 8052TIP3    H245572   1.964   6.128  15.332  0.3303  1.0330  0.2573
 8053TIP3   OH245573   5.322   2.541  15.910  0.5130 -0.8484  0.1401
 8053TIP3    H145574   5.228   2.546  15.891  0.2291 -0.6591  1.4813
 8053TIP3    H245575   5.361   2.507  15.829 -0.7302 -1.1516 -0.3619
 8054TIP3   OH245576   4.159   5.949   4.844 -0.7116 -0.9964  0.2039
 8054TIP3    H145577   4.107   5.926   4.921  2.5437  0.5314  3.0969
 8054TIP3    H245578   4.242   5.904   4.856  0.2238 -0.0163 -2.0023
 8055TIP3   OH245579   4.448   5.130   2.524 -0.2434  0.3016 -0.0078
 8055TIP3    H145580   4.540   5.123   2.500  0.1136 -0.4958  1.4176
 8055TIP3    H245581   4.434   5.056   2.584 -1.5468  1.0017  0.5921
 8056TIP3   OH245582   1.645   6.495  11.584 -0.0326  0.6551 -0.5826
 8056TIP3    H145583   1.583   6.437  11.629 -0.1380  0.8274 -0.5029
 8056TIP3    H245584   1.685   6.547  11.654  0.6870  0.0915 -0.5637
 8057TIP3   OH245585   5.295   1.001  11.235  0.1046  0.2271  0.0600
 8057TIP3    H145586   5.205   1.032  11.231 -1.0655 -1.3788  5.7978
 8057TIP3    H245587   5.291   0.912  11.198 -0.0587  0.8925 -1.6278
 8058TIP3   OH245588   3.972   1.527   5.604  0.4751 -0.1903 -0.1042
 8058TIP3    H145589   3.913   1.459   5.570  1.0868 -1.0244  0.4603
 8058TIP3    H245590   4.055   1.481   5.620  0.2203  0.1229  2.5633
 8059TIP3   OH245591   6.776   3.647  16.097  0.0097  0.3847 -0.9511
 8059TIP3    H145592   6.850   3.604  16.055 -0.9761 -2.7018  0.2206
 8059TIP3    H245593   6.811   3.677  16.182 -0.0571 -1.1370 -0.3642
 8060TIP3   OH245594   4.996   1.970   6.396 -0.2672 -0.4311 -0.4485
 8060TIP3    H145595   4.932   1.912   6.436 -1.8518  1.1981 -0.5003
 8060TIP3    H245596   5.033   2.019   6.469 -2.2716  1.6715 -0.7361
 8061TIP3   OH245597   0.537   3.525   4.738 -0.2514 -0.1145 -0.1121
 8061TIP3    H145598   0.522   3.520   4.644 -1.0865  0.5710 -0.0233
 8061TIP3    H245599   0.523   3.617   4.760  0.7032 -0.1138  0.5629
 8062TIP3   OH245600   4.619   5.845  14.268 -0.2911 -0.1121 -0.2662
 8062TIP3    H145601   4.544   5.795  14.301 -0.3330  0.0599 -0.0993
 8062TIP3    H245602   4.672   5.780  14.222 -0.9996 -0.0694 -1.1791
 8063TIP3   OH245603   2.637   3.656   2.589 -0.4133 -0.1918 -0.1204
 8063TIP3    H145604   2.631   3.568   2.552  0.5291 -0.0293 -0.6729
 8063TIP3    H245605   2.696   3.647   2.664  1.0254  0.2703 -1.1659
 8064TIP3   OH245606   3.898   3.984   3.306  0.3890  0.2320  0.1134
 8064TIP3    H145607   3.935   4.071   3.316  0.1146  0.6187 -1.8617
 8064TIP3    H245608   3.957   3.927   3.355 -0.2652  1.6391  2.7673
 8065TIP3   OH245609   2.186   0.200   5.397  0.4212 -0.4996  0.2682
 8065TIP3    H145610   2.160   0.291   5.386  0.8656 -0.5285 -1.2537
 8065TIP3    H245611   2.125   0.165   5.461  0.5285  0.9720  1.2162
 8066TIP3   OH245612   2.726   5.595   4.869 -0.1031 -0.4338  0.2682
 8066TIP3    H145613   2.777   5.638   4.801  1.0977 -0.5063  1.0973
 8066TIP3    H245614   2.637   5.631   4.858  0.2676  0.2205 -0.7540
 8067TIP3   OH245615   0.481   5.444   1.860  0.0470 -0.0193 -0.2719
 8067TIP3    H145616   0.494   5.458   1.954 -1.1388  0.1563 -0.1234
 8067TIP3    H245617   0.548   5.499   1.818  1.3919 -1.0330  0.4597
 8068TIP3   OH245618   0.265   2.934   3.673 -0.1835  0.0074  0.0874
 8068TIP3    H145619   0.315   2.868   3.722 -0.6331 -2.1403 -2.1288
 8068TIP3    H245620   0.174   2.914   3.693 -0.3055  0.6127  0.1521
 8069TIP3   OH245621   6.385   4.394   5.842  0.4623 -0.2493  0.4528
 8069TIP3    H145622   6.350   4.410   5.754 -0.6772 -1.1253  0.7185
 8069TIP3    H245623   6.463   4.341   5.827  0.2194 -0.4785 -0.0311
 8070TIP3   OH245624   3.677   3.133  14.766  0.4981  0.5091 -0.0678
 8070TIP3    H145625   3.664   3.052  14.815 -1.2532 -0.1832 -1.5433
 8070TIP3    H245626   3.769   3.131  14.740  0.2892 -1.4821 -0.7938
 8071TIP3   OH245627   0.386   5.927  12.324  0.3682 -0.1171  0.3809
 8071TIP3    H145628   0.319   5.990  12.349  0.7104  0.2970  0.2548
 8071TIP3    H245629   0.433   5.969  12.252  0.0924 -0.8413 -0.2358
 8072TIP3   OH245630   6.189   2.250  16.326  0.3961  0.4955  0.6352
 8072TIP3    H145631   6.278   2.282  16.312  1.0258 -1.2999  0.2687
 8072TIP3    H245632   6.163   2.214  16.241  0.1341 -0.8337  1.2401
 8073TIP3   OH245633   3.820   5.800  14.471 -0.6696  0.0345 -0.1730
 8073TIP3    H145634   3.790   5.839  14.389  0.5022  0.6718 -0.3216
 8073TIP3    H245635   3.902   5.846  14.491 -0.9506 -0.0897  1.3765
 8074TIP3   OH245636   5.717   4.893   3.703  0.0959 -0.1501 -0.4360
 8074TIP3    H145637   5.742   4.932   3.787  0.5928 -0.2308 -0.5470
 8074TIP3    H245638   5.706   4.800   3.723 -0.5658 -0.0438 -0.2885
 8075TIP3   OH245639   4.118   6.362   4.720  0.3290 -0.0979 -0.0655
 8075TIP3    H145640   4.085   6.314   4.796  2.8671 -1.1259  0.4865
 8075TIP3    H245641   4.133   6.294   4.653  0.5646  0.4242 -0.5493
 8076TIP3   OH245642   5.132   3.422   2.559 -0.5089 -0.5516  0.6297
 8076TIP3    H145643   5.134   3.476   2.480 -0.7092 -1.7780 -0.2262
 8076TIP3    H245644   5.044   3.384   2.561 -0.1362 -1.4342  0.8133
 8077TIP3   OH245645   3.972   0.361  12.608 -0.3279  0.9256 -0.4655
 8077TIP3    H145646   3.962   0.268  12.589 -0.0670  0.7568  0.2030
 8077TIP3    H245647   3.883   0.391  12.629 -0.0250  0.1267  2.3479
 8078TIP3   OH245648   2.554   2.116  11.323 -0.3322 -0.0291  0.0384
 8078TIP3    H145649   2.491   2.173  11.278 -0.2392 -0.2715 -0.4099
 8078TIP3    H245650   2.629   2.112  11.264 -0.7560 -1.4491 -0.4513
 8079TIP3   OH245651   4.305   5.087   5.933 -0.0535  0.3921 -0.1553
 8079TIP3    H145652   4.275   5.105   5.843  0.3886  1.1900 -0.1525
 8079TIP3    H245653   4.391   5.047   5.922 -1.4370 -2.8796 -0.2074
 8080TIP3   OH245654   5.498   5.781  13.336  0.4199  0.0575 -0.0377
 8080TIP3    H145655   5.433   5.851  13.328  0.6113  0.1919 -0.4219
 8080TIP3    H245656   5.572   5.810  13.283  0.6613 -0.2513  0.1244
 8081TIP3   OH245657   1.390   1.313   6.529 -0.2663  0.1286 -0.4006
 8081TIP3    H145658   1.431   1.241   6.481  0.9654  0.6847 -0.2220
 8081TIP3    H245659   1.403   1.390   6.473 -1.5647  0.2219 -0.5876
 8082TIP3   OH245660   2.549   5.067   5.373  0.4102 -0.1276  0.1073
 8082TIP3    H145661   2.644   5.063   5.376  0.3955 -0.7589  3.2156
 8082TIP3    H245662   2.527   5.049   5.282  3.2511  0.9081 -0.8935
 8083TIP3   OH245663   6.503   1.581  13.756  0.2867  0.2300 -0.0596
 8083TIP3    H145664   6.529   1.664  13.797 -0.4472  0.1794  0.5376
 8083TIP3    H245665   6.481   1.604  13.666 -0.4977  0.7953  0.2703
 8084TIP3   OH245666   2.424   5.540   3.712 -0.0333 -0.0276 -0.0469
 8084TIP3    H145667   2.417   5.598   3.787  1.5803 -1.1592  1.0687
 8084TIP3    H245668   2.386   5.457   3.741 -2.5940  0.4492 -1.7113
 8085TIP3   OH245669   1.722   3.943   2.569 -0.1668  0.0998 -0.4010
 8085TIP3    H145670   1.811   3.970   2.593 -1.1943  4.8726 -1.0403
 8085TIP3    H245671   1.677   3.933   2.653  0.3299  0.0398 -0.1347
 8086TIP3   OH245672   6.693   5.344  12.435 -0.0755  1.0074  0.1677
 8086TIP3    H145673   6.598   5.347  12.422 -0.0982  1.9689  0.5122
 8086TIP3    H245674   6.723   5.433  12.417  0.5667  1.0833  1.4903
 8087TIP3   OH245675   1.787   4.940  13.802 -0.4444  0.0218 -0.1212
 8087TIP3    H145676   1.804   4.963  13.711  0.9724  0.2978  0.1835
 8087TIP3    H245677   1.762   4.848  13.800 -0.2664 -0.0157 -0.7735
 8088TIP3   OH245678   5.825   1.604  14.451  0.4346  0.0366  0.3071
 8088TIP3    H145679   5.886   1.673  14.476 -0.0936  0.3925  0.6217
 8088TIP3    H245680   5.791   1.631  14.366  0.5089 -0.0255  0.2572
 8089TIP3   OH245681   1.817   1.969   3.991 -0.2931  0.2796  0.1676
 8089TIP3    H145682   1.780   2.040   3.939  1.0617  0.3600 -0.7512
 8089TIP3    H245683   1.898   1.946   3.945  0.4130 -0.3608  1.6641
 8090TIP3   OH245684   6.022   3.225  15.407  0.1960  0.3840  0.2940
 8090TIP3    H145685   6.018   3.169  15.485 -1.3002  0.6958  0.4590
 8090TIP3    H245686   6.114   3.255  15.404  1.0126 -1.9534  0.2500
 8091TIP3   OH245687   0.244   0.435  10.712  0.0173 -0.5330  0.6093
 8091TIP3    H145688   0.264   0.529  10.705  0.3932 -0.5531  1.3650
 8091TIP3    H245689   0.156   0.427  10.674 -0.4852  0.3172  1.5386
 8092TIP3   OH245690   0.960   3.186   0.160 -0.0300 -0.3292 -0.2392
 8092TIP3    H145691   1.011   3.118   0.116 -0.8572 -0.5186 -0.9341
 8092TIP3    H245692   0.901   3.138   0.218  0.0313 -0.1542 -0.0304
 8093TIP3   OH245693   6.100   3.327  11.948  0.0812 -0.2085 -0.7242
 8093TIP3    H145694   6.133   3.243  11.917 -0.7912 -1.3802  1.3334
 8093TIP3    H245695   6.006   3.323  11.933  0.0022  0.3173 -0.4006
 8094TIP3   OH245696   6.687   1.461  14.511  0.0687 -0.2024  0.0892
 8094TIP3    H145697   6.754   1.440  14.446  0.2272  0.6554 -0.0405
 8094TIP3    H245698   6.637   1.533  14.472  0.4665  0.6564  1.1087
 8095TIP3   OH245699   0.940   4.087   0.058  0.1869  0.3328 -0.0885
 8095TIP3    H145700   0.960   3.995   0.077  2.7241  0.5610 -1.2855
 8095TIP3    H245701   0.870   4.083  -0.007 -1.4231 -0.6258  1.5707
 8096TIP3   OH245702   1.588   0.230   5.071 -0.1689 -0.5599 -0.0939
 8096TIP3    H145703   1.542   0.161   5.022  0.5263 -1.9316  1.1282
 8096TIP3    H245704   1.661   0.256   5.014 -0.9896 -0.1224 -0.9712
 8097TIP3   OH245705   4.292   3.883   5.301 -0.6219 -0.2694  0.0328
 8097TIP3    H145706   4.382   3.851   5.292 -1.1890 -1.3509 -3.4428
 8097TIP3    H245707   4.250   3.820   5.360  0.1050 -1.7380 -0.9646
 8098TIP3   OH245708   2.495   1.079   4.454 -0.1572  0.5317  0.1561
 8098TIP3    H145709   2.415   1.097   4.404  0.3403  1.0768 -0.4656
 8098TIP3    H245710   2.482   1.124   4.538  0.5544  2.8682 -0.9169
 8099TIP3   OH245711   4.263   1.341   0.118  0.3503  0.2961  0.0324
 8099TIP3    H145712   4.335   1.296   0.163 -0.0939  0.4421  0.9162
 8099TIP3    H245713   4.213   1.383   0.188 -1.7685 -1.4729 -0.3030
 8100TIP3   OH245714   0.223   2.975   0.886  0.4519  0.0663 -0.2492
 8100TIP3    H145715   0.307   3.021   0.893 -0.5933  1.8355  1.3185
 8100TIP3    H245716   0.168   3.032   0.834  0.0804 -0.9499 -1.0123
 8101TIP3   OH245717   6.122   5.361   5.584  0.6447  0.2553 -0.3041
 8101TIP3    H145718   6.167   5.410   5.515  0.7575  0.4376 -0.1011
 8101TIP3    H245719   6.069   5.427   5.629 -2.8149 -0.4492 -2.8535
 8102TIP3   OH245720   3.847   2.280  11.536  0.3869 -0.1261 -0.7556
 8102TIP3    H145721   3.941   2.268  11.553  0.6252 -1.1273 -2.5561
 8102TIP3    H245722   3.826   2.214  11.471 -1.7388 -0.3042  0.0446
 8103TIP3   OH245723   5.739   6.477   0.559  0.2353  0.5878  0.2199
 8103TIP3    H145724   5.800   6.464   0.486  1.3455  2.7646  0.6949
 8103TIP3    H245725   5.715   6.388   0.586  0.3838 -0.2883 -2.2705
 8104TIP3   OH245726   4.561   3.169   1.627  0.9337  0.1855  0.2221
 8104TIP3    H145727   4.529   3.180   1.537  0.7934 -3.0290 -0.2322
 8104TIP3    H245728   4.489   3.201   1.682  0.4357  0.8948 -0.8076
 8105TIP3   OH245729   6.024   5.321  13.835 -0.8196 -0.4738 -0.0809
 8105TIP3    H145730   6.049   5.252  13.896 -1.1269 -0.8373 -0.3640
 8105TIP3    H245731   6.058   5.402  13.874 -0.0215 -0.8436 -0.0000
 8106TIP3   OH245732   0.313   4.703   3.815 -0.4325 -0.3764  0.2118
 8106TIP3    H145733   0.292   4.625   3.764 -2.4483  0.0339  0.3217
 8106TIP3    H245734   0.398   4.683   3.854 -0.6269 -2.2940 -0.2048
 8107TIP3   OH245735   0.074   1.618   3.799 -0.0739  0.1755 -0.2136
 8107TIP3    H145736   0.061   1.710   3.823 -1.4601  0.3891 -1.6151
 8107TIP3    H245737   0.158   1.617   3.753 -0.3252  0.8589 -0.6993
 8108TIP3   OH245738   6.442   3.431   1.403 -0.5917  0.6848  0.4779
 8108TIP3    H145739   6.411   3.497   1.465  3.0118 -0.1856  3.5551
 8108TIP3    H245740   6.510   3.475   1.353 -0.7580  0.2664 -0.1340
 8109TIP3   OH245741   3.352   4.732   3.040 -0.1454 -0.1481 -0.1631
 8109TIP3    H145742   3.403   4.738   3.121 -0.7811 -2.9694  0.5582
 8109TIP3    H245743   3.266   4.764   3.063 -0.2323 -0.6443  0.2246
 8110TIP3   OH245744   3.318   6.279  12.233  0.4023 -0.2178 -0.1924
 8110TIP3    H145745   3.318   6.372  12.255 -0.8484 -0.1741 -0.2729
 8110TIP3    H245746   3.348   6.276  12.142  1.0194  0.0467  0.0010
 8111TIP3   OH245747   5.288   1.183  14.248 -0.2018  0.1267 -0.2226
 8111TIP3    H145748   5.331   1.146  14.172 -1.1228  0.5002 -0.9429
 8111TIP3    H245749   5.231   1.252  14.213  1.6578  2.4541  1.0889
 8112TIP3   OH245750   0.688   6.193  15.707  0.1366  0.0802  0.2747
 8112TIP3    H145751   0.632   6.116  15.702  0.5016 -0.1434 -0.4849
 8112TIP3    H245752   0.776   6.160  15.691  0.4633  0.4725  1.1759
 8113TIP3   OH245753   1.513   1.885   0.503  0.0418 -0.8019 -0.2386
 8113TIP3    H145754   1.457   1.879   0.580  0.9108 -2.0230  0.3355
 8113TIP3    H245755   1.496   1.972   0.467  0.9375  0.5324  2.3568
 8114TIP3   OH245756   5.209   0.698   5.504  0.1633 -0.3821  0.4860
 8114TIP3    H145757   5.231   0.791   5.513  1.0328 -0.5332  0.0473
 8114TIP3    H245758   5.115   0.698   5.488  0.2957  0.4962 -0.4388
 8115TIP3   OH245759   3.114   5.787  12.522 -0.1899  0.8402 -0.4111
 8115TIP3    H145760   3.031   5.812  12.563 -1.3383  1.4008 -2.8795
 8115TIP3    H245761   3.152   5.723  12.581 -2.0764  1.0304  1.1081
 8116TIP3   OH245762   4.486   6.460  16.479  0.5383 -0.4009  0.2064
 8116TIP3    H145763   4.417   6.428  16.421 -1.2706  2.1514  0.8116
 8116TIP3    H245764   4.549   6.503  16.421 -0.4098  0.6790 -0.0460
 8117TIP3   OH245765   1.047   6.069   4.117 -0.1826  0.3268  0.5849
 8117TIP3    H145766   1.078   6.042   4.031 -1.4379 -0.0299  0.2314
 8117TIP3    H245767   1.053   5.990   4.171 -2.0604 -0.2212  0.0532
 8118TIP3   OH245768   0.962   1.071   3.689  0.3214  0.4551  0.0452
 8118TIP3    H145769   1.003   1.107   3.610  2.5763  1.8968  1.7147
 8118TIP3    H245770   1.024   1.004   3.719 -0.1397  0.4149  0.9417
 8119TIP3   OH245771   2.015   4.431  14.564  1.1741 -0.4734 -0.2290
 8119TIP3    H145772   1.976   4.504  14.516 -0.3159 -1.3029 -0.3267
 8119TIP3    H245773   2.074   4.473  14.626 -0.6654  0.9391  0.6807
 8120TIP3   OH245774   6.603   5.454  13.571  0.8585  0.1793 -0.2568
 8120TIP3    H145775   6.671   5.449  13.504 -0.5859 -1.9185 -1.6833
 8120TIP3    H245776   6.557   5.536  13.553 -0.7047 -1.1912 -3.1844
 8121TIP3   OH245777   2.078   2.696   3.688 -0.1110  0.1181 -0.4883
 8121TIP3    H145778   2.132   2.619   3.672  0.1166  0.5140 -1.7032
 8121TIP3    H245779   2.131   2.752   3.745  1.2148  0.9392 -2.4307
 8122TIP3   OH245780   4.046   5.328  13.033 -0.0917 -0.5263 -0.1172
 8122TIP3    H145781   3.978   5.377  12.986  0.1266 -0.7184 -0.6434
 8122TIP3    H245782   4.115   5.393  13.049 -0.3980 -0.3259  0.4355
 8123TIP3   OH245783   4.374   2.780   4.128  0.1409 -0.3230 -0.4111
 8123TIP3    H145784   4.326   2.821   4.057 -0.7743  0.5435  0.6611
 8123TIP3    H245785   4.362   2.839   4.202 -0.8867 -2.2741  1.0953
 8124TIP3   OH245786   1.236   2.189  10.636 -0.2535  0.2515  0.1586
 8124TIP3    H145787   1.281   2.216  10.716 -1.3421  2.0255  0.2171
 8124TIP3    H245788   1.143   2.209  10.652 -0.3508  2.0136 -2.0198
 8125TIP3   OH245789   3.576   1.602   2.634  0.6932 -0.5675  0.0039
 8125TIP3    H145790   3.528   1.656   2.571  1.0865 -2.0664 -1.6313
 8125TIP3    H245791   3.551   1.512   2.613  0.9373 -1.1300  1.9320
 8126TIP3   OH245792   0.534   0.351   5.609 -0.4910  0.3000 -0.1190
 8126TIP3    H145793   0.536   0.374   5.516 -1.5265  0.1371 -0.1848
 8126TIP3    H245794   0.614   0.298   5.622  0.3030  1.3414 -0.6241
 8127TIP3   OH245795   1.212   1.424   4.088 -0.6944 -0.1366  0.4392
 8127TIP3    H145796   1.300   1.458   4.077 -1.1699  0.6680 -1.1440
 8127TIP3    H245797   1.156   1.501   4.095 -1.3362 -0.6289  0.9804
 8128TIP3   OH245798   3.743   2.349   3.646 -0.4885  0.3922 -0.4154
 8128TIP3    H145799   3.829   2.384   3.623  0.0411 -0.8593 -0.4063
 8128TIP3    H245800   3.728   2.378   3.736  0.5436 -0.5291  0.0679
 8129TIP3   OH245801   0.972   4.027  15.854  0.1088  0.5716 -0.0647
 8129TIP3    H145802   1.000   4.069  15.772  3.6967 -0.5358  0.4082
 8129TIP3    H245803   1.010   3.939  15.849 -1.8008 -0.4225  1.7217
 8130TIP3   OH245804   3.956   6.093   1.544  0.0143  0.6128  0.1296
 8130TIP3    H145805   4.006   6.029   1.494  3.0511  1.2506  2.1318
 8130TIP3    H245806   3.902   6.041   1.603  1.7073 -0.1424  1.0475
 8131TIP3   OH245807   3.350   4.186  12.755  0.8534 -0.0298 -0.0512
 8131TIP3    H145808   3.376   4.163  12.666 -0.6838  1.8912 -1.0898
 8131TIP3    H245809   3.257   4.164  12.759 -0.1234  3.3996 -0.3627
 8132TIP3   OH245810   0.503   2.890  14.562  0.4359  0.2427 -0.0967
 8132TIP3    H145811   0.507   2.973  14.610  1.1441  0.4055 -0.4098
 8132TIP3    H245812   0.563   2.832  14.609  1.0600  0.3748 -0.7095
 8133TIP3   OH245813   5.926   0.377  14.731 -0.4587  0.1008 -0.5720
 8133TIP3    H145814   5.950   0.435  14.803 -0.9523 -1.2413  0.7171
 8133TIP3    H245815   5.885   0.435  14.667 -1.9658  1.0470  1.1565
 8134TIP3   OH245816   3.448   4.348   4.604 -0.2925 -0.4430  0.0024
 8134TIP3    H145817   3.464   4.434   4.642  0.3453 -0.6448  0.1965
 8134TIP3    H245818   3.473   4.285   4.672  2.8493 -0.8678 -1.3614
 8135TIP3   OH245819   4.289   6.310  13.043  0.2682  0.0533 -0.1610
 8135TIP3    H145820   4.272   6.303  12.949  0.2480 -2.8203 -0.0408
 8135TIP3    H245821   4.211   6.353  13.078 -0.7541 -0.8479 -1.2394
 8136TIP3   OH245822   1.035   4.217  11.971  0.2884 -0.4193 -0.3999
 8136TIP3    H145823   1.113   4.163  11.980 -0.9935 -2.3111 -0.0266
 8136TIP3    H245824   1.013   4.213  11.878  0.7701  0.3466 -0.5550
 8137TIP3   OH245825   2.703   6.562  12.037  1.0347  0.2895 -0.3105
 8137TIP3    H145826   2.707   6.601  12.124  0.4598 -0.0649 -0.1176
 8137TIP3    H245827   2.628   6.503  12.041  1.6728 -0.5639 -0.7111
 8138TIP3   OH245828   1.494   6.174  13.537  0.1808 -0.3141 -0.6118
 8138TIP3    H145829   1.445   6.251  13.509 -3.0991 -1.4891  1.2884
 8138TIP3    H245830   1.579   6.208  13.564 -0.3000  2.2412 -2.0019
 8139TIP3   OH245831   6.692   3.306   6.628 -0.1848 -0.6755  0.1166
 8139TIP3    H145832   6.649   3.371   6.684 -0.0653 -0.1623 -0.3739
 8139TIP3    H245833   6.622   3.245   6.606 -0.5006 -0.2576 -0.0722
 8140TIP3   OH245834   5.826   4.700  17.150 -0.2808  0.0651 -0.0935
 8140TIP3    H145835   5.893   4.650  17.197 -0.0081  0.4284 -0.0899
 8140TIP3    H245836   5.777   4.744  17.220  0.6071  1.2149 -0.1663
 8141TIP3   OH245837   0.119   3.309  13.259  0.1672 -0.1440 -0.1230
 8141TIP3    H145838   0.170   3.269  13.330  0.2459  0.3405  0.0973
 8141TIP3    H245839   0.108   3.239  13.195 -0.7406 -0.8934  0.8070
 8142TIP3   OH245840   1.450   3.907   5.864 -0.2517  0.6410 -0.0509
 8142TIP3    H145841   1.492   3.958   5.933 -0.3524 -0.0640  0.5550
 8142TIP3    H245842   1.357   3.920   5.878 -0.3119 -0.5261  0.7770
 8143TIP3   OH245843   6.413   6.631  15.479 -0.0685  0.4603  0.0568
 8143TIP3    H145844   6.429   6.537  15.476  2.2784  0.8202 -0.9342
 8143TIP3    H245845   6.317   6.639  15.479 -0.3203 -1.9075  0.6577
 8144TIP3   OH245846   3.023   5.457  12.214  0.1641 -0.5546 -0.4306
 8144TIP3    H145847   3.097   5.492  12.264  0.4111 -0.4061 -0.8958
 8144TIP3    H245848   2.967   5.532  12.198  0.7518 -0.3335 -1.5288
 8145TIP3   OH245849   1.636   1.655   3.728  0.7443  0.1489  0.5238
 8145TIP3    H145850   1.546   1.626   3.716  0.6730 -0.0272  1.4353
 8145TIP3    H245851   1.634   1.749   3.706  0.1655  0.3291  1.3215
 8146TIP3   OH245852   6.561   1.476   5.242  0.3400 -0.4691 -0.1437
 8146TIP3    H145853   6.628   1.408   5.232  3.4488  2.4233 -0.8986
 8146TIP3    H245854   6.536   1.499   5.152  1.2382  1.0085 -0.0578
 8147TIP3   OH245855   1.330   6.750   3.694 -0.6884  0.5229 -0.4091
 8147TIP3    H145856   1.346   6.728   3.786 -1.8294 -0.7290 -0.4746
 8147TIP3    H245857   1.417   6.759   3.656 -0.1909  1.4372  0.8572
 8148TIP3   OH245858   0.434   3.943   0.910 -0.1544  0.3493 -0.0290
 8148TIP3    H145859   0.396   4.031   0.913 -3.0229 -0.7761  0.0934
 8148TIP3    H245860   0.376   3.895   0.851  0.5027 -1.8028  0.9942
 8149TIP3   OH245861   6.385   4.487   2.506 -0.6331  0.0879  0.3042
 8149TIP3    H145862   6.390   4.546   2.582 -2.2667  1.0251 -0.2681
 8149TIP3    H245863   6.465   4.505   2.456  0.4520 -0.5167  1.7484
 8150TIP3   OH245864   2.102   4.650  12.289  0.5708 -0.0080 -0.0335
 8150TIP3    H145865   2.168   4.617  12.349  1.0220 -0.4604 -0.7602
 8150TIP3    H245866   2.018   4.627  12.329  0.8436  0.3616  0.7768
 8151TIP3   OH245867   0.619   4.259   5.453  0.7316 -0.2573 -0.2409
 8151TIP3    H145868   0.626   4.298   5.366  0.8266 -1.1380 -0.6351
 8151TIP3    H245869   0.675   4.182   5.450  0.3993 -0.5381  0.4642
 8152TIP3   OH245870   2.612   3.690   5.216  0.2779  0.2026  0.2189
 8152TIP3    H145871   2.522   3.691   5.183  0.4285 -2.6214 -0.5705
 8152TIP3    H245872   2.602   3.678   5.311 -0.3323 -2.7732 -0.1055
 8153TIP3   OH245873   3.630   3.821  14.593  0.3847 -0.0224  0.4472
 8153TIP3    H145874   3.691   3.751  14.618  0.0327  0.1318  1.7976
 8153TIP3    H245875   3.671   3.862  14.517  1.1394 -0.9847  0.3131
 8154TIP3   OH245876   1.165   0.373   5.895  0.1405 -0.2430  0.1036
 8154TIP3    H145877   1.081   0.383   5.849  0.5513 -2.8559 -1.4454
 8154TIP3    H245878   1.165   0.281   5.924  2.2379 -0.1464  0.5664
 8155TIP3   OH245879   1.857   2.418  13.303 -0.3215  0.1430 -0.4366
 8155TIP3    H145880   1.949   2.393  13.305 -0.6147 -1.0242 -0.7143
 8155TIP3    H245881   1.819   2.364  13.233 -1.0959  1.0429 -0.7309
 8156TIP3   OH245882   1.867   5.807  12.410  0.2250 -0.0328 -0.0467
 8156TIP3    H145883   1.804   5.856  12.462 -0.4199  0.9693 -1.7072
 8156TIP3    H245884   1.916   5.874  12.362  0.9703 -0.9176 -0.5627
 8157TIP3   OH245885   6.377   1.976  11.801 -0.6203  0.9915 -0.3971
 8157TIP3    H145886   6.406   1.885  11.808  1.3362  1.6181  0.5062
 8157TIP3    H245887   6.283   1.973  11.816 -0.7658 -0.9795 -1.3542
 8158TIP3   OH245888   2.599   4.650   4.506  0.3284 -0.0840 -0.0198
 8158TIP3    H145889   2.681   4.647   4.455 -0.4850 -0.6628 -1.3387
 8158TIP3    H245890   2.580   4.559   4.526 -0.6050 -0.0592 -0.7470
 8159TIP3   OH245891   1.719   1.774  16.717  0.1454  0.2931 -0.4026
 8159TIP3    H145892   1.700   1.744  16.806  0.3381 -0.1980 -0.5213
 8159TIP3    H245893   1.736   1.693  16.668  1.8074  0.6576 -0.4684
 8160TIP3   OH245894   3.101   5.101  12.045  0.4162  0.0619 -0.1150
 8160TIP3    H145895   3.036   5.045  12.002 -1.3915  0.1447  2.2791
 8160TIP3    H245896   3.098   5.183  11.997 -1.5937  0.1966  0.1530
 8161TIP3   OH245897   5.017   1.480  14.013  0.2841  0.4150  0.1538
 8161TIP3    H145898   4.961   1.489  13.936  0.1998 -0.2759  0.1268
 8161TIP3    H245899   5.019   1.568  14.052  1.0517  0.9842 -1.1256
 8162TIP3   OH245900   2.494   1.294  15.496 -0.4070  0.2428  0.1604
 8162TIP3    H145901   2.558   1.233  15.532 -0.5175 -0.1462 -0.2970
 8162TIP3    H245902   2.412   1.243  15.490  0.0013 -0.2577 -2.2267
 8163TIP3   OH245903   3.773   0.616  15.804  0.3337 -0.7253 -0.3697
 8163TIP3    H145904   3.818   0.701  15.807  0.1245 -0.5581 -1.5056
 8163TIP3    H245905   3.742   0.603  15.894  1.1015 -0.0050  0.0244
 8164TIP3   OH245906   3.194   5.260  15.498 -0.0300  0.0948 -0.6367
 8164TIP3    H145907   3.187   5.347  15.458  0.1646  0.4109  0.0023
 8164TIP3    H245908   3.191   5.277  15.592  0.0290 -0.5931 -0.5075
 8165TIP3   OH245909   0.606   2.151   3.514  0.0262 -0.0778 -0.6713
 8165TIP3    H145910   0.589   2.206   3.437  1.2124  1.5199  0.1525
 8165TIP3    H245911   0.607   2.212   3.588  2.1400 -1.0404  0.1884
 8166TIP3   OH245912   1.714   3.192   2.177  0.5796  0.5463  0.2745
 8166TIP3    H145913   1.690   3.254   2.246  0.5380  0.5501  0.2566
 8166TIP3    H245914   1.694   3.106   2.214 -2.3821  0.6496 -0.8662
 8167TIP3   OH245915   6.722   1.185   1.929  0.5513 -0.3821  0.2748
 8167TIP3    H145916   6.812   1.171   1.900  0.3246  1.9506 -1.9330
 8167TIP3    H245917   6.729   1.251   1.998  0.5316 -0.3212  0.2181
 8168TIP3   OH245918   0.302   0.712   0.377  0.3845  0.8387  0.1724
 8168TIP3    H145919   0.357   0.671   0.443 -0.2409  1.4905  1.1187
 8168TIP3    H245920   0.213   0.703   0.411 -0.0812  0.0658 -1.1907
 8169TIP3   OH245921   5.858   5.960  15.782  0.1845  0.2466  0.3003
 8169TIP3    H145922   5.944   5.953  15.822 -0.0799 -0.0545  0.8379
 8169TIP3    H245923   5.803   6.000  15.849 -0.3202 -0.4804  0.3413
 8170TIP3   OH245924   4.150   3.479  16.047  0.0506 -0.5364 -0.0766
 8170TIP3    H145925   4.234   3.523  16.059 -0.1735 -0.3484  0.8700
 8170TIP3    H245926   4.087   3.533  16.094 -0.3997 -1.3018  0.2208
 8171TIP3   OH245927   2.843   4.928  17.031  0.0205 -0.2544  0.3824
 8171TIP3    H145928   2.770   4.872  17.059  1.1514 -1.9951  0.0048
 8171TIP3    H245929   2.918   4.895  17.080  1.5889 -1.8442 -2.8135
 8172TIP3   OH245930   4.162   6.157   5.654 -0.0952 -0.2090  0.1430
 8172TIP3    H145931   4.081   6.119   5.688 -0.4271 -1.7772 -2.1606
 8172TIP3    H245932   4.211   6.184   5.732 -2.1447 -0.6241  1.6505
 8173TIP3   OH245933   6.721   2.895  16.892 -0.1522  0.2515  0.1225
 8173TIP3    H145934   6.703   2.801  16.890 -3.9295  0.8247  0.2803
 8173TIP3    H245935   6.721   2.917  16.985  3.4278  0.1273  0.2803
 8174TIP3   OH245936   4.747   0.567   6.169 -0.0279  0.1671  0.1159
 8174TIP3    H145937   4.732   0.474   6.150  3.1036 -0.6714  1.2337
 8174TIP3    H245938   4.764   0.607   6.083 -2.5779  0.0735 -0.5249
 8175TIP3   OH245939   1.573   4.349   0.170  0.1991 -0.3134  0.1089
 8175TIP3    H145940   1.586   4.337   0.264 -0.3408  1.2233  0.4052
 8175TIP3    H245941   1.531   4.435   0.162 -0.5806 -0.8023 -1.4779
 8176TIP3   OH245942   5.794   6.671  17.166 -0.2287  0.0570 -0.6052
 8176TIP3    H145943   5.720   6.716  17.126 -0.0771  2.9081  1.9312
 8176TIP3    H245944   5.755   6.603  17.221 -0.6437 -1.1314 -2.3112
 8177TIP3   OH245945   1.041   5.519   3.765 -0.2821 -0.7485 -0.1910
 8177TIP3    H145946   1.089   5.440   3.791  3.1390  1.0997 -0.1896
 8177TIP3    H245947   1.021   5.562   3.848  0.8767 -0.0644 -0.2452
 8178TIP3   OH245948   0.385   1.008  13.309  0.4425  0.1077  0.5839
 8178TIP3    H145949   0.473   1.042  13.292  0.2005 -0.4966 -2.6105
 8178TIP3    H245950   0.399   0.936  13.371  2.2541 -0.0614  0.0384
 8179TIP3   OH245951   0.655   3.840   4.362  0.0948 -0.0833 -0.4930
 8179TIP3    H145952   0.725   3.811   4.420  2.1158  1.7826 -1.8238
 8179TIP3    H245953   0.649   3.934   4.379  0.3345  0.3956 -2.8171
 8180TIP3   OH245954   1.161   1.430   1.400 -0.4180 -0.1782 -0.7946
 8180TIP3    H145955   1.240   1.461   1.357 -1.0372 -0.3178 -2.0894
 8180TIP3    H245956   1.188   1.351   1.446  0.5152  0.6061  0.0443
 8181TIP3   OH245957   3.371   2.195  13.853  0.2423  0.3539 -0.5765
 8181TIP3    H145958   3.415   2.209  13.769  1.7560 -1.1716 -0.0858
 8181TIP3    H245959   3.410   2.115  13.888 -3.0106 -1.2023 -0.1334
 8182TIP3   OH245960   2.046   5.723  12.103  0.0676 -0.3533 -0.7047
 8182TIP3    H145961   1.982   5.684  12.162 -0.9173 -2.5229 -2.9820
 8182TIP3    H245962   2.130   5.711  12.147 -0.7299 -0.7242  0.7826
 8183TIP3   OH245963   0.719   2.972  12.667  0.0661  0.1672 -0.3014
 8183TIP3    H145964   0.793   3.033  12.669 -0.5651  0.9479  0.9402
 8183TIP3    H245965   0.736   2.911  12.738 -0.1769 -0.0361 -0.4163
 8184TIP3   OH245966   6.127   2.186  10.761  0.2356  0.0499 -0.1929
 8184TIP3    H145967   6.171   2.251  10.816 -0.4766  0.7088 -0.3828
 8184TIP3    H245968   6.197   2.142  10.714  0.6963  1.0919 -0.5048
 8185TIP3   OH245969   3.834   5.709  15.404  0.6729  0.0526  0.3606
 8185TIP3    H145970   3.765   5.771  15.430  1.2178  0.5311  0.6881
 8185TIP3    H245971   3.902   5.719  15.471  0.9351 -0.6292  0.2030
 8186TIP3   OH245972   2.199   0.794   1.305 -0.1903 -0.5313 -0.5211
 8186TIP3    H145973   2.290   0.803   1.334 -0.4568  0.8532 -0.0483
 8186TIP3    H245974   2.202   0.726   1.238  1.2929 -0.1070 -0.9180
 8187TIP3   OH245975   6.303   6.796  14.986  0.2008  0.1193 -0.1178
 8187TIP3    H145976   6.357   6.774  15.062  2.3506  0.3607 -1.4892
 8187TIP3    H245977   6.305   6.717  14.932  0.4440  0.6491 -0.8894
 8188TIP3   OH245978   3.517   0.878  16.714 -0.7556  0.2744  0.0938
 8188TIP3    H145979   3.581   0.846  16.652 -1.8801 -1.5846 -0.1956
 8188TIP3    H245980   3.552   0.854  16.800 -1.4777 -1.6628 -0.1106
 8189TIP3   OH245981   1.669   0.518   6.002 -0.0794 -0.3852 -0.1150
 8189TIP3    H145982   1.724   0.488   5.931  0.8330  1.0343 -0.0391
 8189TIP3    H245983   1.579   0.505   5.970  0.2530 -2.3389 -0.3885
 8190TIP3   OH245984   3.461   2.147   1.122  0.2593  0.3520  0.6658
 8190TIP3    H145985   3.462   2.192   1.207  0.0627 -0.5213  1.1399
 8190TIP3    H245986   3.389   2.085   1.128 -0.5677  1.1409 -0.6214
 8191TIP3   OH245987   3.300   3.897   1.670  0.0508 -0.2123 -0.0260
 8191TIP3    H145988   3.307   3.883   1.764  0.3732  0.4581  0.0524
 8191TIP3    H245989   3.253   3.820   1.638  1.4395 -1.2798  0.4307
 8192TIP3   OH245990   0.452   1.357   2.782  0.2054 -0.4299  0.4052
 8192TIP3    H145991   0.528   1.415   2.785  0.7305 -1.1147  2.4450
 8192TIP3    H245992   0.417   1.360   2.871 -2.2886 -0.0233 -0.5261
 8193TIP3   OH245993   3.179   4.267   2.200 -0.0497 -0.2646 -0.5535
 8193TIP3    H145994   3.118   4.197   2.225 -0.5243 -0.8012 -2.9216
 8193TIP3    H245995   3.264   4.236   2.230 -0.6856 -0.2959  1.3263
 8194TIP3   OH245996   2.534   4.932  13.693 -0.5446  0.3088  0.4672
 8194TIP3    H145997   2.448   4.931  13.651 -0.4494  2.8139  0.0182
 8194TIP3    H245998   2.522   4.988  13.770  0.4623 -0.1099  0.9416
 8195TIP3   OH245999   5.943   6.013  12.738  0.0223  0.0024  0.0098
 8195TIP3    H146000   5.932   5.954  12.664  0.5783  0.4760 -0.4662
 8195TIP3    H246001   5.979   6.093  12.699 -0.3997  0.5286  0.6865
 8196TIP3   OH246002   3.075   3.520   0.849 -0.0742 -0.1854  0.5132
 8196TIP3    H146003   3.164   3.502   0.878  1.2622 -2.1785 -3.9704
 8196TIP3    H246004   3.080   3.605   0.806 -0.0012 -0.7306 -0.6026
 8197TIP3   OH246005   0.210   2.784  10.671 -0.1131  0.3678 -0.1710
 8197TIP3    H146006   0.292   2.758  10.713 -0.2635  0.0631 -0.0589
 8197TIP3    H246007   0.208   2.733  10.590 -0.9876 -0.9303  0.6211
 8198TIP3   OH246008   5.407   5.283   5.289 -0.5153 -0.1341 -0.4438
 8198TIP3    H146009   5.430   5.354   5.349  2.2523  0.4646 -2.0405
 8198TIP3    H246010   5.439   5.204   5.333 -2.1553 -0.2564  0.6112
 8199TIP3   OH246011   5.782   5.754  16.986 -1.3465  0.3162 -0.0579
 8199TIP3    H146012   5.758   5.825  17.046  0.3487  0.4256  0.5424
 8199TIP3    H246013   5.778   5.675  17.039 -2.3694  0.0594 -0.4978
 8200TIP3   OH246014   6.699   0.991  11.157  0.1105 -0.6511 -0.5562
 8200TIP3    H146015   6.663   0.921  11.212  0.4761 -1.6026 -1.4887
 8200TIP3    H246016   6.775   1.023  11.205 -0.5321 -0.3140  0.2655
 8201TIP3   OH246017   5.474   2.236  11.139 -0.7724  0.3739 -0.0482
 8201TIP3    H146018   5.462   2.158  11.086  0.3932  0.6179 -0.7020
 8201TIP3    H246019   5.412   2.300  11.103  0.4351  0.7465 -1.5758
 8202TIP3   OH246020   0.972   0.692  14.672 -0.4194 -0.0437  0.5857
 8202TIP3    H146021   0.882   0.701  14.704 -0.9584  1.3681 -1.1501
 8202TIP3    H246022   1.026   0.710  14.749 -1.6435  0.4786  1.3589
 8203TIP3   OH246023   1.659   4.876   5.460 -0.1732 -0.1117  0.2142
 8203TIP3    H146024   1.736   4.828   5.493 -0.1399 -0.4054 -0.2882
 8203TIP3    H246025   1.682   4.899   5.371 -0.9258 -0.7647 -0.1614
 8204TIP3   OH246026   2.880   1.806  12.544 -0.4590  0.1080  0.1857
 8204TIP3    H146027   2.868   1.743  12.473 -2.0582  1.8180 -1.1680
 8204TIP3    H246028   2.801   1.861  12.541  0.9660  2.3405  1.0888
 8205TIP3   OH246029   3.585   1.918   6.104  0.3058  0.4193  0.6668
 8205TIP3    H146030   3.627   1.968   6.174 -0.9082  1.2215  0.8526
 8205TIP3    H246031   3.492   1.933   6.117  0.0645  1.0192 -1.4108
 8206TIP3   OH246032   5.851   3.568  11.179 -0.8712 -0.1918  0.0399
 8206TIP3    H146033   5.877   3.511  11.107  0.4945  0.7514 -0.2290
 8206TIP3    H246034   5.792   3.513  11.232  1.5180 -2.4116  0.6050
 8207TIP3   OH246035   3.727   0.212  10.524  0.0299 -0.1877  0.4529
 8207TIP3    H146036   3.812   0.171  10.506 -0.3703 -0.8101 -0.0331
 8207TIP3    H246037   3.733   0.298  10.482 -0.2264 -0.9179 -1.1286
 8208TIP3   OH246038   3.432   3.422   4.186  0.4943 -0.8342 -0.0051
 8208TIP3    H146039   3.460   3.493   4.129  0.7754 -1.1086 -0.2137
 8208TIP3    H246040   3.453   3.342   4.137 -0.2486 -1.0524  0.0278
 8209TIP3   OH246041   1.748   6.562  10.622  0.2917  0.6770 -0.3280
 8209TIP3    H146042   1.690   6.638  10.621 -0.2148  0.2967 -0.3237
 8209TIP3    H246043   1.690   6.487  10.608  1.0093  0.4142 -2.1392
 8210TIP3   OH246044   4.344   1.020  16.805  0.0390  0.2365  0.6620
 8210TIP3    H146045   4.301   1.073  16.871 -2.0144  0.8834 -1.0720
 8210TIP3    H246046   4.374   1.084  16.739 -0.2853 -0.5480 -0.2700
 8211TIP3   OH246047   0.462   1.830  13.091  0.1303  0.4262 -0.0448
 8211TIP3    H146048   0.443   1.757  13.149  1.0309  0.8588  0.8123
 8211TIP3    H246049   0.383   1.884  13.095  0.3826  0.7383  1.2389
 8212TIP3   OH246050   3.516   4.917   1.243  0.0155 -0.9748  0.2855
 8212TIP3    H146051   3.543   4.999   1.284  0.5825 -0.7650 -0.4972
 8212TIP3    H246052   3.446   4.884   1.300 -0.4052  0.1811  0.4675
 8213TIP3   OH246053   1.446   2.608  12.816  0.4629  0.1754  0.1070
 8213TIP3    H146054   1.473   2.525  12.855 -0.7739 -0.8647 -1.1279
 8213TIP3    H246055   1.528   2.651  12.790  1.1995 -2.9280 -3.7403
 8214TIP3   OH246056   4.583   1.466   0.175  0.2054  0.1239  0.4649
 8214TIP3    H146057   4.576   1.541   0.235 -1.2886 -0.3374  0.9003
 8214TIP3    H246058   4.560   1.501   0.090  2.2091  0.7537  0.1244
 8215TIP3   OH246059   1.326   5.123  11.591  0.1001 -0.4577  0.5203
 8215TIP3    H146060   1.372   5.054  11.638  0.7181 -0.1506  0.3770
 8215TIP3    H246061   1.394   5.165  11.537 -0.2931  0.1594  0.4946
 8216TIP3   OH246062   4.542   1.181   0.123  0.2924 -0.3324  0.0656
 8216TIP3    H146063   4.550   1.276   0.130 -0.0775 -0.2705 -0.3413
 8216TIP3    H246064   4.617   1.155   0.070 -0.6524 -0.0439 -1.4812
 8217TIP3   OH246065   6.089   2.161  14.035  0.6421 -0.3533  0.0353
 8217TIP3    H146066   6.065   2.081  14.081  0.3296 -0.8209 -0.9226
 8217TIP3    H246067   6.163   2.137  13.979 -0.2730 -0.3221 -1.2291
 8218TIP3   OH246068   1.586   1.170   3.985 -0.4216 -0.2355  0.5933
 8218TIP3    H146069   1.504   1.122   3.995 -0.3770 -0.6342 -0.8101
 8218TIP3    H246070   1.579   1.215   3.901  0.6763 -0.0384  0.5806
 8219TIP3   OH246071   6.194   2.147  12.986 -0.1109 -0.4436 -0.0982
 8219TIP3    H146072   6.278   2.132  12.942 -1.1177  0.0497 -2.3232
 8219TIP3    H246073   6.215   2.207  13.058  1.6315 -1.3827  0.2289
 8220TIP3   OH246074   6.719   5.571  11.099  0.2964  0.1628  0.7643
 8220TIP3    H146075   6.769   5.555  11.019 -1.9352  2.4795 -1.2353
 8220TIP3    H246076   6.728   5.665  11.115 -1.3710  0.1942  1.7537
 8221TIP3   OH246077   1.076   3.677  15.454  0.7396  0.1289 -0.0923
 8221TIP3    H146078   1.074   3.701  15.362  0.9992  0.7685  0.0598
 8221TIP3    H246079   1.147   3.613  15.461  2.7533  2.2733  0.1373
 8222TIP3   OH246080   1.230   3.772   0.135  0.6655  0.2176 -0.2101
 8222TIP3    H146081   1.255   3.688   0.173  0.3216  0.7150  1.1848
 8222TIP3    H246082   1.145   3.755   0.093  0.0613  0.0850  1.0052
 8223TIP3   OH246083   6.721   2.624   3.369  0.2561  0.2090  0.2520
 8223TIP3    H146084   6.637   2.579   3.375  0.7384 -0.8920 -0.7125
 8223TIP3    H246085   6.759   2.593   3.287  0.9259  1.9045 -0.1272
 8224TIP3   OH246086   3.487   2.821  16.604  0.5057 -0.4901  0.0830
 8224TIP3    H146087   3.553   2.792  16.667 -0.0700  0.2486  1.0425
 8224TIP3    H246088   3.456   2.905  16.637  0.3117  0.0134 -1.2822
 8225TIP3   OH246089   2.882   5.051   3.128  0.0891  0.1286  0.4409
 8225TIP3    H146090   2.976   5.037   3.129 -0.0556 -0.9906 -0.1678
 8225TIP3    H246091   2.846   4.973   3.086 -0.9434  1.5193 -1.4228
 8226TIP3   OH246092   0.953   5.561   2.649  0.2189  0.5290  0.0537
 8226TIP3    H146093   0.957   5.581   2.555 -0.4643  0.4234 -0.0052
 8226TIP3    H246094   0.924   5.470   2.653  1.3283  0.1837  0.3545
 8227TIP3   OH246095   5.667   4.218  17.019 -0.4961 -0.5572  0.2814
 8227TIP3    H146096   5.651   4.124  17.011  1.7696 -1.1735  1.9599
 8227TIP3    H246097   5.749   4.225  17.068 -1.0819  2.3258  1.0663
 8228TIP3   OH246098   5.654   6.021   3.179 -0.0917  0.2370 -0.2718
 8228TIP3    H146099   5.641   6.047   3.088  0.3452  1.0098 -0.1186
 8228TIP3    H246100   5.690   5.932   3.174  0.1128  0.3508 -0.8524
 8229TIP3   OH246101   4.909   5.427  14.277  0.4451 -0.2052  0.1164
 8229TIP3    H146102   4.914   5.519  14.251 -0.5977  0.8921  3.2341
 8229TIP3    H246103   4.841   5.389  14.222 -1.7999  1.9666  1.1914
 8230TIP3   OH246104   2.493   0.514  13.258 -0.7660  0.5569 -0.4421
 8230TIP3    H146105   2.428   0.489  13.322 -1.6384  1.1111 -1.0904
 8230TIP3    H246106   2.477   0.607  13.242  1.5658  1.2771  0.9680
 8231TIP3   OH246107   2.084   4.016   2.370  0.0285 -0.1481  0.1304
 8231TIP3    H146108   2.061   3.939   2.318 -0.5685  0.7351 -0.9577
 8231TIP3    H246109   2.022   4.084   2.341  0.7083  0.8153  0.8708
 8232TIP3   OH246110   1.556   6.195  17.004  0.1391  0.5673  0.3004
 8232TIP3    H146111   1.461   6.209  17.009 -0.0279 -0.1104 -0.6199
 8232TIP3    H246112   1.592   6.251  17.073 -1.0241 -0.2188  1.6070
 8233TIP3   OH246113   0.486   1.717  14.222  0.6577  0.7441  0.4392
 8233TIP3    H146114   0.577   1.707  14.248  0.9290  0.0270 -0.7141
 8233TIP3    H246115   0.490   1.756  14.135 -0.0810 -0.3044 -0.0944
 8234TIP3   OH246116   5.757   5.356  14.836  0.1058 -0.2941 -0.0879
 8234TIP3    H146117   5.815   5.302  14.890  0.4821 -0.4566 -0.6459
 8234TIP3    H246118   5.721   5.421  14.896  0.6770 -0.3495  0.3153
 8235TIP3   OH246119   6.746   0.264   0.798  0.2157  0.3633 -0.4417
 8235TIP3    H146120   6.716   0.355   0.793  1.1859  0.7374  0.2375
 8235TIP3    H246121   6.831   0.264   0.753 -0.3982 -0.5062 -1.6508
 8236TIP3   OH246122   5.387   2.070  11.647 -0.5282  0.3602  0.4141
 8236TIP3    H146123   5.303   2.052  11.604  0.0063  0.4144 -0.7028
 8236TIP3    H246124   5.446   2.093  11.575  1.0117 -1.7275  0.8962
 8237TIP3   OH246125   1.588   5.514  10.802 -0.4005  0.1603  0.3689
 8237TIP3    H146126   1.666   5.531  10.856 -1.8109 -1.2881  3.1120
 8237TIP3    H246127   1.589   5.583  10.736  1.8232  1.7327  1.8696
 8238TIP3   OH246128   1.371   0.408   3.272  0.6589  0.0000  0.4177
 8238TIP3    H146129   1.307   0.342   3.246  0.0440  0.9017 -0.4255
 8238TIP3    H246130   1.424   0.365   3.339  1.8600 -2.2081 -1.7843
 8239TIP3   OH246131   1.092   1.695   4.153 -0.2478 -0.3187  0.9113
 8239TIP3    H146132   1.040   1.673   4.230  1.0261  0.6269  2.1027
 8239TIP3    H246133   1.037   1.671   4.078 -2.5830  1.0882  2.0796
 8240TIP3   OH246134   4.282   6.331  15.518  0.0994  0.1532 -0.7520
 8240TIP3    H146135   4.324   6.320  15.604 -2.3559  0.7793  0.6406
 8240TIP3    H246136   4.251   6.243  15.496 -0.0241  0.1486 -0.5643
 8241TIP3   OH246137   6.005   6.794   0.118 -0.6370 -0.1549  0.0892
 8241TIP3    H146138   6.062   6.809   0.043 -1.2112  0.5066 -0.2199
 8241TIP3    H246139   5.925   6.757   0.082 -0.9607  0.2715  0.3526
 8242TIP3   OH246140   2.689   4.510   1.084 -0.0452  0.9975  0.6432
 8242TIP3    H146141   2.675   4.568   1.159 -3.2156 -1.8111  2.5184
 8242TIP3    H246142   2.630   4.543   1.017 -0.6623  0.8785  1.1181
 8243TIP3   OH246143   1.169   5.974  13.602  0.2460 -0.1053  0.9089
 8243TIP3    H146144   1.249   5.922  13.617 -0.6982 -1.1499  2.7121
 8243TIP3    H246145   1.127   5.932  13.527  1.5276  0.6707 -0.2843
 8244TIP3   OH246146   3.206   4.828  12.697 -0.2974  0.1668 -0.5042
 8244TIP3    H146147   3.259   4.784  12.631  0.5855 -2.1918  1.5931
 8244TIP3    H246148   3.221   4.777  12.777 -3.8525  0.8444  0.7769
 8245TIP3   OH246149   4.295   2.287  11.048  0.2598  0.7544 -0.1738
 8245TIP3    H146150   4.361   2.318  10.986  1.1916 -0.0650  0.3929
 8245TIP3    H246151   4.288   2.357  11.113  2.6081 -0.2787  1.2979
 8246TIP3   OH246152   2.684   4.584   5.420  0.3152 -0.4981  0.2244
 8246TIP3    H146153   2.675   4.589   5.516 -0.8362 -1.4948  0.1962
 8246TIP3    H246154   2.715   4.496   5.404 -3.4553 -1.8827 -0.4819
 8247TIP3   OH246155   0.442   2.891  16.257 -0.1962  0.4480  0.0422
 8247TIP3    H146156   0.430   2.908  16.351 -2.3556  0.6823 -0.2310
 8247TIP3    H246157   0.485   2.969  16.224 -0.6235  0.9358  0.6116
 8248TIP3   OH246158   5.483   0.037  11.844  0.8207 -0.2922  0.0461
 8248TIP3    H146159   5.417  -0.001  11.903 -1.7674  0.2488 -2.3002
 8248TIP3    H246160   5.505  -0.035  11.785 -0.7863  0.5142 -1.6538
 8249TIP3   OH246161   2.378   5.818  16.633 -0.2123  0.4251 -0.0661
 8249TIP3    H146162   2.289   5.839  16.609 -1.1428 -1.1461  1.7032
 8249TIP3    H246163   2.391   5.862  16.718  1.0036  1.3026 -0.6723
 8250TIP3   OH246164   4.645   3.623  16.008 -0.4653 -0.0666 -0.0064
 8250TIP3    H146165   4.572   3.605  16.067 -0.3589  0.4757  0.2947
 8250TIP3    H246166   4.641   3.717  15.994 -0.5195 -0.1932 -0.9085
 8251TIP3   OH246167   0.633   3.406  11.280 -1.0585  0.2675 -0.3852
 8251TIP3    H146168   0.554   3.430  11.231  0.0341  3.3097 -0.8283
 8251TIP3    H246169   0.679   3.489  11.294  1.9012 -1.3444  0.1900
 8252TIP3   OH246170   2.544   0.759   1.147 -0.8427  0.6353  0.3228
 8252TIP3    H146171   2.491   0.717   1.079 -0.9139 -0.4217  0.9949
 8252TIP3    H246172   2.634   0.755   1.114 -0.9370  0.5655  0.0736
 8253TIP3   OH246173   5.038   5.279   6.313  0.2178 -0.7045 -0.6568
 8253TIP3    H146174   5.102   5.321   6.255  1.5283  0.5299  1.5509
 8253TIP3    H246175   5.088   5.214   6.361 -0.1629  0.1540  0.9870
 8254TIP3   OH246176   0.212   6.246   0.832 -0.1572  0.3255  0.2989
 8254TIP3    H146177   0.215   6.278   0.743  0.5029  1.8622  0.8463
 8254TIP3    H246178   0.239   6.154   0.826 -2.3501 -0.2705 -1.3394
 8255TIP3   OH246179   3.155   6.315   2.177  0.2668 -0.0252  0.8181
 8255TIP3    H146180   3.161   6.254   2.250 -1.2460  0.6670  1.5592
 8255TIP3    H246181   3.195   6.396   2.209 -0.2266  0.2219  0.8166
 8256TIP3   OH246182   5.551   6.251   0.244  0.3995  0.5622  0.1593
 8256TIP3    H146183   5.474   6.232   0.297 -0.7058  2.5641 -0.6254
 8256TIP3    H246184   5.532   6.210   0.159  0.7705  0.0370  0.3201
 8257TIP3   OH246185   5.735   0.652   5.915  0.4575  0.2842  0.2876
 8257TIP3    H146186   5.724   0.560   5.889 -0.3016  0.2941  0.5600
 8257TIP3    H246187   5.647   0.688   5.912  0.7011  0.9060  0.5794
 8258TIP3   OH246188   5.797   4.927   4.322  0.5698  0.3857  0.2812
 8258TIP3    H146189   5.837   4.941   4.408  2.2584 -0.1913 -0.3679
 8258TIP3    H246190   5.736   4.854   4.336  1.7390 -0.5413  0.7567
 8259TIP3   OH246191   2.360   1.437  15.214 -0.1883 -0.1613  0.5344
 8259TIP3    H146192   2.336   1.442  15.307 -2.0673  0.9902  0.0258
 8259TIP3    H246193   2.421   1.363  15.210 -0.0578 -0.2564  2.6708
 8260TIP3   OH246194   1.761   5.437  17.166  0.4908 -0.5136 -0.9308
 8260TIP3    H146195   1.816   5.378  17.114  1.1157 -0.2299 -0.5986
 8260TIP3    H246196   1.807   5.445  17.250  0.4334  0.4866 -0.9885
 8261TIP3   OH246197   2.608   3.631   3.027 -0.2890 -0.2460 -0.7069
 8261TIP3    H146198   2.621   3.708   2.972  2.0431 -0.6467 -0.8203
 8261TIP3    H246199   2.593   3.666   3.115 -0.6670  0.3317 -0.9922
 8262TIP3   OH246200   4.576   3.299  16.536  0.0651 -0.6707  0.3385
 8262TIP3    H146201   4.667   3.284  16.563  0.6964 -1.1436 -1.8351
 8262TIP3    H246202   4.524   3.280  16.614  1.8554  0.3702  1.8636
 8263TIP3   OH246203   5.441   1.629  13.579  0.2958 -0.1613  0.1337
 8263TIP3    H146204   5.529   1.648  13.611  0.3979 -0.2523 -0.0886
 8263TIP3    H246205   5.388   1.620  13.658  0.1389  1.4844  0.2421
 8264TIP3   OH246206   2.538   4.881  12.209 -0.4593 -0.6840  0.1287
 8264TIP3    H146207   2.465   4.924  12.254  0.6598  0.8839  0.5195
 8264TIP3    H246208   2.504   4.862  12.121 -0.7178  2.0299 -0.4515
 8265TIP3   OH246209   4.956   0.770   5.479 -0.0299 -0.6021  0.5546
 8265TIP3    H146210   4.862   0.770   5.463 -0.1813 -0.9680  1.3963
 8265TIP3    H246211   4.985   0.857   5.450 -0.9685  0.2833  2.1466
 8266TIP3   OH246212   3.356   0.406  11.966  0.1995 -0.2668  0.2651
 8266TIP3    H146213   3.345   0.411  11.871  0.9289 -0.4160  0.1691
 8266TIP3    H246214   3.277   0.360  11.996  0.3766 -0.9982 -0.3592
 8267TIP3   OH246215   5.430   0.093   3.262  0.4616 -0.1521 -0.4433
 8267TIP3    H146216   5.438   0.001   3.287 -1.6983 -0.2321  0.1418
 8267TIP3    H246217   5.518   0.130   3.277  0.7836 -1.5687  1.6063
 8268TIP3   OH246218   4.051   4.903  15.565  0.3888 -0.0778  0.0850
 8268TIP3    H146219   4.108   4.980  15.565  0.4409  0.0150  3.2188
 8268TIP3    H246220   3.966   4.936  15.595 -0.4027 -0.7929 -1.2842
 8269TIP3   OH246221   5.272   3.314  15.909 -0.3495 -0.3186  0.3233
 8269TIP3    H146222   5.207   3.347  15.971 -2.8451  0.6534 -2.5522
 8269TIP3    H246223   5.240   3.227  15.885 -0.2291 -0.1240 -0.5854
 8270TIP3   OH246224   3.058   5.607   6.185  0.0207 -0.0869 -0.5529
 8270TIP3    H146225   3.096   5.603   6.097 -0.9790 -0.2708 -0.9887
 8270TIP3    H246226   3.054   5.700   6.206 -0.0003 -0.0277 -0.8198
 8271TIP3   OH246227   5.531   5.455  15.248 -0.2511  0.4281 -0.2229
 8271TIP3    H146228   5.477   5.431  15.323 -0.7870 -0.2702 -0.8100
 8271TIP3    H246229   5.592   5.382  15.238  2.1700  2.0515  1.6096
 8272TIP3   OH246230   5.122   3.330  12.077  0.0824 -0.8852  0.1833
 8272TIP3    H146231   5.033   3.363  12.073  0.0158 -0.5628  2.5551
 8272TIP3    H246232   5.167   3.370  12.003 -1.2773  0.4502  0.0357
 8273TIP3   OH246233   6.007   5.997  14.463 -0.3595  0.5154 -0.3969
 8273TIP3    H146234   6.025   6.073  14.407 -0.5827 -0.0956 -1.3031
 8273TIP3    H246235   5.918   5.971  14.442 -1.1721  1.4124  1.6166
 8274TIP3   OH246236   3.991   4.848   5.967  0.0050 -0.5920  0.1228
 8274TIP3    H146237   3.933   4.802   6.028 -0.0220  0.3281  0.8297
 8274TIP3    H246238   3.938   4.919   5.933  0.4583 -0.2436  0.1314
 8275TIP3   OH246239   1.797   0.313   4.907 -0.3831  0.1291  0.0739
 8275TIP3    H146240   1.860   0.280   4.972  0.7156 -0.3276 -1.1939
 8275TIP3    H246241   1.848   0.373   4.853 -1.3233  0.5932 -0.3190
 8276TIP3   OH246242   0.775   6.283   4.954  0.1120 -0.2443 -0.2471
 8276TIP3    H146243   0.820   6.316   5.032 -0.6417  0.0154  0.0900
 8276TIP3    H246244   0.835   6.217   4.918  1.4244  1.1204 -0.6570
 8277TIP3   OH246245   0.381   1.971  11.391 -0.0739  0.2041  0.1998
 8277TIP3    H146246   0.419   2.044  11.342 -0.5317 -0.3508 -1.0271
 8277TIP3    H246247   0.356   1.908  11.323 -0.5568 -0.6745  1.1785
 8278TIP3   OH246248   5.260   5.808   5.483 -0.9721  0.2536  0.2143
 8278TIP3    H146249   5.197   5.875   5.455 -1.1868 -0.0587 -0.0540
 8278TIP3    H246250   5.336   5.858   5.511 -0.0489  0.5931 -2.5469
 8279TIP3   OH246251   0.308   6.075  12.947 -0.4598  0.0770  0.4489
 8279TIP3    H146252   0.288   5.999  13.002 -1.9423  0.6587  0.7715
 8279TIP3    H246253   0.275   6.150  12.997  0.8820  0.9375  0.0824
 8280TIP3   OH246254   2.374   6.140   3.443 -0.3094 -0.1558  0.4161
 8280TIP3    H146255   2.464   6.115   3.462  0.4865  1.4393 -1.0074
 8280TIP3    H246256   2.362   6.120   3.350 -0.7850  1.4052  0.1209
 8281TIP3   OH246257   3.190   5.301  14.740  0.1160 -0.0297  0.4545
 8281TIP3    H146258   3.114   5.296  14.797 -0.3121 -2.1843 -0.2287
 8281TIP3    H246259   3.263   5.319  14.799 -0.6749  0.4427  1.3183
 8282TIP3   OH246260   3.386   5.628   0.028 -0.2956 -0.3663  0.2663
 8282TIP3    H146261   3.390   5.646  -0.066  0.4284 -0.1485  0.3371
 8282TIP3    H246262   3.476   5.607   0.053  0.1222  2.3622  1.4437
 8283TIP3   OH246263   0.231   0.510   6.388  0.1734 -0.1476  0.1000
 8283TIP3    H146264   0.184   0.533   6.468  0.5449 -1.0119  0.5748
 8283TIP3    H246265   0.184   0.557   6.319 -0.7136 -0.1260  0.6980
 8284TIP3   OH246266   5.346   2.348  11.406 -0.5055  0.9519 -0.0849
 8284TIP3    H146267   5.419   2.306  11.451 -1.6872 -0.6304  0.4571
 8284TIP3    H246268   5.387   2.412  11.349  1.4035 -0.7215 -0.7124
 8285TIP3   OH246269   2.297   1.631   6.359  0.1638  0.3223  0.1336
 8285TIP3    H146270   2.202   1.628   6.344  0.3660  0.1263 -1.3362
 8285TIP3    H246271   2.312   1.567   6.428 -0.9364  1.4909  1.5205
 8286TIP3   OH246272   0.572   3.076   0.599 -0.0319  0.3655  0.1152
 8286TIP3    H146273   0.529   3.064   0.515  1.9797 -0.2900 -0.8616
 8286TIP3    H246274   0.572   2.988   0.639  0.6406  0.3056 -0.0141
 8287TIP3   OH246275   4.717   1.788   2.854 -0.2293  0.2621  0.1177
 8287TIP3    H146276   4.765   1.716   2.814  0.4006 -0.1091  1.5035
 8287TIP3    H246277   4.777   1.823   2.920 -0.8232  1.5672 -0.0037
 8288TIP3   OH246278   3.743   3.443   3.270 -0.4395  0.2204 -0.2551
 8288TIP3    H146279   3.837   3.441   3.291 -0.4654 -1.9277 -0.1118
 8288TIP3    H246280   3.740   3.452   3.175 -0.1430  1.7461 -0.1416
 8289TIP3   OH246281   6.358   4.778   1.005 -0.0801 -0.0808 -0.1439
 8289TIP3    H146282   6.414   4.732   1.068 -0.3847 -0.9128 -0.4567
 8289TIP3    H246283   6.355   4.868   1.036 -1.2091 -0.7009  1.7344
 8290TIP3   OH246284   6.198   3.065   1.288  0.1212 -0.0027  0.4234
 8290TIP3    H146285   6.237   2.978   1.302 -0.5512 -0.4009 -0.0778
 8290TIP3    H246286   6.125   3.048   1.228  0.4116  1.0183 -0.2337
 8291TIP3   OH246287   6.003   5.659  14.480  0.0467  0.5719  0.7184
 8291TIP3    H146288   6.018   5.605  14.557  1.1981  0.9212  0.7568
 8291TIP3    H246289   5.963   5.739  14.514  3.1523  1.9846  1.4300
 8292TIP3   OH246290   4.755   0.173  16.352 -0.0487  0.9966  0.2538
 8292TIP3    H146291   4.841   0.203  16.381  0.2380 -0.7447  1.3454
 8292TIP3    H246292   4.731   0.105  16.415 -1.0737 -0.3555 -1.5000
 8293TIP3   OH246293   3.815   0.593  17.038  0.2599  0.4665  0.5231
 8293TIP3    H146294   3.881   0.660  17.055  0.4384  0.5158 -0.3519
 8293TIP3    H246295   3.848   0.544  16.963 -1.3475  1.3750 -0.8353
 8294TIP3   OH246296   3.423   3.211  11.723 -0.1266  0.3271  0.0965
 8294TIP3    H146297   3.475   3.134  11.702 -1.8306 -1.6788  2.6376
 8294TIP3    H246298   3.481   3.264  11.779  0.8315  0.6727 -1.1586
 8295TIP3   OH246299   4.195   4.246   0.722 -0.4028 -0.5218  0.4019
 8295TIP3    H146300   4.218   4.172   0.779  1.5632  0.0944  0.4868
 8295TIP3    H246301   4.265   4.310   0.737 -1.4363  0.8799 -0.5327
 8296TIP3   OH246302   2.949   3.714   4.429  0.0771  0.2556 -0.3513
 8296TIP3    H146303   2.880   3.684   4.370  0.5696 -0.2122 -0.6921
 8296TIP3    H246304   3.028   3.671   4.398  0.7810  1.8117 -0.7760
 8297TIP3   OH246305   6.462   4.687   4.151 -0.1205  0.4594 -0.5349
 8297TIP3    H146306   6.537   4.632   4.174  0.3509  0.7714 -1.2980
 8297TIP3    H246307   6.499   4.759   4.100 -0.9302  0.6556 -0.8716
 8298TIP3   OH246308   2.093   4.817  15.968  0.3849  0.2042 -0.3355
 8298TIP3    H146309   2.014   4.863  15.994 -0.1272 -0.8500  0.0344
 8298TIP3    H246310   2.165   4.872  15.999 -0.2009  0.8306 -0.0754
 8299TIP3   OH246311   5.754   4.713   5.211 -0.3391 -0.0757  0.2253
 8299TIP3    H146312   5.827   4.769   5.236 -0.9197  0.2268  1.2634
 8299TIP3    H246313   5.727   4.670   5.292 -2.3763  1.0764  0.2250
 8300TIP3   OH246314   0.121   3.796  14.630  0.6584  0.3418  0.7135
 8300TIP3    H146315   0.184   3.752  14.687 -0.3586  0.6376  2.1365
 8300TIP3    H246316   0.038   3.752  14.649  0.3391  0.2454 -0.7918
 8301TIP3   OH246317   2.245   1.547   1.410  0.9405  0.0182 -0.1911
 8301TIP3    H146318   2.179   1.483   1.439 -0.9928  2.6977  1.9009
 8301TIP3    H246319   2.195   1.628   1.396  3.4515  1.5098 -1.1452
 8302TIP3   OH246320   4.349   4.137  14.934  0.4322  0.2271  0.2553
 8302TIP3    H146321   4.289   4.168  15.002 -0.1350 -0.3858  0.0393
 8302TIP3    H246322   4.292   4.102  14.866  1.0096  0.4538 -0.3577
 8303TIP3   OH246323   1.066   3.329  16.291  0.1628 -0.2881  0.8572
 8303TIP3    H146324   1.060   3.385  16.213  1.2055  0.8249  1.5382
 8303TIP3    H246325   1.158   3.306  16.297 -0.0502 -1.0446  1.3150
 8304TIP3   OH246326   2.807   0.698   0.663  0.3282  0.0432 -0.2889
 8304TIP3    H146327   2.805   0.792   0.646  1.1999  0.2410  0.5917
 8304TIP3    H246328   2.843   0.660   0.583 -0.7649  0.3638 -0.9509
 8305TIP3   OH246329   1.786   2.628   0.896  0.5535  0.0812  0.3104
 8305TIP3    H146330   1.816   2.688   0.828  3.6170  0.7501  2.0541
 8305TIP3    H246331   1.731   2.682   0.953  2.0536  0.9280  1.0243
 8306TIP3   OH246332   0.754   5.258  14.460 -0.3762 -0.2075  0.2472
 8306TIP3    H146333   0.816   5.227  14.525 -2.4227 -0.1501  2.3347
 8306TIP3    H246334   0.730   5.180  14.410 -0.1725 -0.6315  0.8019
 8307TIP3   OH246335   4.514   2.452  16.874 -0.2303 -0.0778  0.2923
 8307TIP3    H146336   4.483   2.511  16.942  0.1231 -0.0603  0.4431
 8307TIP3    H246337   4.488   2.365  16.904  0.0450 -0.0834  0.5207
 8308TIP3   OH246338   1.972   0.169  12.886 -0.7387 -0.5503  0.3319
 8308TIP3    H146339   1.920   0.219  12.949  0.6164 -0.9093  1.8290
 8308TIP3    H246340   2.063   0.192  12.907 -0.2325 -0.7216 -1.4982
 8309TIP3   OH246341   1.743   0.452  16.274  0.3641 -0.6114 -0.6729
 8309TIP3    H146342   1.776   0.436  16.362  2.3786 -0.5480 -1.3480
 8309TIP3    H246343   1.662   0.401  16.269  1.2052 -2.1734  0.6066
 8310TIP3   OH246344   6.044   5.240  15.908 -0.0391 -0.0008  0.1997
 8310TIP3    H146345   6.043   5.296  15.986 -1.6223  0.3076 -0.0163
 8310TIP3    H246346   6.137   5.219  15.896  0.6078  2.3696  0.4362
 8311TIP3   OH246347   4.915   1.927  11.953  0.6456 -0.0415 -0.1037
 8311TIP3    H146348   4.820   1.922  11.965  0.7989 -0.2902  1.1876
 8311TIP3    H246349   4.942   1.836  11.938  0.7791 -0.1102  0.5100
 8312TIP3   OH246350   4.574   3.725   2.842  0.3820  0.7871  0.2594
 8312TIP3    H146351   4.587   3.685   2.928  1.0960  2.7665  1.1468
 8312TIP3    H246352   4.480   3.718   2.826  0.5314 -1.6148  0.1073
 8313TIP3   OH246353   1.476   1.721   4.723 -0.0126 -0.2315  0.1461
 8313TIP3    H146354   1.553   1.742   4.669  0.5683 -0.1371  0.9882
 8313TIP3    H246355   1.412   1.688   4.661  1.0359 -1.2069 -0.4651
 8314TIP3   OH246356   5.656   2.752   1.205 -0.5900  0.1896 -0.2658
 8314TIP3    H146357   5.671   2.664   1.172 -0.5799 -0.2922  0.9626
 8314TIP3    H246358   5.736   2.774   1.253 -0.4493  1.0120 -0.8591
 8315TIP3   OH246359   5.118   2.342   1.915 -0.0237  0.4109 -0.1021
 8315TIP3    H146360   5.029   2.309   1.903  0.2087 -1.2286  2.0923
 8315TIP3    H246361   5.174   2.280   1.868  0.0288  1.0400 -0.8868
 8316TIP3   OH246362   1.173   4.743   2.738  0.5676  0.3003  0.4200
 8316TIP3    H146363   1.103   4.678   2.728  1.5876 -0.6916 -0.5679
 8316TIP3    H246364   1.144   4.799   2.810 -1.0472 -0.3257  0.3009
 8317TIP3   OH246365   6.486   0.657   2.388  0.3540 -0.0109  0.5935
 8317TIP3    H146366   6.451   0.741   2.417  0.7780  0.5039 -0.3262
 8317TIP3    H246367   6.412   0.613   2.346  0.1838 -0.0063  0.8882
 8318TIP3   OH246368   4.488   5.847  13.946 -0.2877  0.1613 -0.2909
 8318TIP3    H146369   4.420   5.853  13.879  0.3348  1.4241 -0.8545
 8318TIP3    H246370   4.458   5.779  14.005 -0.6730 -1.2956 -2.0761
 8319TIP3   OH246371   2.033   6.772  13.693  0.0308  0.0597  0.0203
 8319TIP3    H146372   1.983   6.851  13.712  0.0968  0.3058 -0.7965
 8319TIP3    H246373   2.071   6.788  13.607  1.8360  0.0403  0.7792
 8320TIP3   OH246374   3.395   5.542   0.989  0.2896  0.2618  0.0483
 8320TIP3    H146375   3.464   5.513   0.928  1.1191  0.5299  0.8302
 8320TIP3    H246376   3.314   5.505   0.954  1.0042 -1.1546 -0.1768
 8321TIP3   OH246377   0.450   4.454   4.795  0.4226  0.7238 -0.0434
 8321TIP3    H146378   0.537   4.415   4.786  0.0500 -0.3306  0.7048
 8321TIP3    H246379   0.463   4.528   4.854  0.8100  0.5953  0.0351
 8322TIP3   OH246380   5.541   4.892  11.194 -0.2870 -0.1598  0.4140
 8322TIP3    H146381   5.501   4.810  11.164  1.3616 -1.1790  0.8352
 8322TIP3    H246382   5.471   4.957  11.188 -1.7000 -1.6334  0.2438
 8323TIP3   OH246383   4.967   4.989  10.908  0.2205 -0.6206  0.2672
 8323TIP3    H146384   4.932   4.923  10.968 -1.3293  0.3953  0.5436
 8323TIP3    H246385   4.985   5.064  10.964  1.3805 -0.5866 -0.1359
 8324TIP3   OH246386   2.783   2.415   3.858  0.0147  0.5397  0.6871
 8324TIP3    H146387   2.789   2.511   3.860 -1.3954  0.7661 -1.7417
 8324TIP3    H246388   2.794   2.389   3.949 -0.6324  3.0989  1.5970
 8325TIP3   OH246389   6.496   6.213   3.009  0.4192  0.7730 -1.0136
 8325TIP3    H146390   6.489   6.177   2.920  0.0817 -1.1848 -0.2397
 8325TIP3    H246391   6.436   6.160   3.061  0.6103  1.8885  0.4057
 8326TIP3   OH246392   0.909   0.471  12.224  0.1397 -0.5796  0.0048
 8326TIP3    H146393   0.832   0.477  12.280  0.8169  1.7010  0.7615
 8326TIP3    H246394   0.874   0.469  12.135 -0.8117  1.5041  0.2840
 8327TIP3   OH246395   3.825   3.713   2.120 -0.0352  0.5324 -0.8647
 8327TIP3    H146396   3.908   3.759   2.129  0.3943 -0.0518 -1.7298
 8327TIP3    H246397   3.820   3.657   2.197  0.2913  0.7033 -0.7184
 8328TIP3   OH246398   4.065   1.134   0.357  0.0679 -0.1086  0.2293
 8328TIP3    H146399   4.160   1.142   0.362  0.4275 -2.9790 -0.1569
 8328TIP3    H246400   4.041   1.078   0.431 -1.0603 -0.8193 -0.6327
 8329TIP3   OH246401   0.566   2.651  12.700 -0.2814 -0.4494 -0.3852
 8329TIP3    H146402   0.585   2.716  12.767 -0.5790  0.8067 -1.4837
 8329TIP3    H246403   0.581   2.567  12.743  0.9387  0.3513  0.8111
 8330TIP3   OH246404   3.613   3.930   3.786 -0.0583 -0.3171 -0.4519
 8330TIP3    H146405   3.574   3.884   3.711  1.2971  0.2097 -1.5198
 8330TIP3    H246406   3.701   3.892   3.793 -0.6234 -1.3534  1.7875
 8331TIP3   OH246407   3.153   4.891  16.968 -0.3953  0.4025 -0.4759
 8331TIP3    H146408   3.197   4.966  17.009 -1.3975 -0.1746  1.8662
 8331TIP3    H246409   3.102   4.929  16.896  0.4064  1.7135 -0.3802
 8332TIP3   OH246410   6.199   0.512   0.178 -0.0260  0.1973  0.6970
 8332TIP3    H146411   6.263   0.465   0.232 -0.7327 -0.7731  0.7071
 8332TIP3    H246412   6.124   0.524   0.235 -2.1916 -3.8460 -0.8473
 8333TIP3   OH246413   3.896   0.239  11.459 -0.1081  0.4072 -0.9090
 8333TIP3    H146414   3.872   0.261  11.369 -1.3785 -0.3168 -0.7634
 8333TIP3    H246415   3.822   0.189  11.492  1.3847 -1.4502 -0.2513
 8334TIP3   OH246416   0.986   3.626  16.694  0.5907 -0.5675  0.5761
 8334TIP3    H146417   1.066   3.658  16.652  0.2878  0.2724  0.6187
 8334TIP3    H246418   0.958   3.553  16.639  1.9892 -1.6147  1.1809
 8335TIP3   OH246419   4.269   1.545  12.579  0.0893  0.0344 -0.7016
 8335TIP3    H146420   4.361   1.518  12.575  0.4964  1.2147 -0.0368
 8335TIP3    H246421   4.233   1.523  12.494  0.6243 -1.6596 -0.5268
 8336TIP3   OH246422   6.335   1.279   0.746 -0.6376  0.1648  0.1950
 8336TIP3    H146423   6.271   1.337   0.704  1.4904  1.4045 -1.4783
 8336TIP3    H246424   6.342   1.312   0.836 -0.6150  1.5237 -0.2904
 8337TIP3   OH246425   5.966   0.152   3.242 -0.0457 -0.3189 -0.2417
 8337TIP3    H146426   6.024   0.084   3.206  2.2693  2.6366 -2.5741
 8337TIP3    H246427   6.009   0.178   3.324  2.7450  2.3779 -2.3054
 8338TIP3   OH246428   3.102   5.488   5.640 -0.0033  0.3547 -0.2102
 8338TIP3    H146429   3.066   5.563   5.593 -1.9426  0.3497  1.1614
 8338TIP3    H246430   3.157   5.444   5.576 -1.2307  1.2677 -1.9626
 8339TIP3   OH246431   1.062   0.579  16.416  1.0849  0.1631  0.0502
 8339TIP3    H146432   1.009   0.575  16.495  0.7858  1.1783 -0.0814
 8339TIP3    H246433   1.151   0.595  16.447  1.1865 -0.6782  0.2277
 8340TIP3   OH246434   1.418   1.074   3.719 -0.0676 -1.1417  0.0114
 8340TIP3    H146435   1.369   0.998   3.748  0.5706 -1.5303  0.0777
 8340TIP3    H246436   1.352   1.132   3.680 -0.7433 -1.1681  1.0774
 8341TIP3   OH246437   2.388   6.790  13.789  0.2714  0.1564  0.1264
 8341TIP3    H146438   2.403   6.852  13.718  0.5500  1.6082  1.4184
 8341TIP3    H246439   2.314   6.826  13.838  0.2113 -0.7066  0.6993
 8342TIP3   OH246440   2.090   6.112   2.410 -0.3448 -0.5778 -0.3081
 8342TIP3    H146441   2.007   6.075   2.439  0.6208 -1.4884  1.4513
 8342TIP3    H246442   2.102   6.079   2.321 -2.5647  0.8487 -1.2280
 8343TIP3   OH246443   5.111   5.270  16.176 -0.3152 -0.0604 -0.4106
 8343TIP3    H146444   5.079   5.259  16.265  1.7380 -2.6906  0.1286
 8343TIP3    H246445   5.106   5.182  16.138  3.3167 -0.0488 -1.2030
 8344TIP3   OH246446   1.700   4.600  14.825  0.1079  0.3148 -0.3066
 8344TIP3    H146447   1.768   4.654  14.785  2.0333 -2.0177 -0.4210
 8344TIP3    H246448   1.638   4.584  14.755  1.8943 -1.2763 -1.6301
 8345TIP3   OH246449   4.164   5.561  11.112 -0.0588 -0.0691  0.6576
 8345TIP3    H146450   4.068   5.554  11.119 -0.1177  1.0466  1.1451
 8345TIP3    H246451   4.195   5.474  11.135 -1.0213 -1.0778 -1.5431
 8346TIP3   OH246452   2.937   4.704  16.772  0.4180 -0.0318  0.2240
 8346TIP3    H146453   3.020   4.662  16.746  0.8507  0.0398  1.4230
 8346TIP3    H246454   2.950   4.796  16.752  0.2346 -0.1678 -0.5404
 8347TIP3   OH246455   4.334   4.822   2.449  0.2105  0.1022 -0.0892
 8347TIP3    H146456   4.339   4.821   2.545  1.4588  0.9325 -0.1347
 8347TIP3    H246457   4.407   4.768   2.421 -0.2747 -0.3061 -0.5894
 8348TIP3   OH246458   4.717   4.293  12.252  0.3141 -0.5006 -0.1298
 8348TIP3    H146459   4.677   4.374  12.221 -0.7370 -1.4672 -1.3849
 8348TIP3    H246460   4.647   4.247  12.299  0.9697 -0.5987  0.7894
 8349TIP3   OH246461   0.651   0.258  11.878 -0.2735  0.1902 -0.1524
 8349TIP3    H146462   0.730   0.309  11.860 -0.4557  0.8607  0.8788
 8349TIP3    H246463   0.680   0.167  11.875  0.3241  0.3922 -0.7445
 8350TIP3   OH246464   3.160   3.915   2.372 -0.3731  0.3370  0.2518
 8350TIP3    H146465   3.073   3.875   2.373 -0.2577 -0.1677 -2.6435
 8350TIP3    H246466   3.191   3.904   2.283  1.4193  3.2568  0.3620
 8351TIP3   OH246467   0.555   1.301  15.502 -0.1525 -0.4351  0.2740
 8351TIP3    H146468   0.564   1.289  15.596  3.1705  1.3489  0.3399
 8351TIP3    H246469   0.525   1.391  15.492 -0.4071 -0.5887 -0.3881
 8352TIP3   OH246470   3.884   0.265  11.147 -0.7460  0.4011  0.0999
 8352TIP3    H146471   3.945   0.191  11.145  0.6792  1.5284 -1.7404
 8352TIP3    H246472   3.799   0.226  11.129 -0.1389 -0.8732 -0.1382
 8353TIP3   OH246473   2.654   1.395   5.038 -0.0878 -0.7051 -0.0588
 8353TIP3    H146474   2.724   1.424   5.097 -0.8832  0.3565  0.3929
 8353TIP3    H246475   2.584   1.366   5.097 -0.4397 -0.7481 -0.4944
 8354TIP3   OH246476   1.403   2.220  16.219  0.3268 -0.4752 -0.4266
 8354TIP3    H146477   1.353   2.148  16.256 -2.2870  0.4284 -1.9702
 8354TIP3    H246478   1.476   2.177  16.174  1.1599 -1.8143  2.0026
 8355TIP3   OH246479   4.217   3.386  17.147  0.2232  0.0113  0.2603
 8355TIP3    H146480   4.146   3.336  17.107  1.3642 -0.1218 -1.7129
 8355TIP3    H246481   4.291   3.325  17.149  0.7997  0.7001  0.5917
 8356TIP3   OH246482   4.646   2.060   1.771  0.7249  0.3760 -0.7577
 8356TIP3    H146483   4.591   2.074   1.693 -0.0786 -2.0132 -0.6879
 8356TIP3    H246484   4.588   2.078   1.845  0.4928 -0.5887 -0.6980
 8357TIP3   OH246485   2.073   3.586   1.542 -0.6154 -0.8759  0.0200
 8357TIP3    H146486   2.019   3.568   1.465  0.3078 -1.0782 -0.5940
 8357TIP3    H246487   2.104   3.676   1.530  0.9212 -1.4731 -0.7334
 8358TIP3   OH246488   3.752   2.034  13.558  0.1969  0.2883 -0.3634
 8358TIP3    H146489   3.833   2.076  13.529  0.5945 -0.1943  0.0272
 8358TIP3    H246490   3.774   1.941  13.565 -0.5199  0.0828 -0.6911
 8359TIP3   OH246491   2.908   1.191  13.367  0.0265  0.3983 -0.7224
 8359TIP3    H146492   2.937   1.166  13.279  0.4763  1.4054 -0.8684
 8359TIP3    H246493   2.815   1.170  13.368  0.4416 -1.6959 -0.6803
 8360TIP3   OH246494   3.833   2.994  12.969  0.0141 -0.1537 -0.2881
 8360TIP3    H146495   3.856   3.026  12.881  2.7235  1.7925  0.9671
 8360TIP3    H246496   3.744   3.026  12.984  0.4645  1.7532 -1.3849
 8361TIP3   OH246497   3.739   4.412  14.709 -0.1594  0.2619 -0.5231
 8361TIP3    H146498   3.751   4.488  14.653  0.3761  0.4648 -0.1330
 8361TIP3    H246499   3.786   4.433  14.790 -2.1981  0.6381  0.6455
 8362TIP3   OH246500   5.352   5.427  13.965 -0.4195 -0.2777  0.8275
 8362TIP3    H146501   5.330   5.511  14.005  0.9332  0.2482  0.5133
 8362TIP3    H246502   5.372   5.448  13.874  0.4592 -0.8357  0.8762
 8363TIP3   OH246503   6.129   5.768   2.468 -0.0959  0.2306  0.0860
 8363TIP3    H146504   6.098   5.858   2.456 -0.5688  0.2783  1.4669
 8363TIP3    H246505   6.049   5.715   2.463  0.1558 -0.0991 -0.5250
 8364TIP3   OH246506   0.756   5.550  15.795  0.5196  0.2285 -0.7155
 8364TIP3    H146507   0.748   5.546  15.700 -1.3817 -3.7667 -0.5812
 8364TIP3    H246508   0.670   5.580  15.825  0.7764  0.4804 -0.2284
 8365TIP3   OH246509   4.025   1.701  11.632 -0.6052 -0.3196 -0.3551
 8365TIP3    H146510   3.990   1.620  11.595  0.5339 -1.4655  0.9912
 8365TIP3    H246511   4.040   1.681  11.724 -1.0677  1.6973  0.1935
 8366TIP3   OH246512   3.382   5.971  14.927  0.4856  0.3921  0.2973
 8366TIP3    H146513   3.376   5.878  14.948  0.8263  0.5707  1.2286
 8366TIP3    H246514   3.458   6.001  14.976 -0.0120  1.3028  0.5241
 8367TIP3   OH246515   6.710   0.215   2.607 -0.0436 -0.0421 -0.1835
 8367TIP3    H146516   6.704   0.305   2.574  1.9730  1.2517  2.5536
 8367TIP3    H246517   6.645   0.211   2.677 -1.2219 -1.2866 -1.3068
 8368TIP3   OH246518   3.565   2.209   5.781 -0.3251  0.2121  0.1886
 8368TIP3    H146519   3.616   2.142   5.826 -0.8704  0.4719  1.2223
 8368TIP3    H246520   3.630   2.270   5.748  0.2700 -1.3096 -1.6701
 8369TIP3   OH246521   4.620   1.609  14.904 -0.6924 -0.1105 -0.9592
 8369TIP3    H146522   4.583   1.523  14.886 -3.0175  0.3979  0.9473
 8369TIP3    H246523   4.604   1.659  14.824 -0.9600 -0.9203 -1.4271
 8370TIP3   OH246524   1.445   5.568   2.844 -0.3099 -0.1988 -0.6293
 8370TIP3    H146525   1.511   5.503   2.867  0.2427  0.3124 -0.7446
 8370TIP3    H246526   1.408   5.538   2.761  1.3581  0.6593 -1.7344
 8371TIP3   OH246527   5.588   1.588   3.039  0.0712 -0.0127  0.0534
 8371TIP3    H146528   5.679   1.615   3.053 -0.0632  0.4446  0.0656
 8371TIP3    H246529   5.547   1.598   3.125 -0.1583  0.4585 -0.1055
 8372TIP3   OH246530   1.930   0.449  15.535  0.5568  0.3305  1.0649
 8372TIP3    H146531   1.984   0.484  15.464 -1.6635 -4.3915 -3.5553
 8372TIP3    H246532   1.986   0.385  15.578  1.0506  1.2857  1.8958
 8373TIP3   OH246533   1.358   6.622  12.534 -0.3835  0.2787 -0.4496
 8373TIP3    H146534   1.347   6.641  12.440 -0.7634  0.3861 -0.3873
 8373TIP3    H246535   1.432   6.676  12.561 -0.6860  0.7466 -0.5462
 8374TIP3   OH246536   3.783   3.568   2.350  0.0139  0.8923 -0.0525
 8374TIP3    H146537   3.760   3.627   2.421  1.2666  0.4800  0.7265
 8374TIP3    H246538   3.705   3.514   2.337 -1.3341  3.0007 -1.1213
 8375TIP3   OH246539   4.821   6.310  12.405  0.4546  0.2921 -0.3863
 8375TIP3    H146540   4.873   6.286  12.328  1.3523 -0.5236  0.4389
 8375TIP3    H246541   4.735   6.334  12.370  1.3953  1.7792 -1.8037
 8376TIP3   OH246542   5.313   6.110  12.855  0.6316  0.0883 -0.2089
 8376TIP3    H146543   5.321   6.063  12.772  1.8012 -0.5291  0.2320
 8376TIP3    H246544   5.280   6.197  12.830  2.5589  0.5095 -1.5405
 8377TIP3   OH246545   5.098   5.158  17.057 -0.0998 -0.7357  0.4454
 8377TIP3    H146546   5.097   5.072  17.099  0.7555 -0.8841  0.1748
 8377TIP3    H246547   5.069   5.142  16.967  2.3745 -1.1838 -0.3574
 8378TIP3   OH246548   2.544   3.325  15.807  0.3470  0.1993 -0.5125
 8378TIP3    H146549   2.520   3.379  15.732  0.6071  1.7468  0.4828
 8378TIP3    H246550   2.498   3.364  15.881  2.2061  0.3812  0.6152
 8379TIP3   OH246551   3.386   4.145   1.598  0.3567  0.5110  0.1688
 8379TIP3    H146552   3.362   4.054   1.584  1.8762  0.3032 -1.4333
 8379TIP3    H246553   3.398   4.153   1.693 -0.8755 -0.6361  0.4448
 8380TIP3   OH246554   1.129   5.704   3.527  0.3824  0.4314 -0.6144
 8380TIP3    H146555   1.051   5.687   3.474  2.4354 -0.7471 -3.5163
 8380TIP3    H246556   1.096   5.707   3.617 -2.9267 -0.4017 -1.6400
 8381TIP3   OH246557   2.191   6.495  10.874 -0.4106  0.5185  0.0862
 8381TIP3    H146558   2.101   6.473  10.850 -0.7170  0.6028  1.1359
 8381TIP3    H246559   2.227   6.538  10.796 -0.5418 -1.5496 -1.1841
 8382TIP3   OH246560   3.722   5.568  11.665 -0.4214  0.1367  0.4354
 8382TIP3    H146561   3.672   5.630  11.613 -1.4447  0.9796  2.3403
 8382TIP3    H246562   3.661   5.536  11.731  1.3237  0.6700  2.4140
 8383TIP3   OH246563   1.249   2.362  13.632  0.3900  0.1125  0.9105
 8383TIP3    H146564   1.323   2.327  13.682 -0.2720 -1.8617  0.5843
 8383TIP3    H246565   1.210   2.428  13.690  0.6150 -0.9552  2.3348
 8384TIP3   OH246566   2.801   2.556  15.808 -0.2263 -0.5970  0.5140
 8384TIP3    H146567   2.718   2.512  15.788 -1.2917  1.9704 -1.3463
 8384TIP3    H246568   2.842   2.569  15.722 -0.5354  2.8440  0.7438
 8385TIP3   OH246569   4.152   6.203  16.475  0.1308  0.4726 -0.2751
 8385TIP3    H146570   4.079   6.143  16.487  0.5589  0.3672  2.2628
 8385TIP3    H246571   4.119   6.288  16.502  0.2217  0.9623 -1.6113
 8386TIP3   OH246572   3.128   2.425  12.281  0.5773 -0.3436  0.2704
 8386TIP3    H146573   3.111   2.353  12.220 -0.4113 -0.2463  0.4044
 8386TIP3    H246574   3.045   2.434  12.329  0.8366  0.5971  0.5485
 8387TIP3   OH246575   0.350   2.734   4.137  0.0217  0.3349 -0.2928
 8387TIP3    H146576   0.393   2.682   4.205  1.8220 -2.1912 -3.1112
 8387TIP3    H246577   0.419   2.789   4.101 -0.6828  0.9951 -0.6555
 8388TIP3   OH246578   6.419   4.014  16.365 -0.1817  0.0190 -0.5796
 8388TIP3    H146579   6.514   4.005  16.375 -0.4569 -2.3574  0.5766
 8388TIP3    H246580   6.399   3.967  16.284 -0.4200  0.0389 -0.5333
 8389TIP3   OH246581   1.702   5.858   0.731 -0.5697 -0.1147  0.4680
 8389TIP3    H146582   1.698   5.950   0.756  0.5914  0.3839 -1.0003
 8389TIP3    H246583   1.617   5.822   0.756 -0.7054  1.1089  1.9033
 8390TIP3   OH246584   6.124   6.212  13.830  0.3009  0.0505 -0.3376
 8390TIP3    H146585   6.054   6.160  13.791 -0.2645  1.2051 -0.9017
 8390TIP3    H246586   6.173   6.247  13.755 -0.6125  2.0487 -0.0539
 8391TIP3   OH246587   6.573   5.048   0.293  0.1220 -0.1041 -0.3149
 8391TIP3    H146588   6.589   4.994   0.216  1.2906  1.9970 -1.6210
 8391TIP3    H246589   6.501   5.106   0.269 -0.6363 -0.5351  0.8074
 8392TIP3   OH246590   2.462   3.712  11.175 -0.9083  0.8977 -0.1729
 8392TIP3    H146591   2.443   3.690  11.266  0.5759  1.6523  0.3543
 8392TIP3    H246592   2.394   3.774  11.150 -2.3825 -0.6650 -0.1935
 8393TIP3   OH246593   5.766   6.678   1.614 -0.0964  0.2766  0.1296
 8393TIP3    H146594   5.831   6.616   1.647  0.1094  1.2983  1.7974
 8393TIP3    H246595   5.688   6.625   1.598  1.0170 -0.9337 -1.6746
 8394TIP3   OH246596   5.729   4.518  11.988  0.4957  0.7652 -0.6000
 8394TIP3    H146597   5.742   4.582  11.918 -0.0752  1.4047 -0.1353
 8394TIP3    H246598   5.767   4.437  11.954 -1.3412  0.5756 -2.3781
 8395TIP3   OH246599   6.075   1.940   4.637  0.2903 -0.0316 -0.2331
 8395TIP3    H146600   6.153   1.979   4.676 -0.7864  2.2421 -0.1966
 8395TIP3    H246601   6.055   1.994   4.561  0.0218 -1.9673 -1.6300
 8396TIP3   OH246602   5.609   4.576  13.448 -0.0905 -0.2947 -0.3034
 8396TIP3    H146603   5.587   4.486  13.472  0.1947 -0.0059  1.1689
 8396TIP3    H246604   5.640   4.616  13.530  0.7534  0.8501 -1.1373
 8397TIP3   OH246605   3.014   3.308  12.473 -0.4916 -0.0869 -0.4818
 8397TIP3    H146606   3.012   3.218  12.442  0.6154 -0.3278  0.1080
 8397TIP3    H246607   3.058   3.356  12.402  2.7965 -0.7778  0.8643
 8398TIP3   OH246608   6.472   2.360   3.625 -0.5899 -0.0567  0.2548
 8398TIP3    H146609   6.445   2.447   3.596  1.9639  1.1519  1.2136
 8398TIP3    H246610   6.460   2.305   3.547  1.2037  1.9908 -1.6395
 8399TIP3   OH246611   3.390   6.298   5.624  0.3583  0.4811  0.6783
 8399TIP3    H146612   3.340   6.379   5.627 -0.4050  0.1560 -1.5319
 8399TIP3    H246613   3.377   6.265   5.535  1.9364 -1.2580  1.0342
 8400TIP3   OH246614   6.251   4.095   0.455 -0.5420  0.1910 -0.3014
 8400TIP3    H146615   6.253   4.008   0.415 -0.8768 -0.1834  0.4608
 8400TIP3    H246616   6.227   4.154   0.384  0.6085 -0.2010 -1.0495
 8401TIP3   OH246617   5.290   1.647  14.176  0.0641  0.5622 -0.1490
 8401TIP3    H146618   5.295   1.598  14.094  0.5996  0.0449  0.1785
 8401TIP3    H246619   5.366   1.706  14.173  1.4960 -1.1072  0.9767
 8402TIP3   OH246620   5.444   3.596   1.489 -0.2728  0.6275 -0.3868
 8402TIP3    H146621   5.478   3.601   1.578  0.4893  2.3011 -0.7278
 8402TIP3    H246622   5.515   3.558   1.438  0.2892  2.0245 -0.6966
 8403TIP3   OH246623   3.057   6.770  13.612  0.2673  0.0869 -0.0458
 8403TIP3    H146624   3.089   6.737  13.528 -0.5231  0.7375 -0.6174
 8403TIP3    H246625   3.092   6.859  13.618 -1.0619  0.6699 -0.5047
 8404TIP3   OH246626   6.055   6.438  15.325 -0.1317 -0.1595 -0.8026
 8404TIP3    H146627   5.993   6.465  15.257  0.7856 -0.0898 -1.6373
 8404TIP3    H246628   6.045   6.343  15.330  0.2364 -0.2375 -1.4838
 8405TIP3   OH246629   5.808   0.910  15.048  0.4061 -0.0692 -0.1034
 8405TIP3    H146630   5.790   0.847  15.118 -1.7745  1.4137  0.7455
 8405TIP3    H246631   5.895   0.944  15.068 -0.2411  0.4627  2.0487
 8406TIP3   OH246632   6.544   5.608  16.031  0.2492 -0.3183 -0.2648
 8406TIP3    H146633   6.599   5.671  16.077 -0.0986  0.8180 -1.3629
 8406TIP3    H246634   6.482   5.577  16.098 -0.6344  1.7411 -0.0615
 8407TIP3   OH246635   4.451   2.192  16.126  0.3405  0.5436 -0.2024
 8407TIP3    H146636   4.498   2.239  16.057  0.2245  0.3802 -0.3926
 8407TIP3    H246637   4.416   2.261  16.183  2.7554  0.6891  1.2721
 8408TIP3   OH246638   0.761   6.383  12.477  0.0196 -0.2333 -0.5959
 8408TIP3    H146639   0.760   6.291  12.503 -2.6379  0.4044  2.1285
 8408TIP3    H246640   0.675   6.399  12.438  0.8576  0.8831 -2.1106
 8409TIP3   OH246641   6.311   0.397  15.560 -0.2352 -0.1821 -0.2710
 8409TIP3    H146642   6.243   0.452  15.597 -0.8776 -1.0964 -0.0738
 8409TIP3    H246643   6.300   0.312  15.602  1.3870 -0.2076  0.1934
 8410TIP3   OH246644   2.093   6.070  16.781  0.1347 -0.1191 -0.2077
 8410TIP3    H146645   2.039   6.005  16.735  1.8156 -1.7845  0.0502
 8410TIP3    H246646   2.123   6.024  16.860 -0.8287  1.9232  1.4215
 8411TIP3   OH246647   1.408   5.700  12.043 -0.0565 -0.3052  0.3177
 8411TIP3    H146648   1.319   5.676  12.018 -0.3361 -0.6219  1.5693
 8411TIP3    H246649   1.439   5.756  11.971 -1.5819  0.5516  0.2920
 8412TIP3   OH246650   0.488   0.528   2.875  0.5016 -0.1848  0.3643
 8412TIP3    H146651   0.440   0.554   2.796  1.7564 -0.1048 -0.3903
 8412TIP3    H246652   0.473   0.601   2.936  1.6178  1.0203 -0.7251
 8413TIP3   OH246653   6.414   3.600   4.568  0.3617 -0.7028  0.2795
 8413TIP3    H146654   6.334   3.628   4.614 -0.1975 -0.6167 -0.7216
 8413TIP3    H246655   6.441   3.677   4.518  0.2023 -1.1891 -0.5725
 8414TIP3   OH246656   3.030   2.737  13.952  0.1860  0.0849  0.5535
 8414TIP3    H146657   2.937   2.722  13.934  0.3102  0.4921 -0.4839
 8414TIP3    H246658   3.031   2.777  14.039 -0.5955 -0.1133  0.6629
 8415TIP3   OH246659   1.678   4.546   5.423 -0.5238  0.2283 -0.0256
 8415TIP3    H146660   1.620   4.532   5.498 -1.1495  3.3239  0.1804
 8415TIP3    H246661   1.619   4.571   5.352  0.3416  0.4860 -0.6662
 8416TIP3   OH246662   5.424   3.525  13.128 -0.4692 -0.3923  0.0700
 8416TIP3    H146663   5.487   3.457  13.151 -2.9371 -2.2857  1.7331
 8416TIP3    H246664   5.390   3.498  13.043  0.4674  0.3325 -0.5655
 8417TIP3   OH246665   6.015   5.911   0.043  0.6989  0.2050 -0.3351
 8417TIP3    H146666   5.962   5.841   0.082  0.9785 -0.0209 -0.3578
 8417TIP3    H246667   5.992   5.989   0.094 -1.1322  0.5465 -1.5984
 8418TIP3   OH246668   2.715   0.930  14.564 -0.6014  0.4012 -0.0871
 8418TIP3    H146669   2.687   0.902  14.651  1.2802 -0.8057  0.2102
 8418TIP3    H246670   2.636   0.961  14.521 -1.8351 -0.3559  1.5450
 8419TIP3   OH246671   3.640   2.054   1.418 -0.7051 -0.0052  0.0511
 8419TIP3    H146672   3.634   1.998   1.341  0.1626  0.1129 -0.1072
 8419TIP3    H246673   3.700   2.124   1.393  0.9393 -0.8538  1.3549
 8420TIP3   OH246674   3.534   5.177   0.936  0.1707 -0.4221  0.4139
 8420TIP3    H146675   3.497   5.095   0.903  0.4446 -0.4559  0.1895
 8420TIP3    H246676   3.461   5.219   0.981 -0.0639 -0.6275  0.2307
 8421TIP3   OH246677   0.084   1.857   3.958  0.1953 -0.3199  0.0481
 8421TIP3    H146678   0.130   1.836   4.038  0.0574 -0.2886  0.1366
 8421TIP3    H246679   0.108   1.948   3.939 -0.2912 -0.1118  0.4133
 8422TIP3   OH246680   4.929   0.919   2.036 -0.0695 -0.3008 -0.1940
 8422TIP3    H146681   5.002   0.963   2.079  0.7722 -1.1479 -0.7117
 8422TIP3    H246682   4.873   0.990   2.006  2.0526  0.5656 -2.4315
 8423TIP3   OH246683   2.025   5.384  16.110  0.6238  0.2041  0.2477
 8423TIP3    H146684   2.119   5.374  16.095  0.9306  1.7780  0.8920
 8423TIP3    H246685   1.999   5.457  16.054 -0.3158 -0.5051 -0.2547
 8424TIP3   OH246686   1.573   2.988  13.301  0.2189 -0.3483 -0.1684
 8424TIP3    H146687   1.637   2.964  13.368  1.1855  2.3128  0.0031
 8424TIP3    H246688   1.491   2.999  13.349 -0.4012 -3.4649 -0.3371
 8425TIP3   OH246689   2.059   2.677   1.147  0.3376 -0.0976 -0.2140
 8425TIP3    H146690   2.027   2.753   1.099 -0.4350 -0.0308  0.3827
 8425TIP3    H246691   2.152   2.695   1.163  0.3382  0.3615 -0.7449
 8426TIP3   OH246692   2.778   6.431  11.648  0.5738 -0.2108 -0.2580
 8426TIP3    H146693   2.841   6.475  11.591 -0.5231  1.2265 -0.4018
 8426TIP3    H246694   2.733   6.369  11.591  0.1184  0.5601 -0.7479
 8427TIP3   OH246695   3.644   1.494  14.548  1.0807 -0.2336 -0.4433
 8427TIP3    H146696   3.681   1.569  14.595  0.5425  0.1530 -0.6266
 8427TIP3    H246697   3.692   1.419  14.582  1.4828  0.1684 -0.1015
 8428TIP3   OH246698   0.755   3.733  16.221 -0.1409  0.8160 -0.0729
 8428TIP3    H146699   0.701   3.765  16.293 -1.6433 -0.4394 -0.5656
 8428TIP3    H246700   0.710   3.653  16.192  2.1012 -0.3899 -0.4210
 8429TIP3   OH246701   2.863   6.533   3.915 -0.2343 -0.0807 -0.1326
 8429TIP3    H146702   2.834   6.620   3.942  1.6788  0.2905  0.9165
 8429TIP3    H246703   2.936   6.549   3.855  0.0250 -0.9641 -0.0705
 8430TIP3   OH246704   5.752   2.762  16.161 -0.2490  0.0926 -0.1014
 8430TIP3    H146705   5.734   2.844  16.205  1.4497 -0.7148  2.2781
 8430TIP3    H246706   5.775   2.701  16.231  0.3090 -1.9328 -1.9268
 8431TIP3   OH246707   0.443   2.003  11.651  1.1067 -0.2224  0.1709
 8431TIP3    H146708   0.374   1.972  11.709  1.9201  1.1257  1.9533
 8431TIP3    H246709   0.415   1.976  11.563 -0.6937 -1.3791  1.0439
 8432TIP3   OH246710   2.745   3.501  15.519 -0.1828  0.4671 -0.5824
 8432TIP3    H146711   2.807   3.556  15.567  0.8857  0.7052 -2.1553
 8432TIP3    H246712   2.659   3.525  15.555  0.5825 -0.0058  1.7986
 8433TIP3   OH246713   3.597   0.845   2.344 -0.7974 -0.3081  0.8650
 8433TIP3    H146714   3.657   0.888   2.406 -1.9064 -0.1606  1.8726
 8433TIP3    H246715   3.637   0.759   2.328 -1.0277 -0.7901  2.6671
 8434TIP3   OH246716   5.558   1.180   1.920 -0.3077 -0.2953 -0.0963
 8434TIP3    H146717   5.537   1.107   1.862 -2.9159 -0.7767  1.3136
 8434TIP3    H246718   5.634   1.150   1.970 -1.2623 -2.0557  0.3795
 8435TIP3   OH246719   1.358   3.366  11.954  0.0177  0.4340 -0.0814
 8435TIP3    H146720   1.451   3.390  11.964  0.7324 -1.6115 -1.3849
 8435TIP3    H246721   1.329   3.416  11.877  0.4477 -0.0018 -0.5335
 8436TIP3   OH246722   2.034   4.868  12.470 -0.0927 -0.1588  0.4407
 8436TIP3    H146723   2.015   4.811  12.545  1.4527 -0.7307  0.4252
 8436TIP3    H246724   2.087   4.814  12.411  0.2078  0.8500 -0.2473
 8437TIP3   OH246725   5.996   5.144  10.329 -0.4320  0.2503 -0.4478
 8437TIP3    H146726   6.082   5.131  10.369  0.6876  2.2203 -2.0421
 8437TIP3    H246727   5.944   5.186  10.397  0.4038  0.5838  0.0014
 8438TIP3   OH246728   2.544   4.225   0.881  0.1880 -0.0933  0.1139
 8438TIP3    H146729   2.481   4.247   0.812  0.7109  1.1505  0.0120
 8438TIP3    H246730   2.521   4.283   0.954 -0.4861 -1.5254  1.0974
 8439TIP3   OH246731   1.425   2.338  12.070  0.0890  0.4782 -0.2552
 8439TIP3    H146732   1.372   2.355  11.992  0.9277  1.1096 -0.7170
 8439TIP3    H246733   1.398   2.252  12.100 -2.1968  1.3214  0.3600
 8440TIP3   OH246734   0.168   4.837  14.121 -0.1448 -0.0552  0.2344
 8440TIP3    H146735   0.083   4.792  14.117  0.9800 -2.3378  0.3159
 8440TIP3    H246736   0.206   4.809  14.204  0.8495  0.6088  0.0188
 8441TIP3   OH246737   0.289   2.459  16.645  0.2735  0.2189  0.5564
 8441TIP3    H146738   0.337   2.376  16.651 -0.3897 -0.1510  0.7863
 8441TIP3    H246739   0.283   2.476  16.551 -0.4986 -0.5353  0.4601
 8442TIP3   OH246740   5.892   1.560   2.370 -0.2875 -0.1962  0.2187
 8442TIP3    H146741   5.951   1.487   2.391 -1.0933 -1.0876 -0.5325
 8442TIP3    H246742   5.817   1.548   2.428 -1.1720 -0.9601 -1.0242
 8443TIP3   OH246743   1.237   3.683  11.941 -0.5245  0.1881  0.1839
 8443TIP3    H146744   1.168   3.619  11.955 -0.9514  0.3838 -0.9013
 8443TIP3    H246745   1.302   3.637  11.888  0.2467 -0.0292  1.2934
 8444TIP3   OH246746   0.052   1.225  11.547 -0.0007 -0.5804 -0.2754
 8444TIP3    H146747   0.105   1.156  11.586 -0.3900 -0.7502 -0.0307
 8444TIP3    H246748   0.115   1.287  11.511  0.4605  0.5046  2.1548
 8445TIP3   OH246749   3.141   6.095  13.600  0.3761 -0.1606 -0.7245
 8445TIP3    H146750   3.143   6.077  13.694  0.2333 -0.9834 -0.8746
 8445TIP3    H246751   3.120   6.011  13.560 -1.2650  0.5267 -1.3892
 8446TIP3   OH246752   6.690   3.699   2.529 -0.0544 -0.1270 -0.7000
 8446TIP3    H146753   6.761   3.747   2.571  0.1105 -0.1309 -0.9745
 8446TIP3    H246754   6.630   3.766   2.499 -0.1837 -0.1248 -0.4440
 8447TIP3   OH246755   2.846   6.087   1.360 -0.2019  0.1551 -0.6087
 8447TIP3    H146756   2.790   6.163   1.348  1.5833  1.3618 -1.8534
 8447TIP3    H246757   2.818   6.049   1.443 -0.2864  2.9485  0.7607
 8448TIP3   OH246758   5.504   5.522  12.016  0.0276 -0.1542 -0.4601
 8448TIP3    H146759   5.436   5.458  11.997 -0.6554  0.6996 -0.9531
 8448TIP3    H246760   5.467   5.577  12.085 -0.0692  0.7464 -1.2168
 8449TIP3   OH246761   5.537   3.884   2.724  0.6839  0.1679  0.7102
 8449TIP3    H146762   5.529   3.972   2.688  0.6644 -0.6290 -1.3917
 8449TIP3    H246763   5.569   3.897   2.814  1.8342  2.2609  0.0645
 8450TIP3   OH246764   2.770   2.788  11.144  0.1791  0.4368  0.2887
 8450TIP3    H146765   2.780   2.874  11.103 -1.9689 -0.1487 -1.6558
 8450TIP3    H246766   2.771   2.727  11.071 -0.4601 -1.0147  1.4506
 8451TIP3   OH246767   2.397   1.911   5.084 -0.0280 -0.3208  0.1907
 8451TIP3    H146768   2.377   1.818   5.093 -2.1165  0.0294 -0.1213
 8451TIP3    H246769   2.382   1.929   4.991  0.8809  0.2227  0.1444
 8452TIP3   OH246770   1.363   3.678   0.794 -0.2599  0.5459 -0.5514
 8452TIP3    H146771   1.300   3.639   0.854  0.5568  1.0916  0.7071
 8452TIP3    H246772   1.419   3.605   0.767 -0.2091  0.4102 -0.0957
 8453TIP3   OH246773   3.565   4.312  11.904 -0.5366  0.1159  0.7519
 8453TIP3    H146774   3.577   4.223  11.937 -0.7744  0.5546  2.1030
 8453TIP3    H246775   3.568   4.303  11.809  2.8758 -0.8591  0.8194
 8454TIP3   OH246776   3.644   4.006  16.352 -0.3313 -0.3585  0.1681
 8454TIP3    H146777   3.662   3.929  16.407 -1.8509 -0.5726  0.4112
 8454TIP3    H246778   3.568   4.048  16.393  0.3153  1.1513 -0.1009
 8455TIP3   OH246779   1.033   0.772   4.507  0.0900  0.6677 -0.2103
 8455TIP3    H146780   1.094   0.698   4.510 -1.3261 -0.5206  0.1976
 8455TIP3    H246781   1.033   0.807   4.596  1.5510  1.8687 -0.6425
 8456TIP3   OH246782   2.408   2.797   3.686 -0.1824  0.4949  0.5987
 8456TIP3    H146783   2.447   2.711   3.705 -0.4139  0.7088  2.1968
 8456TIP3    H246784   2.422   2.809   3.592 -2.4875 -2.4341 -0.2633
 8457TIP3   OH246785   5.399   2.960   3.750  0.3215 -0.0680 -0.1683
 8457TIP3    H146786   5.393   2.991   3.660 -0.3000 -0.3504 -0.2313
 8457TIP3    H246787   5.403   3.040   3.802 -1.1351  0.1481 -0.3409
 8458TIP3   OH246788   3.427   1.511   5.091  0.2640  0.0807 -0.0780
 8458TIP3    H146789   3.356   1.554   5.139  0.4995 -0.4180  0.7248
 8458TIP3    H246790   3.477   1.464   5.158  2.2886  1.6701 -0.3639
 8459TIP3   OH246791   1.750   6.626   3.346  0.2814 -0.2605 -0.2450
 8459TIP3    H146792   1.806   6.657   3.417 -0.8026 -0.0414  0.5515
 8459TIP3    H246793   1.665   6.610   3.388 -0.1478 -0.9550 -1.3324
 8460TIP3   OH246794   5.844   1.031   3.519 -0.2007 -0.0121 -0.2426
 8460TIP3    H146795   5.832   1.098   3.587  0.0681 -0.8327  0.6376
 8460TIP3    H246796   5.900   1.073   3.454 -1.0720  1.0528 -0.3532
 8461TIP3   OH246797   0.148   4.089  15.891 -0.0134  0.0262 -0.1291
 8461TIP3    H146798   0.180   4.019  15.948  1.1310  1.1137  0.6282
 8461TIP3    H246799   0.167   4.170  15.939  0.2709  0.9448 -1.7034
 8462TIP3   OH246800   1.655   0.713   1.937  0.0617  0.4616  0.3669
 8462TIP3    H146801   1.681   0.630   1.977  0.4128  0.0381 -0.6904
 8462TIP3    H246802   1.592   0.688   1.869  0.3714  1.0327 -0.1414
 8463TIP3   OH246803   0.056   1.099   1.031 -0.4342  0.1889  0.4539
 8463TIP3    H146804   0.061   1.113   1.126 -2.1466 -1.5824  0.8789
 8463TIP3    H246805   0.032   1.185   0.996  0.9164  1.0377  1.5246
 8464TIP3   OH246806   2.501   0.001   0.145 -0.2369 -0.0903 -0.0586
 8464TIP3    H146807   2.474   0.072   0.204  2.3684  0.3180  0.7790
 8464TIP3    H246808   2.486   0.036   0.057  0.1604  1.1622  0.3478
 8465TIP3   OH246809   1.699   0.439  11.534  0.5942 -0.0294  0.2287
 8465TIP3    H146810   1.640   0.389  11.477  0.1253  0.9478 -0.1539
 8465TIP3    H246811   1.659   0.526  11.540  0.7444 -0.0369  1.8783
 8466TIP3   OH246812   1.762   3.638   1.029  0.5443  0.0977 -0.2796
 8466TIP3    H146813   1.729   3.549   1.016  1.4186 -0.6488  1.9979
 8466TIP3    H246814   1.694   3.695   0.995 -0.7335 -1.4350 -0.3938
 8467TIP3   OH246815   0.234   5.706  12.933  0.2361 -0.2103  0.3367
 8467TIP3    H146816   0.320   5.722  12.973  0.8145 -1.1522 -0.4715
 8467TIP3    H246817   0.236   5.756  12.851 -0.1277  0.0540  0.4896
 8468TIP3   OH246818   0.216   2.468   1.979  0.1238 -0.0931  0.7568
 8468TIP3    H146819   0.139   2.515   1.947 -0.4264 -1.5395 -0.1588
 8468TIP3    H246820   0.248   2.420   1.903  1.1352 -0.5720  1.4614
 8469TIP3   OH246821   2.052   6.636   2.696 -0.3201  0.4896  0.1741
 8469TIP3    H146822   2.020   6.693   2.766  0.4118 -0.3942  1.2662
 8469TIP3    H246823   1.976   6.583   2.672 -0.5052  0.5990  0.5091
 8470TIP3   OH246824   5.216   2.481   0.956  0.2232 -0.1114  0.4133
 8470TIP3    H146825   5.168   2.540   1.015  0.9335  0.6826  0.2262
 8470TIP3    H246826   5.176   2.396   0.969  0.2943  0.0660  1.9983
 8471TIP3   OH246827   4.633   0.972  12.588  0.3099 -0.2416 -1.2373
 8471TIP3    H146828   4.681   0.891  12.574  0.4803 -0.8069  1.8788
 8471TIP3    H246829   4.698   1.033  12.624 -0.1941  0.7372 -1.9222
 8472TIP3   OH246830   2.272   5.286   2.455  0.1265 -0.4345 -0.0893
 8472TIP3    H146831   2.239   5.314   2.540 -0.0828 -0.0110 -0.3098
 8472TIP3    H246832   2.349   5.341   2.439 -0.7241  0.5654 -0.8649
 8473TIP3   OH246833   5.151   5.249  14.309  0.0725 -0.0111 -0.0960
 8473TIP3    H146834   5.078   5.311  14.317 -0.8974 -1.1755  0.6206
 8473TIP3    H246835   5.153   5.226  14.216  0.4040  1.0269 -0.3571
 8474TIP3   OH246836   2.232   6.174  11.468  0.1312  0.7827  0.2599
 8474TIP3    H146837   2.296   6.104  11.456 -0.1697  0.7581 -1.4863
 8474TIP3    H246838   2.148   6.128  11.478  0.0536  0.8538 -0.0348
 8475TIP3   OH246839   2.699   1.655  13.417  0.5190 -0.0625 -0.7491
 8475TIP3    H146840   2.676   1.744  13.445 -0.7657 -0.4405 -0.5306
 8475TIP3    H246841   2.739   1.666  13.331 -0.5477  0.6412 -1.1651
 8476TIP3   OH246842   5.604   2.300   5.227  0.2823  0.1872 -0.7580
 8476TIP3    H146843   5.534   2.279   5.166  0.2999 -0.1621 -0.6581
 8476TIP3    H246844   5.626   2.217   5.268 -0.6630  0.6397  0.7391
 8477TIP3   OH246845   6.129   3.563  10.290  0.2115 -0.3849  0.3951
 8477TIP3    H146846   6.176   3.616  10.225 -0.3156 -0.0008  0.3216
 8477TIP3    H246847   6.170   3.477  10.284 -0.2063 -0.5217 -0.8702
 8478TIP3   OH246848   4.443   2.140  12.030 -0.0890  0.5294  0.1321
 8478TIP3    H146849   4.501   2.076  11.990 -2.2881 -0.1373 -2.2564
 8478TIP3    H246850   4.500   2.213  12.054  1.7853 -0.2277 -1.7205
 8479TIP3   OH246851   3.292   6.769   5.254  0.4711  0.2179 -0.2707
 8479TIP3    H146852   3.385   6.774   5.280  0.1632  0.1723  0.9033
 8479TIP3    H246853   3.264   6.682   5.282 -0.0596  0.4292 -0.1280
 8480TIP3   OH246854   2.427   6.581   1.792  0.1838  0.1035  0.5715
 8480TIP3    H146855   2.368   6.602   1.719  0.0198  0.6486  0.8565
 8480TIP3    H246856   2.368   6.559   1.864  0.3530 -1.3911  0.2766
 8481TIP3   OH246857   0.613   1.546  11.221  0.3498  0.1215 -0.2723
 8481TIP3    H146858   0.536   1.489  11.213  0.8102 -0.3902 -1.2247
 8481TIP3    H246859   0.679   1.505  11.165  1.0429  1.0147 -0.1293
 8482TIP3   OH246860   6.418   0.009  16.933  0.3593 -0.1365  0.3193
 8482TIP3    H146861   6.508   0.027  16.959  0.9463 -1.2403 -0.8979
 8482TIP3    H246862   6.420  -0.079  16.896 -1.4775 -0.7178  1.4636
 8483TIP3   OH246863   3.853   2.589   5.303  0.1844  0.8472  0.6660
 8483TIP3    H146864   3.798   2.525   5.348 -2.4672  1.6731 -1.1538
 8483TIP3    H246865   3.864   2.554   5.215  1.8180  1.2141  0.6774
 8484TIP3   OH246866   3.550   1.375   4.091  0.0604  0.1648 -0.4139
 8484TIP3    H146867   3.534   1.466   4.114  0.0069  0.6301 -2.1237
 8484TIP3    H246868   3.550   1.374   3.995 -1.2489 -1.8623 -0.4569
 8485TIP3   OH246869   4.181   4.334  13.441  0.0938  0.0220  0.4478
 8485TIP3    H146870   4.272   4.349  13.468  0.5270  0.1863 -0.9905
 8485TIP3    H246871   4.178   4.368  13.351 -1.5832  0.6628  0.7231
 8486TIP3   OH246872   0.155   4.587  11.580  0.1968 -0.2729  0.0286
 8486TIP3    H146873   0.133   4.677  11.605 -1.7866 -0.3779 -1.2059
 8486TIP3    H246874   0.078   4.554  11.535  0.9212 -2.5859  0.3303
 8487TIP3   OH246875   3.838   3.947  14.167 -0.5363  0.3846  0.6014
 8487TIP3    H146876   3.789   3.871  14.137 -1.3872  1.6173 -1.3001
 8487TIP3    H246877   3.922   3.941  14.123 -1.1552  1.2784 -0.7884
 8488TIP3   OH246878   2.975   2.703  11.611 -0.2670  0.6320 -0.7484
 8488TIP3    H146879   2.926   2.651  11.675  0.6901 -2.4282 -2.2671
 8488TIP3    H246880   2.909   2.727  11.545 -0.5680  0.4643 -0.5125
 8489TIP3   OH246881   0.146   1.433  14.354 -0.2070  0.3546 -0.2381
 8489TIP3    H146882   0.142   1.337  14.345  0.0436  0.4686 -1.9232
 8489TIP3    H246883   0.216   1.447  14.418  1.0156 -0.5772 -1.2970
 8490TIP3   OH246884   4.927   0.076  12.096  0.5768  0.4383 -0.1102
 8490TIP3    H146885   4.868   0.057  12.023 -0.7661 -1.8951  1.4382
 8490TIP3    H246886   4.869   0.092  12.170  1.7721 -2.7118  1.6673
 8491TIP3   OH246887   0.918   5.651   1.884 -0.1032  0.1871 -0.7970
 8491TIP3    H146888   0.980   5.643   1.956  0.4159  0.9613 -1.1394
 8491TIP3    H246889   0.948   5.589   1.818  0.8214  1.1519 -1.3091
 8492TIP3   OH246890   2.308   5.643  13.269 -0.3999 -0.5700  0.5294
 8492TIP3    H146891   2.293   5.723  13.218 -1.6015  1.5159  3.8006
 8492TIP3    H246892   2.318   5.574  13.204 -0.7236  2.0078 -2.4694
 8493TIP3   OH246893   6.436   6.521   4.311 -0.0231 -0.3529  0.0042
 8493TIP3    H146894   6.477   6.457   4.253  0.9383 -0.1616  0.4426
 8493TIP3    H246895   6.455   6.488   4.399  0.1343  0.3159  0.2277
 8494TIP3   OH246896   5.433   4.087   3.135  0.8664  0.0051 -0.5938
 8494TIP3    H146897   5.382   4.160   3.098  0.8788  0.2281 -0.1866
 8494TIP3    H246898   5.397   4.076   3.223  2.1030  0.7482  0.0295
 8495TIP3   OH246899   0.616   5.927   4.117  0.3653  0.1148 -0.1317
 8495TIP3    H146900   0.635   5.842   4.158  0.4236  0.6367  0.9522
 8495TIP3    H246901   0.661   5.922   4.032 -1.0427 -1.5802 -0.8391
 8496TIP3   OH246902   0.229   1.575  17.179  0.1015  0.2666  0.6843
 8496TIP3    H146903   0.163   1.622  17.128  0.2049 -1.3492 -1.0431
 8496TIP3    H246904   0.191   1.489  17.195  1.1289 -0.1336  1.0916
 8497TIP3   OH246905   4.968   5.136  15.471  0.2672 -0.3690 -0.6409
 8497TIP3    H146906   4.975   5.071  15.401  3.4650  0.4274 -1.1865
 8497TIP3    H246907   4.909   5.203  15.436 -0.1073 -1.1576 -1.5577
 8498TIP3   OH246908   1.367   1.588  11.902 -0.6790 -0.1984 -0.6437
 8498TIP3    H146909   1.413   1.627  11.977 -0.5372 -1.4181 -0.0683
 8498TIP3    H246910   1.430   1.594  11.830 -0.2505 -0.3574 -0.2877
 8499TIP3   OH246911   5.248   1.129   4.949 -0.6030 -0.1571  0.4290
 8499TIP3    H146912   5.337   1.112   4.917 -1.0700 -0.8621 -0.5332
 8499TIP3    H246913   5.202   1.046   4.939 -1.8202  0.6061 -0.6231
 8500TIP3   OH246914   5.048   3.828  12.517 -0.3124 -0.1405 -0.2994
 8500TIP3    H146915   5.054   3.749  12.572 -0.2064 -0.5747 -0.9236
 8500TIP3    H246916   5.114   3.887  12.552  1.1053 -1.1552 -1.1427
 8501TIP3   OH246917   1.443   2.818  14.013 -0.0880 -0.4797  0.3270
 8501TIP3    H146918   1.450   2.833  13.919  1.5138  0.5209  0.5657
 8501TIP3    H246919   1.394   2.894  14.046 -1.3351 -1.2207  0.2216
 8502TIP3   OH246920   5.365   1.957  16.548 -0.2940  0.2616  0.1840
 8502TIP3    H146921   5.404   1.897  16.485  0.3809 -0.8880  1.6453
 8502TIP3    H246922   5.352   2.038  16.499  3.3562  0.5479 -0.5928
 8503TIP3   OH246923   2.305   0.598  11.256  0.1600 -0.2361  0.0527
 8503TIP3    H146924   2.387   0.552  11.238 -0.1601 -0.5093 -0.7524
 8503TIP3    H246925   2.251   0.581  11.179 -0.6504 -0.0495  0.5703
 8504TIP3   OH246926   3.196   6.570  13.769  0.0213  0.1224  0.1170
 8504TIP3    H146927   3.149   6.579  13.686 -1.0517 -0.2342  0.6635
 8504TIP3    H246928   3.264   6.504  13.751  0.5861  0.9218 -0.7853
 8505TIP3   OH246929   4.220   2.058   2.022  0.2898 -0.1972 -0.0456
 8505TIP3    H146930   4.149   2.080   1.962 -1.4121  2.4038  2.6625
 8505TIP3    H246931   4.179   2.055   2.109  2.8957 -2.1677  1.2826
 8506TIP3   OH246932   2.609   3.034   3.159  0.4207 -0.2333 -0.1092
 8506TIP3    H146933   2.575   3.122   3.141  0.8078 -0.2067 -0.7424
 8506TIP3    H246934   2.679   3.022   3.096  1.7017 -0.2422  1.2638
 8507TIP3   OH246935   5.355   1.332  10.819  0.4431 -0.4835 -0.4277
 8507TIP3    H146936   5.353   1.276  10.896  0.2040  0.0012 -0.0788
 8507TIP3    H246937   5.350   1.271  10.745 -2.0149 -0.8394 -0.0552
 8508TIP3   OH246938   2.667   2.940  14.044  0.0265 -0.2542 -0.0567
 8508TIP3    H146939   2.629   2.956  13.957 -1.2744 -0.0268  0.5284
 8508TIP3    H246940   2.668   3.026  14.086  0.4749 -0.3935  0.2267
 8509TIP3   OH246941   4.741   3.578  11.826  0.3565 -0.7874  0.0308
 8509TIP3    H146942   4.793   3.642  11.875  1.0494 -1.2627 -0.0734
 8509TIP3    H246943   4.679   3.544  11.890  0.3864 -0.4559  0.2415
 8510TIP3   OH246944   1.729   6.037   0.448  0.5175  0.0179 -0.3258
 8510TIP3    H146945   1.772   5.967   0.497  1.2903  0.3069 -0.5775
 8510TIP3    H246946   1.797   6.069   0.388 -0.1575  0.2382 -0.9827
 8511TIP3   OH246947   4.842   1.490  13.785 -0.1118  0.2563 -0.2051
 8511TIP3    H146948   4.834   1.489  13.690 -1.7012  2.3673 -0.1760
 8511TIP3    H246949   4.787   1.417  13.814 -2.2388  1.5130 -0.8613
 8512TIP3   OH246950   2.777   1.753   5.242 -0.3515 -0.9287 -0.1354
 8512TIP3    H146951   2.775   1.849   5.238 -2.2938 -0.7781  2.2831
 8512TIP3    H246952   2.868   1.732   5.261 -0.0652  0.5091  0.2168
 8513TIP3   OH246953   1.763   4.389  15.881  0.2386 -0.3248 -0.0501
 8513TIP3    H146954   1.670   4.383  15.901  0.2158 -0.7784 -0.2698
 8513TIP3    H246955   1.806   4.352  15.958  0.2555  0.2282  0.2107
 8514TIP3   OH246956   5.936   3.393  15.916  0.1168 -0.5405  0.0909
 8514TIP3    H146957   5.870   3.400  15.847  0.6660  0.2706 -0.3801
 8514TIP3    H246958   6.011   3.444  15.883  0.9011 -1.2595  0.6963
 8515TIP3   OH246959   6.499   0.805  17.008  0.5552 -0.9643 -0.0454
 8515TIP3    H146960   6.537   0.887  17.040  2.3699 -1.5606 -0.5864
 8515TIP3    H246961   6.475   0.757  17.087 -0.4904  0.0306  0.2800
 8516TIP3   OH246962   3.853   6.659   2.587 -0.0559 -0.6579 -0.6275
 8516TIP3    H146963   3.866   6.564   2.597  0.1394 -0.5080  0.8417
 8516TIP3    H246964   3.783   6.679   2.648 -0.9259 -0.0197 -1.8076
 8517TIP3   OH246965   6.406   5.544  11.112 -0.5902 -0.4823 -0.2965
 8517TIP3    H146966   6.384   5.556  11.020  0.9861  0.8274 -0.5495
 8517TIP3    H246967   6.501   5.538  11.114 -0.6356 -1.2443  1.1809
 8518TIP3   OH246968   3.625   0.699  15.335 -0.0364  0.0925 -0.1629
 8518TIP3    H146969   3.549   0.758  15.341  0.7180  1.0748  0.1029
 8518TIP3    H246970   3.619   0.661  15.247 -0.4323  0.7325 -0.4205
 8519TIP3   OH246971   0.189   3.739   4.267 -0.0308  0.0866 -0.2014
 8519TIP3    H146972   0.160   3.820   4.224  0.2805 -0.5622 -1.6686
 8519TIP3    H246973   0.253   3.769   4.332 -0.7840  1.1218  0.0978
 8520TIP3   OH246974   1.746   5.768  11.904 -0.2705  0.1725  0.8865
 8520TIP3    H146975   1.651   5.770  11.919 -0.5177  1.0378 -0.5752
 8520TIP3    H246976   1.779   5.850  11.941 -0.6766  1.6259 -1.7286
 8521TIP3   OH246977   1.963   5.307   4.738 -0.0428 -0.3111  0.1414
 8521TIP3    H146978   1.903   5.309   4.813 -0.0898  1.1471  0.1006
 8521TIP3    H246979   1.910   5.273   4.666 -0.1283 -1.2916  0.6514
 8522TIP3   OH246980   4.394   4.894  10.315  0.5157  0.3833 -0.2046
 8522TIP3    H146981   4.367   4.821  10.370 -1.7762  1.7973  0.6724
 8522TIP3    H246982   4.371   4.972  10.365  0.6689  1.7163 -2.1001
 8523TIP3   OH246983   5.877   2.137   3.881 -0.4896  0.2024  0.2779
 8523TIP3    H146984   5.946   2.142   3.814 -1.9517  0.5466 -1.2798
 8523TIP3    H246985   5.825   2.216   3.867 -1.0646  0.0800  1.5996
 8524TIP3   OH246986   1.542   5.996  12.885  0.1010 -0.3996  0.2305
 8524TIP3    H146987   1.458   5.964  12.916 -0.2966  1.5049  1.2597
 8524TIP3    H246988   1.580   6.041  12.961  0.7971  1.1487 -0.9958
 8525TIP3   OH246989   4.930   2.714   4.072  0.4071 -0.1732  0.3636
 8525TIP3    H146990   4.988   2.761   4.011  0.7404 -1.4625 -0.3402
 8525TIP3    H246991   4.973   2.630   4.087 -1.7648 -1.6495 -1.0678
 8526TIP3   OH246992   2.284   1.316  13.552 -0.0342 -0.3987 -0.1168
 8526TIP3    H146993   2.245   1.231  13.572  0.9203 -0.5526  1.3085
 8526TIP3    H246994   2.261   1.371  13.627 -1.9399  1.1260 -1.7095
 8527TIP3   OH246995   4.513   0.072   5.401  0.3648  0.0025 -0.0434
 8527TIP3    H146996   4.556   0.009   5.458  1.0604  1.1291  0.7210
 8527TIP3    H246997   4.565   0.152   5.411 -0.0714  0.4996 -1.5196
 8528TIP3   OH246998   4.901   1.343   5.468 -0.2334  0.6755  0.1882
 8528TIP3    H146999   4.864   1.420   5.424 -0.4157 -0.4541 -1.7473
 8528TIP3    H247000   4.995   1.356   5.464 -0.0884 -0.5619 -2.9547
 8529TIP3   OH247001   3.228   1.338  11.516  0.3644 -0.6608 -0.5761
 8529TIP3    H147002   3.310   1.292  11.534  0.1979 -0.2781  1.3967
 8529TIP3    H247003   3.236   1.421  11.563 -1.0769 -0.5339 -0.5069
 8530TIP3   OH247004   4.446   3.655  13.610 -0.2963 -0.1755 -0.1458
 8530TIP3    H147005   4.439   3.703  13.528 -0.4739  2.7655  1.4558
 8530TIP3    H247006   4.356   3.634  13.634 -0.2106 -1.5894 -0.9185
 8531TIP3   OH247007   6.114   5.282   0.314  0.2785  0.0646 -0.0977
 8531TIP3    H147008   6.047   5.350   0.307  1.8044  1.5202 -1.3152
 8531TIP3    H247009   6.070   5.202   0.284 -0.6692  1.1673 -1.7920
 8532TIP3   OH247010   2.375   1.488   5.724 -0.1854  0.2831 -0.1416
 8532TIP3    H147011   2.459   1.443   5.727 -0.1227  0.4223  0.6417
 8532TIP3    H247012   2.393   1.570   5.678  0.3455  0.7587  0.8800
 8533TIP3   OH247013   0.085   5.148   5.012 -0.1649 -0.1240  0.0883
 8533TIP3    H147014   0.057   5.238   4.997  3.6345  0.9412 -1.9444
 8533TIP3    H247015   0.091   5.140   5.107  1.7193  2.7226  0.3398
 8534TIP3   OH247016   6.248   0.952  12.526  0.2073  0.1980  0.0347
 8534TIP3    H147017   6.327   0.907  12.553 -1.1678 -3.0990 -0.9866
 8534TIP3    H247018   6.231   1.016  12.596  2.0196 -1.2191  1.8799
 8535TIP3   OH247019   5.525   6.104  14.314 -0.7030 -0.6774 -0.1633
 8535TIP3    H147020   5.615   6.125  14.290 -1.4930  1.9557 -1.2128
 8535TIP3    H247021   5.492   6.050  14.242  0.0790 -1.9714  0.4068
 8536TIP3   OH247022   4.846   6.055   0.123 -0.0681  0.0230 -0.1466
 8536TIP3    H147023   4.877   6.045   0.213  0.2760 -0.0141 -0.2674
 8536TIP3    H247024   4.763   6.101   0.131 -0.2308 -0.3314  0.2177
 8537TIP3   OH247025   4.099   3.442   1.285  0.6844  0.6297 -0.7827
 8537TIP3    H147026   4.063   3.368   1.235  0.0565  0.2969  0.1387
 8537TIP3    H247027   4.065   3.519   1.240 -1.3426  0.3212  0.1376
 8538TIP3   OH247028   3.766   5.518   0.523  0.3759 -0.2492  0.2255
 8538TIP3    H147029   3.789   5.476   0.606 -0.1460  0.4035  0.7168
 8538TIP3    H247030   3.671   5.505   0.516  0.0726  1.4245  0.7482
 8539TIP3   OH247031   6.079   1.494   2.935  0.3519 -0.4722  0.4000
 8539TIP3    H147032   6.048   1.451   2.855 -1.8944  2.7636 -0.7076
 8539TIP3    H247033   6.167   1.524   2.913 -0.1229  0.1189 -0.8084
 8540TIP3   OH247034   3.985   2.485  14.285  0.1910  0.7665 -0.2251
 8540TIP3    H147035   3.927   2.500  14.210 -0.0919  0.9911  0.0347
 8540TIP3    H247036   4.013   2.394  14.276 -1.3866  0.1847  0.4659
 8541TIP3   OH247037   3.002   2.350  13.198 -0.5524 -0.0359 -0.9083
 8541TIP3    H147038   2.940   2.404  13.149 -0.9778 -0.1017 -0.4509
 8541TIP3    H247039   3.086   2.395  13.188 -0.8874  0.6754 -0.6003
 8542TIP3   OH247040   5.150   4.600   5.038  0.1106 -0.3212  0.1252
 8542TIP3    H147041   5.132   4.683   4.993  1.0510 -0.8569 -1.3157
 8542TIP3    H247042   5.244   4.587   5.027 -0.1069 -1.8521 -0.1659
 8543TIP3   OH247043   1.711   6.759   3.857  0.5949  0.4451 -0.2405
 8543TIP3    H147044   1.751   6.676   3.882 -0.3313 -0.6213 -2.1097
 8543TIP3    H247045   1.755   6.824   3.912  1.7955 -1.1828  0.8178
 8544TIP3   OH247046   4.200   5.967  15.742  0.0229  0.4046  0.1128
 8544TIP3    H147047   4.288   5.933  15.757 -0.2372  0.5837  2.2630
 8544TIP3    H247048   4.206   6.059  15.767 -0.4410  0.8144 -1.1793
 8545TIP3   OH247049   4.046   1.340   0.962 -0.2822  0.2183  0.2092
 8545TIP3    H147050   3.975   1.294   0.918 -0.6933 -0.0611  1.1290
 8545TIP3    H247051   4.106   1.364   0.892 -1.2817  0.4640 -0.5936
 8546TIP3   OH247052   2.947   4.289  15.126 -0.0526  0.4253  0.1068
 8546TIP3    H147053   2.928   4.280  15.033 -1.3224  1.5402  0.2288
 8546TIP3    H247054   2.904   4.370  15.152 -0.0524 -0.0611  1.7545
 8547TIP3   OH247055   3.162   1.017  12.637  0.4960  0.2020 -0.3638
 8547TIP3    H147056   3.104   1.047  12.567 -1.1150  1.7266  1.5236
 8547TIP3    H247057   3.135   1.066  12.714  0.7938 -2.8407  1.8757
 8548TIP3   OH247058   3.198   3.798  16.092  0.2295  0.6206 -0.0087
 8548TIP3    H147059   3.279   3.752  16.068 -0.8181 -0.6516 -1.3337
 8548TIP3    H247060   3.191   3.868  16.028  1.0012  1.6574  1.0134
 8549TIP3   OH247061   5.018   0.411   4.233  0.7573 -0.0229 -0.2932
 8549TIP3    H147062   5.039   0.502   4.212 -1.4326  0.3409 -1.1138
 8549TIP3    H247063   5.082   0.360   4.183  1.5664  1.0298 -0.3774
 8550TIP3   OH247064   1.662   4.426   3.060 -0.2799 -0.0784  0.4631
 8550TIP3    H147065   1.748   4.421   3.018 -0.1544 -0.0529  0.7153
 8550TIP3    H247066   1.665   4.359   3.128 -0.7437 -0.6126 -0.0402
 8551TIP3   OH247067   2.937   3.651   1.170 -0.4139 -0.0761 -0.9551
 8551TIP3    H147068   2.916   3.727   1.115  0.6121  1.4416  0.6328
 8551TIP3    H247069   2.997   3.599   1.117 -1.2357  0.1451 -2.1345
 8552TIP3   OH247070   3.463   6.395  14.358 -0.7036  0.4055 -0.0021
 8552TIP3    H147071   3.516   6.343  14.419  0.6367  1.6208 -0.0679
 8552TIP3    H247072   3.453   6.479  14.402 -2.5220  0.2502 -0.0644
 8553TIP3   OH247073   3.354   0.242   0.081  0.4478 -0.1103 -0.5410
 8553TIP3    H147074   3.378   0.332   0.058  2.5430 -0.8694 -1.5067
 8553TIP3    H247075   3.365   0.238   0.175 -0.7820  0.9157 -0.3114
 8554TIP3   OH247076   2.658   4.725   3.798  0.3983  0.6586  0.9520
 8554TIP3    H147077   2.596   4.773   3.742 -0.7670 -1.7362  0.0617
 8554TIP3    H247078   2.607   4.703   3.876  1.4646  2.3254  2.1891
 8555TIP3   OH247079   1.435   6.128  15.664  0.6566  0.2798  0.1524
 8555TIP3    H147080   1.454   6.141  15.571 -0.2779 -1.1127 -0.2498
 8555TIP3    H247081   1.360   6.069  15.666  1.9796 -1.4666  1.8046
 8556TIP3   OH247082   2.537   1.648   5.212  0.0730  0.3601 -0.1791
 8556TIP3    H147083   2.569   1.638   5.122  0.4412 -1.0488  0.0965
 8556TIP3    H247084   2.606   1.697   5.256 -0.0976  1.0385 -0.6425
 8557TIP3   OH247085   2.523   2.778  10.542 -0.3718  0.6829  0.1976
 8557TIP3    H147086   2.553   2.861  10.580 -1.1666  1.3909 -0.6796
 8557TIP3    H247087   2.477   2.803  10.462  0.2136 -0.6844 -0.6056
 8558TIP3   OH247088   2.192   6.058  14.475  0.0608 -0.4207 -0.1239
 8558TIP3    H147089   2.228   6.034  14.560 -0.6695 -0.1208  0.2728
 8558TIP3    H247090   2.106   6.015  14.472 -0.7592  1.1475  0.1071
 8559TIP3   OH247091   1.851   1.764  10.750  0.1354  0.1443  0.0326
 8559TIP3    H147092   1.819   1.847  10.716 -0.9680 -0.9333 -1.6574
 8559TIP3    H247093   1.833   1.768  10.844 -1.9975  0.9024 -0.3646
 8560TIP3   OH247094   3.411   2.984  10.657 -0.2872  0.0183  0.4436
 8560TIP3    H147095   3.440   2.901  10.620 -0.4464  0.2558 -0.2207
 8560TIP3    H247096   3.491   3.024  10.691 -0.0489  0.0487 -0.1465
 8561TIP3   OH247097   2.175   0.265  17.173  0.4099  0.2401 -0.2903
 8561TIP3    H147098   2.208   0.291  17.087  1.1745 -0.1297 -0.1163
 8561TIP3    H247099   2.148   0.174  17.162  1.4907 -0.1513  0.1061
 8562TIP3   OH247100   5.147   4.364  16.016 -0.6757 -0.0987 -0.1619
 8562TIP3    H147101   5.209   4.372  16.089 -0.1827 -0.2596 -0.5562
 8562TIP3    H247102   5.203   4.350  15.939 -1.1547  0.7142 -0.6693
 8563TIP3   OH247103   2.351   1.634  16.552 -0.0124  0.2732 -0.0839
 8563TIP3    H147104   2.378   1.670  16.467 -0.6163  1.3382  0.1469
 8563TIP3    H247105   2.332   1.542  16.535 -0.2160  0.4965 -1.1262
 8564TIP3   OH247106   3.857   6.490   3.939  0.3441 -0.4874  0.1321
 8564TIP3    H147107   3.859   6.457   4.029  1.8667 -1.5078 -0.2367
 8564TIP3    H247108   3.803   6.427   3.892  0.8790 -0.8695  0.0178
 8565TIP3   OH247109   4.055   2.969  14.929  0.2691 -0.2762  0.1023
 8565TIP3    H147110   3.989   2.963  14.999  0.8980 -2.0377  0.5961
 8565TIP3    H247111   4.137   2.982  14.976  0.4946  0.1430 -0.4104
 8566TIP3   OH247112   0.263   5.968   0.112  0.4944 -0.4368 -0.1629
 8566TIP3    H147113   0.235   6.020   0.187 -0.0764 -1.3763  0.2982
 8566TIP3    H247114   0.242   5.878   0.137  0.0778 -0.7428 -1.5417
 8567TIP3   OH247115   0.386   5.206  14.973 -0.5197 -0.0646  0.2090
 8567TIP3    H147116   0.472   5.248  14.976 -0.3673 -0.3169 -0.4132
 8567TIP3    H247117   0.405   5.112  14.981 -0.5814 -0.2673 -1.6391
 8568TIP3   OH247118   5.460   6.241  14.781 -0.1166 -0.3323 -0.1715
 8568TIP3    H147119   5.521   6.213  14.713  1.1232  1.4352  0.1411
 8568TIP3    H247120   5.515   6.254  14.859 -0.7217  1.8564 -0.0311
 8569TIP3   OH247121   4.966   3.912   1.408  0.3730 -0.4616 -0.3128
 8569TIP3    H147122   4.911   3.838   1.382  0.1766 -0.3856 -0.1220
 8569TIP3    H247123   5.019   3.878   1.480  0.8453 -0.6434 -0.7444
 8570TIP3   OH247124   0.896   0.677   1.933  0.3138 -0.2131  0.1172
 8570TIP3    H147125   0.958   0.735   1.887 -0.8231  1.2989  0.4362
 8570TIP3    H247126   0.902   0.704   2.025 -0.2148 -0.6275  0.2730
 8571TIP3   OH247127   4.516   2.917  14.975 -0.7745  0.3951 -0.0696
 8571TIP3    H147128   4.453   2.977  15.015 -1.4873 -0.4085  0.0425
 8571TIP3    H247129   4.469   2.834  14.970 -0.0315  0.0162 -0.8377
 8572TIP3   OH247130   0.743   4.712  12.097 -0.2609  0.8319 -0.3294
 8572TIP3    H147131   0.709   4.631  12.058  0.5328  0.9425 -1.2818
 8572TIP3    H247132   0.706   4.782  12.043 -2.1502  1.2546  1.3631
 8573TIP3   OH247133   2.193   5.400  12.018 -0.0277 -0.2258  0.1829
 8573TIP3    H147134   2.182   5.477  12.074 -0.1942 -0.3775  0.3628
 8573TIP3    H247135   2.238   5.337  12.074 -0.6256 -0.5506  0.3066
 8574TIP3   OH247136   6.530   2.745  10.900 -0.3825 -0.1209 -0.5138
 8574TIP3    H147137   6.462   2.809  10.879 -2.2257 -0.8686  2.4472
 8574TIP3    H247138   6.481   2.664  10.916  1.5794 -1.5142 -1.2502
 8575TIP3   OH247139   4.404   1.256  13.444 -0.4580 -0.6708 -0.4233
 8575TIP3    H147140   4.309   1.258  13.432 -0.5402 -0.3375  0.2715
 8575TIP3    H247141   4.422   1.166  13.473 -0.5114 -0.8376 -0.8898
 8576TIP3   OH247142   3.297   2.951  11.903 -0.4484 -0.1394 -0.1933
 8576TIP3    H147143   3.356   2.895  11.851 -1.7807 -1.8880  0.0669
 8576TIP3    H247144   3.229   2.891  11.933 -1.9372  1.6622  0.1688
 8577TIP3   OH247145   6.556   3.006  12.090 -0.6769  0.1612  0.6044
 8577TIP3    H147146   6.519   3.057  12.018 -2.0872 -0.8908  0.5305
 8577TIP3    H247147   6.480   2.980  12.142  0.1093 -0.8754  1.2764
 8578TIP3   OH247148   0.444   5.517   4.424  0.1075 -0.4897  0.1146
 8578TIP3    H147149   0.422   5.439   4.475 -0.3206 -1.6964 -1.8155
 8578TIP3    H247150   0.366   5.573   4.432 -0.4900 -1.2481 -0.2563
 8579TIP3   OH247151   2.537   5.864  12.352 -0.7036 -0.4190 -0.9410
 8579TIP3    H147152   2.444   5.849  12.337 -0.5386 -1.3983 -1.0463
 8579TIP3    H247153   2.557   5.816  12.432  0.1842 -2.1711 -2.1447
 8580TIP3   OH247154   4.432   0.656  11.779  0.5973  0.7119 -0.2558
 8580TIP3    H147155   4.417   0.609  11.698  2.0336  0.9861 -0.7089
 8580TIP3    H247156   4.347   0.696  11.800 -0.2127 -0.7034 -0.7216
 8581TIP3   OH247157   5.818   3.878   2.204  0.1300 -0.2643  0.3667
 8581TIP3    H147158   5.879   3.951   2.215 -1.9182  1.4920  0.9958
 8581TIP3    H247159   5.796   3.879   2.110 -0.5158  0.5154  0.5141
 8582TIP3   OH247160   5.225   4.640  12.265  0.7211 -0.6101  0.3202
 8582TIP3    H147161   5.211   4.627  12.171 -1.2950 -0.6119  0.5857
 8582TIP3    H247162   5.205   4.733  12.279  2.4697 -0.2315  0.5381
 8583TIP3   OH247163   2.891   2.464   3.017 -0.0119 -0.0537 -0.3474
 8583TIP3    H147164   2.814   2.503   2.975  0.8821  1.4673 -0.6495
 8583TIP3    H247165   2.882   2.370   3.000 -1.9426  0.0498 -0.1121
 8584TIP3   OH247166   6.042   6.108  12.967  0.9538  0.2158 -0.9828
 8584TIP3    H147167   6.023   6.081  12.877 -0.7585 -1.0908 -0.2889
 8584TIP3    H247168   6.070   6.028  13.011 -0.9741  0.1651  0.2958
 8585TIP3   OH247169   2.115   3.055  16.849 -0.2850  0.4767  0.0578
 8585TIP3    H147170   2.064   3.098  16.918 -2.2552 -0.9514 -0.4180
 8585TIP3    H247171   2.170   2.992  16.896 -1.3896 -0.2728  0.3964
 8586TIP3   OH247172   6.677   5.079  14.097  0.9836  0.1731 -0.1933
 8586TIP3    H147173   6.609   5.053  14.035  1.4080 -2.3590  0.2762
 8586TIP3    H247174   6.759   5.057  14.052  1.5242  2.6174 -0.5089
 8587TIP3   OH247175   4.267   2.332   1.282  0.2250 -0.1459  0.3806
 8587TIP3    H147176   4.300   2.421   1.268 -0.7990  0.0876 -0.7707
 8587TIP3    H247177   4.251   2.298   1.194 -2.2453 -0.3381  0.8355
 8588TIP3   OH247178   3.842   0.404   2.157 -0.0435 -0.2174 -0.1977
 8588TIP3    H147179   3.865   0.326   2.208 -1.1192  0.8920  2.1062
 8588TIP3    H247180   3.778   0.372   2.093 -0.3748 -1.2688  0.6297
 8589TIP3   OH247181   2.179   6.372   5.743 -0.4878 -0.0381 -0.2465
 8589TIP3    H147182   2.143   6.454   5.711 -2.0200 -1.6901 -3.0980
 8589TIP3    H247183   2.273   6.387   5.747 -0.8540  2.4301  1.3479
 8590TIP3   OH247184   2.219   1.668   5.051  0.6005  0.1766  0.7128
 8590TIP3    H147185   2.139   1.661   4.999 -1.6398  0.6065  3.8165
 8590TIP3    H247186   2.264   1.584   5.038 -0.5086 -0.2082 -0.8507
 8591TIP3   OH247187   1.686   3.803  11.391  0.2503 -0.4598  0.3694
 8591TIP3    H147188   1.763   3.748  11.377  0.5237  0.3174 -1.3787
 8591TIP3    H247189   1.713   3.865  11.458  0.4179 -1.5148  1.3051
 8592TIP3   OH247190   1.038   0.556  12.766 -0.3086 -0.3568  0.2118
 8592TIP3    H147191   1.114   0.612  12.755  0.2193 -0.5466  2.3867
 8592TIP3    H247192   1.028   0.511  12.682  1.0452  0.7720 -0.5927
 8593TIP3   OH247193   2.734   4.017  11.303 -0.3270  0.0325 -0.0663
 8593TIP3    H147194   2.741   4.087  11.367 -0.8357  0.5703 -0.5897
 8593TIP3    H247195   2.651   3.974  11.324 -1.3004  1.2119 -1.3327
 8594TIP3   OH247196   0.032   6.257   4.811  0.4339  0.3469  0.3220
 8594TIP3    H147197   0.010   6.248   4.904 -0.1027  0.0513  0.1699
 8594TIP3    H247198   0.011   6.171   4.774  1.7043  0.0971  0.1373
 8595TIP3   OH247199   4.491   3.354   1.099 -0.0302 -0.3707 -0.5669
 8595TIP3    H147200   4.408   3.320   1.064 -0.4509 -1.7266  1.5705
 8595TIP3    H247201   4.471   3.380   1.189  1.1024  2.5724 -1.0309
 8596TIP3   OH247202   2.882   1.009   0.167 -0.1569 -0.6467 -0.0903
 8596TIP3    H147203   2.965   1.058   0.166 -0.0364 -0.8437  0.2459
 8596TIP3    H247204   2.848   1.019   0.078  0.3543 -0.7781 -0.3080
 8597TIP3   OH247205   5.516   3.930  15.685 -0.6479 -0.1102 -0.2922
 8597TIP3    H147206   5.538   3.837  15.694 -0.5619 -0.0356  0.3578
 8597TIP3    H247207   5.449   3.945  15.752 -1.5888  0.0135 -1.2316
 8598TIP3   OH247208   1.240   0.212  16.938 -0.1770  0.0614 -0.1946
 8598TIP3    H147209   1.323   0.170  16.913  1.7079  1.0524  3.6507
 8598TIP3    H247210   1.255   0.305  16.923 -0.5513  0.2547  0.6057
 8599TIP3   OH247211   2.623   1.893  12.493  0.2798 -0.0183  0.0658
 8599TIP3    H147212   2.606   1.802  12.519 -0.4946  0.5174  1.5892
 8599TIP3    H247213   2.549   1.942  12.528  2.2638  1.6822  2.3016
 8600TIP3   OH247214   6.324   2.248   2.428 -0.0703  0.0116 -0.3805
 8600TIP3    H147215   6.286   2.297   2.501 -0.3093 -1.3320  0.4349
 8600TIP3    H247216   6.411   2.221   2.459 -0.1949 -0.6098 -0.5455
 8601TIP3   OH247217   0.618   1.400  13.550  0.3308  0.4529  0.1277
 8601TIP3    H147218   0.548   1.351  13.507  0.7616 -0.3912  0.3652
 8601TIP3    H247219   0.669   1.334  13.596  1.2055  1.0699  0.0778
 8602TIP3   OH247220   4.499   1.061  14.875 -0.5005 -0.3560  0.6353
 8602TIP3    H147221   4.579   1.051  14.822 -0.4981 -0.5462  0.6732
 8602TIP3    H247222   4.530   1.066  14.965 -0.4965  0.0818  0.6104
 8603TIP3   OH247223   5.180   0.025   5.126 -0.3583 -0.0429 -0.0367
 8603TIP3    H147224   5.119  -0.013   5.189 -0.6615 -1.0867 -0.9217
 8603TIP3    H247225   5.126   0.049   5.051  0.3738 -1.9174 -1.2551
 8604TIP3   OH247226   5.330   3.204   0.029 -0.1494  0.5660  0.2925
 8604TIP3    H147227   5.341   3.143  -0.044 -2.7543 -1.5849  1.4748
 8604TIP3    H247228   5.371   3.160   0.103 -1.7420  0.3250  1.0841
 8605TIP3   OH247229   0.857   6.659   3.601 -0.0802  0.6645  0.2986
 8605TIP3    H147230   0.792   6.730   3.609 -0.3670  0.3349  0.9558
 8605TIP3    H247231   0.845   6.627   3.511 -0.5058  0.9150  0.2598
 8606TIP3   OH247232   1.270   1.389   3.398  0.0571  0.6364  0.3298
 8606TIP3    H147233   1.234   1.356   3.316  0.4745 -0.2382  0.4839
 8606TIP3    H247234   1.304   1.476   3.376  1.3008 -0.0810 -0.7505
 8607TIP3   OH247235   0.286   2.106  12.647 -0.1646 -0.4063  0.2225
 8607TIP3    H147236   0.262   2.192  12.613 -1.7792 -1.3235 -1.1270
 8607TIP3    H247237   0.208   2.053  12.635  1.6825 -2.9087 -1.9131
 8608TIP3   OH247238   3.402   4.644   2.792 -0.6825 -0.1836  0.5476
 8608TIP3    H147239   3.352   4.578   2.744  1.4214 -1.1238 -0.4828
 8608TIP3    H247240   3.349   4.663   2.869 -1.7902 -2.4209  0.4146
 8609TIP3   OH247241   5.734   2.505   3.093 -0.1612 -0.1252 -0.0253
 8609TIP3    H147242   5.793   2.430   3.104 -0.0953  0.1038  1.2661
 8609TIP3    H247243   5.692   2.489   3.008 -1.9118 -2.9044  1.1957
 8610TIP3   OH247244   4.154   2.567   3.730  0.0291  0.0752  0.0002
 8610TIP3    H147245   4.119   2.575   3.642  2.5418 -0.3336 -1.1233
 8610TIP3    H247246   4.140   2.475   3.754  0.0539 -0.0110 -0.3137
 8611TIP3   OH247247   4.053   5.855  10.947 -0.1703  0.3280  0.0969
 8611TIP3    H147248   4.056   5.946  10.917  0.3856  0.2747 -0.0185
 8611TIP3    H247249   3.960   5.835  10.952 -0.3094  0.9883  0.3789
 8612TIP3   OH247250   0.658   3.592  14.845  0.1343 -0.1660  0.2482
 8612TIP3    H147251   0.656   3.685  14.868  0.0678 -0.1575  0.2105
 8612TIP3    H247252   0.590   3.552  14.900 -1.8167  0.2663 -1.7029
 8613TIP3   OH247253   5.115   2.115  11.872  0.0778  0.2766  0.3614
 8613TIP3    H147254   5.086   2.159  11.791  1.7461 -1.3763 -1.2479
 8613TIP3    H247255   5.038   2.067  11.902 -0.9078  1.8550  0.4545
 8614TIP3   OH247256   3.045   2.449   6.011  0.2749 -0.2445 -0.1762
 8614TIP3    H147257   3.022   2.419   5.923  0.0016 -0.0700 -0.1665
 8614TIP3    H247258   3.097   2.528   5.998  0.8710 -0.6362 -0.1980
 8615TIP3   OH247259   5.232   3.301  12.498  0.1267  0.0110  0.2833
 8615TIP3    H147260   5.255   3.245  12.572  0.2711  0.1078  0.3122
 8615TIP3    H247261   5.141   3.325  12.513 -0.3718 -1.3164 -0.4150
 8616TIP3   OH247262   0.449   0.610  14.014  0.3517 -0.3716  0.2641
 8616TIP3    H147263   0.459   0.587  14.106  1.6348 -0.9969 -0.0047
 8616TIP3    H247264   0.464   0.528  13.967 -0.7670 -0.1676 -0.5021
 8617TIP3   OH247265   3.880   4.399   1.104  0.5545  0.8631  0.6976
 8617TIP3    H147266   3.968   4.397   1.065  0.4420  1.7957  0.3598
 8617TIP3    H247267   3.821   4.393   1.029  0.2670 -2.3946  1.0667
 8618TIP3   OH247268   4.154   2.903  16.833 -0.3156 -0.3492 -0.1466
 8618TIP3    H147269   4.171   2.982  16.781 -0.3078  0.7658  1.4829
 8618TIP3    H247270   4.068   2.918  16.871  0.2636 -0.4725  1.2792
 8619TIP3   OH247271   3.556   0.329   1.192  0.3076  0.6848 -0.0195
 8619TIP3    H147272   3.619   0.262   1.167  0.5396  0.8308  0.1653
 8619TIP3    H247273   3.512   0.293   1.269  0.9502  1.0474  0.5348
 8620TIP3   OH247274   5.940   0.883   1.080  0.1208  0.6385 -1.0456
 8620TIP3    H147275   5.864   0.917   1.033 -0.1413 -0.4507 -1.4481
 8620TIP3    H247276   5.920   0.791   1.094  0.9881  0.5341 -0.3682
 8621TIP3   OH247277   2.608   0.646  14.410  0.3292  0.5600 -0.3547
 8621TIP3    H147278   2.554   0.701  14.466 -2.6934 -0.7094 -1.7826
 8621TIP3    H247279   2.632   0.703  14.336  0.6464  1.0270  0.1002
 8622TIP3   OH247280   2.647   6.716   4.277  0.7423  0.2275 -0.5951
 8622TIP3    H147281   2.636   6.811   4.273 -0.9925  0.0473 -0.7314
 8622TIP3    H247282   2.741   6.703   4.262  1.2521  1.9760  0.7163
 8623TIP3   OH247283   3.578   1.730  13.437  0.0766  0.2582 -0.1915
 8623TIP3    H147284   3.504   1.694  13.388  0.6645  1.1484 -1.8215
 8623TIP3    H247285   3.563   1.825  13.438  2.1829  0.7272 -2.4647
 8624TIP3   OH247286   6.085   3.765   2.550  0.2400 -0.6931  0.2613
 8624TIP3    H147287   6.166   3.736   2.591  1.3556  0.5711 -0.9827
 8624TIP3    H247288   6.106   3.771   2.457 -1.1989 -0.0354 -0.0412
 8625TIP3   OH247289   2.368   3.304   3.569 -0.1295  0.6852 -0.7722
 8625TIP3    H147290   2.344   3.265   3.485 -0.7527  2.3978 -1.4398
 8625TIP3    H247291   2.284   3.316   3.614  0.3106 -1.8194  0.9067
 8626TIP3   OH247292   2.062   6.297   4.456 -0.3329 -0.3136 -0.1966
 8626TIP3    H147293   2.088   6.327   4.369  1.0094  0.6259  0.4873
 8626TIP3    H247294   2.086   6.204   4.457  1.1422  0.0370 -0.3262
 8627TIP3   OH247295   6.374   4.790   0.705 -0.5017  0.2081  0.1138
 8627TIP3    H147296   6.313   4.773   0.777  0.1429 -0.4054  0.5283
 8627TIP3    H247297   6.453   4.825   0.748 -0.0763 -0.2528 -0.2809
 8628TIP3   OH247298   5.052   3.864   3.597 -0.5959 -0.3031  0.2741
 8628TIP3    H147299   5.123   3.799   3.591 -0.1292  0.2042  0.2754
 8628TIP3    H247300   5.000   3.850   3.517  1.2114  1.2900 -1.2736
 8629TIP3   OH247301   1.825   3.272  13.385  0.1800  0.3286 -0.3684
 8629TIP3    H147302   1.916   3.292  13.407 -0.1401 -0.8151  2.3433
 8629TIP3    H247303   1.823   3.177  13.373 -0.7958  0.1973  0.6322
 8630TIP3   OH247304   5.047   4.085  15.341 -0.4252 -0.1719  0.3695
 8630TIP3    H147305   4.989   4.074  15.265 -0.8447  0.9043  0.5154
 8630TIP3    H247306   5.000   4.145  15.398  0.4202 -0.0408  0.9409
 8631TIP3   OH247307   2.737   3.168  14.223 -0.4023  0.3900 -0.0972
 8631TIP3    H147308   2.790   3.235  14.266  0.0148 -0.4424  0.7199
 8631TIP3    H247309   2.751   3.184  14.130  0.2951  0.9610  0.0877
 8632TIP3   OH247310   5.882   0.048   2.843 -0.2153 -0.0990  0.6933
 8632TIP3    H147311   5.977   0.037   2.842 -0.2375 -0.2951 -0.6005
 8632TIP3    H247312   5.857   0.052   2.751 -1.0028  4.1742  0.8625
 8633TIP3   OH247313   2.485   3.383   4.042 -0.5037 -0.2947  0.2546
 8633TIP3    H147314   2.499   3.453   4.106 -0.3829  0.1922 -0.3034
 8633TIP3    H247315   2.396   3.397   4.010 -0.6738 -0.7175  0.5227
 8634TIP3   OH247316   5.671   6.732  14.971 -0.7386 -0.7635 -0.5934
 8634TIP3    H147317   5.674   6.747  15.065  1.6695  0.0924 -0.7263
 8634TIP3    H247318   5.693   6.817  14.933  1.7167 -1.8459 -1.7819
 8635TIP3   OH247319   3.326   0.022  15.772 -0.0511  0.6378 -0.0316
 8635TIP3    H147320   3.349   0.102  15.819 -0.2988  1.3880 -1.1254
 8635TIP3    H247321   3.410  -0.020  15.752  0.1057  0.8511  0.1834
 8636TIP3   OH247322   4.109   0.627   0.125  0.2797 -0.1703  0.0759
 8636TIP3    H147323   4.145   0.690   0.188 -0.0156  0.3780 -0.2881
 8636TIP3    H247324   4.065   0.682   0.060 -0.9269 -0.8154  0.3320
 8637TIP3   OH247325   3.700   2.680   4.363 -0.5076  0.5682  0.0388
 8637TIP3    H147326   3.718   2.748   4.299 -1.4808  0.7791 -0.0303
 8637TIP3    H247327   3.609   2.696   4.390 -0.7430 -0.6718  0.0421
 8638TIP3   OH247328   3.192   1.345   1.982 -0.1778 -0.0303 -0.7599
 8638TIP3    H147329   3.230   1.257   1.977 -1.2590 -0.6905  1.3871
 8638TIP3    H247330   3.263   1.404   1.955  2.0795 -1.2826  1.9965
 8639TIP3   OH247331   2.167   3.893   0.974  0.0097  0.1725  0.4265
 8639TIP3    H147332   2.161   3.798   0.962 -1.3054  0.3199 -0.3286
 8639TIP3    H247333   2.258   3.915   0.950  0.4359 -0.9238  0.9835
 8640TIP3   OH247334   6.385   3.406  14.405  0.2504 -0.6720  0.3261
 8640TIP3    H147335   6.410   3.498  14.417 -1.7367 -0.0078 -0.1890
 8640TIP3    H247336   6.460   3.367  14.360  1.4505  0.4870  1.2281
 8641TIP3   OH247337   5.339   1.154   6.170 -0.4220 -0.1251  0.3159
 8641TIP3    H147338   5.390   1.226   6.206 -0.0559  0.1042 -0.6355
 8641TIP3    H247339   5.333   1.173   6.076  0.2058 -1.6341 -0.0637
 8642TIP3   OH247340   3.474   6.675  14.387  0.7135  0.8521  1.0275
 8642TIP3    H147341   3.480   6.741  14.457  1.0455  1.1503  0.7222
 8642TIP3    H247342   3.407   6.709  14.328  0.8163  0.8660  0.9198
 8643TIP3   OH247343   0.036   3.549   0.552 -0.5524  0.2511  0.6950
 8643TIP3    H147344   0.014   3.456   0.543 -1.7531  0.5753  0.0568
 8643TIP3    H247345  -0.043   3.595   0.522 -0.7993  1.4819  3.0118
 8644TIP3   OH247346   4.430   3.738   1.257 -0.1242  0.2262  0.0365
 8644TIP3    H147347   4.487   3.725   1.181 -0.2960  0.0983 -0.0687
 8644TIP3    H247348   4.431   3.653   1.302 -1.1030 -0.1127 -0.5544
 8645TIP3   OH247349   6.769   4.206   6.018 -0.1796 -0.5990 -0.6733
 8645TIP3    H147350   6.767   4.111   6.026 -0.3417 -0.5813 -0.4988
 8645TIP3    H247351   6.810   4.236   6.099  0.8949 -0.5770 -1.2103
 8646TIP3   OH247352   5.551   6.657   3.979 -0.3034 -0.3888 -0.0727
 8646TIP3    H147353   5.622   6.721   3.979 -0.2481 -0.4410 -1.2477
 8646TIP3    H247354   5.522   6.654   4.071 -1.2809  2.3838 -0.2135
 8647TIP3   OH247355   6.307   1.956   2.234 -0.2689  0.0838  0.1784
 8647TIP3    H147356   6.303   1.900   2.311 -0.8639 -0.0776  0.0302
 8647TIP3    H247357   6.306   1.895   2.160  2.3955  0.0948  0.0339
 8648TIP3   OH247358   5.167   5.501  11.776 -0.4803  0.4607  0.2799
 8648TIP3    H147359   5.163   5.580  11.829 -0.3773  1.2586 -0.8747
 8648TIP3    H247360   5.201   5.530  11.692 -2.0229 -0.4929 -0.7277
 8649TIP3   OH247361   4.330   3.524   1.397 -0.0690 -0.4904 -0.1035
 8649TIP3    H147362   4.325   3.505   1.491  0.1376  1.6947  0.4045
 8649TIP3    H247363   4.249   3.488   1.361 -0.6445 -0.4522  1.0993
 8650TIP3   OH247364   0.623   2.375   4.410 -0.1008  0.4507  0.6960
 8650TIP3    H147365   0.645   2.303   4.468 -0.0613  0.8497  1.1782
 8650TIP3    H247366   0.707   2.405   4.376 -0.1175  0.2714  0.4915
 8651TIP3   OH247367   5.483   3.386  15.743 -0.2947 -0.3101  0.0798
 8651TIP3    H147368   5.556   3.338  15.782  0.0327  1.7254  2.2499
 8651TIP3    H247369   5.406   3.355  15.791 -0.2320  0.5169  0.7340
 8652TIP3   OH247370   2.965   6.029   0.533 -0.0082  0.5505 -0.4537
 8652TIP3    H147371   2.976   6.008   0.625  1.2093  0.8099 -0.5235
 8652TIP3    H247372   3.054   6.050   0.502 -0.1616 -0.9078 -2.0234
 8653TIP3   OH247373   4.223   2.948   1.360 -0.6734  0.0628  0.4786
 8653TIP3    H147374   4.237   2.926   1.268 -2.6449 -0.3829  0.2481
 8653TIP3    H247375   4.301   2.998   1.384  0.2808 -0.5357 -1.1801
 8654TIP3   OH247376   0.247   5.061  15.205  0.5173 -0.3800  0.5600
 8654TIP3    H147377   0.332   5.102  15.224  0.2741  0.2805  0.2418
 8654TIP3    H247378   0.203   5.123  15.147 -0.6912 -0.1229  1.7091
 8655TIP3   OH247379   5.990   4.221  12.843  0.1431  0.0517 -0.7741
 8655TIP3    H147380   6.043   4.232  12.922  0.9857 -0.6240 -1.2220
 8655TIP3    H247381   5.900   4.233  12.872  0.4190 -0.4948  0.3461
 8656TIP3   OH247382   1.786   0.213   3.584 -0.4309  0.4950  0.1098
 8656TIP3    H147383   1.831   0.252   3.660  0.8240 -1.8753  0.6865
 8656TIP3    H247384   1.824   0.257   3.508  2.5789 -0.9876  0.6131
 8657TIP3   OH247385   6.465   0.597  12.322  0.7229 -0.5499 -0.1107
 8657TIP3    H147386   6.387   0.554  12.286  1.0107 -0.9656 -0.2410
 8657TIP3    H247387   6.492   0.542  12.395  0.9872 -0.4922 -0.1643
 8658TIP3   OH247388   4.498   1.959   3.318  0.2876 -0.3386 -0.1966
 8658TIP3    H147389   4.493   1.864   3.307 -1.4432 -0.5111  1.5038
 8658TIP3    H247390   4.560   1.988   3.251  0.5107 -2.6038 -1.0509
 8659TIP3   OH247391   3.508   2.436  13.928  0.5005  0.0338 -0.2285
 8659TIP3    H147392   3.589   2.413  13.883  0.4043  0.2860 -0.5338
 8659TIP3    H247393   3.458   2.354  13.929  0.9497 -0.2425  0.3769
 8660TIP3   OH247394   4.643   5.866  12.727  0.0508  0.1914  0.3336
 8660TIP3    H147395   4.716   5.805  12.731  0.0492  0.0939 -0.6917
 8660TIP3    H247396   4.633   5.898  12.816  0.9436 -0.2586  0.6074
 8661TIP3   OH247397   1.632   5.341   2.814  0.3911  0.0348  0.1521
 8661TIP3    H147398   1.686   5.338   2.735  1.2471 -2.1585  0.7450
 8661TIP3    H247399   1.620   5.249   2.838 -1.2007  0.5921  1.6903
 8662TIP3   OH247400   0.658   1.171  15.104  0.4311 -0.1765  0.4573
 8662TIP3    H147401   0.705   1.157  15.022 -0.0695 -0.6729  0.2536
 8662TIP3    H247402   0.727   1.193  15.167  0.5852  3.6482 -0.8026
 8663TIP3   OH247403   2.459   0.097   3.774 -0.0864  0.2348 -0.1356
 8663TIP3    H147404   2.541   0.141   3.795  0.1270 -0.1688 -0.1204
 8663TIP3    H247405   2.439   0.126   3.685 -0.0334  0.4873 -0.0675
 8664TIP3   OH247406   4.998   1.571  16.924  0.2716 -0.2029 -0.1200
 8664TIP3    H147407   5.003   1.599  16.833  0.6141 -0.1229 -0.0790
 8664TIP3    H247408   5.042   1.486  16.926 -1.0339 -0.9059 -0.3020
 8665TIP3   OH247409   0.715   5.228  15.281  0.0180 -0.9026  0.1581
 8665TIP3    H147410   0.713   5.167  15.207 -2.5817  0.9629 -1.4498
 8665TIP3    H247411   0.721   5.314  15.241  0.3734  0.1119  2.2432
 8666TIP3   OH247412   6.373   4.422  11.353 -0.4162  0.1581 -0.5373
 8666TIP3    H147413   6.369   4.410  11.258  2.1670  1.8573 -0.9656
 8666TIP3    H247414   6.416   4.507  11.364 -0.3467 -0.1605  2.1884
 8667TIP3   OH247415   4.443   5.625  15.734  0.0254 -0.4915 -0.5972
 8667TIP3    H147416   4.397   5.699  15.776  0.0506 -1.1715  0.6897
 8667TIP3    H247417   4.376   5.557  15.725  0.4381 -1.0019  0.0489
 8668TIP3   OH247418   0.356   4.535  13.792 -0.1332  0.2173  0.4069
 8668TIP3    H147419   0.262   4.541  13.773 -0.1294 -1.2372 -0.1899
 8668TIP3    H247420   0.364   4.456  13.847  1.0129 -1.2652 -1.7446
 8669TIP3   OH247421   3.756   4.848   3.359  0.0773  0.2334  0.0043
 8669TIP3    H147422   3.827   4.880   3.414 -0.9173  1.3687  0.6754
 8669TIP3    H247423   3.696   4.806   3.420 -0.9033  1.2689 -0.2086
 8670TIP3   OH247424   0.292   5.529   3.329  0.3016  0.2555 -0.3348
 8670TIP3    H147425   0.251   5.599   3.278 -0.5356 -0.3549 -0.5149
 8670TIP3    H247426   0.264   5.448   3.286  0.4969 -0.2296  0.4317
 8671TIP3   OH247427   1.030   6.531  15.856  0.3704 -0.2977 -0.1079
 8671TIP3    H147428   1.091   6.464  15.888 -0.0764 -0.9129 -0.5138
 8671TIP3    H247429   1.005   6.500  15.769 -0.7975 -0.2450  0.1971
 8672TIP3   OH247430   5.752   2.714   1.918 -0.2403  0.3541  0.2593
 8672TIP3    H147431   5.678   2.774   1.924 -0.2154  0.2281  2.9758
 8672TIP3    H247432   5.829   2.768   1.931  0.2690  0.4973 -2.6381
 8673TIP3   OH247433   5.258   5.803   3.289  0.0962  0.5052 -0.2806
 8673TIP3    H147434   5.289   5.880   3.240  0.5731 -0.1026 -0.9666
 8673TIP3    H247435   5.271   5.730   3.228 -0.1330 -0.1489  0.4445
 8674TIP3   OH247436   3.130   3.554  12.836  0.1672 -0.1666 -0.2202
 8674TIP3    H147437   3.079   3.557  12.755 -0.4906 -0.3260  0.1824
 8674TIP3    H247438   3.080   3.496  12.894  0.3522  0.3780  0.4927
 8675TIP3   OH247439   0.410   3.961   0.007  0.0676  0.1736 -0.2257
 8675TIP3    H147440   0.364   3.890  -0.037 -1.6892  0.4039  1.1190
 8675TIP3    H247441   0.409   3.935   0.100  0.1198  1.5521  0.1781
 8676TIP3   OH247442   1.142   3.087  11.115 -0.4455  0.2292 -0.3723
 8676TIP3    H147443   1.225   3.040  11.126 -1.6976 -2.5524 -1.7293
 8676TIP3    H247444   1.129   3.133  11.198  1.9479 -0.0458  0.2346
 8677TIP3   OH247445   0.499   2.104   5.501  0.0030 -0.1193  0.7657
 8677TIP3    H147446   0.595   2.110   5.504  0.0929 -1.1638  0.3284
 8677TIP3    H247447   0.481   2.014   5.472 -1.0959  0.3911 -0.2467
 8678TIP3   OH247448   1.641   2.776  16.033  0.0543  0.7281  0.4859
 8678TIP3    H147449   1.558   2.743  16.067 -0.2459  2.9935  2.1631
 8678TIP3    H247450   1.621   2.864  16.002  1.8224  1.2922  0.8648
 8679TIP3   OH247451   4.869   4.262  15.482 -0.0098  0.5319  0.2076
 8679TIP3    H147452   4.862   4.334  15.545 -0.6846  0.2573  0.4576
 8679TIP3    H247453   4.807   4.197  15.513  1.3740 -0.6481  0.5986
 8680TIP3   OH247454   6.741   2.608  16.616  0.5455  0.4222  0.5603
 8680TIP3    H147455   6.778   2.607  16.705  1.1275 -3.0659  0.4055
 8680TIP3    H247456   6.814   2.636  16.561  0.8025  0.5462  0.9511
 8681TIP3   OH247457   5.395   5.170   4.811 -0.1044 -0.6208 -0.3876
 8681TIP3    H147458   5.489   5.187   4.816 -0.0382 -0.5266 -1.7221
 8681TIP3    H247459   5.356   5.257   4.802 -0.2667 -0.7176 -0.5983
 8682TIP3   OH247460   4.442   2.436   0.118 -0.1238  0.1161 -0.7680
 8682TIP3    H147461   4.496   2.357   0.110  0.1021  0.1127  0.6404
 8682TIP3    H247462   4.352   2.403   0.122  0.0043 -0.1177  0.3651
 8683TIP3   OH247463   6.762   1.530  16.589 -0.3696 -0.5008 -0.2353
 8683TIP3    H147464   6.698   1.586  16.633 -0.3080 -0.2665 -0.4392
 8683TIP3    H247465   6.809   1.486  16.659 -1.4459 -1.4612 -0.0798
 8684TIP3   OH247466   3.145   3.352   3.080  0.4279  0.2426  0.2705
 8684TIP3    H147467   3.178   3.282   3.136  0.3937 -0.6839 -0.8309
 8684TIP3    H247468   3.176   3.433   3.122 -0.2051 -0.3597  2.0104
 8685TIP3   OH247469   3.438   0.626  12.123  0.9917  0.2793  0.1322
 8685TIP3    H147470   3.433   0.553  12.062  2.8997 -0.1012  0.3609
 8685TIP3    H247471   3.373   0.606  12.190  1.0036 -0.8610 -0.1779
 8686TIP3   OH247472   2.049   1.992  14.182 -0.6580 -1.2255  0.3705
 8686TIP3    H147473   2.004   2.040  14.251 -0.6172  0.1041 -0.5033
 8686TIP3    H247474   2.141   1.993  14.207 -0.2401  1.5517 -0.9439
 8687TIP3   OH247475   6.643   3.759   5.973  0.1441  0.3951  0.2556
 8687TIP3    H147476   6.561   3.771   6.021 -0.9637  0.2487 -1.4695
 8687TIP3    H247477   6.620   3.698   5.902  1.3926  1.3674 -1.0533
 8688TIP3   OH247478   6.445   0.952   6.408  0.1431 -0.0046  0.7172
 8688TIP3    H147479   6.472   0.910   6.490 -0.7057  1.4810  1.8271
 8688TIP3    H247480   6.352   0.971   6.421  0.0108  0.3034 -0.5846
 8689TIP3   OH247481   3.934   3.459  13.065 -0.3225  0.8233  0.2716
 8689TIP3    H147482   4.025   3.485  13.080  0.2817 -1.5116  1.0992
 8689TIP3    H247483   3.926   3.451  12.970  0.9715 -0.8056  0.2460
 8690TIP3   OH247484   4.922   4.633  12.365 -0.0988 -0.6542  0.0698
 8690TIP3    H147485   4.974   4.599  12.438  0.3795  0.7561  0.4244
 8690TIP3    H247486   4.951   4.582  12.290  0.1577 -1.4303  0.6786
 8691TIP3   OH247487   4.815   5.014  16.330  0.2252  0.2995  0.1622
 8691TIP3    H147488   4.752   4.985  16.396  0.2321  0.1192  0.0898
 8691TIP3    H247489   4.836   4.935  16.281 -1.6733  0.8299 -1.6781
 8692TIP3   OH247490   5.316   5.985  14.914  0.3374  0.3265  0.1046
 8692TIP3    H147491   5.259   5.988  14.991  0.7099  0.1607  0.3883
 8692TIP3    H247492   5.281   6.054  14.857 -1.4898 -1.1769 -0.6944
 8693TIP3   OH247493   0.483   3.970  10.877 -0.1570  0.0796 -0.0372
 8693TIP3    H147494   0.440   3.970  10.792 -0.0520 -0.6068 -0.1021
 8693TIP3    H247495   0.491   4.062  10.901 -0.6177  0.2548 -0.5507
 8694TIP3   OH247496   4.688   3.990   0.906  0.0728  0.4084  0.0206
 8694TIP3    H147497   4.727   3.904   0.889  0.1497  0.5463 -0.4958
 8694TIP3    H247498   4.664   3.987   0.999 -0.3337 -0.3427 -0.0968
 8695TIP3   OH247499   1.434   5.742  13.237 -0.7294 -0.6835  0.0754
 8695TIP3    H147500   1.511   5.699  13.200 -1.3596 -0.3568 -1.7182
 8695TIP3    H247501   1.469   5.798  13.306  0.9926  1.0335 -2.0224
 8696TIP3   OH247502   6.280   4.679  14.541 -0.5987  0.2513 -0.1037
 8696TIP3    H147503   6.307   4.768  14.518 -1.1322  0.2909 -0.5931
 8696TIP3    H247504   6.359   4.639  14.577 -0.6297  1.2641  1.1696
 8697TIP3   OH247505   5.545   0.807   5.808  0.0402 -0.2028 -0.6777
 8697TIP3    H147506   5.548   0.824   5.714 -0.9389  1.2447 -0.4769
 8697TIP3    H247507   5.452   0.794   5.827 -0.0148  1.5201  0.3889
 8698TIP3   OH247508   6.293   3.287   3.809 -0.6145 -0.0578 -0.3643
 8698TIP3    H147509   6.340   3.316   3.886 -0.8981  2.9501 -1.2212
 8698TIP3    H247510   6.249   3.206   3.837  3.5701 -2.1801  0.9143
 8699TIP3   OH247511   0.125   3.002   2.179 -0.1794  0.5808  0.0948
 8699TIP3    H147512   0.086   3.076   2.225 -1.0356  1.1094 -1.3844
 8699TIP3    H247513   0.111   2.927   2.237 -0.8041  1.2847  0.8779
 8700TIP3   OH247514   6.051   6.023   3.497 -0.0616 -0.1611  0.6770
 8700TIP3    H147515   6.087   6.105   3.531 -1.9826  0.3631  1.6382
 8700TIP3    H247516   6.013   5.980   3.574 -0.3857 -1.2528 -0.0584
 8701TIP3   OH247517   0.492   3.293  13.988  0.2457 -0.4661  0.7926
 8701TIP3    H147518   0.563   3.283  14.051  1.7115 -1.6770 -0.9499
 8701TIP3    H247519   0.448   3.207  13.988  0.6342 -0.6813 -0.2155
 8702TIP3   OH247520   3.166   5.754  14.343 -0.0272 -0.1979  0.6953
 8702TIP3    H147521   3.102   5.810  14.299 -0.3132 -1.1701 -0.1692
 8702TIP3    H247522   3.227   5.729  14.274  0.0308 -1.0357  1.0454
 8703TIP3   OH247523   2.790   5.458   5.369  0.0030  0.1285  0.1966
 8703TIP3    H147524   2.831   5.410   5.298 -0.3506 -1.1256  0.8171
 8703TIP3    H247525   2.797   5.550   5.343  0.9271 -0.2289 -0.8841
 8704TIP3   OH247526   5.402   6.196   3.725 -0.0181 -0.0169  0.0891
 8704TIP3    H147527   5.413   6.168   3.634 -0.1265 -0.5793  0.2463
 8704TIP3    H247528   5.384   6.290   3.718  2.8055  0.5976 -0.2966
 8705TIP3   OH247529   4.841   3.151   4.364  0.6010  0.4065 -0.7458
 8705TIP3    H147530   4.920   3.105   4.334  0.7823  0.2050  0.0151
 8705TIP3    H247531   4.791   3.166   4.285  0.4175 -1.3336 -1.0070
 8706TIP3   OH247532   3.395   6.476   1.859 -0.1447 -0.1721  0.0495
 8706TIP3    H147533   3.358   6.489   1.772 -0.0892 -0.7379 -0.0591
 8706TIP3    H247534   3.319   6.463   1.916 -0.1366 -1.2034 -0.1521
 8707TIP3   OH247535   3.495   3.265   3.964  0.1598  0.6151  0.2380
 8707TIP3    H147536   3.441   3.201   3.917  1.9462 -0.5800 -0.2902
 8707TIP3    H247537   3.491   3.344   3.910 -0.6910  0.3960 -0.0284
 8708TIP3   OH247538   1.507   4.491  11.141  0.9764 -0.1314  0.6711
 8708TIP3    H147539   1.461   4.483  11.225  1.2439 -0.2598  0.8041
 8708TIP3    H247540   1.596   4.518  11.165  1.4723 -1.5686  0.5187
 8709TIP3   OH247541   3.047   3.277  13.801 -0.2974 -0.6361  0.0930
 8709TIP3    H147542   3.083   3.199  13.844  1.0914 -0.6238 -0.9712
 8709TIP3    H247543   3.037   3.252  13.710 -0.1074  0.3402 -0.2049
 8710TIP3   OH247544   4.922   2.134   4.714  0.5198  0.2002  0.0580
 8710TIP3    H147545   4.954   2.045   4.699 -0.9687 -0.6789  1.6369
 8710TIP3    H247546   4.839   2.121   4.761  0.4837  2.4409  0.7047
 8711TIP3   OH247547   0.757   1.039   6.542 -0.2145  0.3100 -0.1042
 8711TIP3    H147548   0.711   1.053   6.459 -1.4453  0.7761  0.6357
 8711TIP3    H247549   0.792   1.125   6.565 -0.6900  0.3954  0.3214
 8712TIP3   OH247550   2.222   3.210  16.642 -0.2167 -0.3340 -0.0577
 8712TIP3    H147551   2.196   3.165  16.722 -1.3062  0.2330 -0.0739
 8712TIP3    H247552   2.153   3.274  16.626 -0.3367 -0.8405 -1.7876
 8713TIP3   OH247553   3.144   3.287  11.331 -0.0211  0.0676  0.7890
 8713TIP3    H147554   3.111   3.345  11.399 -2.2600  0.8570 -0.8320
 8713TIP3    H247555   3.070   3.229  11.312  0.9651 -0.9388 -0.1198
 8714TIP3   OH247556   4.079   3.706   4.523  0.1557  0.7021  0.0337
 8714TIP3    H147557   3.996   3.736   4.486  0.6922  0.1776 -1.6879
 8714TIP3    H247558   4.146   3.748   4.470  0.9477 -1.1287 -0.5236
 8715TIP3   OH247559   6.634   4.297  15.016  0.4477 -0.4153  0.1695
 8715TIP3    H147560   6.662   4.388  15.023 -0.9023  0.0713 -0.4926
 8715TIP3    H247561   6.623   4.282  14.922  1.2588 -1.4763  0.2143
 8716TIP3   OH247562   1.911   5.319  12.101 -0.7077  0.3683  0.1357
 8716TIP3    H147563   2.002   5.329  12.072 -0.3550 -3.0613 -0.3134
 8716TIP3    H247564   1.903   5.381  12.175  1.2414  2.3695 -1.1808
 8717TIP3   OH247565   5.459   0.198   3.001 -0.0093  0.3585 -0.5675
 8717TIP3    H147566   5.460   0.123   2.942 -1.2563  0.0783 -0.2516
 8717TIP3    H247567   5.446   0.161   3.088  0.5013  0.8635 -0.2707
 8718TIP3   OH247568   1.135   4.148   3.788  0.4153  0.7771 -0.0061
 8718TIP3    H147569   1.170   4.076   3.840 -1.1105 -1.5960 -2.0392
 8718TIP3    H247570   1.050   4.168   3.828  0.6384  1.1560  0.2852
 8719TIP3   OH247571   2.746   6.058   5.958  0.5368  0.4022  0.4792
 8719TIP3    H147572   2.771   6.109   6.035  1.0931 -0.1416  0.6692
 8719TIP3    H247573   2.827   6.014   5.931  0.8459  2.1255 -1.6113
 8720TIP3   OH247574   5.889   3.183   4.545  0.1092  0.7501  0.4031
 8720TIP3    H147575   5.892   3.192   4.449  0.2288 -0.4013  0.2801
 8720TIP3    H247576   5.822   3.116   4.560  0.6375  0.3697  1.0823
 8721TIP3   OH247577   2.682   3.965   0.394  0.0962 -0.2435 -0.0610
 8721TIP3    H147578   2.744   3.915   0.446 -0.0231  0.3268  0.6527
 8721TIP3    H247579   2.604   3.909   0.388  0.4433 -0.6967 -0.4294
 8722TIP3   OH247580   5.336   6.582  14.101  0.1951  0.0393 -0.5669
 8722TIP3    H147581   5.255   6.598  14.053 -0.7569  2.6816  1.6590
 8722TIP3    H247582   5.399   6.642  14.061  0.2694  0.0085 -0.4957
 8723TIP3   OH247583   4.221   4.140   5.393  0.0156  0.4515 -0.1794
 8723TIP3    H147584   4.234   4.049   5.367  1.0711  0.7424 -0.7648
 8723TIP3    H247585   4.127   4.149   5.404 -0.0858 -0.7605  0.0968
 8724TIP3   OH247586   4.151   1.036   3.647 -0.9822  0.4599 -0.3067
 8724TIP3    H147587   4.064   1.029   3.686 -1.7151  2.5418 -1.3980
 8724TIP3    H247588   4.139   1.003   3.558  0.1732 -2.2659  0.4542
 8725TIP3   OH247589   5.730   6.074  11.729  0.6952 -0.2030  0.3136
 8725TIP3    H147590   5.718   6.024  11.648 -1.3755  1.8080 -0.7215
 8725TIP3    H247591   5.683   6.155  11.714  0.4839  0.3726  3.4769
 8726TIP3   OH247592   0.237   2.876   1.962  0.7745 -0.4844  0.0886
 8726TIP3    H147593   0.203   2.921   2.040 -1.1769 -0.5982 -0.6394
 8726TIP3    H247594   0.241   2.944   1.895 -1.7373 -1.1882 -0.8830
 8727TIP3   OH247595   3.061   3.132  15.282  0.1521  0.2082 -0.0361
 8727TIP3    H147596   3.059   3.109  15.375  1.4554 -0.1945 -0.0885
 8727TIP3    H247597   2.999   3.204  15.274  1.9221  2.0730  1.6834
 8728TIP3   OH247598   6.689   1.405   2.488 -0.3926  0.1991  0.3278
 8728TIP3    H147599   6.759   1.465   2.513 -0.4388  1.3023 -1.9117
 8728TIP3    H247600   6.734   1.333   2.445 -0.5816  1.1009 -1.4726
 8729TIP3   OH247601   3.697   3.967  12.209  0.8651 -0.1665  0.0125
 8729TIP3    H147602   3.731   3.923  12.287  1.3116 -1.9288 -1.1029
 8729TIP3    H247603   3.604   3.945  12.207  1.2169 -1.7932 -0.9148
 8730TIP3   OH247604   2.671   0.828   4.519  0.4412 -0.6276 -0.4795
 8730TIP3    H147605   2.706   0.884   4.589  2.4104  1.2621 -2.7821
 8730TIP3    H247606   2.605   0.881   4.476  0.5891 -1.0251 -1.2108
 8731TIP3   OH247607   6.783   5.878   3.814  0.4618  0.2343  0.1140
 8731TIP3    H147608   6.763   5.788   3.841  0.1434  0.2162 -0.1730
 8731TIP3    H247609   6.699   5.913   3.784  1.0716 -0.3063 -2.4599
 8732TIP3   OH247610   3.462   4.421   3.239  0.6913  0.1255 -0.0476
 8732TIP3    H147611   3.495   4.421   3.149 -0.6038 -0.1277 -0.5452
 8732TIP3    H247612   3.368   4.408   3.230  0.4727  0.5769  1.3295
 8733TIP3   OH247613   1.919   0.656   0.244  0.3015  0.3359 -0.0923
 8733TIP3    H147614   1.829   0.681   0.265  1.0049  1.5776  1.6812
 8733TIP3    H247615   1.967   0.739   0.239  0.9271 -0.0905 -3.4988
 8734TIP3   OH247616   3.412   0.568  15.007 -0.1571 -0.0914 -0.6418
 8734TIP3    H147617   3.336   0.618  14.978 -1.3183 -0.9660  0.7191
 8734TIP3    H247618   3.468   0.633  15.049 -2.3959  0.0290  2.5889
 8735TIP3   OH247619   5.257   0.840   3.131  0.4423  0.0515 -0.5710
 8735TIP3    H147620   5.206   0.911   3.092 -1.3581 -0.8197  0.0960
 8735TIP3    H247621   5.307   0.881   3.201 -2.1547  0.4256  1.2174
 8736TIP3   OH247622   5.476   0.533  11.936  0.1411  0.2805 -0.0288
 8736TIP3    H147623   5.535   0.517  12.009 -2.6130 -0.9245  2.1415
 8736TIP3    H247624   5.471   0.449  11.890  0.3504  0.4595 -0.3774
 8737TIP3   OH247625   0.859   1.351   1.338  0.1512  0.4061 -0.8638
 8737TIP3    H147626   0.829   1.290   1.406  1.4436  0.8291  0.1418
 8737TIP3    H247627   0.951   1.368   1.360 -0.2129  2.9029 -0.9374
 8738TIP3   OH247628   3.240   5.330   4.869 -0.0385 -0.0991  0.0044
 8738TIP3    H147629   3.232   5.422   4.893  1.4676  0.6215 -1.9735
 8738TIP3    H247630   3.171   5.317   4.804 -0.5630 -0.5226  0.6359
 8739TIP3   OH247631   0.188   1.311  13.978  0.0953  0.3986 -0.2500
 8739TIP3    H147632   0.093   1.325  13.976 -0.1426 -1.0557 -2.1730
 8739TIP3    H247633   0.219   1.346  13.894  1.3296  1.0975  0.4581
 8740TIP3   OH247634   2.562   6.330   1.216  0.4510  0.0616  0.5604
 8740TIP3    H147635   2.620   6.329   1.292 -0.7086 -2.0423  1.4802
 8740TIP3    H247636   2.490   6.273   1.239 -0.6208  0.4045 -1.6355
 8741TIP3   OH247637   3.500   5.183  13.408 -0.3190 -0.0354 -0.1595
 8741TIP3    H147638   3.588   5.197  13.443  0.4621 -0.0767 -1.9869
 8741TIP3    H247639   3.469   5.104  13.452  1.0212 -0.6776 -0.2900
 8742TIP3   OH247640   0.616   4.130  12.141  0.5503  0.0440  0.0066
 8742TIP3    H147641   0.669   4.210  12.144  1.6253 -0.6333 -0.2275
 8742TIP3    H247642   0.558   4.143  12.067 -1.4409  1.8733  1.7615
 8743TIP3   OH247643   2.176   5.441   4.832 -0.8332  0.3527 -0.9411
 8743TIP3    H147644   2.158   5.529   4.865 -0.3128 -0.2343  1.0820
 8743TIP3    H247645   2.092   5.410   4.798 -1.8653  0.4531  1.3610
 8744TIP3   OH247646   5.918   5.898   0.493 -0.7214  0.0066  0.5971
 8744TIP3    H147647   5.867   5.977   0.475 -1.3371 -0.5282 -0.0646
 8744TIP3    H247648   5.909   5.884   0.587 -0.1303  1.0410  0.8256
 8745TIP3   OH247649   0.579   0.549  14.360  0.3622 -0.5485 -0.0166
 8745TIP3    H147650   0.493   0.530  14.322  0.0041  1.9327 -0.6269
 8745TIP3    H247651   0.565   0.629  14.411  1.8736 -1.2631  1.6411
 8746TIP3   OH247652   3.306   1.296  12.501 -0.1752  0.1609  0.4166
 8746TIP3    H147653   3.236   1.312  12.565  0.8705 -0.6636  1.8267
 8746TIP3    H247654   3.346   1.382  12.488  0.2300  0.1783  1.6662
 8747TIP3   OH247655   0.007   0.555  12.456 -0.3333 -0.2380 -0.1111
 8747TIP3    H147656  -0.085   0.530  12.454 -0.8356  1.4648  0.3982
 8747TIP3    H247657   0.039   0.523  12.541 -0.8285  0.3842  0.3167
 8748TIP3   OH247658   4.757   0.348   0.016  0.2557 -0.1685 -0.4348
 8748TIP3    H147659   4.723   0.259   0.022  1.3263 -0.5652 -0.0645
 8748TIP3    H247660   4.760   0.379   0.106 -0.3295  0.3310 -0.5833
 8749TIP3   OH247661   0.429   6.097   0.451 -0.1271 -0.2088 -0.4061
 8749TIP3    H147662   0.364   6.149   0.498  1.8706  0.6237  1.6093
 8749TIP3    H247663   0.381   6.018   0.424 -1.9549  0.3470  0.9841
 8750TIP3   OH247664   5.151   4.786   3.996  0.4177 -0.6681 -0.0934
 8750TIP3    H147665   5.229   4.842   3.986  0.3752 -0.4876  0.5785
 8750TIP3    H247666   5.111   4.786   3.908 -0.9734  2.4287  0.3902
 8751TIP3   OH247667   1.246   0.939   3.385  0.3909  0.4290 -0.1524
 8751TIP3    H147668   1.283   0.850   3.381  1.6612  0.9222  0.0577
 8751TIP3    H247669   1.318   0.993   3.419 -0.4494  1.4958 -0.0205
 8752TIP3   OH247670   6.256   5.519  11.474 -0.8026  0.0491 -0.2134
 8752TIP3    H147671   6.269   5.458  11.546 -0.2515  0.6667  0.2241
 8752TIP3    H247672   6.295   5.601  11.505  0.9305 -0.0986 -1.8146
 8753TIP3   OH247673   6.466   3.133   5.351 -0.1833  0.1995 -0.0096
 8753TIP3    H147674   6.561   3.133   5.363 -0.0770  2.6357 -0.4134
 8753TIP3    H247675   6.432   3.089   5.429  1.2685 -1.0815 -0.0516
 8754TIP3   OH247676   3.782   5.017  12.602 -0.3931 -0.6137 -0.6062
 8754TIP3    H147677   3.850   5.084  12.589 -1.2432  0.4346  0.1638
 8754TIP3    H247678   3.781   5.002  12.696 -0.8892 -0.9973 -0.6682
 8755TIP3   OH247679   2.010   5.836  16.675  0.4106  0.6554  0.4257
 8755TIP3    H147680   2.030   5.853  16.583 -1.4975  0.0737 -0.1301
 8755TIP3    H247681   1.965   5.752  16.676 -0.6684  1.1943  1.7311
 8756TIP3   OH247682   2.150   0.504   6.739 -0.1163  0.0459 -0.1662
 8756TIP3    H147683   2.067   0.474   6.703 -0.4322  1.2462 -0.4829
 8756TIP3    H247684   2.208   0.428   6.732 -0.9954 -0.6042 -0.5511
 8757TIP3   OH247685   4.324   5.987  16.570  0.0544  0.4171 -0.1451
 8757TIP3    H147686   4.262   6.036  16.516  0.9335  0.7715 -0.8508
 8757TIP3    H247687   4.371   6.055  16.618 -0.1625  0.1427  0.4688
 8758TIP3   OH247688   5.703   3.217   1.965 -0.6025  0.0279 -0.6850
 8758TIP3    H147689   5.608   3.206   1.958 -0.7133  0.8993 -0.6070
 8758TIP3    H247690   5.727   3.164   2.041 -1.5497  2.5413  1.5011
 8759TIP3   OH247691   0.331   5.385  11.554  0.8277 -0.5548  0.0942
 8759TIP3    H147692   0.353   5.303  11.508  1.2567 -0.5061  0.2110
 8759TIP3    H247693   0.327   5.451  11.484  1.7354 -0.4297  0.1477
 8760TIP3   OH247694   1.932   6.676  10.822 -0.2532  0.1092 -0.5336
 8760TIP3    H147695   1.878   6.629  10.759  0.1347 -1.4230  0.2125
 8760TIP3    H247696   1.879   6.750  10.849 -1.2210 -0.3269 -1.1894
 8761TIP3   OH247697   2.004   3.804   2.215 -0.1299  0.0367  0.0074
 8761TIP3    H147698   1.921   3.758   2.218  0.2468 -0.6764 -0.2972
 8761TIP3    H247699   2.070   3.735   2.220  0.4444  0.5629 -0.1562
 8762TIP3   OH247700   1.935   6.702   1.622  0.4136 -0.1881 -0.1226
 8762TIP3    H147701   1.852   6.720   1.667  0.3101  1.7528 -0.9999
 8762TIP3    H247702   1.987   6.655   1.688 -0.7467  0.0745  1.0405
 8763TIP3   OH247703   2.950   3.629  11.079  0.6276  0.1206 -0.5202
 8763TIP3    H147704   2.996   3.712  11.065  0.4542  0.2845 -0.1205
 8763TIP3    H247705   2.950   3.618  11.174  0.6371 -0.3305 -0.5717
 8764TIP3   OH247706   2.688   0.781   4.065 -0.2797  0.7038 -0.2996
 8764TIP3    H147707   2.697   0.875   4.054 -0.6715  0.8871  0.7546
 8764TIP3    H247708   2.596   0.763   4.045 -1.0238  1.0562  2.3989
 8765TIP3   OH247709   3.959   2.395  13.594  0.3536 -0.0857 -0.3028
 8765TIP3    H147710   3.881   2.361  13.637  1.2547 -1.8890 -0.0105
 8765TIP3    H247711   3.929   2.475  13.550 -1.6156 -0.6797 -0.1439
 8766TIP3   OH247712   1.247   0.986   4.395 -0.1789 -0.1361  0.0474
 8766TIP3    H147713   1.192   1.048   4.347  0.2897 -1.1752 -1.9012
 8766TIP3    H247714   1.189   0.912   4.413  0.3357 -0.9158 -1.3629
 8767TIP3   OH247715   6.313   4.590   2.203 -0.1859  1.1088  0.5920
 8767TIP3    H147716   6.396   4.542   2.196 -0.8069  0.0418  0.2888
 8767TIP3    H247717   6.333   4.665   2.259  0.8383  0.5250  1.0309
 8768TIP3   OH247718   0.969   5.906  11.127  0.1755  0.1430 -0.0370
 8768TIP3    H147719   0.955   5.946  11.041 -0.6998 -2.6751 -1.3184
 8768TIP3    H247720   1.024   5.830  11.109  0.5465 -0.1314  2.0514
 8769TIP3   OH247721   6.751   4.099   1.917 -0.3333  0.3578  0.6954
 8769TIP3    H147722   6.692   4.030   1.886  2.1733 -1.5388 -0.2120
 8769TIP3    H247723   6.759   4.159   1.843 -1.7345  1.1477  1.1385
 8770TIP3   OH247724   0.037   4.847   0.383 -0.7512  0.1698  0.2348
 8770TIP3    H147725   0.004   4.825   0.296 -1.2154  2.7445 -0.3401
 8770TIP3    H247726   0.132   4.850   0.372 -0.7996  0.3855 -0.1888
 8771TIP3   OH247727   1.189   5.859   1.298 -0.5274 -0.1815  0.0729
 8771TIP3    H147728   1.122   5.847   1.365  0.5410 -0.7747  1.0761
 8771TIP3    H247729   1.198   5.954   1.290 -1.4540 -0.1007 -0.0486
 8772TIP3   OH247730   3.289   3.686   4.500  0.1753  0.0981  0.6109
 8772TIP3    H147731   3.275   3.776   4.471 -0.6434  0.0282  0.7492
 8772TIP3    H247732   3.290   3.692   4.596  2.2159  0.2373  0.6250
 8773TIP3   OH247733   2.438   4.574   2.755 -0.3042  0.1214  0.0145
 8773TIP3    H147734   2.407   4.493   2.714  1.3149 -0.1750 -0.6952
 8773TIP3    H247735   2.516   4.598   2.705  0.3145  1.1088  1.3825
 8774TIP3   OH247736   5.405   4.129  13.088  0.5853  0.0916  0.6333
 8774TIP3    H147737   5.472   4.068  13.118  0.1010 -1.0681 -0.5729
 8774TIP3    H247738   5.424   4.142  12.995  0.5306  1.6038  0.8097
 8775TIP3   OH247739   3.429   1.269   5.832 -0.3009  0.0253 -0.5899
 8775TIP3    H147740   3.363   1.283   5.900 -0.8533 -1.0505 -0.8851
 8775TIP3    H247741   3.506   1.316   5.864 -1.2712  1.5114 -0.3632
 8776TIP3   OH247742   0.383   6.686   3.627  0.3389 -0.1266 -1.1166
 8776TIP3    H147743   0.379   6.767   3.575 -3.1117  0.8847  0.4652
 8776TIP3    H247744   0.357   6.617   3.566  0.8972  0.2964 -1.8560
 8777TIP3   OH247745   1.206   4.370  11.726 -0.5119  0.6305 -0.1391
 8777TIP3    H147746   1.228   4.445  11.671  0.0853  0.8708  0.4342
 8777TIP3    H247747   1.122   4.393  11.765 -0.3953  0.9361 -0.0711
 8778TIP3   OH247748   3.929   0.517  14.584  0.0229  0.0058 -0.0191
 8778TIP3    H147749   3.991   0.445  14.573  0.5456  0.4636 -0.1034
 8778TIP3    H247750   3.950   0.554  14.669 -1.3676 -0.9964  0.7924
 8779TIP3   OH247751   4.182   5.144  11.722  0.0003  0.0438  0.8125
 8779TIP3    H147752   4.179   5.181  11.811 -0.1287  0.1044  0.7831
 8779TIP3    H247753   4.275   5.140  11.701 -0.0202  2.4019 -0.0434
 8780TIP3   OH247754   2.889   3.120  12.710  0.1206  0.5679 -0.2229
 8780TIP3    H147755   2.806   3.145  12.669 -0.0689  2.9762  1.4415
 8780TIP3    H247756   2.864   3.074  12.789  0.3566  0.8140 -0.0009
 8781TIP3   OH247757   0.925   4.747   5.175  0.0868 -0.5354 -0.4039
 8781TIP3    H147758   0.968   4.706   5.101 -1.0853 -0.9944 -0.8508
 8781TIP3    H247759   0.847   4.693   5.191 -1.9428  1.8520 -1.5003
 8782TIP3   OH247760   1.781   6.015  15.905 -0.4747 -0.8154  0.1050
 8782TIP3    H147761   1.768   5.927  15.940  1.0230 -0.9207  0.4840
 8782TIP3    H247762   1.856   6.049  15.954 -0.3179  0.2273 -0.8187
 8783TIP3   OH247763   3.086   3.126   1.549 -0.1897 -0.4236  0.1185
 8783TIP3    H147764   3.105   3.086   1.634  1.1117  1.2232  0.6449
 8783TIP3    H247765   3.136   3.072   1.487  1.8138  0.4856  0.8548
 8784TIP3   OH247766   1.908   1.177   2.341  0.1217 -0.2153 -0.4581
 8784TIP3    H147767   1.869   1.097   2.376 -0.4229  0.0239 -0.5124
 8784TIP3    H247768   1.920   1.159   2.248  1.9789 -1.0161 -0.1006
 8785TIP3   OH247769   2.440   0.231   6.263  0.7700 -0.2101  0.0584
 8785TIP3    H147770   2.370   0.167   6.273  0.4045 -0.1097 -1.5793
 8785TIP3    H247771   2.461   0.229   6.170  1.5434  1.2354  0.1705
 8786TIP3   OH247772   1.184   4.665   1.111 -0.1843  0.1051  0.5439
 8786TIP3    H147773   1.153   4.616   1.187  1.7758  0.1924  1.4574
 8786TIP3    H247774   1.104   4.698   1.070 -1.3100  0.1880  2.6515
 8787TIP3   OH247775   0.891   3.953   0.864  0.3482  0.1413 -0.0713
 8787TIP3    H147776   0.969   3.952   0.919  0.7999 -0.3826 -0.7099
 8787TIP3    H247777   0.834   4.019   0.904  0.0711 -1.1695  1.8444
 8788TIP3   OH247778   0.438   4.029   2.610 -0.1834 -0.3626 -0.0681
 8788TIP3    H147779   0.354   4.032   2.564  0.4064 -1.8700 -1.3382
 8788TIP3    H247780   0.458   3.936   2.617  0.1904 -0.1717  2.5296
 8789TIP3   OH247781   5.096   3.100  15.306 -0.1225  0.2916 -0.5145
 8789TIP3    H147782   5.034   3.150  15.252  0.2544  0.0318 -1.2114
 8789TIP3    H247783   5.053   3.015  15.319 -0.9180  0.8892  0.9668
 8790TIP3   OH247784   3.576   6.773  14.947  0.1606 -0.5974  0.6101
 8790TIP3    H147785   3.646   6.838  14.954 -0.1379 -0.3551  1.4852
 8790TIP3    H247786   3.502   6.822  14.911 -0.1715 -0.3406  1.5902
 8791TIP3   OH247787   0.462   2.776   3.386 -0.1227 -0.3795  0.3991
 8791TIP3    H147788   0.548   2.817   3.401 -0.8946  0.2809  3.8941
 8791TIP3    H247789   0.400   2.849   3.389 -1.0018 -1.0862 -0.0739
 8792TIP3   OH247790   3.159   5.257   6.207  0.3130  0.3179  0.3871
 8792TIP3    H147791   3.223   5.223   6.269 -1.6659 -2.6087  1.0504
 8792TIP3    H247792   3.081   5.273   6.259 -1.3984 -2.1590 -1.2133
 8793TIP3   OH247793   1.496   5.727  11.004 -0.8346  0.5609  0.1722
 8793TIP3    H147794   1.437   5.724  10.929 -0.4853 -1.1185 -0.0737
 8793TIP3    H247795   1.566   5.787  10.978 -1.1683  0.6620 -0.5045
 8794TIP3   OH247796   6.547   4.570   2.808 -0.5838  0.0884 -0.0776
 8794TIP3    H147797   6.560   4.486   2.764 -1.3666 -0.2767  0.3573
 8794TIP3    H247798   6.455   4.568   2.837 -1.1333  1.7565 -1.4706
 8795TIP3   OH247799   2.888   0.409  13.825  0.2571  0.7934 -0.1082
 8795TIP3    H147800   2.820   0.379  13.885 -1.0236  3.1876 -0.2704
 8795TIP3    H247801   2.841   0.437  13.747  1.8106 -1.2199 -1.8822
 8796TIP3   OH247802   2.055   1.549  16.606 -0.1001  0.3170  0.0522
 8796TIP3    H147803   2.143   1.556  16.569  0.0206 -0.1594  0.2394
 8796TIP3    H247804   2.050   1.459  16.638 -0.2051  0.7118  1.1875
 8797TIP3   OH247805   3.773   0.855  10.880  0.4975 -0.7967  0.1626
 8797TIP3    H147806   3.724   0.845  10.799  0.3095 -0.2583  0.2089
 8797TIP3    H247807   3.763   0.947  10.904 -0.6124 -1.2485  1.5459
 8798TIP3   OH247808   5.024   2.256  13.414  0.1523 -0.4233  0.1800
 8798TIP3    H147809   5.016   2.161  13.415 -1.6748 -0.3326  2.5950
 8798TIP3    H247810   4.991   2.284  13.499  2.2638  2.3013  0.2176
 8799TIP3   OH247811   3.075   1.318  11.262  0.1974 -0.1622  0.1896
 8799TIP3    H147812   3.067   1.407  11.229 -0.4171  0.1645  1.1883
 8799TIP3    H247813   3.148   1.322  11.325  0.8170 -0.5963 -0.4780
 8800TIP3   OH247814   0.530   4.764  12.258 -0.2340 -0.0653  0.2083
 8800TIP3    H147815   0.616   4.740  12.223 -1.1474 -1.8491 -0.9678
 8800TIP3    H247816   0.502   4.837  12.203 -0.0455 -0.3644 -0.2901
 8801TIP3   OH247817   3.996   0.932  14.778  0.2176  0.1152  1.1930
 8801TIP3    H147818   3.966   0.971  14.696  0.1602 -0.8758  0.7211
 8801TIP3    H247819   4.083   0.969  14.792  1.1291 -1.2379 -0.4378
 8802TIP3   OH247820   4.201   0.507   1.685  0.0160  0.3947  0.0545
 8802TIP3    H147821   4.199   0.417   1.652 -1.2442  0.8358 -1.2166
 8802TIP3    H247822   4.134   0.552   1.633  1.2202  2.2800  0.0436
 8803TIP3   OH247823   1.742   6.210  12.945 -0.3674 -0.7017  0.0928
 8803TIP3    H147824   1.683   6.221  12.870  0.4767 -0.5561 -0.5710
 8803TIP3    H247825   1.694   6.248  13.019 -0.4359  0.9949 -0.7562
 8804TIP3   OH247826   3.512   1.070   1.038 -0.0500  0.0240  0.1779
 8804TIP3    H147827   3.419   1.093   1.040  0.1965  1.0216  2.3270
 8804TIP3    H247828   3.514   0.976   1.058 -0.5721  0.0758  0.4854
 8805TIP3   OH247829   5.378   2.108  14.492  0.3998 -0.1567  0.3372
 8805TIP3    H147830   5.426   2.163  14.429 -0.3677  0.9763  0.7170
 8805TIP3    H247831   5.374   2.161  14.571  0.1707 -1.0246  0.9115
 8806TIP3   OH247832   5.612   4.995  16.151  0.4120  0.1619 -0.5714
 8806TIP3    H147833   5.523   4.994  16.186  0.7414 -0.0591  0.2654
 8806TIP3    H247834   5.609   4.933  16.078  0.3768 -1.4314  0.7261
 8807TIP3   OH247835   1.698   5.920  15.275  0.4838  0.1062 -0.1759
 8807TIP3    H147836   1.681   5.890  15.364  1.0266 -0.1261 -0.1468
 8807TIP3    H247837   1.784   5.962  15.280  0.6077 -0.0826 -0.6286
 8808TIP3   OH247838   2.110   0.196  15.589  0.1497  0.0354  0.3367
 8808TIP3    H147839   2.072   0.143  15.660 -0.9146 -3.6860 -2.6847
 8808TIP3    H247840   2.204   0.192  15.604 -0.0480 -0.5039  1.6126
 8809TIP3   OH247841   1.822   4.271   5.073 -0.0350 -0.6566  0.4357
 8809TIP3    H147842   1.726   4.278   5.066 -0.1533 -2.3670 -0.0265
 8809TIP3    H247843   1.846   4.339   5.136 -1.4744  0.2591  0.0544
 8810TIP3   OH247844   2.249   1.671   3.576 -0.1639 -0.3313  0.1282
 8810TIP3    H147845   2.304   1.633   3.645 -0.6668 -0.7460  0.3072
 8810TIP3    H247846   2.259   1.612   3.502  1.7924  1.0534 -0.8148
 8811TIP3   OH247847   4.850   5.840  12.952 -0.1745  0.5043  0.1763
 8811TIP3    H147848   4.850   5.752  12.913 -2.3348  0.1375  0.8133
 8811TIP3    H247849   4.883   5.827  13.041  1.8361  0.8100 -0.4812
 8812TIP3   OH247850   1.744   2.112   0.284 -0.4153 -0.0246 -0.5046
 8812TIP3    H147851   1.767   2.120   0.192 -0.1052 -0.3288 -0.4564
 8812TIP3    H247852   1.649   2.118   0.286 -0.4546 -0.4288 -0.8904
 8813TIP3   OH247853   5.416   4.422  12.887 -0.3845  0.1337  0.0155
 8813TIP3    H147854   5.401   4.495  12.947  1.8816  0.7043 -0.0321
 8813TIP3    H247855   5.341   4.424  12.828 -2.5780 -0.2878  2.6043
 8814TIP3   OH247856   6.517   5.681  12.132  0.7092  0.4784 -0.2019
 8814TIP3    H147857   6.473   5.698  12.048  2.1333  0.8721 -0.8972
 8814TIP3    H247858   6.457   5.715  12.198 -0.6599 -0.2561 -1.0187
 8815TIP3   OH247859   5.477   5.276  11.714 -0.3350 -1.2262  0.5631
 8815TIP3    H147860   5.525   5.338  11.769 -1.0184 -0.5964  0.4805
 8815TIP3    H247861   5.533   5.199  11.709  1.1470 -0.1536 -0.3613
 8816TIP3   OH247862   3.135   4.998   3.138 -0.3086  0.0703 -0.4327
 8816TIP3    H147863   3.198   5.065   3.108 -0.6100  0.3721 -0.3986
 8816TIP3    H247864   3.166   4.973   3.225 -0.1221  0.0782 -0.4972
 8817TIP3   OH247865   5.491   6.082  16.026 -0.5280 -0.8409  0.3373
 8817TIP3    H147866   5.567   6.024  16.031  0.3886  0.2351 -0.4429
 8817TIP3    H247867   5.419   6.026  15.997 -0.0750 -1.9152  1.2317
 8818TIP3   OH247868   3.624   3.989  16.891  0.0809  0.2843  0.0596
 8818TIP3    H147869   3.529   4.006  16.888  0.5050  3.0716 -1.1762
 8818TIP3    H247870   3.633   3.914  16.950 -2.9870 -1.0974 -1.0294
 8819TIP3   OH247871   4.281   2.583  13.573  0.2865 -0.2900 -0.5280
 8819TIP3    H147872   4.307   2.492  13.560 -0.2356 -0.5015 -0.1384
 8819TIP3    H247873   4.197   2.590  13.527  1.3202  0.5766 -2.4293
 8820TIP3   OH247874   6.402   4.269  12.031 -0.5656 -0.0427 -0.6133
 8820TIP3    H147875   6.340   4.221  11.977  0.0741  0.5547 -1.9166
 8820TIP3    H247876   6.373   4.360  12.026 -1.3010 -0.1321  1.1934
 8821TIP3   OH247877   2.399   0.086   1.381 -0.7360  0.5933  0.0263
 8821TIP3    H147878   2.402   0.163   1.325  1.9569  1.1949  0.8090
 8821TIP3    H247879   2.362   0.117   1.464 -1.7912  0.4651 -0.3908
 8822TIP3   OH247880   6.261   0.834   2.613  0.1011 -0.2564 -0.5386
 8822TIP3    H147881   6.335   0.853   2.556  1.1362  2.3031  1.4609
 8822TIP3    H247882   6.191   0.891   2.583 -0.3774 -1.1098 -1.0847
 8823TIP3   OH247883   1.865   0.420   1.807 -0.4655  0.7571 -0.0660
 8823TIP3    H147884   1.851   0.399   1.900 -0.9482  0.2506 -0.2519
 8823TIP3    H247885   1.782   0.458   1.779 -0.6717 -0.0412 -0.5553
 8824TIP3   OH247886   4.903   6.654  12.868 -0.4220 -0.1334 -0.2115
 8824TIP3    H147887   4.865   6.730  12.913 -0.1468 -0.6554  0.9349
 8824TIP3    H247888   4.895   6.582  12.931  0.4793 -0.7562 -0.7913
 8825TIP3   OH247889   3.248   5.723   1.599  0.0549  0.5055  0.1742
 8825TIP3    H147890   3.305   5.679   1.662  0.5748 -0.6426 -1.0531
 8825TIP3    H247891   3.303   5.738   1.522 -0.9484  0.5410 -0.5630
 8826TIP3   OH247892   3.153   0.359   3.861 -0.1130  0.1049 -0.6743
 8826TIP3    H147893   3.118   0.360   3.950  1.0889 -1.1853 -0.1341
 8826TIP3    H247894   3.246   0.381   3.871 -0.0907  0.5561 -1.6931
 8827TIP3   OH247895   1.404   6.383   2.887 -0.1764 -0.0715  0.0631
 8827TIP3    H147896   1.431   6.356   2.799 -1.1073  0.2350 -0.3224
 8827TIP3    H247897   1.466   6.453   2.909 -0.7742  0.8002 -0.9150
 8828TIP3   OH247898   2.712   2.174   3.402 -0.0394  0.4979 -0.0678
 8828TIP3    H147899   2.795   2.191   3.359 -0.1241 -0.2935 -0.5721
 8828TIP3    H247900   2.688   2.257   3.444  0.9551  0.7484  0.0120
 8829TIP3   OH247901   2.374   5.622  15.408  0.0393 -0.3155 -0.3189
 8829TIP3    H147902   2.454   5.602  15.358  0.5744 -0.0535  0.4131
 8829TIP3    H247903   2.368   5.552  15.473  1.3051  1.1890  1.5190
 8830TIP3   OH247904   3.107   6.679   4.063  0.6621 -0.0458 -0.1950
 8830TIP3    H147905   3.199   6.663   4.044  0.5778 -3.2542  1.5218
 8830TIP3    H247906   3.107   6.734   4.141  1.2067 -1.5541  0.9053
 8831TIP3   OH247907   0.686   0.253   2.359  0.0685  0.0952 -0.7706
 8831TIP3    H147908   0.761   0.268   2.417  0.8630 -2.3872 -1.0675
 8831TIP3    H247909   0.725   0.236   2.273 -0.9029  0.0040 -1.2048
 8832TIP3   OH247910   3.962   4.102   4.600  0.0429  0.3370  0.2218
 8832TIP3    H147911   3.933   4.120   4.690 -0.1523 -0.1758  0.2635
 8832TIP3    H247912   4.056   4.087   4.607  0.0801  0.5962  0.2938
 8833TIP3   OH247913   0.738   3.579   1.840 -0.1619 -0.1755 -0.4113
 8833TIP3    H147914   0.822   3.535   1.846  0.0887  0.0835 -1.8273
 8833TIP3    H247915   0.715   3.576   1.747  0.0868  3.0154 -0.6875
 8834TIP3   OH247916   5.171   5.398   1.977 -0.2511  0.0703  0.7892
 8834TIP3    H147917   5.217   5.445   2.047  0.1935 -0.6607  1.0104
 8834TIP3    H247918   5.091   5.447   1.963  0.2284  0.9265  0.9591
 8835TIP3   OH247919   1.969   5.157   4.488 -0.2589 -0.5428  0.1018
 8835TIP3    H147920   2.055   5.176   4.451 -0.3048 -0.5727 -0.0239
 8835TIP3    H247921   1.951   5.067   4.460  0.2822 -1.0558  1.3214
 8836TIP3   OH247922   5.853   2.299  14.395  0.3841  0.0226 -0.0005
 8836TIP3    H147923   5.822   2.375  14.347 -0.3390 -0.3216 -0.0896
 8836TIP3    H247924   5.946   2.317  14.411  0.5953  0.2221 -1.3576
 8837TIP3   OH247925   6.569   5.572   5.870  0.3619  0.1839 -0.9669
 8837TIP3    H147926   6.595   5.515   5.942  0.8710  0.2675 -1.0815
 8837TIP3    H247927   6.496   5.525   5.828 -0.8049  0.7354  0.3703
 8838TIP3   OH247928   6.245   3.666   5.903  0.3332 -0.5691  0.3682
 8838TIP3    H147929   6.165   3.632   5.943 -1.3507  0.5056 -1.8397
 8838TIP3    H247930   6.290   3.712   5.974 -1.2923 -0.7259  1.5506
 8839TIP3   OH247931   1.503   1.790  14.649 -0.1115 -0.3462 -0.1190
 8839TIP3    H147932   1.566   1.810  14.718  1.4881 -3.1545 -0.6006
 8839TIP3    H247933   1.542   1.826  14.569  0.0954 -0.6413 -0.1551
 8840TIP3   OH247934   4.483   5.373   1.965 -0.3371  0.0002  0.2955
 8840TIP3    H147935   4.397   5.335   1.951  0.3334 -1.7127  0.4961
 8840TIP3    H247936   4.518   5.324   2.040  0.8065  0.6564  0.2092
 8841TIP3   OH247937   4.073   1.082   4.238 -0.1806 -0.3996  0.0996
 8841TIP3    H147938   4.128   1.118   4.308  0.4941 -0.3369 -0.4439
 8841TIP3    H247939   3.990   1.060   4.280  0.0011  0.2144  0.7861
 8842TIP3   OH247940   3.322   4.511   4.157  0.0500 -0.5274 -0.6531
 8842TIP3    H147941   3.343   4.538   4.067 -1.4704  0.7164 -0.6645
 8842TIP3    H247942   3.347   4.418   4.160  0.1898 -0.5775 -2.3359
 8843TIP3   OH247943   1.482   1.791  13.313  0.6428 -0.1633  0.0106
 8843TIP3    H147944   1.410   1.855  13.318  0.8245  0.0149  0.4308
 8843TIP3    H247945   1.450   1.715  13.362  1.1646  0.3431  1.1765
 8844TIP3   OH247946   1.990   5.086  16.078  0.4259  0.0737  0.0397
 8844TIP3    H147947   2.068   5.070  16.025 -1.1268  1.9763 -3.0782
 8844TIP3    H247948   2.005   5.173  16.116  0.0268  0.2541 -0.2125
 8845TIP3   OH247949   2.944   1.481   0.219  0.0126  0.3197 -0.2253
 8845TIP3    H147950   2.888   1.549   0.182 -0.1852  0.2162 -0.1162
 8845TIP3    H247951   2.968   1.514   0.306 -2.4562 -1.0274  1.0545
 8846TIP3   OH247952   3.209   0.927  13.626 -0.0365 -0.1268 -0.0051
 8846TIP3    H147953   3.166   1.009  13.602 -0.9184 -0.2650  1.0467
 8846TIP3    H247954   3.157   0.893  13.698  1.3546 -0.7366  0.7435
 8847TIP3   OH247955   1.729   4.596  16.479 -1.0788  0.5000 -0.1635
 8847TIP3    H147956   1.646   4.642  16.493 -0.6079  1.5720 -0.7265
 8847TIP3    H247957   1.742   4.597  16.385 -0.3732  0.4483 -0.0757
 8848TIP3   OH247958   4.076   6.230   0.980  0.4940  0.2013 -0.0099
 8848TIP3    H147959   4.131   6.288   0.927  1.4383  2.5882  3.2274
 8848TIP3    H247960   3.992   6.276   0.986 -0.3922 -1.1839 -1.2046
 8849TIP3   OH247961   5.876   0.066  11.933 -0.1251 -0.0939 -0.1406
 8849TIP3    H147962   5.905   0.025  11.852  0.1003 -0.6084  0.1873
 8849TIP3    H247963   5.939   0.136  11.949  0.4827 -0.6987  0.1572
 8850TIP3   OH247964   3.696   5.919   0.206 -0.1950 -0.0425 -0.4462
 8850TIP3    H147965   3.652   5.919   0.291 -1.0829 -0.5458 -0.8953
 8850TIP3    H247966   3.667   5.838   0.164 -0.1198  0.4242 -1.4124
 8851TIP3   OH247967   5.088   3.016  11.121  0.5218  0.6199 -0.3460
 8851TIP3    H147968   5.072   3.077  11.048 -1.8717 -0.5908 -0.9131
 8851TIP3    H247969   5.125   2.938  11.080  0.9878  0.6314  0.0310
 8852TIP3   OH247970   0.514   4.307  14.491  0.2627  0.5812 -0.1674
 8852TIP3    H147971   0.549   4.310  14.581  0.8005 -0.2096 -0.3309
 8852TIP3    H247972   0.420   4.319  14.502  0.5772  3.2527  0.2486
 8853TIP3   OH247973   4.348   2.855  12.576 -0.4109 -0.3353 -0.1102
 8853TIP3    H147974   4.442   2.874  12.580 -0.3527 -0.0645 -1.9222
 8853TIP3    H247975   4.324   2.833  12.666  1.1406  0.7454  0.6137
 8854TIP3   OH247976   6.541   5.714  14.716  0.5301  0.1938 -0.3870
 8854TIP3    H147977   6.531   5.807  14.696 -0.9195 -0.0953 -1.1442
 8854TIP3    H247978   6.456   5.675  14.694  0.8468 -1.1868  0.6634
 8855TIP3   OH247979   6.160   3.741   5.659 -0.1209  0.0362 -0.3096
 8855TIP3    H147980   6.212   3.705   5.731 -0.7499 -0.2769 -0.0042
 8855TIP3    H247981   6.133   3.827   5.691 -0.9200 -0.3569  0.0888
 8856TIP3   OH247982   0.293   6.445   1.597  0.4998 -0.4087 -0.1962
 8856TIP3    H147983   0.361   6.417   1.658 -1.1982 -0.7092  1.6666
 8856TIP3    H247984   0.226   6.377   1.602 -0.7786  0.7681 -0.5403
 8857TIP3   OH247985   3.860   0.669   2.824 -0.0270 -0.0491  0.0552
 8857TIP3    H147986   3.917   0.745   2.813  0.3861 -0.5635 -1.6589
 8857TIP3    H247987   3.850   0.660   2.919  0.4361  1.7382  0.3151
 8858TIP3   OH247988   3.848   1.706  14.681 -0.4910  0.1428 -0.7013
 8858TIP3    H147989   3.893   1.773  14.732  0.4483  0.9905 -2.5494
 8858TIP3    H247990   3.914   1.676  14.619 -1.2249 -1.7558 -0.6197
 8859TIP3   OH247991   2.060   3.919  15.915 -0.0494 -0.1035 -0.5025
 8859TIP3    H147992   2.144   3.931  15.959  0.0189 -1.0116 -0.3686
 8859TIP3    H247993   2.058   3.988  15.847  0.9866 -0.3452 -0.7923
 8860TIP3   OH247994   0.147   0.323  11.225 -0.2610 -0.2030 -0.0589
 8860TIP3    H147995   0.096   0.245  11.247 -0.3970  0.0854  0.7098
 8860TIP3    H247996   0.099   0.365  11.154 -2.0015  0.8789  1.6451
 8861TIP3   OH247997   4.206   4.129  15.175  0.4743  0.1737  0.1369
 8861TIP3    H147998   4.215   4.180  15.255 -0.4793  0.9862 -0.2500
 8861TIP3    H247999   4.170   4.046  15.203 -0.6618  0.7592  0.4832
 8862TIP3   OH248000   2.179   6.586   4.481  0.1931 -0.0987 -0.1584
 8862TIP3    H148001   2.168   6.491   4.483  0.2867 -0.1269 -0.7026
 8862TIP3    H248002   2.090   6.620   4.481  0.0866 -0.0616  3.0801
 8863TIP3   OH248003   6.510   5.544   1.900 -0.1886  0.8634  0.9041
 8863TIP3    H148004   6.440   5.537   1.965  0.1394  0.4371  1.2174
 8863TIP3    H248005   6.545   5.455   1.894 -1.1001  0.5760 -0.8520
 8864TIP3   OH248006   0.881   3.060   4.777 -0.0461 -0.0084  0.2496
 8864TIP3    H148007   0.826   3.137   4.760 -2.7349 -1.6793  0.8179
 8864TIP3    H248008   0.850   3.027   4.861  2.1492 -0.8607  0.7725
 8865TIP3   OH248009   2.993   5.196  13.418  0.4868  0.2856 -0.2747
 8865TIP3    H148010   3.059   5.203  13.350 -0.4197 -2.4092 -1.5799
 8865TIP3    H248011   3.019   5.119  13.468 -1.7857 -1.0974 -1.0814
 8866TIP3   OH248012   6.027   6.761  11.303  0.3697  0.3209 -0.1757
 8866TIP3    H148013   6.031   6.783  11.210 -0.7740 -2.0171 -0.8492
 8866TIP3    H248014   6.035   6.845  11.348  2.6758  1.3472 -2.3011
 8867TIP3   OH248015   6.006   5.130  13.009 -0.0299  0.1930 -0.7220
 8867TIP3    H148016   6.060   5.168  13.078  2.6630  2.1218 -3.5755
 8867TIP3    H248017   6.022   5.036  13.014  0.8388  0.3855  0.6566
 8868TIP3   OH248018   2.233   4.383  13.737  0.0790 -0.2282 -0.7869
 8868TIP3    H148019   2.149   4.353  13.774  0.5982 -0.5080  0.2113
 8868TIP3    H248020   2.230   4.478  13.744  0.5598 -0.3034  0.9509
 8869TIP3   OH248021   4.098   4.752   3.147 -0.2374 -0.2801 -0.3131
 8869TIP3    H148022   4.088   4.768   3.241  1.3050 -0.4318 -0.0988
 8869TIP3    H248023   4.150   4.825   3.115 -1.5339  0.2717 -1.2644
 8870TIP3   OH248024   2.848   4.289  17.008 -0.7947  0.1589  0.3911
 8870TIP3    H148025   2.821   4.380  17.001 -0.7741  0.0314 -2.2810
 8870TIP3    H248026   2.928   4.291  17.060 -1.2814  1.5286  1.1248
 8871TIP3   OH248027   4.405   4.999  14.598  0.1459 -0.6756  0.7871
 8871TIP3    H148028   4.359   5.071  14.641 -2.1405 -1.1739 -0.6456
 8871TIP3    H248029   4.479   5.040  14.553 -0.6577  0.6380  0.6476
 8872TIP3   OH248030   1.240   6.753  15.936  0.0842 -0.1769  0.2584
 8872TIP3    H148031   1.324   6.782  15.900 -0.0674 -0.5722 -0.4303
 8872TIP3    H248032   1.244   6.657  15.931 -0.2729 -0.2084  0.5406
 8873TIP3   OH248033   3.246   0.770  14.902  0.1617  0.3007 -0.1447
 8873TIP3    H148034   3.194   0.731  14.832 -0.1836 -1.0813  0.8399
 8873TIP3    H248035   3.331   0.789  14.861 -0.6829  1.4822 -1.4534
 8874TIP3   OH248036   5.063   2.605   5.100  0.1239  0.0462 -0.2575
 8874TIP3    H148037   4.995   2.672   5.088  1.2376  1.0040 -1.6742
 8874TIP3    H248038   5.035   2.556   5.177 -0.7425  2.1655  0.8825
 8875TIP3   OH248039   2.223   0.359   3.623 -0.9566 -0.0564  0.5960
 8875TIP3    H148040   2.301   0.411   3.640 -1.2037 -0.1227  2.0431
 8875TIP3    H248041   2.200   0.379   3.532  1.3447 -0.8867 -0.2413
 8876TIP3   OH248042   5.177   3.266   6.415  0.2775 -0.1762  0.0090
 8876TIP3    H148043   5.176   3.342   6.357 -0.5917 -0.5343 -0.4729
 8876TIP3    H248044   5.266   3.232   6.408  0.1590 -0.2932 -1.2473
 8877TIP3   OH248045   1.966   4.624  12.571  0.3702 -0.6416 -0.0905
 8877TIP3    H148046   1.908   4.603  12.645  0.9782 -0.4197  0.4581
 8877TIP3    H248047   2.043   4.569  12.584  1.6649  1.2949  0.9746
 8878TIP3   OH248048   0.785   5.688  11.291 -0.2083 -0.3577 -0.0068
 8878TIP3    H148049   0.846   5.762  11.283 -1.6938  1.0136  0.7837
 8878TIP3    H248050   0.718   5.705  11.225  0.4715 -2.1519 -1.2599
 8879TIP3   OH248051   2.224   4.865   4.084  0.1157  0.2022  0.0357
 8879TIP3    H148052   2.231   4.771   4.102  0.4450  0.1666 -0.2664
 8879TIP3    H248053   2.297   4.904   4.131  0.4945  0.2026 -0.5353
 8880TIP3   OH248054   6.405   5.856   1.377  0.0335 -0.0510 -0.1091
 8880TIP3    H148055   6.379   5.926   1.437 -0.0376  0.1710 -0.3983
 8880TIP3    H248056   6.435   5.902   1.298 -1.1739 -0.3554 -0.7770
 8881TIP3   OH248057   6.299   4.752   5.184  0.0639  0.0842  0.3375
 8881TIP3    H148058   6.361   4.800   5.129  0.0038  0.6713  0.7770
 8881TIP3    H248059   6.233   4.719   5.122  0.7382 -0.4420 -0.1144
 8882TIP3   OH248060   6.350   6.284  11.777  0.4950 -0.1903 -0.5744
 8882TIP3    H148061   6.334   6.192  11.759  0.7099 -0.1052 -1.2324
 8882TIP3    H248062   6.441   6.299  11.749  0.5032  0.1874 -0.3604
 8883TIP3   OH248063   1.696   4.096  12.614 -0.3102  0.2220  0.3207
 8883TIP3    H148064   1.742   4.014  12.601 -1.0222 -0.1564  0.1614
 8883TIP3    H248065   1.759   4.151  12.661  1.0340  0.4078 -1.5592
 8884TIP3   OH248066   5.106   0.588  16.439 -0.6969  0.1246  0.1903
 8884TIP3    H148067   5.153   0.671  16.442 -2.4788  1.1827  0.4344
 8884TIP3    H248068   5.013   0.613  16.433 -1.3005 -1.8411  0.5309
 8885TIP3   OH248069   1.731   4.987   1.594  0.2831 -0.0937 -0.2906
 8885TIP3    H148070   1.637   4.972   1.580  0.4646 -1.1343 -0.4823
 8885TIP3    H248071   1.737   5.016   1.685 -0.3821  1.6691 -0.7602
 8886TIP3   OH248072   3.117   0.666  16.167 -0.2993  0.3165 -0.7778
 8886TIP3    H148073   3.157   0.630  16.088  3.0574  0.1184  0.8383
 8886TIP3    H248074   3.052   0.602  16.193  1.5686 -1.8500 -1.1012
 8887TIP3   OH248075   5.264   2.975  16.718 -0.0454 -0.0097 -0.0554
 8887TIP3    H148076   5.256   3.035  16.644 -2.6991 -0.4643 -0.2333
 8887TIP3    H248077   5.318   2.903  16.685  1.6103  1.3190 -0.4173
 8888TIP3   OH248078   5.040   1.251  15.877 -0.0154 -0.6408 -0.4542
 8888TIP3    H148079   5.043   1.181  15.812 -0.0860  0.4116 -1.6245
 8888TIP3    H248080   5.067   1.329  15.829 -1.1204  0.3666  0.5037
 8889TIP3   OH248081   2.321   0.986   0.688  0.3373  0.1301 -0.1862
 8889TIP3    H148082   2.277   0.908   0.653 -2.1173  0.9698  0.8150
 8889TIP3    H248083   2.374   0.952   0.760  0.1213 -0.7435 -0.4169
 8890TIP3   OH248084   3.105   0.424   6.487 -0.0991 -0.1206  0.2825
 8890TIP3    H148085   3.131   0.503   6.438 -1.1779  0.2163  0.2339
 8890TIP3    H248086   3.068   0.366   6.420  0.3638 -0.5300  0.3755
 8891TIP3   OH248087   2.925   6.187  13.386  0.6824  0.3417  0.1376
 8891TIP3    H148088   2.994   6.195  13.453  0.8235 -2.2758  0.3943
 8891TIP3    H248089   2.912   6.093  13.376 -1.5741  0.7313 -1.2751
 8892TIP3   OH248090   6.153   4.819  16.038  0.3421 -0.5969 -0.0389
 8892TIP3    H148091   6.144   4.908  16.003  1.3921 -0.6561 -0.4848
 8892TIP3    H248092   6.087   4.814  16.108  0.8044  0.8121  0.5339
 8893TIP3   OH248093   2.011   1.039  15.141 -0.2171 -0.4359 -0.3186
 8893TIP3    H148094   2.075   0.979  15.103  0.6047 -1.4099  2.3339
 8893TIP3    H248095   1.943   0.982  15.177 -0.1578  0.2485  0.9741
 8894TIP3   OH248096   4.653   3.906  12.160  0.2275  0.4433  0.6344
 8894TIP3    H148097   4.606   3.987  12.180  1.4702  1.3581  0.0364
 8894TIP3    H248098   4.696   3.883  12.243  0.0878  0.5521  0.7382
 8895TIP3   OH248099   1.869   4.728  10.949 -0.4021 -0.1697  0.4606
 8895TIP3    H148100   1.921   4.770  11.018  0.1896  0.5416 -0.3943
 8895TIP3    H248101   1.794   4.786  10.937  1.0123  1.4027 -1.5529
 8896TIP3   OH248102   4.320   1.214   5.489  0.4731  0.1523 -0.3570
 8896TIP3    H148103   4.312   1.301   5.526 -2.6856 -0.3654  0.4514
 8896TIP3    H248104   4.299   1.155   5.562 -1.1328 -1.0703 -1.7237
 8897TIP3   OH248105   2.491   4.677   4.000  0.4630 -0.0364 -0.4425
 8897TIP3    H148106   2.550   4.652   4.071  0.4964  0.2545 -0.3641
 8897TIP3    H248107   2.459   4.764   4.025 -0.3746 -0.3940 -0.2533
 8898TIP3   OH248108   3.354   1.881  13.739 -0.0731  0.0165 -0.5499
 8898TIP3    H148109   3.384   1.801  13.781  1.4467  1.0497  0.4141
 8898TIP3    H248110   3.427   1.942  13.749 -1.6318  1.9028 -0.1990
 8899TIP3   OH248111   2.040   1.852   1.945 -0.0308 -0.1813 -0.2460
 8899TIP3    H148112   1.995   1.910   2.007 -0.2845 -0.0284 -0.5646
 8899TIP3    H248113   2.104   1.805   1.998 -0.9109 -0.7642  0.3199
 8900TIP3   OH248114   0.873   5.238  11.141 -0.2374  0.1701  0.3160
 8900TIP3    H148115   0.895   5.327  11.115 -0.7958  0.1329 -0.3521
 8900TIP3    H248116   0.780   5.243  11.166  0.0252 -0.0068  1.3704
 8901TIP3   OH248117   1.495   3.096  11.950  0.0390  0.0067 -0.3640
 8901TIP3    H148118   1.481   3.099  12.045 -1.2855  1.1848 -0.5662
 8901TIP3    H248119   1.486   3.187  11.921 -1.6129 -0.5941 -1.8769
 8902TIP3   OH248120   2.476   2.221   6.738  0.9704  0.1684  0.7817
 8902TIP3    H148121   2.547   2.283   6.719  0.8079  0.2798  0.5254
 8902TIP3    H248122   2.396   2.273   6.727  0.8130 -0.2282  0.0192
 8903TIP3   OH248123   0.221   0.604  11.296 -0.6759  0.0046  0.3832
 8903TIP3    H148124   0.190   0.527  11.246 -0.0723 -0.3802  0.5968
 8903TIP3    H248125   0.194   0.679  11.243 -0.1464 -0.3975 -0.4756
 8904TIP3   OH248126   1.208   0.483   1.078 -0.0916 -0.6334 -0.0884
 8904TIP3    H148127   1.260   0.427   1.020 -0.4449 -1.1186  0.0589
 8904TIP3    H248128   1.274   0.530   1.130  0.2073 -0.9449 -0.1814
 8905TIP3   OH248129   5.850   3.809  14.283 -0.4585 -0.5626 -0.0704
 8905TIP3    H148130   5.793   3.740  14.318 -1.0519 -0.3981 -0.6699
 8905TIP3    H248131   5.869   3.780  14.193 -0.3025 -0.1862 -0.1575
 8906TIP3   OH248132   5.215   0.241  11.546 -0.1083  0.0124 -0.4052
 8906TIP3    H148133   5.194   0.255  11.454 -0.6169 -0.1437 -0.3177
 8906TIP3    H248134   5.279   0.169  11.545  1.3246  1.2458 -0.7470
 8907TIP3   OH248135   5.606   3.182  16.490  0.0210 -0.5223  0.0835
 8907TIP3    H148136   5.597   3.245  16.419  0.4955 -0.5665 -0.0207
 8907TIP3    H248137   5.646   3.231  16.562  0.3907 -0.7042  0.0012
 8908TIP3   OH248138   3.660   5.813   2.281  0.4540  0.2239  0.2012
 8908TIP3    H148139   3.603   5.879   2.320  0.1973  0.2352 -0.1911
 8908TIP3    H248140   3.742   5.820   2.330  0.0278  0.0187  0.9432
 8909TIP3   OH248141   4.093   3.054  13.658  0.4078 -0.0583 -0.4730
 8909TIP3    H148142   4.182   3.020  13.661 -0.6176 -2.9741 -0.6098
 8909TIP3    H248143   4.078   3.074  13.566  0.5157 -0.7557 -0.6432
 8910TIP3   OH248144   1.580   1.172  12.869  0.3348 -0.2525  0.1967
 8910TIP3    H148145   1.638   1.207  12.937  0.7732 -0.5822 -0.0069
 8910TIP3    H248146   1.637   1.158  12.794 -0.3882  1.3691 -0.6967
 8911TIP3   OH248147   1.925   1.659  17.058 -0.1814  0.5795 -0.1192
 8911TIP3    H148148   1.958   1.617  17.137 -1.7820 -0.0016  0.2789
 8911TIP3    H248149   1.884   1.739  17.089 -2.5885 -0.6090 -0.0381
 8912TIP3   OH248150   4.899   6.052   3.569 -0.4906  0.7451 -0.1212
 8912TIP3    H148151   4.850   6.134   3.575 -0.4821  0.7862 -0.6230
 8912TIP3    H248152   4.857   6.003   3.499  0.9696  1.3282 -1.4777
 8913TIP3   OH248153   5.492   5.770  15.292 -0.1256 -0.6731 -0.5985
 8913TIP3    H148154   5.553   5.732  15.228  0.2361 -0.9164 -0.1119
 8913TIP3    H248155   5.544   5.779  15.372  0.0128  1.4471 -0.8608
 8914TIP3   OH248156   4.184   2.108  12.103  0.4131  0.2089  0.4989
 8914TIP3    H148157   4.264   2.149  12.068 -0.2193  0.3610 -0.8292
 8914TIP3    H248158   4.190   2.017  12.076  0.2612  0.1653  0.6142
 8915TIP3   OH248159   3.475   0.725   3.452  0.8895  0.1390  0.1189
 8915TIP3    H148160   3.544   0.715   3.386 -0.4319  1.6701 -1.6000
 8915TIP3    H248161   3.405   0.771   3.406 -0.6374  0.0809  2.2644
 8916TIP3   OH248162   3.430   1.013  12.641 -0.4784  0.1888  0.5562
 8916TIP3    H148163   3.334   1.019  12.635 -0.3465  2.5642 -0.2993
 8916TIP3    H248164   3.455   1.091  12.690  1.1417  1.0740 -1.5166
 8917TIP3   OH248165   0.228   2.877   1.499 -0.5023 -0.5827 -0.1613
 8917TIP3    H148166   0.152   2.888   1.441 -0.7854 -0.9271  0.1430
 8917TIP3    H248167   0.233   2.960   1.547 -0.9017 -0.6902  0.0700
 8918TIP3   OH248168   3.028   4.926  16.364  0.1359 -0.0402 -0.2162
 8918TIP3    H148169   3.038   4.935  16.459  1.9521  0.6903 -0.4377
 8918TIP3    H248170   2.966   4.995  16.340 -1.3923 -1.0948  0.5741
 8919TIP3   OH248171   0.289   2.732  11.573 -0.1195 -0.2030  0.3652
 8919TIP3    H148172   0.297   2.762  11.482 -1.2276 -0.8081  0.0537
 8919TIP3    H248173   0.325   2.804  11.625 -0.1721  0.4782 -0.5174
 8920TIP3   OH248174   1.254   0.279   5.638 -0.4515  0.2899 -0.0823
 8920TIP3    H148175   1.333   0.291   5.690 -0.0452  1.8008 -0.9904
 8920TIP3    H248176   1.194   0.347   5.667 -0.4202  0.8100 -1.1663
 8921TIP3   OH248177   1.058   1.153   4.214  0.2143 -0.0522 -0.2523
 8921TIP3    H148178   1.090   1.217   4.151  1.2779  0.1389  0.4596
 8921TIP3    H248179   0.963   1.164   4.214  0.3229  0.9389 -0.7563
 8922TIP3   OH248180   0.806   6.287  11.471 -0.2654  0.3278 -0.3641
 8922TIP3    H148181   0.837   6.369  11.509  0.2238  0.1950 -0.4747
 8922TIP3    H248182   0.728   6.312  11.420 -0.6695  0.5708  0.3679
 8923TIP3   OH248183   1.134   6.175  13.046  0.6265 -0.1403  0.1858
 8923TIP3    H148184   1.101   6.112  13.110  0.9663 -0.8612 -0.3212
 8923TIP3    H248185   1.157   6.121  12.970 -1.8351  0.8898 -1.4266
 8924TIP3   OH248186   0.342   0.246   6.530 -0.0003  0.0156  0.3223
 8924TIP3    H148187   0.424   0.197   6.532 -0.4665 -0.7770  1.8890
 8924TIP3    H248188   0.363   0.326   6.482  1.1755 -1.0094 -0.9594
 8925TIP3   OH248189   0.353   2.688   2.090 -0.3014 -0.0571  0.2568
 8925TIP3    H148190   0.299   2.735   2.026  0.3265  2.2140  1.2754
 8925TIP3    H248191   0.443   2.705   2.061 -0.0410  0.3285  1.2650
 8926TIP3   OH248192   1.524   3.541   1.809 -0.1485  0.3725 -0.7896
 8926TIP3    H148193   1.578   3.616   1.786 -0.4496  0.4659 -1.1908
 8926TIP3    H248194   1.584   3.481   1.853  0.5550 -0.0149 -2.2138
 8927TIP3   OH248195   0.936   6.226   4.395 -0.5008 -0.8197  0.7561
 8927TIP3    H148196   0.929   6.226   4.490 -1.1519 -1.5365  0.7171
 8927TIP3    H248197   0.963   6.315   4.373 -3.0264  0.2248  1.4391
 8928TIP3   OH248198   2.983   5.189  17.050 -0.1565  0.0742  0.3448
 8928TIP3    H148199   2.937   5.269  17.024 -1.5685 -0.2689  1.6089
 8928TIP3    H248200   2.951   5.123  16.989 -0.9141 -0.0294  0.8344
 8929TIP3   OH248201   2.091   5.026   1.203  0.3302 -0.1323  0.3335
 8929TIP3    H148202   2.108   5.038   1.296  0.5097 -1.2472  0.4566
 8929TIP3    H248203   1.996   5.037   1.194  0.0283 -1.9209  0.9881
 8930TIP3   OH248204   6.305   2.406   4.438 -0.0779  0.6026  0.0693
 8930TIP3    H148205   6.352   2.323   4.425  0.8367  1.1028  0.1000
 8930TIP3    H248206   6.217   2.389   4.403  0.1530 -0.3176 -0.1009
 8931TIP3   OH248207   2.252   1.695  11.437 -0.2189 -0.4910 -0.7431
 8931TIP3    H148208   2.200   1.707  11.358  0.2833  0.2884 -0.9735
 8931TIP3    H248209   2.331   1.747  11.422 -0.3944  0.2002  0.5349
 8932TIP3   OH248210   4.685   5.575   6.011  0.4626 -0.3605  0.2869
 8932TIP3    H148211   4.633   5.553   6.088  0.1104  0.8644  0.4249
 8932TIP3    H248212   4.732   5.655   6.036 -2.3465  2.2004 -1.8971
 8933TIP3   OH248213   3.573   3.621  11.944 -1.0439 -0.5315  0.3517
 8933TIP3    H148214   3.572   3.531  11.915  1.9301  0.0022 -1.8551
 8933TIP3    H248215   3.622   3.619  12.027 -0.2274 -0.8833 -0.1265
 8934TIP3   OH248216   3.618   4.017  11.931 -0.0900  0.0781 -0.1536
 8934TIP3    H148217   3.654   3.942  11.885  1.5338 -0.1352  1.3532
 8934TIP3    H248218   3.663   4.017  12.016 -4.4786 -0.8841  2.4809
 8935TIP3   OH248219   5.762   0.446  14.259 -0.3828 -0.3719  0.0828
 8935TIP3    H148220   5.801   0.367  14.296  0.8986 -0.1721 -0.7763
 8935TIP3    H248221   5.802   0.454  14.172 -3.2348 -0.7949 -1.3924
 8936TIP3   OH248222   0.170   0.827  14.580 -0.2566 -0.4357  0.1157
 8936TIP3    H148223   0.223   0.796  14.654 -0.0583  0.7825  0.5130
 8936TIP3    H248224   0.174   0.923  14.587 -1.0510 -0.3166 -0.9020
 8937TIP3   OH248225   4.127   3.652   0.350  0.1344  0.0021  0.0203
 8937TIP3    H148226   4.036   3.635   0.326  0.0289  1.4174 -0.7169
 8937TIP3    H248227   4.139   3.746   0.335  1.9154 -0.2737 -0.6033
 8938TIP3   OH248228   5.105   1.598  14.651 -0.1948  0.1002 -0.0380
 8938TIP3    H148229   5.012   1.579  14.666 -0.5252  1.4539 -0.1744
 8938TIP3    H248230   5.146   1.583  14.736 -1.0253  1.9456  0.7590
 8939TIP3   OH248231   2.610   6.014   2.924 -0.1878  0.2811 -0.1563
 8939TIP3    H148232   2.551   6.080   2.961  0.9604  1.1717  0.1109
 8939TIP3    H248233   2.697   6.038   2.954  0.3603 -0.9279 -0.6815
 8940TIP3   OH248234   5.057   2.881   1.381 -0.0994  0.1557 -0.2261
 8940TIP3    H148235   5.136   2.881   1.436  0.1552  0.9921 -0.5830
 8940TIP3    H248236   5.032   2.789   1.376  1.8896 -0.3692 -1.5936
 8941TIP3   OH248237   1.354   6.366  14.753  0.6972  0.7874 -0.1153
 8941TIP3    H148238   1.361   6.271  14.755 -0.5115  0.7041  1.1371
 8941TIP3    H248239   1.320   6.386  14.666  2.3999  0.2247 -0.9624
 8942TIP3   OH248240   4.635   5.397   3.897 -0.2424 -0.0684  0.2308
 8942TIP3    H148241   4.592   5.483   3.890  0.5897  0.2656 -1.4340
 8942TIP3    H248242   4.685   5.402   3.978 -1.2455  0.5253  0.8299
 8943TIP3   OH248243   5.022   5.139  14.630 -0.1772 -0.0230  0.1542
 8943TIP3    H148244   5.095   5.198  14.650 -1.1861  1.0679  0.8023
 8943TIP3    H248245   4.977   5.181  14.556  0.1869 -0.9974 -0.6310
 8944TIP3   OH248246   1.112   4.048  12.532 -0.3034  0.0633 -0.0074
 8944TIP3    H148247   1.162   4.121  12.570 -1.1755  0.5624  0.2054
 8944TIP3    H248248   1.117   4.062  12.437  0.2201 -0.0652  0.0009
 8945TIP3   OH248249   6.394   0.006  10.946  0.2458  0.5326 -0.2182
 8945TIP3    H148250   6.383   0.003  10.851  0.7887  2.8717 -0.3964
 8945TIP3    H248251   6.336   0.076  10.975 -1.7771 -1.6794  1.5510
 8946TIP3   OH248252   2.970   3.410   3.765  0.0030  0.2896  0.5490
 8946TIP3    H148253   2.955   3.502   3.744  0.2450  0.3790  0.7711
 8946TIP3    H248254   3.045   3.410   3.824 -1.4761  0.1805  2.5528
 8947TIP3   OH248255   4.823   5.718   4.055  0.1561  0.4475 -0.5768
 8947TIP3    H148256   4.847   5.625   4.047  0.1548  0.2367  1.4343
 8947TIP3    H248257   4.729   5.717   4.071  0.5389  0.5502  2.1641
 8948TIP3   OH248258   5.270   2.000  14.075  0.8549  0.0232  0.0121
 8948TIP3    H148259   5.283   1.936  14.005 -0.9591 -1.8720  1.3121
 8948TIP3    H248260   5.353   2.048  14.079  1.0204  0.2730 -3.4254
 8949TIP3   OH248261   3.346   5.402   0.492 -0.4453 -0.2348  0.4119
 8949TIP3    H148262   3.255   5.373   0.492 -0.3577 -0.5769 -0.9532
 8949TIP3    H248263   3.341   5.498   0.497 -0.8251 -0.3181  1.8484
 8950TIP3   OH248264   1.591   2.157  15.633 -0.3634 -0.4849  0.0202
 8950TIP3    H148265   1.518   2.103  15.661 -0.4070  0.3556  1.6336
 8950TIP3    H248266   1.637   2.181  15.714  1.2744 -0.3873 -0.8853
 8951TIP3   OH248267   2.895   0.512   0.461 -0.1842  0.1179  0.4649
 8951TIP3    H148268   2.971   0.501   0.518 -0.4418 -0.7458  0.6604
 8951TIP3    H248269   2.923   0.573   0.394  0.1860  1.0109  1.4184
 8952TIP3   OH248270   6.592   3.141   3.840 -0.3562  0.1443 -0.2170
 8952TIP3    H148271   6.500   3.165   3.835 -0.7652 -1.4598 -1.3624
 8952TIP3    H248272   6.592   3.045   3.842  1.2938  0.0867 -0.7531
 8953TIP3   OH248273   2.142   5.749  10.951 -0.2754  0.0562 -0.0246
 8953TIP3    H148274   2.131   5.801  10.871 -2.4124  1.1920  0.9437
 8953TIP3    H248275   2.144   5.659  10.920 -0.9473  0.4797 -1.3775
 8954TIP3   OH248276   5.249   4.916   1.860 -0.2995 -0.4021  0.1962
 8954TIP3    H148277   5.253   4.867   1.942 -1.1679 -1.9430 -0.6438
 8954TIP3    H248278   5.235   4.849   1.792  1.2814  0.7213 -1.3276
 8955TIP3   OH248279   6.545   0.669   2.086  0.4297  0.1537 -0.1357
 8955TIP3    H148280   6.492   0.608   2.137  0.0715  0.6928  0.1569
 8955TIP3    H248281   6.482   0.716   2.031  0.7881 -0.2576 -0.9104
 8956TIP3   OH248282   3.718   3.218   6.313  0.1777 -0.0374  0.3024
 8956TIP3    H148283   3.630   3.190   6.287 -0.3267  0.8386  1.0264
 8956TIP3    H248284   3.764   3.231   6.230 -1.0509  1.5810 -0.1733
 8957TIP3   OH248285   3.105   6.649  12.505 -0.3460  0.2380  0.2933
 8957TIP3    H148286   3.128   6.742  12.503 -0.3428  0.2398  0.3923
 8957TIP3    H248287   3.018   6.646  12.545 -0.9926  0.3213 -1.0551
 8958TIP3   OH248288   6.236   1.499  15.498  0.6106  0.3800  0.3644
 8958TIP3    H148289   6.217   1.529  15.409  0.7319 -0.6110 -0.0133
 8958TIP3    H248290   6.323   1.532  15.517 -0.0659  2.0069  0.7657
 8959TIP3   OH248291   6.750   2.177  13.472 -0.2118  0.5774 -0.1614
 8959TIP3    H148292   6.828   2.138  13.511 -0.4869  0.3241  0.1495
 8959TIP3    H248293   6.686   2.105  13.470 -0.0767  0.4719 -1.4556
 8960TIP3   OH248294   0.673   2.812   0.763  0.4075  0.0839  0.1112
 8960TIP3    H148295   0.632   2.740   0.716 -1.0630 -0.0655  1.5080
 8960TIP3    H248296   0.640   2.804   0.853  1.4428  1.5727  0.6731
 8961TIP3   OH248297   6.339   2.144   3.749 -0.3611 -0.4939  0.0599
 8961TIP3    H148298   6.358   2.237   3.740 -0.8645 -0.3465  0.4345
 8961TIP3    H248299   6.420   2.099   3.725 -0.1367  0.0402 -0.1751
 8962TIP3   OH248300   2.466   6.368   5.737  0.3306 -0.0070 -0.1950
 8962TIP3    H148301   2.519   6.419   5.797 -0.0209  0.8089 -0.5597
 8962TIP3    H248302   2.433   6.432   5.673 -0.7222 -0.5568 -0.2314
 8963TIP3   OH248303   4.183   4.597  16.033  0.5479 -0.3926  0.8647
 8963TIP3    H148304   4.267   4.603  16.079  0.7718 -0.4102  0.4629
 8963TIP3    H248305   4.158   4.689  16.019  1.3428 -0.3614 -0.5221
 8964TIP3   OH248306   5.573   3.336   3.175 -0.2635 -0.0691 -0.0270
 8964TIP3    H148307   5.507   3.320   3.109 -0.7399  0.0621  0.4120
 8964TIP3    H248308   5.656   3.337   3.127 -0.6623  0.6701 -0.7057
 8965TIP3   OH248309   1.593   5.794   6.151 -0.3126  0.3241 -0.0612
 8965TIP3    H148310   1.670   5.851   6.146 -0.4870  0.5712  0.0442
 8965TIP3    H248311   1.524   5.851   6.185 -0.2893 -0.1479  0.7911
 8966TIP3   OH248312   0.881   4.867  15.665  0.1509  0.5481  0.2578
 8966TIP3    H148313   0.908   4.936  15.726 -0.5441  0.4640  0.6709
 8966TIP3    H248314   0.849   4.796  15.722 -0.8862  0.6233 -0.2086
 8967TIP3   OH248315   6.536   3.854  15.302  0.3139  0.3136  0.0978
 8967TIP3    H148316   6.574   3.893  15.223  0.1917 -1.1418 -0.7277
 8967TIP3    H248317   6.552   3.760  15.292  0.2574  0.0989  1.8040
 8968TIP3   OH248318   1.763   4.365  13.095  0.1815  0.3108  0.0142
 8968TIP3    H148319   1.684   4.311  13.098  0.3963 -0.0373 -0.4711
 8968TIP3    H248320   1.731   4.455  13.087 -0.1780  0.0210 -2.8516
 8969TIP3   OH248321   1.453   3.183   0.282 -0.3087  0.1790 -0.0003
 8969TIP3    H148322   1.449   3.136   0.366  2.0824 -0.8027 -0.3477
 8969TIP3    H248323   1.466   3.114   0.217  1.2424  1.1349 -0.7651
 8970TIP3   OH248324   3.589   1.404  16.546 -0.1380 -0.2115  0.1234
 8970TIP3    H148325   3.516   1.446  16.591  0.4789 -0.9761  1.9048
 8970TIP3    H248326   3.555   1.319  16.518  0.1412 -0.7007  1.2370
 8971TIP3   OH248327   0.343   1.651  11.431  0.0006  0.8627 -0.5525
 8971TIP3    H148328   0.328   1.699  11.349  0.7835 -0.8441 -1.7327
 8971TIP3    H248329   0.436   1.664  11.449 -0.0852  0.8997 -0.1401
 8972TIP3   OH248330   5.943   5.797  15.540  0.1945 -0.3448 -0.1029
 8972TIP3    H148331   5.891   5.847  15.603  1.6017 -0.4911  1.2194
 8972TIP3    H248332   5.995   5.738  15.594  0.8875 -1.0186 -1.4651
 8973TIP3   OH248333   6.596   2.667  15.706 -0.1564 -0.3589 -0.0713
 8973TIP3    H148334   6.591   2.754  15.666  0.5733 -0.6497 -0.8447
 8973TIP3    H248335   6.530   2.615  15.660 -0.0745 -0.4030 -0.1410
 8974TIP3   OH248336   0.351   5.184  10.794  0.0063 -0.6745  0.1771
 8974TIP3    H148337   0.404   5.169  10.716 -1.4464  0.5029 -1.1130
 8974TIP3    H248338   0.341   5.279  10.799 -3.0102 -0.8375 -0.4617
 8975TIP3   OH248339   6.263   2.009   0.735 -0.2526  0.3688  0.2598
 8975TIP3    H148340   6.234   1.918   0.733  0.0969  0.2656 -1.0220
 8975TIP3    H248341   6.198   2.053   0.789 -0.4191 -0.6360  0.9141
 8976TIP3   OH248342   0.247   1.084   0.316  0.0056  0.0012  0.3160
 8976TIP3    H148343   0.155   1.088   0.291 -0.2343 -0.7660  1.0375
 8976TIP3    H248344   0.270   0.991   0.310  0.6542  0.1486  0.4097
 8977TIP3   OH248345   2.226   6.734   3.535  0.5187  0.4837 -0.2925
 8977TIP3    H148346   2.298   6.695   3.585  0.4376 -0.1937 -0.6956
 8977TIP3    H248347   2.177   6.784   3.600  0.5943 -0.1341  0.2601
 8978TIP3   OH248348   3.146   6.413  14.870 -0.3765 -0.2751 -0.0360
 8978TIP3    H148349   3.081   6.354  14.830 -0.6976  1.4473 -2.2243
 8978TIP3    H248350   3.209   6.431  14.800  0.1259  1.3773  0.7897
 8979TIP3   OH248351   1.258   0.629   4.067  0.1584 -0.1633 -0.4685
 8979TIP3    H148352   1.267   0.545   4.113  1.0368  0.6698  0.9451
 8979TIP3    H248353   1.164   0.646   4.066  0.0083 -0.9523 -0.3811
 8980TIP3   OH248354   3.489   1.261   1.276 -0.8124 -0.1895 -0.3929
 8980TIP3    H148355   3.501   1.174   1.238  0.4555  0.6577 -2.0786
 8980TIP3    H248356   3.538   1.259   1.358 -0.3400 -0.9000 -0.6915
 8981TIP3   OH248357   1.255   6.347   1.197  0.2427  0.8640 -0.3836
 8981TIP3    H148358   1.171   6.377   1.162  0.5041  1.6392 -0.3600
 8981TIP3    H248359   1.320   6.404   1.156  0.5989  1.5030  1.0110
 8982TIP3   OH248360   2.349   6.184  15.177  0.2270  0.1253 -0.0565
 8982TIP3    H148361   2.420   6.139  15.131 -0.1617 -0.8334  0.2554
 8982TIP3    H248362   2.341   6.268  15.132  0.5087 -0.3951 -1.1123
 8983TIP3   OH248363   2.177   4.898   4.428  0.5068 -0.0348  0.2726
 8983TIP3    H148364   2.223   4.863   4.352 -1.1521 -0.1979 -0.6802
 8983TIP3    H248365   2.197   4.992   4.427  0.8667 -0.1136 -0.0780
 8984TIP3   OH248366   5.034   4.042  14.158  0.6208 -0.5923  0.4265
 8984TIP3    H148367   5.038   3.980  14.231  0.2107 -0.8612  0.2311
 8984TIP3    H248368   5.125   4.065  14.141  0.6321  1.0557  2.3414
 8985TIP3   OH248369   1.926   0.835  16.072  0.5104  0.3190 -0.2536
 8985TIP3    H148370   1.908   0.918  16.115  0.5471  0.3660 -0.3286
 8985TIP3    H248371   2.011   0.808  16.107  0.5492  0.3666 -0.3102
 8986TIP3   OH248372   3.062   3.411  11.570  0.8390 -0.6761 -0.2775
 8986TIP3    H148373   3.104   3.356  11.637  1.7272  1.2678  0.8502
 8986TIP3    H248374   2.975   3.428  11.604  1.3178  0.3800  0.4899
 8987TIP3   OH248375   5.271   3.862  16.822 -0.3615 -0.4168 -0.3108
 8987TIP3    H148376   5.234   3.847  16.909  1.2158  1.0997  0.6637
 8987TIP3    H248377   5.199   3.840  16.762 -2.4983  1.3487  1.4372
 8988TIP3   OH248378   5.958   5.926   4.404 -0.2262 -0.2013 -0.0561
 8988TIP3    H148379   5.952   5.913   4.310 -0.2392  0.7519 -0.1944
 8988TIP3    H248380   5.893   5.865   4.440  0.1174 -0.9171 -0.6230
 8989TIP3   OH248381   4.273   1.394   1.470 -0.3667 -0.6363  0.3758
 8989TIP3    H148382   4.228   1.437   1.544  0.4475  1.2560 -0.1583
 8989TIP3    H248383   4.348   1.350   1.510 -0.1612  0.0289  0.7419
 8990TIP3   OH248384   4.327   6.494  12.024  0.3196 -0.2731 -0.2387
 8990TIP3    H148385   4.249   6.479  11.972  0.1894 -0.3165 -0.0314
 8990TIP3    H248386   4.325   6.426  12.092  1.3292 -1.2310 -1.1376
 8991TIP3   OH248387   5.742   0.442  12.116  0.3265 -0.0532 -0.7179
 8991TIP3    H148388   5.701   0.362  12.149  0.7537  0.5417  1.4593
 8991TIP3    H248389   5.813   0.459  12.178 -0.3757  2.5316 -0.5115
 8992TIP3   OH248390   4.239   5.055   2.331  0.4328  0.2172 -0.1611
 8992TIP3    H148391   4.273   4.973   2.366 -0.0998  0.9922  2.3945
 8992TIP3    H248392   4.305   5.121   2.354 -0.3070  0.8888  0.1077
 8993TIP3   OH248393   6.408   4.189   2.617 -0.2261 -0.1446  0.5700
 8993TIP3    H148394   6.502   4.176   2.610 -0.3978 -1.2758  0.1099
 8993TIP3    H248395   6.398   4.264   2.675  0.9896  1.4843 -1.2200
 8994TIP3   OH248396   0.309   0.090  12.180 -0.3231  0.2421 -0.3615
 8994TIP3    H148397   0.245   0.081  12.251 -1.0129  1.8307 -0.7502
 8994TIP3    H248398   0.378   0.026  12.202 -0.9968  0.0057  1.2009
 8995TIP3   OH248399   2.817   2.521   4.545 -0.3513 -0.0458 -0.4928
 8995TIP3    H148400   2.746   2.457   4.550  0.0731 -0.5291 -0.6404
 8995TIP3    H248401   2.853   2.510   4.457 -0.4824  0.6192 -0.6334
 8996TIP3   OH248402   2.833   4.190  11.792  0.4658 -0.7340  0.4912
 8996TIP3    H148403   2.807   4.221  11.878 -0.7433 -0.0183 -0.1066
 8996TIP3    H248404   2.905   4.248  11.767 -0.3167  0.1895  0.3203
 8997TIP3   OH248405   2.455   2.928   1.054  0.0404  0.0686 -0.4521
 8997TIP3    H148406   2.526   2.881   1.097  0.9415 -0.6296 -2.5874
 8997TIP3    H248407   2.483   3.020   1.055  0.5787 -0.0931 -0.5428
 8998TIP3   OH248408   5.287   4.343   3.616 -0.1886  0.5057  0.5741
 8998TIP3    H148409   5.193   4.342   3.635 -0.4413  1.0760 -0.5552
 8998TIP3    H248410   5.326   4.293   3.687 -1.1079  2.1335  2.3158
 8999TIP3   OH248411   4.903   2.925  14.830 -0.0063 -0.0637  0.2598
 8999TIP3    H148412   4.944   2.958  14.750  1.0947 -0.5376  0.6131
 8999TIP3    H248413   4.905   2.999  14.890  1.3561 -0.3736  0.6405
 9000TIP3   OH248414   3.737   3.511  11.052  0.5430  0.2219 -0.2375
 9000TIP3    H148415   3.697   3.471  10.975 -2.4691 -0.0567  1.3264
 9000TIP3    H248416   3.692   3.595  11.061  1.7045  0.7817  0.5700
 9001TIP3   OH248417   5.089   2.628   1.849 -0.1014 -0.7039  0.4099
 9001TIP3    H148418   5.092   2.697   1.915 -0.0147  0.2328 -0.5441
 9001TIP3    H248419   5.106   2.548   1.897  1.9556  0.1676  1.2215
 9002TIP3   OH248420   3.035   6.586   5.447  0.0829 -0.3606 -0.3011
 9002TIP3    H148421   2.991   6.558   5.367 -0.9968  1.3807 -0.3774
 9002TIP3    H248422   2.965   6.591   5.512  0.7516 -0.6562  0.4504
 9003TIP3   OH248423   0.383   0.599  11.940 -0.3441  0.0732  0.5049
 9003TIP3    H148424   0.346   0.633  12.021 -0.0523  1.6874 -0.0083
 9003TIP3    H248425   0.352   0.658  11.872  1.1193  0.0013 -0.2839
 9004TIP3   OH248426   0.800   1.705   1.319  0.1847 -0.0724  0.4898
 9004TIP3    H148427   0.766   1.774   1.376  0.1447  0.0470  0.3223
 9004TIP3    H248428   0.737   1.633   1.328 -1.0406  0.7511 -1.0904
 9005TIP3   OH248429   0.327   1.614  14.573 -0.2970 -0.2856 -0.3454
 9005TIP3    H148430   0.282   1.647  14.651 -0.0690  2.2362 -1.1977
 9005TIP3    H248431   0.409   1.663  14.570  0.0332 -0.8798 -1.7856
 9006TIP3   OH248432   0.877   0.778   3.784  0.6933 -0.5184  0.5172
 9006TIP3    H148433   0.820   0.828   3.842  1.0704 -0.2674  0.6758
 9006TIP3    H248434   0.945   0.741   3.841  1.8183  0.7958  0.0887
 9007TIP3   OH248435   2.243   0.063  14.156  0.6371  0.1915 -0.4365
 9007TIP3    H148436   2.229   0.108  14.073  1.9832  0.5062 -0.5132
 9007TIP3    H248437   2.245  -0.030  14.133 -1.4784  0.0889 -0.3733
 9008TIP3   OH248438   4.504   4.576  11.777 -0.1893 -0.4636 -0.0021
 9008TIP3    H148439   4.439   4.553  11.711 -0.3609 -1.4955  0.5037
 9008TIP3    H248440   4.454   4.618  11.847  0.1968  2.1472 -1.1749
 9009TIP3   OH248441   0.239   5.015   3.853 -0.1966  0.0220  0.8541
 9009TIP3    H148442   0.299   5.089   3.856 -1.0725  0.9891 -2.1056
 9009TIP3    H248443   0.156   5.050   3.885  0.4305 -1.1189  4.2086
 9010TIP3   OH248444   1.627   6.398   4.111  0.1649  0.1322 -0.2358
 9010TIP3    H148445   1.720   6.421   4.110 -0.0073  0.8633  0.0580
 9010TIP3    H248446   1.617   6.335   4.040  0.5637  1.3236 -1.3980
 9011TIP3   OH248447   3.580   4.853  14.821 -0.4284  0.2952  0.4125
 9011TIP3    H148448   3.670   4.822  14.828 -1.5368 -3.0037  2.4509
 9011TIP3    H248449   3.585   4.947  14.836  2.6967  0.3240 -0.2627
 9012TIP3   OH248450   4.021   3.477  13.475  0.2405  0.4426  0.0347
 9012TIP3    H148451   3.947   3.519  13.431 -0.2848 -0.3631  0.1325
 9012TIP3    H248452   4.098   3.517  13.435 -0.2387  1.2134 -0.1472
 9013TIP3   OH248453   3.570   1.290   6.252 -0.6351  0.4564 -0.1261
 9013TIP3    H148454   3.634   1.361   6.252 -0.5221  0.3625 -1.0574
 9013TIP3    H248455   3.541   1.285   6.343  1.0840  0.1358  0.4568
 9014TIP3   OH248456   1.676   2.366   2.649  0.0711  0.0561  0.2090
 9014TIP3    H148457   1.665   2.391   2.557  0.8138 -1.4577 -0.3128
 9014TIP3    H248458   1.668   2.271   2.649  0.9858 -0.0410  1.5811
 9015TIP3   OH248459   0.748   1.859  10.372  0.2858  0.1069  0.2155
 9015TIP3    H148460   0.703   1.845  10.455 -1.7809  0.9286 -0.7159
 9015TIP3    H248461   0.800   1.938  10.385 -2.1530  1.8407 -0.0429
 9016TIP3   OH248462   3.076   4.013   0.013 -0.2712  0.3486 -0.7877
 9016TIP3    H148463   2.980   4.013   0.008 -0.2372  0.4500 -1.7136
 9016TIP3    H248464   3.096   4.030   0.105 -1.1421  0.4198 -0.6070
 9017TIP3   OH248465   0.592   1.564   3.280 -0.4919  0.5536 -0.7590
 9017TIP3    H148466   0.678   1.595   3.309 -0.7443 -1.5654  2.8754
 9017TIP3    H248467   0.611   1.506   3.206  1.3903 -0.6664  0.5965
 9018TIP3   OH248468   3.172   5.167  13.702 -0.4694 -0.0945  0.0884
 9018TIP3    H148469   3.109   5.193  13.769 -0.9768 -0.6976 -0.1477
 9018TIP3    H248470   3.124   5.108  13.644 -0.3099  1.1006 -1.3426
 9019TIP3   OH248471   5.731   1.258  10.761  0.1569 -0.8104 -0.4446
 9019TIP3    H148472   5.669   1.243  10.689 -1.9884 -0.7231  1.2929
 9019TIP3    H248473   5.763   1.347  10.746 -0.8396 -0.5086 -0.9033
 9020TIP3   OH248474   2.657   1.529   2.786 -0.0488  0.0085 -0.0725
 9020TIP3    H148475   2.578   1.578   2.806 -0.1307 -0.2820  0.3347
 9020TIP3    H248476   2.729   1.586   2.814 -0.1477 -0.1472  0.5326
 9021TIP3   OH248477   5.248   1.323  14.475  0.5567  0.0659  0.0344
 9021TIP3    H148478   5.252   1.279  14.390 -2.0752  1.6423 -1.0047
 9021TIP3    H248479   5.303   1.401  14.465 -2.2551  2.0295 -1.5047
 9022TIP3   OH248480   4.273   4.407   5.205  0.5149  0.0997  0.2315
 9022TIP3    H148481   4.281   4.500   5.183 -0.4441  1.1222  3.6369
 9022TIP3    H248482   4.182   4.396   5.232  0.7612 -1.7077  0.4596
 9023TIP3   OH248483   2.962   2.862   0.714  0.0919 -0.2636 -0.2743
 9023TIP3    H148484   3.047   2.900   0.694 -0.1871 -0.5669 -2.1794
 9023TIP3    H248485   2.980   2.798   0.784  1.3299  0.0169 -0.3164
 9024TIP3   OH248486   4.830   0.731   5.970 -0.1449 -0.1539  0.2588
 9024TIP3    H148487   4.912   0.720   6.017 -0.3972 -2.3968  0.2599
 9024TIP3    H248488   4.794   0.813   6.004  0.9302 -0.3868  2.0555
 9025TIP3   OH248489   1.927   6.703  16.256 -0.6734 -0.2925  0.1173
 9025TIP3    H148490   1.916   6.705  16.161 -0.4941  0.4944  0.1036
 9025TIP3    H248491   1.841   6.678  16.290 -1.2486  1.1479 -0.1829
 9026TIP3   OH248492   6.266   2.371   4.044  0.6497 -0.3789 -0.5999
 9026TIP3    H148493   6.342   2.316   4.062  0.4271 -0.8288 -1.0194
 9026TIP3    H248494   6.302   2.449   4.003  0.8429 -0.8241 -1.2958
 9027TIP3   OH248495   2.480   3.863  12.520  0.2603  0.3840  0.3267
 9027TIP3    H148496   2.536   3.940  12.505  0.2676  0.5147  1.0118
 9027TIP3    H248497   2.397   3.887  12.479  0.3417  0.6596  0.3158
 9028TIP3   OH248498   2.204   1.395   5.410 -0.8348 -0.1502  0.3066
 9028TIP3    H148499   2.212   1.299   5.406  0.3291 -0.1043  0.8797
 9028TIP3    H248500   2.295   1.425   5.412 -1.2010  0.9258  1.0546
 9029TIP3   OH248501   4.565   5.534   5.757 -0.0044 -0.3306  0.1174
 9029TIP3    H148502   4.627   5.542   5.829  0.6655 -1.2739 -0.3306
 9029TIP3    H248503   4.619   5.529   5.678 -0.7579  2.2225 -0.6419
 9030TIP3   OH248504   4.013   2.147  10.578 -0.7129  0.2799 -0.1431
 9030TIP3    H148505   4.021   2.187  10.665 -2.7302 -0.7335  0.5793
 9030TIP3    H248506   3.922   2.165  10.552 -1.0075 -1.8290 -0.7539
 9031TIP3   OH248507   2.550   2.748  12.127  0.1420 -0.2638  0.4338
 9031TIP3    H148508   2.602   2.786  12.056 -0.4123  2.0048  1.1607
 9031TIP3    H248509   2.476   2.706  12.083  0.0266  0.7375 -0.3572
 9032TIP3   OH248510   4.855   1.914   3.387 -0.0705  0.2804  0.4074
 9032TIP3    H148511   4.803   1.947   3.315 -1.5369 -1.8079  0.4373
 9032TIP3    H248512   4.816   1.954   3.465 -0.5198  0.0542  0.2982
 9033TIP3   OH248513   3.266   0.821   1.416 -0.2634 -0.1272 -0.0707
 9033TIP3    H148514   3.228   0.836   1.502  2.9045  0.1126  1.4252
 9033TIP3    H248515   3.267   0.907   1.374  0.9914  0.4101  0.9818
 9034TIP3   OH248516   4.074   4.529   0.196  0.5718  0.0990  0.5147
 9034TIP3    H148517   4.136   4.493   0.260 -0.8669 -0.7237  1.4853
 9034TIP3    H248518   4.015   4.584   0.248  0.2937  0.6328 -0.3490
 9035TIP3   OH248519   0.364   5.927   5.519  0.2409 -0.0870 -0.0928
 9035TIP3    H148520   0.427   5.998   5.529 -0.1072  0.2919 -0.5211
 9035TIP3    H248521   0.417   5.847   5.517  0.5800  0.0810  1.1781
 9036TIP3   OH248522   2.503   4.180   2.448 -0.0053 -0.5218  0.3375
 9036TIP3    H148523   2.476   4.233   2.523  1.4728 -0.7380  1.0452
 9036TIP3    H248524   2.422   4.139   2.418 -0.2616 -2.6737  3.5834
 9037TIP3   OH248525   6.325   1.525   2.545 -0.8475 -0.2055  0.0969
 9037TIP3    H148526   6.301   1.618   2.538 -0.6212 -0.2446 -2.4988
 9037TIP3    H248527   6.410   1.520   2.501 -1.8389 -1.9445 -1.7817
 9038TIP3   OH248528   5.933   1.495  13.870 -0.1389  0.3163  0.2436
 9038TIP3    H148529   6.008   1.452  13.827 -0.3720  0.6438 -0.5041
 9038TIP3    H248530   5.912   1.569  13.813 -1.7941 -0.4620 -0.2101
 9039TIP3   OH248531   2.869   0.395   2.075  0.1726  0.0817 -0.2217
 9039TIP3    H148532   2.953   0.440   2.075  0.0348  0.4327  2.3229
 9039TIP3    H248533   2.805   0.465   2.062  0.1748 -0.0475 -1.0241
 9040TIP3   OH248534   6.632   4.349   2.669 -0.2104 -0.0401 -0.1810
 9040TIP3    H148535   6.670   4.377   2.586 -2.0992 -1.2171 -1.5445
 9040TIP3    H248536   6.671   4.263   2.686  0.1205  0.1673  0.1044
 9041TIP3   OH248537   5.492   6.097  15.279 -0.2568  0.1719  0.2467
 9041TIP3    H148538   5.523   6.156  15.210 -1.4737  0.3565 -0.1618
 9041TIP3    H248539   5.517   6.010  15.248  2.2490  0.4404  1.2135
 9042TIP3   OH248540   5.566   5.918   0.372  0.2763 -0.0534 -0.3734
 9042TIP3    H148541   5.533   5.859   0.441 -0.3958 -1.7574 -2.0628
 9042TIP3    H248542   5.604   5.991   0.420  0.0119 -1.2542  1.8207
 9043TIP3   OH248543   5.158   4.267  13.590 -0.0597  0.2664  0.3699
 9043TIP3    H148544   5.228   4.326  13.561  0.5135  0.1287  1.4024
 9043TIP3    H248545   5.104   4.321  13.648 -1.2785  0.5836 -0.9907
 9044TIP3   OH248546   4.189   6.738  12.037  0.1049 -0.1570  0.6637
 9044TIP3    H148547   4.249   6.663  12.040 -1.3532 -1.3887  0.8114
 9044TIP3    H248548   4.108   6.704  12.075 -0.6205  1.5055  0.6724
 9045TIP3   OH248549   5.891   4.348  12.413 -0.2500  0.1699 -0.1271
 9045TIP3    H148550   5.900   4.439  12.442 -0.6609 -0.1643  1.1347
 9045TIP3    H248551   5.970   4.331  12.362  1.6673  0.1903  2.5841
 9046TIP3   OH248552   5.530   1.014  13.302  0.2322  0.2181  0.1557
 9046TIP3    H148553   5.452   0.978  13.344  0.8331 -1.9967 -0.5072
 9046TIP3    H248554   5.528   0.978  13.213  2.7059 -1.0933  0.5401
 9047TIP3   OH248555   5.173   1.202   1.429  0.6129 -0.7410 -0.3267
 9047TIP3    H148556   5.193   1.295   1.437  1.3492 -0.9028 -0.2612
 9047TIP3    H248557   5.129   1.194   1.344 -1.0649 -0.0742  0.4423
 9048TIP3   OH248558   1.737   4.234  15.329  0.2294  0.2357 -0.5762
 9048TIP3    H148559   1.747   4.328  15.344 -0.8640  0.0269  2.0029
 9048TIP3    H248560   1.817   4.195  15.365  1.1863  0.1760 -2.6155
 9049TIP3   OH248561   2.424   6.187   3.042 -0.3534 -0.3743 -0.0926
 9049TIP3    H148562   2.425   6.277   3.074 -0.9203 -0.6414  0.6963
 9049TIP3    H248563   2.371   6.139   3.105 -0.9008 -1.0634 -1.0511
 9050TIP3   OH248564   2.808   0.963   4.748 -0.3321 -0.1011  0.1399
 9050TIP3    H148565   2.867   0.904   4.703  0.0018 -0.3400  0.8684
 9050TIP3    H248566   2.852   0.981   4.832 -0.7183  0.6799  0.1837
 9051TIP3   OH248567   1.731   3.717   5.323  0.7741 -0.5213  0.3046
 9051TIP3    H148568   1.772   3.706   5.238 -1.0992 -1.7384 -0.5063
 9051TIP3    H248569   1.802   3.703   5.386  2.1096  0.0275 -1.0186
 9052TIP3   OH248570   5.970   3.220  15.122  0.1299 -0.7500 -0.3888
 9052TIP3    H148571   5.981   3.208  15.216 -1.2486 -1.4780 -0.2948
 9052TIP3    H248572   6.006   3.307  15.105 -0.0534 -0.3984  0.8994
 9053TIP3   OH248573   5.795   0.916  13.402  0.7026  0.5717 -0.2514
 9053TIP3    H148574   5.700   0.925  13.395  0.5369  1.8979  2.3241
 9053TIP3    H248575   5.819   0.857  13.331 -2.0301  0.2213 -1.0037
 9054TIP3   OH248576   5.634   0.761   1.401 -0.5264 -0.3975  0.0867
 9054TIP3    H148577   5.687   0.704   1.457 -0.0707  0.9066  1.0625
 9054TIP3    H248578   5.544   0.734   1.418 -0.3544 -0.4277  1.0121
 9055TIP3   OH248579   2.363   5.703  14.323  0.1818 -0.4550 -0.7074
 9055TIP3    H148580   2.329   5.614  14.311  0.4725 -0.4808 -1.3974
 9055TIP3    H248581   2.364   5.716  14.418 -2.7073 -0.0657 -0.6389
 9056TIP3   OH248582   2.202   3.461  16.927 -0.1472 -0.3719 -0.0129
 9056TIP3    H148583   2.235   3.420  17.007 -1.6682 -0.9396  0.3743
 9056TIP3    H248584   2.155   3.539  16.958  0.7360  0.3867 -0.5332
 9057TIP3   OH248585   4.570   1.682   2.335  0.2350 -0.1910  0.1421
 9057TIP3    H148586   4.519   1.762   2.347 -2.3435 -1.5008 -1.3819
 9057TIP3    H248587   4.534   1.620   2.398  1.3601 -0.5565  0.4505
 9058TIP3   OH248588   6.749   6.621  11.783 -0.4796 -0.2246 -0.0469
 9058TIP3    H148589   6.660   6.649  11.803 -0.5428 -0.7254  0.3977
 9058TIP3    H248590   6.776   6.570  11.859 -0.2347 -1.0362 -0.6574
 9059TIP3   OH248591   4.763   1.453   1.477  0.6500 -0.7118  0.3099
 9059TIP3    H148592   4.855   1.466   1.502  0.6942 -0.6928  0.1356
 9059TIP3    H248593   4.713   1.479   1.555  0.7416  0.2544  0.0582
 9060TIP3   OH248594   6.120   4.180   6.269 -0.3895 -0.3420 -0.0349
 9060TIP3    H148595   6.058   4.207   6.202  0.6832  0.3904 -0.7728
 9060TIP3    H248596   6.152   4.095   6.239 -0.2460 -0.2247 -0.2135
 9061TIP3   OH248597   3.571   5.155   1.385 -0.7431  0.5855  0.2515
 9061TIP3    H148598   3.562   5.244   1.350 -1.3393  0.6685  0.6035
 9061TIP3    H248599   3.488   5.139   1.430 -1.2602 -0.7399 -1.1124
 9062TIP3   OH248600   3.258   2.225   2.653  0.0655  0.3614  0.5761
 9062TIP3    H148601   3.304   2.270   2.582  1.1651  1.2852  1.8219
 9062TIP3    H248602   3.241   2.294   2.718  0.4021 -0.7174  1.8598
 9063TIP3   OH248603   5.737   6.163   0.736 -0.2219 -0.2750 -0.3088
 9063TIP3    H148604   5.755   6.196   0.823 -0.4494  0.6331 -0.6020
 9063TIP3    H248605   5.812   6.190   0.683 -0.6814  0.3041 -0.6815
 9064TIP3   OH248606   0.554   5.610  14.583 -0.2143  0.9179 -0.5476
 9064TIP3    H148607   0.510   5.533  14.619 -1.6011  2.0030  0.1657
 9064TIP3    H248608   0.645   5.583  14.573 -0.3372 -0.3074  1.2153
 9065TIP3   OH248609   3.129   1.542  16.795  0.1417 -0.2529  0.7593
 9065TIP3    H148610   3.071   1.618  16.794 -1.3047 -1.3040  1.7468
 9065TIP3    H248611   3.187   1.557  16.869  0.1964  0.1091  0.6478
 9066TIP3   OH248612   2.857   1.957  14.936 -0.2888  0.1463 -0.3250
 9066TIP3    H148613   2.896   2.045  14.939  1.3094 -0.5629  0.9717
 9066TIP3    H248614   2.919   1.906  14.883 -0.4479 -0.5600  0.1650
 9067TIP3   OH248615   3.749   5.232  13.509 -0.0264  0.5284 -0.6740
 9067TIP3    H148616   3.761   5.187  13.593  0.6717  0.1617 -0.9612
 9067TIP3    H248617   3.838   5.240  13.473 -0.2911  0.9084 -1.2644
 9068TIP3   OH248618   1.376   4.945  14.956  0.2429  0.7051  1.1727
 9068TIP3    H148619   1.396   4.876  15.020 -0.4016  0.1884  0.8370
 9068TIP3    H248620   1.421   4.917  14.876  0.6505  1.0988  1.2642
 9069TIP3   OH248621   3.438   3.246   4.813  0.3224  0.0467  0.1684
 9069TIP3    H148622   3.518   3.207   4.778  0.9135  0.9488  0.4670
 9069TIP3    H248623   3.465   3.333   4.842 -1.0368  0.8453 -0.8667
 9070TIP3   OH248624   1.388   4.110   5.215  0.6042  0.0251  0.6648
 9070TIP3    H148625   1.332   4.041   5.180  0.5862  0.9789 -1.3227
 9070TIP3    H248626   1.457   4.120   5.149  0.8387  1.6023  1.1123
 9071TIP3   OH248627   3.402   0.949  10.977 -0.0658 -0.6477  0.5799
 9071TIP3    H148628   3.391   0.888  10.903 -0.7518 -1.7278  1.5281
 9071TIP3    H248629   3.463   0.905  11.036 -0.1297 -0.1587  1.0213
 9072TIP3   OH248630   5.826   1.224   4.720 -0.2927  0.8926 -0.2151
 9072TIP3    H148631   5.770   1.300   4.738 -0.4082  0.6111  0.6934
 9072TIP3    H248632   5.797   1.193   4.634 -1.4133  0.8712  0.1480
 9073TIP3   OH248633   0.962   0.382   3.395  0.0117 -0.1493  0.1371
 9073TIP3    H148634   0.911   0.401   3.474 -0.0662  1.9680 -0.3530
 9073TIP3    H248635   0.918   0.307   3.355 -0.3104 -0.8693  1.7777
 9074TIP3   OH248636   2.569   3.605   5.982  0.2884 -0.3044  0.1625
 9074TIP3    H148637   2.643   3.644   6.029  0.9357 -0.4854 -0.6788
 9074TIP3    H248638   2.604   3.522   5.949 -0.8136 -1.2372  1.2235
 9075TIP3   OH248639   2.430   2.691   0.645  0.6027 -0.0342  0.2906
 9075TIP3    H148640   2.368   2.618   0.640  1.2930 -0.6653  0.6137
 9075TIP3    H248641   2.447   2.701   0.739  0.7321  0.3447  0.2268
 9076TIP3   OH248642   2.268   0.479  14.662  0.5064 -0.5159  0.2949
 9076TIP3    H148643   2.303   0.516  14.581  0.8647 -0.4847  0.4633
 9076TIP3    H248644   2.206   0.546  14.693  0.0018 -0.7415 -0.2014
 9077TIP3   OH248645   6.703   6.128  12.773 -0.0540  0.2039  0.1881
 9077TIP3    H148646   6.767   6.142  12.704 -1.0776 -1.4263 -1.1883
 9077TIP3    H248647   6.754   6.128  12.854  1.5721 -0.2843 -0.7868
 9078TIP3   OH248648   5.694   5.432  16.641 -0.1757 -0.2931 -0.2462
 9078TIP3    H148649   5.788   5.438  16.659 -0.1136  0.1603 -0.6730
 9078TIP3    H248650   5.654   5.500  16.695 -0.2252 -0.3168 -0.2535
 9079TIP3   OH248651   2.381   6.243  12.353  0.1867  0.0338  0.2958
 9079TIP3    H148652   2.452   6.254  12.416 -0.1181  1.2867  0.4398
 9079TIP3    H248653   2.412   6.174  12.294  1.6324  0.7306  0.1985
 9080TIP3   OH248654   4.887   5.555   1.889  0.7409 -0.5063 -0.2861
 9080TIP3    H148655   4.885   5.568   1.983  1.8110  0.1031 -0.3262
 9080TIP3    H248656   4.864   5.463   1.877  0.6738 -0.6092  0.5761
 9081TIP3   OH248657   1.690   5.696   0.237  0.0038 -0.1114  0.1340
 9081TIP3    H148658   1.747   5.763   0.272 -0.8347  0.6607  0.0523
 9081TIP3    H248659   1.609   5.742   0.213  0.5549 -0.4971 -3.0166
 9082TIP3   OH248660   3.895   4.147   0.523 -0.7686 -0.1329 -0.7686
 9082TIP3    H148661   3.973   4.091   0.518 -0.9848 -0.4890 -0.2750
 9082TIP3    H248662   3.854   4.137   0.438 -2.2816 -2.9323  0.1495
 9083TIP3   OH248663   5.648   1.129  12.172 -0.4205  0.1745  0.0279
 9083TIP3    H148664   5.590   1.066  12.131 -0.7054 -0.1534  0.9073
 9083TIP3    H248665   5.678   1.185  12.100 -0.6533 -0.5671 -0.6640
 9084TIP3   OH248666   4.728   4.805  14.610  0.0292 -0.5467  0.3311
 9084TIP3    H148667   4.771   4.837  14.531 -1.0837  0.5032  0.1290
 9084TIP3    H248668   4.660   4.746  14.578 -0.8438  0.3725  0.4455
 9085TIP3   OH248669   2.664   3.968   2.318  0.5993 -0.0435 -0.2209
 9085TIP3    H148670   2.659   4.012   2.233  1.3852  0.0672 -0.2185
 9085TIP3    H248671   2.616   4.026   2.378  0.2181 -0.0208 -0.5481
 9086TIP3   OH248672   5.636   6.122  14.578 -0.1628 -0.0805  0.1302
 9086TIP3    H148673   5.690   6.055  14.537  1.0228 -0.0287  1.5073
 9086TIP3    H248674   5.576   6.151  14.509  0.6045 -1.1716 -1.0354
 9087TIP3   OH248675   0.384   5.554  15.821  0.3763  0.5433  0.0205
 9087TIP3    H148676   0.381   5.539  15.727  0.4574  0.3249  0.0543
 9087TIP3    H248677   0.430   5.638  15.830 -1.5687  1.7115 -0.2605
 9088TIP3   OH248678   6.565   0.974  15.767  0.4558  0.6749 -0.4966
 9088TIP3    H148679   6.612   0.933  15.840 -0.2955  0.5663 -0.0514
 9088TIP3    H248680   6.622   1.045  15.737 -0.2370  2.3086  1.7869
 9089TIP3   OH248681   0.743   6.581  16.595 -0.1062  0.1475 -0.6058
 9089TIP3    H148682   0.732   6.500  16.545 -0.6974  0.9250 -1.7781
 9089TIP3    H248683   0.667   6.634  16.571  0.6927  1.3636 -0.4904
 9090TIP3   OH248684   3.589   1.260   1.545  0.6503  0.2804  0.0650
 9090TIP3    H148685   3.685   1.261   1.553  0.5948 -0.2682  1.0065
 9090TIP3    H248686   3.562   1.348   1.568  0.9602  0.5953 -0.7467
 9091TIP3   OH248687   3.977   3.334  14.637  0.1650 -0.6554 -0.0086
 9091TIP3    H148688   3.987   3.252  14.589  0.4708 -0.0755 -0.9809
 9091TIP3    H248689   3.948   3.397  14.570  1.6484  0.4330  0.3186
 9092TIP3   OH248690   2.519   4.326   5.073 -0.2926 -0.2119  0.5803
 9092TIP3    H148691   2.578   4.265   5.116  0.4738 -1.6001 -2.2277
 9092TIP3    H248692   2.453   4.271   5.030 -0.4010  0.9747 -0.8707
 9093TIP3   OH248693   0.066   6.224  17.077 -0.1690 -0.2640  0.1614
 9093TIP3    H148694   0.060   6.148  17.018  0.2123 -1.2647  1.3584
 9093TIP3    H248695   0.159   6.246  17.079 -0.0735 -0.6996  0.9288
 9094TIP3   OH248696   6.643   4.189  11.851 -0.2641 -0.2606  0.0749
 9094TIP3    H148697   6.634   4.094  11.864 -0.1621 -0.3230 -0.3072
 9094TIP3    H248698   6.557   4.224  11.870 -0.3531 -0.4515  0.0249
 9095TIP3   OH248699   3.202   6.309   5.399  0.0789 -0.1301 -0.0806
 9095TIP3    H148700   3.160   6.372   5.340 -0.2565  0.3856  0.7004
 9095TIP3    H248701   3.152   6.314   5.480 -0.5494 -2.0941 -0.2875
 9096TIP3   OH248702   0.574   6.195   3.485  0.2483  0.2544  0.2634
 9096TIP3    H148703   0.666   6.201   3.514  0.0008  0.5005  1.0229
 9096TIP3    H248704   0.524   6.186   3.566 -0.3554 -0.5329 -0.1840
 9097TIP3   OH248705   4.565   4.633  14.450 -0.0762  0.1326 -0.1767
 9097TIP3    H148706   4.586   4.622  14.358  1.5057  0.5898  0.1000
 9097TIP3    H248707   4.568   4.545  14.486 -1.1769 -0.1079 -0.6313
 9098TIP3   OH248708   5.267   2.777  14.028  0.3587  0.4561 -0.3809
 9098TIP3    H148709   5.210   2.744  14.097 -0.0329  0.8730 -0.5006
 9098TIP3    H248710   5.319   2.846  14.071  0.3771  0.4605 -0.4100
 9099TIP3   OH248711   1.796   6.168   1.266  0.2098  0.1333 -0.2168
 9099TIP3    H148712   1.712   6.144   1.229  0.2304  1.0026 -0.8712
 9099TIP3    H248713   1.838   6.085   1.288 -1.3015 -0.2879  1.2708
 9100TIP3   OH248714   3.501   3.138   0.916 -0.1009  0.3683  0.3685
 9100TIP3    H148715   3.431   3.192   0.953 -0.8461 -0.7264  0.6306
 9100TIP3    H248716   3.505   3.163   0.824 -0.3006  0.9892  0.5241
 9101TIP3   OH248717   1.017   4.579  10.973  0.3593 -0.2911  0.2354
 9101TIP3    H148718   0.996   4.610  10.884  2.8963  0.3109 -0.2351
 9101TIP3    H248719   1.111   4.562  10.970  0.1887 -1.9405  2.3590
 9102TIP3   OH248720   4.085   2.894  16.489 -0.3930  0.1994 -0.0419
 9102TIP3    H148721   4.035   2.965  16.528 -0.0775  0.6377 -0.4231
 9102TIP3    H248722   4.043   2.814  16.521  0.0234  0.5299  1.3904
 9103TIP3   OH248723   0.519   3.301  10.450 -0.3934  0.7659 -0.1743
 9103TIP3    H148724   0.469   3.238  10.400  0.0743 -0.2412  0.6003
 9103TIP3    H248725   0.453   3.356  10.493 -0.9110 -0.9789  1.4056
 9104TIP3   OH248726   4.473   6.380   4.065 -0.4587  0.6217  0.2359
 9104TIP3    H148727   4.556   6.401   4.022  0.5190 -2.3713  0.4374
 9104TIP3    H248728   4.479   6.421   4.151 -0.2812  2.4506 -0.6037
 9105TIP3   OH248729   3.853   2.849   0.565 -0.0549 -0.6674 -0.0122
 9105TIP3    H148730   3.870   2.755   0.571 -0.8808 -0.7355  1.8680
 9105TIP3    H248731   3.930   2.890   0.605 -0.7178 -0.6550  1.2777
 9106TIP3   OH248732   3.557   1.526   0.020  0.2399  0.1461 -0.5165
 9106TIP3    H148733   3.478   1.473   0.031  0.4281  0.0758  0.5897
 9106TIP3    H248734   3.617   1.493   0.086  1.6004 -0.5223 -2.0488
 9107TIP3   OH248735   0.247   6.379   4.586  0.2248 -0.5917 -0.6188
 9107TIP3    H148736   0.213   6.461   4.621  0.0551 -0.7460 -0.4170
 9107TIP3    H248737   0.291   6.403   4.505  2.3859  0.1110  0.6707
 9108TIP3   OH248738   4.595   1.032   3.902 -0.4991 -0.3805 -0.1404
 9108TIP3    H148739   4.611   0.943   3.871  0.8171  0.3936 -1.8390
 9108TIP3    H248740   4.507   1.053   3.873 -1.2040 -1.4357  1.1282
 9109TIP3   OH248741   5.784   6.107  13.406 -0.5835 -0.0743 -0.0922
 9109TIP3    H148742   5.876   6.099  13.431 -0.8473 -0.0539  0.9777
 9109TIP3    H248743   5.777   6.062  13.322  0.2781 -0.6179  0.1141
 9110TIP3   OH248744   3.638   3.377  13.475  0.4526 -0.2741 -0.5378
 9110TIP3    H148745   3.678   3.454  13.436  0.2595  0.1698  0.1231
 9110TIP3    H248746   3.593   3.410  13.553 -0.6648 -0.8550 -0.9169
 9111TIP3   OH248747   6.408   2.186  14.318  0.0508 -0.4533 -0.4316
 9111TIP3    H148748   6.374   2.253  14.258  0.3841  0.3909  0.3001
 9111TIP3    H248749   6.491   2.223  14.350 -1.1733  0.1672  2.2594
 9112TIP3   OH248750   0.476   3.596   5.295 -0.2107  0.2151 -0.1900
 9112TIP3    H148751   0.490   3.507   5.262 -0.3675 -0.3050  1.1180
 9112TIP3    H248752   0.461   3.648   5.216 -0.0967 -0.9073 -0.9774
 9113TIP3   OH248753   2.192   4.425  11.524  0.3598  0.4696 -0.0710
 9113TIP3    H148754   2.281   4.449  11.496  0.2966  0.9347  0.1266
 9113TIP3    H248755   2.200   4.333  11.549  0.3863  0.0017 -1.7235
 9114TIP3   OH248756   3.321   4.429  10.832  0.3823 -0.6482 -0.2169
 9114TIP3    H148757   3.324   4.384  10.748 -0.2546 -0.7023 -0.2206
 9114TIP3    H248758   3.231   4.462  10.838  0.6849  0.1608  0.0227
 9115TIP3   OH248759   1.782   1.836  16.329  0.1942  0.2637 -0.1021
 9115TIP3    H148760   1.875   1.819  16.312  0.8176  2.5179  0.5856
 9115TIP3    H248761   1.739   1.826  16.244  0.8441 -1.8110 -0.2375
 9116TIP3   OH248762   1.113   1.044   0.069  0.5321 -0.5792  0.1805
 9116TIP3    H148763   1.082   1.018  -0.018  2.0631 -1.0382 -0.2488
 9116TIP3    H248764   1.114   1.140   0.066  0.2338 -0.5851 -0.1701
 9117TIP3   OH248765   6.385   6.639   1.974 -0.1267  0.2376  0.5197
 9117TIP3    H148766   6.376   6.710   2.038  2.5173  1.5369 -0.3798
 9117TIP3    H248767   6.337   6.670   1.897  0.6052  0.8865  0.3024
 9118TIP3   OH248768   3.525   4.920   1.643  0.5117  0.3353  0.4092
 9118TIP3    H148769   3.503   4.849   1.582 -0.8897  1.3828 -0.3877
 9118TIP3    H248770   3.486   4.998   1.603 -0.6446  1.0448  2.7362
 9119TIP3   OH248771   2.459   4.347  15.403 -0.3761 -0.1733  0.0184
 9119TIP3    H148772   2.452   4.441  15.420  1.0386  0.4794 -2.5501
 9119TIP3    H248773   2.549   4.324  15.428  0.0611 -0.2769 -1.5258
 9120TIP3   OH248774   2.500   4.981   1.459 -0.8198 -0.2972  0.2343
 9120TIP3    H148775   2.480   4.931   1.538  1.6616 -0.4170  0.8477
 9120TIP3    H248776   2.458   4.932   1.389 -1.2814 -1.3596  1.2223
 9121TIP3   OH248777   3.877   0.326   2.723 -0.4110  0.1799  0.3434
 9121TIP3    H148778   3.956   0.378   2.708 -1.0469  1.1048  0.1496
 9121TIP3    H248779   3.903   0.236   2.701  0.7455  0.3750  0.8470
 9122TIP3   OH248780   3.330   1.202  16.131  0.0756 -0.1463  0.6937
 9122TIP3    H148781   3.290   1.238  16.210 -0.7173 -0.5803  0.4977
 9122TIP3    H248782   3.283   1.120  16.116 -0.1243  0.1721 -0.5115
 9123TIP3   OH248783   3.928   5.196  16.255 -1.1003 -0.5149 -0.0161
 9123TIP3    H148784   3.956   5.258  16.323  1.0466  0.5553 -1.7218
 9123TIP3    H248785   3.833   5.201  16.255 -1.0522  2.5719  0.2125
 9124TIP3   OH248786   1.859   1.171  13.770 -0.1111  0.4968 -0.2289
 9124TIP3    H148787   1.885   1.083  13.745 -2.7918 -0.0470 -1.4345
 9124TIP3    H248788   1.846   1.217  13.687 -1.8320  1.0231  0.2905
 9125TIP3   OH248789   1.282   1.566  11.145  0.1080  0.1523  0.0917
 9125TIP3    H148790   1.292   1.609  11.060  2.5367 -0.6057 -0.0973
 9125TIP3    H248791   1.221   1.495  11.129 -0.5361  0.8577 -0.6682
 9126TIP3   OH248792   1.554   3.150  16.961  0.1936  0.2432 -0.7614
 9126TIP3    H148793   1.590   3.205  16.891  1.4375  2.2122  1.2911
 9126TIP3    H248794   1.460   3.162  16.955  0.4126  2.7359 -0.3868
 9127TIP3   OH248795   1.274   3.081  16.467  0.0022 -0.3251 -0.0784
 9127TIP3    H148796   1.227   3.095  16.385  0.1725 -1.4859 -0.3939
 9127TIP3    H248797   1.352   3.031  16.442  0.8139  0.5695  0.5980
 9128TIP3   OH248798   1.129   2.783  12.632  0.4300 -0.4773 -0.0203
 9128TIP3    H148799   1.094   2.821  12.713 -0.2341  0.1225 -0.5737
 9128TIP3    H248800   1.133   2.856  12.570 -0.6182 -1.2230 -1.0272
 9129TIP3   OH248801   6.096   5.836   5.542 -0.1379  0.3615 -0.3234
 9129TIP3    H148802   6.152   5.767   5.578  1.2197  1.6200  0.1213
 9129TIP3    H248803   6.151   5.879   5.476 -0.1241  2.3078  0.8499
 9130TIP3   OH248804   4.012   5.115  15.978 -0.3502  0.0635 -0.5443
 9130TIP3    H148805   3.963   5.089  16.056 -0.6568  1.4402 -0.2473
 9130TIP3    H248806   3.951   5.103  15.905 -0.7437  0.6518 -0.3195
 9131TIP3   OH248807   5.657   1.242  16.453 -0.1055 -0.0520 -0.1522
 9131TIP3    H148808   5.585   1.184  16.430  1.4676 -2.3519  0.3639
 9131TIP3    H248809   5.690   1.274  16.369 -0.7472 -0.2106 -0.4696
 9132TIP3   OH248810   1.199   2.105  11.946 -0.4991 -0.3782 -0.2084
 9132TIP3    H148811   1.161   2.168  12.008  0.6790  0.2873 -0.1249
 9132TIP3    H248812   1.275   2.070  11.992 -2.1510 -3.3140  0.4906
 9133TIP3   OH248813   3.537   0.083  11.246  0.3293  0.1390  0.0478
 9133TIP3    H148814   3.546   0.018  11.176  0.3606 -1.3310  1.3513
 9133TIP3    H248815   3.452   0.063  11.286  1.0679 -0.2186  1.5216
 9134TIP3   OH248816   2.074   6.743   3.300 -0.1408  0.2047 -0.4932
 9134TIP3    H148817   2.073   6.650   3.281  0.1479 -0.1286  1.0364
 9134TIP3    H248818   2.126   6.751   3.380 -1.6960  1.4771  0.4452
 9135TIP3   OH248819   2.764   2.743  16.567 -0.5490 -0.1914 -0.3377
 9135TIP3    H148820   2.677   2.707  16.549  0.9162 -3.5877 -1.5996
 9135TIP3    H248821   2.797   2.770  16.482  0.5859 -1.4981 -0.3409
 9136TIP3   OH248822   3.082   3.481  12.229 -0.5721  0.0517 -0.6393
 9136TIP3    H148823   3.169   3.518  12.217  0.3307 -1.6645  0.2069
 9136TIP3    H248824   3.022   3.551  12.204  1.0085  1.9128  0.5390
 9137TIP3   OH248825   2.891   1.719   2.853  0.5030 -0.3489  0.0127
 9137TIP3    H148826   2.956   1.731   2.785  2.0085  1.3174  1.6496
 9137TIP3    H248827   2.918   1.638   2.898  0.2592 -0.7403 -0.5348
 9138TIP3   OH248828   5.433   5.415   0.652  0.0229 -0.4778 -0.1140
 9138TIP3    H148829   5.469   5.341   0.603 -0.1237 -1.2574  0.9426
 9138TIP3    H248830   5.402   5.378   0.734 -1.4922  0.4879 -0.2036
 9139TIP3   OH248831   1.445   1.183  13.263 -0.9397  0.3553 -0.5780
 9139TIP3    H148832   1.388   1.159  13.336  0.5007 -0.8934  0.2224
 9139TIP3    H248833   1.484   1.100  13.235 -1.3033  0.8254 -2.6911
 9140TIP3   OH248834   1.431   0.860   0.319  0.6119  0.5113  0.4400
 9140TIP3    H148835   1.438   0.778   0.368  0.8241 -0.2039 -0.7491
 9140TIP3    H248836   1.355   0.904   0.357  0.6466 -0.1151  1.2574
 9141TIP3   OH248837   2.481   5.838   5.173 -0.0410  0.0336 -0.3974
 9141TIP3    H148838   2.566   5.816   5.212  0.0759  0.2126 -0.5495
 9141TIP3    H248839   2.502   5.902   5.105 -0.2206 -0.4364 -0.8981
 9142TIP3   OH248840   3.715   4.240   4.450  0.5407  0.1550 -0.0887
 9142TIP3    H148841   3.762   4.181   4.509  0.3894  0.8202  0.7047
 9142TIP3    H248842   3.784   4.281   4.398  1.0178  2.0020  1.8579
 9143TIP3   OH248843   6.671   4.990   0.594 -0.3124 -0.3677  0.3138
 9143TIP3    H148844   6.703   4.978   0.505  2.3971  1.4541  0.9071
 9143TIP3    H248845   6.591   5.041   0.585  0.3909  0.5417 -1.0662
 9144TIP3   OH248846   0.377   0.029  11.406  0.1092 -0.2779  0.0172
 9144TIP3    H148847   0.433   0.081  11.464 -0.4103  2.4697 -1.7449
 9144TIP3    H248848   0.288   0.044  11.438 -0.2350  1.6743 -1.5859
 9145TIP3   OH248849   2.416   4.230   4.814  0.0977 -0.4782  0.1134
 9145TIP3    H148850   2.378   4.179   4.742 -1.1926  0.4406  0.1037
 9145TIP3    H248851   2.388   4.184   4.893 -0.3872 -0.2417  0.0826
 9146TIP3   OH248852   5.716   4.075  11.771  0.1870 -0.4090 -0.1666
 9146TIP3    H148853   5.675   4.052  11.687 -0.4944  0.8527 -0.2096
 9146TIP3    H248854   5.643   4.095  11.829  0.6654 -1.0556  0.6732
 9147TIP3   OH248855   6.270   6.718  11.974  0.0189 -0.0046 -0.2697
 9147TIP3    H148856   6.182   6.693  11.946  0.6240 -0.6140 -1.7193
 9147TIP3    H248857   6.286   6.667  12.053 -0.1289 -1.5473 -1.2019
 9148TIP3   OH248858   6.210   1.139  13.138  0.2082 -0.0825 -0.2630
 9148TIP3    H148859   6.224   1.203  13.067 -2.1780 -0.5594 -1.2378
 9148TIP3    H248860   6.199   1.055  13.093 -0.2461 -0.5872  0.7549
 9149TIP3   OH248861   5.625   3.416   0.810 -0.5115 -0.4046 -0.0723
 9149TIP3    H148862   5.590   3.491   0.761  1.5153 -0.2548 -1.4365
 9149TIP3    H248863   5.673   3.366   0.744  0.9912 -1.0794  1.4754
 9150TIP3   OH248864   1.164   4.437   5.683  0.0768  0.1639 -0.2752
 9150TIP3    H148865   1.159   4.342   5.692  0.2945 -0.1561 -2.7036
 9150TIP3    H248866   1.222   4.465   5.753 -0.7832 -1.3588  1.1024
 9151TIP3   OH248867   5.787   2.253  10.596  0.3487 -0.3034  0.3161
 9151TIP3    H148868   5.696   2.284  10.592  0.6891  0.6288 -0.9581
 9151TIP3    H248869   5.838   2.332  10.613  1.0139 -0.6464 -0.0732
 9152TIP3   OH248870   0.029   6.275   2.996 -0.0805 -0.4272  0.0987
 9152TIP3    H148871   0.002   6.302   2.908 -0.6958  0.8375  0.6472
 9152TIP3    H248872  -0.014   6.190   3.009 -1.0426 -0.0177 -0.3290
 9153TIP3   OH248873   2.321   0.646  17.016 -0.2792 -0.6727 -0.0146
 9153TIP3    H148874   2.250   0.631  17.079  0.8657 -2.3122  0.9816
 9153TIP3    H248875   2.292   0.599  16.937  0.0247 -2.1041  0.6795
 9154TIP3   OH248876   1.792   2.027   4.828 -0.7041 -0.0995 -0.3492
 9154TIP3    H148877   1.741   2.042   4.907 -0.2843  2.8440 -0.5261
 9154TIP3    H248878   1.727   2.023   4.758 -0.9386 -0.3438 -0.1154
 9155TIP3   OH248879   4.782   0.891  12.027  0.3933  1.1680  0.9890
 9155TIP3    H148880   4.872   0.871  12.053  0.7992  0.6575 -0.7274
 9155TIP3    H248881   4.734   0.809  12.040  1.1170  0.1863 -1.9702
 9156TIP3   OH248882   6.378   4.410   0.025  0.2848 -0.4572 -0.0377
 9156TIP3    H148883   6.443   4.438   0.090 -0.9388  0.3407  0.8900
 9156TIP3    H248884   6.339   4.491  -0.007  0.8002 -0.8431 -1.7435
 9157TIP3   OH248885   5.348   2.428   0.407 -0.9520 -0.0865 -1.0728
 9157TIP3    H148886   5.306   2.515   0.405 -0.3931  0.1779 -1.9156
 9157TIP3    H248887   5.285   2.372   0.453 -1.4656  0.6898 -0.8061
 9158TIP3   OH248888   3.081   2.087   5.135  0.0471 -0.4668  0.1992
 9158TIP3    H148889   3.085   2.132   5.050  1.2252  2.1241  1.4952
 9158TIP3    H248890   3.172   2.064   5.153 -0.3388 -1.9657  0.3089
 9159TIP3   OH248891   2.234   2.123  16.965 -0.3166  0.2108  0.1526
 9159TIP3    H148892   2.209   2.197  16.909 -1.1853 -0.5076 -0.4480
 9159TIP3    H248893   2.176   2.052  16.937 -0.9727 -0.1096  2.1574
 9160TIP3   OH248894   1.645   6.433   4.910 -0.3043 -0.4688  0.0620
 9160TIP3    H148895   1.716   6.397   4.856 -1.3828  0.3058 -1.9708
 9160TIP3    H248896   1.570   6.376   4.892 -1.5920  1.7027 -1.9644
 9161TIP3   OH248897   2.184   3.723  12.478 -0.4211 -0.0407 -0.1894
 9161TIP3    H148898   2.185   3.699  12.571 -1.5006 -1.6416 -0.5577
 9161TIP3    H248899   2.219   3.812  12.476 -0.3648  0.0197  1.7487
 9162TIP3   OH248900   4.608   0.058  12.506 -0.3387  0.1550 -0.1146
 9162TIP3    H148901   4.560   0.140  12.493 -2.4309 -1.0691 -0.5561
 9162TIP3    H248902   4.605   0.043  12.600 -1.6628 -0.3584 -0.2224
 9163TIP3   OH248903   4.300   6.017  16.899 -0.1382  0.4431  0.2324
 9163TIP3    H148904   4.284   5.923  16.912 -1.5738  0.8111  1.4729
 9163TIP3    H248905   4.212   6.055  16.893  0.4231  1.7204 -0.1084
 9164TIP3   OH248906   0.570   4.845  11.409 -0.8194 -0.7776  0.3367
 9164TIP3    H148907   0.649   4.889  11.376 -2.1751 -0.9460 -3.6569
 9164TIP3    H248908   0.526   4.912  11.462  1.9508 -0.7529  2.9062
 9165TIP3   OH248909   0.903   0.713   1.563  0.1075 -0.2753 -0.1439
 9165TIP3    H148910   0.831   0.659   1.531  1.2187 -1.6974 -0.3673
 9165TIP3    H248911   0.954   0.655   1.619  2.5876 -0.1845 -2.1223
 9166TIP3   OH248912   1.925   0.607  11.195 -0.2170 -0.2378  0.5657
 9166TIP3    H148913   1.988   0.623  11.125 -0.4312 -1.7237  0.0074
 9166TIP3    H248914   1.891   0.519  11.178 -0.7708 -0.3657  2.1487
 9167TIP3   OH248915   3.037   4.703  14.371  0.2894  0.0139 -0.5102
 9167TIP3    H148916   3.078   4.789  14.361 -0.1206  0.7552  2.8095
 9167TIP3    H248917   3.097   4.654  14.428 -1.3684 -0.3386  1.0485
 9168TIP3   OH248918   2.762   2.196   4.320  0.0552 -0.1215 -0.1517
 9168TIP3    H148919   2.777   2.103   4.338 -1.1102  0.0203  1.8726
 9168TIP3    H248920   2.699   2.224   4.387 -1.2782  1.6345 -2.0126
 9169TIP3   OH248921   4.055   2.118   5.988 -0.4404  0.4878 -0.3800
 9169TIP3    H148922   4.077   2.184   6.054 -1.2463  0.1789  0.2113
 9169TIP3    H248923   4.128   2.056   5.991 -0.1531  0.8284 -0.2511
 9170TIP3   OH248924   4.762   5.273   4.570  0.0926 -0.0397 -0.0140
 9170TIP3    H148925   4.828   5.296   4.504 -0.0989  1.0696  0.1460
 9170TIP3    H248926   4.732   5.186   4.545  1.1174 -0.2728 -0.4970
 9171TIP3   OH248927   0.402   0.998  14.274  0.4978  0.5039  0.0180
 9171TIP3    H148928   0.397   0.908  14.242  0.9479  0.3095  0.4805
 9171TIP3    H248929   0.392   0.990  14.369 -1.2506  1.1118 -0.0739
 9172TIP3   OH248930   5.220   4.587   2.975  0.7933 -0.4672  0.1150
 9172TIP3    H148931   5.221   4.680   2.953  2.3772 -0.3768  0.4957
 9172TIP3    H248932   5.289   4.577   3.040 -0.5970 -1.5944  1.4685
 9173TIP3   OH248933   2.536   1.370   4.798  0.7731 -0.3840 -0.2162
 9173TIP3    H148934   2.522   1.278   4.775  1.3929 -0.6229  0.3399
 9173TIP3    H248935   2.619   1.371   4.845  1.2965  0.6183 -1.1256
 9174TIP3   OH248936   1.503   6.273  14.504 -0.0551 -0.1992 -0.3190
 9174TIP3    H148937   1.535   6.315  14.425  0.1321 -1.0596 -0.7090
 9174TIP3    H248938   1.572   6.287  14.569 -0.6661  1.4311  0.0335
 9175TIP3   OH248939   5.383   1.319  13.487 -0.1535  0.0603 -0.1685
 9175TIP3    H148940   5.433   1.398  13.469 -1.0630  0.3208 -1.6787
 9175TIP3    H248941   5.295   1.350  13.506 -0.9819 -0.6273 -2.5572
 9176TIP3   OH248942   1.885   3.941   5.517  0.3199  0.3486  0.0289
 9176TIP3    H148943   1.849   3.990   5.443 -1.2537 -1.5767 -0.5626
 9176TIP3    H248944   1.963   3.899   5.482 -1.0142 -1.4369 -0.9343
 9177TIP3   OH248945   0.313   4.189  14.231  0.1236  0.3653  0.1093
 9177TIP3    H148946   0.344   4.263  14.284  1.5738 -0.2615  0.1860
 9177TIP3    H248947   0.271   4.130  14.293 -0.9472  1.0569  0.0626
 9178TIP3   OH248948   2.977   3.124  12.012  0.0705  0.1925 -0.1733
 9178TIP3    H148949   2.942   3.036  12.027 -1.0761  0.6578  0.0508
 9178TIP3    H248950   2.997   3.127  11.919 -2.1878  0.4296 -0.7240
 9179TIP3   OH248951   6.077   1.766  11.598  0.1592 -0.0497  0.5202
 9179TIP3    H148952   6.030   1.780  11.680  0.7650 -0.5114  0.9560
 9179TIP3    H248953   6.048   1.837  11.541 -2.2064 -1.1480  0.2537
 9180TIP3   OH248954   0.637   0.951   6.771 -0.0943 -0.2598  0.0959
 9180TIP3    H148955   0.676   0.985   6.691  2.0854  3.0606  2.3334
 9180TIP3    H248956   0.711   0.936   6.830 -1.6303 -2.4179  1.6503
 9181TIP3   OH248957   1.885   4.635  14.403 -0.0691  0.3830 -0.2254
 9181TIP3    H148958   1.872   4.589  14.321 -0.9722  0.3752 -0.0833
 9181TIP3    H248959   1.900   4.726  14.378 -1.5844  0.6138 -0.3511
 9182TIP3   OH248960   0.318   0.962   5.539  0.1632  0.3709 -0.3661
 9182TIP3    H148961   0.226   0.988   5.542 -0.0127  0.1139 -2.2771
 9182TIP3    H248962   0.317   0.870   5.512  0.9590  0.2088  0.1172
 9183TIP3   OH248963   1.411   1.725  14.222 -0.0992 -0.0012  0.1708
 9183TIP3    H148964   1.392   1.716  14.316  0.9557 -0.2242  0.3741
 9183TIP3    H248965   1.456   1.643  14.199 -0.5834 -0.0627 -0.5964
 9184TIP3   OH248966   2.966   3.775  16.950  0.3403  0.0869  0.1857
 9184TIP3    H148967   3.021   3.828  16.892  1.6051 -2.3751 -1.0083
 9184TIP3    H248968   2.884   3.763  16.901 -0.0367  1.0120  0.5492
 9185TIP3   OH248969   5.499   0.307   3.500 -0.0640 -0.2355 -0.3830
 9185TIP3    H148970   5.537   0.395   3.492 -0.4637  0.1371  1.3493
 9185TIP3    H248971   5.559   0.250   3.452  1.2590  0.7164  0.0732
 9186TIP3   OH248972   6.327   4.926  13.850  0.2622 -0.6098  0.2955
 9186TIP3    H148973   6.348   4.860  13.917 -1.1659 -0.3578  1.0328
 9186TIP3    H248974   6.399   4.989  13.856  0.9322 -1.3823  0.5461
 9187TIP3   OH248975   5.246   0.282   5.129  0.3470  0.2890  0.1437
 9187TIP3    H148976   5.201   0.296   5.046 -3.5934  0.9700  2.1867
 9187TIP3    H248977   5.255   0.187   5.137  0.5400  0.2104 -0.9014
 9188TIP3   OH248978   3.214   2.289  16.315  0.6593 -0.4492 -0.0089
 9188TIP3    H148979   3.204   2.218  16.379  0.4889  1.2537  1.9817
 9188TIP3    H248980   3.135   2.342  16.327  1.1780  0.5375 -0.8298
 9189TIP3   OH248981   6.154   2.688  14.955  0.2222 -0.5724  0.3065
 9189TIP3    H148982   6.079   2.747  14.954  1.0008  0.5496 -2.4162
 9189TIP3    H248983   6.116   2.600  14.952 -1.0263 -0.0218 -1.4289
 9190TIP3   OH248984   1.018   6.683  14.399  0.3466 -0.0061  0.1727
 9190TIP3    H148985   0.977   6.768  14.415  0.4166  0.3223 -1.2469
 9190TIP3    H248986   1.075   6.697  14.323 -0.6901 -1.6115 -0.9931
 9191TIP3   OH248987   6.527   3.923   1.790  0.5327  0.2233  0.4199
 9191TIP3    H148988   6.446   3.941   1.837 -1.2783 -1.2129 -1.8984
 9191TIP3    H248989   6.543   3.829   1.804  2.3089  0.6394  1.5032
 9192TIP3   OH248990   1.097   0.892   0.633 -0.0367  1.0612 -0.0357
 9192TIP3    H148991   1.171   0.942   0.598  0.8480  1.2644  1.9552
 9192TIP3    H248992   1.136   0.837   0.701 -1.2718 -1.1475 -1.0440
 9193TIP3   OH248993   6.342   1.969  17.180  0.6627  0.5196 -0.3974
 9193TIP3    H148994   6.343   2.062  17.202  0.0159  0.8337 -1.6135
 9193TIP3    H248995   6.251   1.942  17.193  1.0359 -0.2207  0.9294
 9194TIP3   OH248996   6.774   2.465  15.642  0.0019 -0.5759  0.1624
 9194TIP3    H148997   6.739   2.430  15.724  0.7700 -3.0301 -0.4461
 9194TIP3    H248998   6.716   2.537  15.619 -1.9430 -1.6674  1.3948
 9195TIP3   OH248999   5.971   2.925   4.298 -0.4914  0.1574 -0.4997
 9195TIP3    H149000   5.938   2.837   4.316  0.7705  0.0827  1.7628
 9195TIP3    H249001   5.892   2.979   4.293 -1.2194 -0.8872 -0.7942
 9196TIP3   OH249002   3.572   1.949   0.680 -0.3825 -0.3994  0.1525
 9196TIP3    H149003   3.527   2.033   0.692 -2.6929 -1.4514 -0.5339
 9196TIP3    H249004   3.570   1.935   0.585 -0.5056 -1.4801  0.3120
 9197TIP3   OH249005   6.150   2.202  15.122  0.5290 -0.3462  0.3126
 9197TIP3    H149006   6.196   2.166  15.046  0.8047 -1.5375  1.0279
 9197TIP3    H249007   6.060   2.214  15.091  0.5467 -1.1940 -0.0939
 9198TIP3   OH249008   3.829   6.396  15.474  0.4987 -0.1143 -0.0998
 9198TIP3    H149009   3.753   6.426  15.425 -0.1845 -0.7080  0.5745
 9198TIP3    H249010   3.837   6.303  15.453  0.6704 -0.1942  0.3027
 9199TIP3   OH249011   2.547   2.264  11.056  0.3929 -0.7891  0.4318
 9199TIP3    H149012   2.621   2.286  11.000  0.9056 -1.7651  0.7172
 9199TIP3    H249013   2.489   2.213  10.999  1.0288 -1.9910  0.8384
 9200TIP3   OH249014   6.645   5.494   4.353 -0.6856 -0.0126 -0.2072
 9200TIP3    H149015   6.561   5.473   4.312  0.4952 -1.5791 -1.9719
 9200TIP3    H249016   6.685   5.409   4.371  0.3905  0.7003  0.9540
 9201TIP3   OH249017   0.386   0.132  16.289  0.7668 -0.0819 -0.0987
 9201TIP3    H149018   0.358   0.065  16.226 -2.3740 -0.4401  1.4698
 9201TIP3    H249019   0.411   0.083  16.367 -1.0624  0.4526  0.8854
 9202TIP3   OH249020   4.368   3.591   3.207  0.1940 -0.4837 -0.0101
 9202TIP3    H149021   4.442   3.539   3.175 -0.0641 -1.2624  0.6037
 9202TIP3    H249022   4.402   3.637   3.284  0.2072 -0.3627 -0.0882
 9203TIP3   OH249023   4.244   4.096   1.685  0.5079 -0.1236 -0.2919
 9203TIP3    H149024   4.328   4.139   1.703  0.3471 -0.1521  0.5807
 9203TIP3    H249025   4.266   4.004   1.674  0.4926 -0.2829  0.8777
 9204TIP3   OH249026   5.893   1.899  13.368  0.0668  0.2919 -0.9114
 9204TIP3    H149027   5.889   1.893  13.273  0.2648  0.5873 -0.9419
 9204TIP3    H249028   5.859   1.987  13.388 -0.6889 -0.0483 -0.6538
 9205TIP3   OH249029   4.195   5.799   4.329 -0.3546 -0.4906 -0.2206
 9205TIP3    H149030   4.166   5.801   4.420 -1.8486  1.0270 -0.6887
 9205TIP3    H249031   4.270   5.858   4.326  1.6404 -2.8060  0.5578
 9206TIP3   OH249032   2.345   3.589  12.872 -0.0742  0.4048  0.0919
 9206TIP3    H149033   2.338   3.540  12.791  0.9333 -0.6766  0.6226
 9206TIP3    H249034   2.259   3.583  12.912 -0.3818  0.3644 -0.5644
 9207TIP3   OH249035   3.241   2.246   2.954  0.3939 -0.1574  0.8710
 9207TIP3    H149036   3.321   2.194   2.955 -0.1434 -1.0364 -0.1357
 9207TIP3    H249037   3.172   2.186   2.981 -0.2975 -0.1088 -0.6821
 9208TIP3   OH249038   3.112   2.769  14.438 -0.1335 -0.1375 -0.2705
 9208TIP3    H149039   3.043   2.825  14.473 -0.2203 -1.2073  1.3381
 9208TIP3    H249040   3.076   2.681  14.441  1.5857 -0.8685  1.5675
 9209TIP3   OH249041   3.826   0.092   1.357 -0.3155  0.1319  0.1878
 9209TIP3    H149042   3.814   0.186   1.353  1.6680  0.4685  0.9823
 9209TIP3    H249043   3.908   0.075   1.311 -1.8090 -1.5464 -2.0858
 9210TIP3   OH249044   5.459   4.870  12.910  0.0383 -0.0308 -0.5223
 9210TIP3    H149045   5.499   4.956  12.919 -0.7572  0.3371 -0.3900
 9210TIP3    H249046   5.365   4.888  12.908 -0.1903 -0.9853  0.5872
 9211TIP3   OH249047   4.049   6.600  13.672 -0.5580  0.2155  0.4310
 9211TIP3    H149048   4.120   6.544  13.705  0.6543  1.9600  0.9857
 9211TIP3    H249049   4.091   6.685  13.659 -2.2314  0.9105 -0.7352
 9212TIP3   OH249050   5.074   6.775  15.093  0.0649 -0.2734  0.0900
 9212TIP3    H149051   5.007   6.747  15.031  0.2122  0.8406 -0.6124
 9212TIP3    H249052   5.156   6.772  15.042  0.1415  0.9682  0.0865
 9213TIP3   OH249053   0.034   2.302   2.128  0.1818 -0.3891 -0.1367
 9213TIP3    H149054  -0.048   2.351   2.119  0.2754  0.1691  1.6793
 9213TIP3    H249055   0.095   2.348   2.072  0.2613  1.6617  1.4954
 9214TIP3   OH249056   0.282   2.253   0.709 -0.0850 -0.0831 -0.2228
 9214TIP3    H149057   0.188   2.257   0.693 -0.3698 -1.6016  0.7771
 9214TIP3    H249058   0.306   2.162   0.688  0.6497 -0.4314  1.8614
 9215TIP3   OH249059   5.629   2.215  14.930 -0.2373 -0.5657  0.5015
 9215TIP3    H149060   5.644   2.269  14.852  1.8529  0.6849  1.6685
 9215TIP3    H249061   5.570   2.146  14.901 -1.0885  0.9759 -1.6809
 9216TIP3   OH249062   0.459   1.230  15.269  0.4414 -0.3066  0.4352
 9216TIP3    H149063   0.505   1.227  15.353  0.2147 -1.9184  0.5251
 9216TIP3    H249064   0.519   1.190  15.207  0.0303 -0.4318  0.1127
 9217TIP3   OH249065   2.784   0.618   0.149 -0.2638  0.0703  0.2119
 9217TIP3    H149066   2.735   0.647   0.072 -1.9960  0.5084  1.3972
 9217TIP3    H249067   2.875   0.615   0.121 -0.8672  0.0474 -1.8831
 9218TIP3   OH249068   2.650   1.539  13.907  0.2606  0.1614  0.2059
 9218TIP3    H149069   2.690   1.583  13.982  0.1959  0.7601 -0.1062
 9218TIP3    H249070   2.571   1.498  13.943 -1.9797  3.6889 -0.2085
 9219TIP3   OH249071   3.003   2.484   0.598 -0.2608 -0.0784  0.3514
 9219TIP3    H149072   2.976   2.397   0.568  0.8290 -0.4118  0.2792
 9219TIP3    H249073   2.934   2.542   0.568 -0.5681 -0.7988 -0.3846
 9220TIP3   OH249074   5.008   4.905  11.558  0.2538  0.0671  0.0168
 9220TIP3    H149075   5.001   4.944  11.645 -1.4421  0.1078 -0.1127
 9220TIP3    H249076   4.933   4.940  11.510  0.6148 -0.7198 -1.1568
 9221TIP3   OH249077   0.054   0.696  13.640 -0.2700  0.1323  0.0296
 9221TIP3    H149078   0.001   0.719  13.563 -0.8847  0.5849  0.5798
 9221TIP3    H249079   0.035   0.604  13.656 -0.4653  0.1498 -0.1000
 9222TIP3   OH249080   4.806   3.264  17.121  0.0644 -0.1426  0.5988
 9222TIP3    H149081   4.760   3.330  17.069 -1.4379 -0.6402  1.2495
 9222TIP3    H249082   4.831   3.197  17.057 -0.5772 -0.1119  0.3037
 9223TIP3   OH249083   4.000   2.365   2.764 -0.0034  0.5329 -0.0994
 9223TIP3    H149084   3.975   2.373   2.673  1.6271  0.2755 -0.6051
 9223TIP3    H249085   4.093   2.339   2.762 -0.4323 -1.4639  1.6020
 9224TIP3   OH249086   2.592   1.622  12.567  0.4213  0.5961 -0.6125
 9224TIP3    H149087   2.589   1.576  12.651 -0.8479 -0.3576 -1.1422
 9224TIP3    H249088   2.667   1.584  12.521 -0.1114 -0.3953 -0.7064
 9225TIP3   OH249089   0.585   1.750  14.531  0.1858 -0.4634  0.4309
 9225TIP3    H149090   0.571   1.817  14.463 -2.6222 -0.9180  0.4450
 9225TIP3    H249091   0.656   1.696  14.497 -0.1252  0.2237 -1.4568
 9226TIP3   OH249092   1.542   4.202   4.985  0.2208  0.4032  0.1093
 9226TIP3    H149093   1.610   4.194   4.918 -0.8506  0.1610 -0.9971
 9226TIP3    H249094   1.461   4.178   4.939 -1.3654  4.8882  0.0732
 9227TIP3   OH249095   1.752   0.444   5.313  0.1116 -0.3892 -0.5295
 9227TIP3    H149096   1.793   0.490   5.239  0.8315  0.2304  0.2450
 9227TIP3    H249097   1.683   0.392   5.272 -1.1677  1.8453 -1.3944
 9228TIP3   OH249098   6.613   2.766  12.316 -0.6027  0.5142  0.5309
 9228TIP3    H149099   6.649   2.815  12.243 -0.2940  0.2632  0.5124
 9228TIP3    H249100   6.689   2.737  12.366 -0.7672 -0.0959  0.4395
 9229TIP3   OH249101   1.957   0.171   5.145  0.0053 -0.5127 -0.4022
 9229TIP3    H149102   2.051   0.179   5.157  0.1281 -1.3747 -0.7504
 9229TIP3    H249103   1.921   0.173   5.234  0.2517  0.8368 -0.3102
 9230TIP3   OH249104   3.692   6.028   2.790  0.5048  0.1613 -0.5254
 9230TIP3    H149105   3.674   5.985   2.874 -0.3131  0.2887 -0.6250
 9230TIP3    H249106   3.632   6.103   2.788  1.4891  0.9681 -0.6191
 9231TIP3   OH249107   5.050   2.617  15.907  0.0714 -0.3833 -0.4476
 9231TIP3    H149108   5.007   2.688  15.859 -0.9455 -1.0502 -0.5497
 9231TIP3    H249109   5.085   2.659  15.985 -0.9475  0.1557 -0.2612
 9232TIP3   OH249110   4.623   5.509   1.688  0.7772 -0.3916 -0.0528
 9232TIP3    H149111   4.689   5.532   1.623  0.9126 -2.0857 -0.5614
 9232TIP3    H249112   4.664   5.441   1.741  0.1817  0.0321  0.9824
 9233TIP3   OH249113   0.825   1.380   0.829  0.1068 -0.2414  0.1300
 9233TIP3    H149114   0.800   1.288   0.839  0.3052 -0.2883  0.2040
 9233TIP3    H249115   0.852   1.407   0.917  3.5566 -1.1485 -0.5132
 9234TIP3   OH249116   1.949   2.228  15.933 -0.0489  0.5820 -0.5420
 9234TIP3    H149117   1.942   2.195  15.843  0.6678 -0.1904 -0.3245
 9234TIP3    H249118   1.909   2.160  15.987 -2.7977  2.1516 -0.4419
 9235TIP3   OH249119   2.534   1.105  10.922  0.0861  0.4735 -0.4619
 9235TIP3    H149120   2.613   1.156  10.940  0.2977  0.3648 -1.0387
 9235TIP3    H249121   2.484   1.161  10.863 -0.8005  1.0186  0.7692
 9236TIP3   OH249122   0.544   3.272   2.065  0.2875 -0.2563 -0.3129
 9236TIP3    H149123   0.554   3.291   2.158  1.0523 -0.1789 -0.4059
 9236TIP3    H249124   0.631   3.246   2.036 -0.1865 -1.4004 -0.7628
 9237TIP3   OH249125   4.377   0.012  11.192  0.2635 -0.0185 -0.5045
 9237TIP3    H149126   4.409   0.078  11.254 -2.0350  2.4616 -1.7500
 9237TIP3    H249127   4.419   0.034  11.110 -2.3185  1.6624 -1.5301
 9238TIP3   OH249128   2.839   0.096   2.059 -0.2744 -0.2288 -0.3214
 9238TIP3    H149129   2.893   0.101   1.980 -0.1098  1.0203 -0.1455
 9238TIP3    H249130   2.790   0.178   2.060 -0.7867 -0.5343  0.5198
 9239TIP3   OH249131   3.954   5.872   3.270  0.0758  0.0081  0.3044
 9239TIP3    H149132   3.911   5.792   3.240 -0.9051  0.7522 -0.3724
 9239TIP3    H249133   3.974   5.920   3.190 -0.4609  0.9833  0.7315
 9240TIP3   OH249134   5.327   0.003   2.262  0.4128 -0.2696 -0.2959
 9240TIP3    H149135   5.407  -0.023   2.215  0.1847 -0.6706 -0.4661
 9240TIP3    H249136   5.318  -0.063   2.331 -0.3102 -0.8052 -0.8840
 9241TIP3   OH249137   1.548   5.075   2.916  0.1884  0.2746 -0.1369
 9241TIP3    H149138   1.550   5.108   3.006  0.7750  0.2204 -0.1274
 9241TIP3    H249139   1.455   5.065   2.897  0.0425 -1.7958  1.2459
 9242TIP3   OH249140   3.471   5.225  13.762  0.7021  0.0004  0.3676
 9242TIP3    H149141   3.426   5.159  13.708  0.8777  0.6621 -0.6282
 9242TIP3    H249142   3.441   5.209  13.851  0.1287 -0.9128  0.0193
 9243TIP3   OH249143   3.251   3.590  11.436 -0.6141  0.5224  0.5383
 9243TIP3    H149144   3.227   3.681  11.452  0.1544  0.6393  1.1009
 9243TIP3    H249145   3.197   3.540  11.497 -1.6730  0.5179 -0.3812
 9244TIP3   OH249146   3.625   0.239   0.612 -0.1903  0.9019  0.6867
 9244TIP3    H149147   3.609   0.146   0.626  0.8934  0.7644  1.1082
 9244TIP3    H249148   3.718   0.245   0.590 -0.7780  1.6084 -2.0054
 9245TIP3   OH249149   6.579   0.048   5.611  0.0202 -0.0588 -0.1515
 9245TIP3    H149150   6.653   0.092   5.653  0.9106 -1.6265 -0.0009
 9245TIP3    H249151   6.544  -0.009   5.680  1.5510 -2.7283 -1.4275
 9246TIP3   OH249152   0.978   6.790  13.436 -0.5515 -0.1801 -0.2211
 9246TIP3    H149153   0.992   6.885  13.439 -0.7156 -0.0874 -1.7176
 9246TIP3    H249154   0.976   6.769  13.343 -3.7380 -1.1609 -0.0317
 9247TIP3   OH249155   4.497   4.258   3.692  0.3431  0.3266 -0.5549
 9247TIP3    H149156   4.420   4.315   3.688 -0.9786 -1.3674 -0.0347
 9247TIP3    H249157   4.565   4.308   3.647 -0.8858  2.1077 -0.5440
 9248TIP3   OH249158   4.614   1.415  16.067  0.2670  0.2863  0.9357
 9248TIP3    H149159   4.586   1.355  16.135  0.3881 -1.4259 -0.4675
 9248TIP3    H249160   4.532   1.447  16.028  0.2163 -0.1666  0.6720
 9249TIP3   OH249161   5.249   5.916   0.726 -0.1836 -0.7928 -0.1169
 9249TIP3    H149162   5.323   5.968   0.758 -0.2624 -0.5121 -0.3850
 9249TIP3    H249163   5.237   5.848   0.792  1.1574 -1.6496 -0.6942
 9250TIP3   OH249164   2.789   6.439   2.059  0.0800  0.7699 -0.6771
 9250TIP3    H149165   2.822   6.349   2.063 -0.7897  0.4649  2.4073
 9250TIP3    H249166   2.868   6.493   2.061  0.5815  0.1190 -1.6745
 9251TIP3   OH249167   6.787   1.133   3.824 -0.3751 -0.1760  0.1465
 9251TIP3    H149168   6.837   1.125   3.742  0.6798 -1.5036  0.8826
 9251TIP3    H249169   6.743   1.218   3.817  0.9032  0.4248 -1.1390
 9252TIP3   OH249170   1.337   4.034  13.266  0.0493  0.1135 -0.1196
 9252TIP3    H149171   1.308   3.996  13.349 -1.4687 -0.5785 -0.9033
 9252TIP3    H249172   1.257   4.070  13.227  0.9726  1.6621 -0.6799
 9253TIP3   OH249173   3.978   0.972   0.553  0.1627 -0.4822  0.1929
 9253TIP3    H149174   3.922   0.920   0.496 -0.6006  1.3007 -0.7578
 9253TIP3    H249175   3.949   0.951   0.641 -1.9827  0.3262 -0.2744
 9254TIP3   OH249176   3.466   1.578   5.732  0.0361 -0.4378 -0.3614
 9254TIP3    H149177   3.537   1.523   5.766  2.3801  2.6198  0.1738
 9254TIP3    H249178   3.421   1.610   5.810 -0.4898 -0.5864 -0.6012
 9255TIP3   OH249179   2.587   6.189  13.327  0.2103  0.2301  0.1459
 9255TIP3    H149180   2.591   6.249  13.253  2.1356  0.9658  0.7889
 9255TIP3    H249181   2.655   6.124  13.309 -1.8625 -1.8996 -0.5640
 9256TIP3   OH249182   0.421   0.130  14.763 -0.2584 -0.2552  0.1936
 9256TIP3    H149183   0.467   0.066  14.817 -2.9260 -2.3037  0.2690
 9256TIP3    H249184   0.329   0.120  14.788 -1.1013  1.7027 -1.7998
 9257TIP3   OH249185   6.275   5.453   6.015  0.3204  0.3260 -0.0495
 9257TIP3    H149186   6.291   5.434   5.923  0.8090  0.9953 -0.1161
 9257TIP3    H249187   6.271   5.549   6.019 -1.2053  0.2719  0.3902
 9258TIP3   OH249188   0.360   0.210   5.769  0.1525 -0.0528  0.3179
 9258TIP3    H149189   0.380   0.118   5.755 -0.2717  0.1266 -1.6683
 9258TIP3    H249190   0.424   0.258   5.716  0.5756  0.8328  1.5762
 9259TIP3   OH249191   5.810   4.544  14.570  0.2022 -0.1062 -0.0660
 9259TIP3    H149192   5.844   4.590  14.493  0.4868  2.3057  1.3900
 9259TIP3    H249193   5.822   4.606  14.642  1.1008 -2.7149  2.1944
 9260TIP3   OH249194   6.460   0.670  10.742  0.0097 -0.5844  0.1500
 9260TIP3    H149195   6.380   0.627  10.771 -0.3449  0.0031  0.0450
 9260TIP3    H249196   6.466   0.649  10.648  0.3129 -1.1422  0.2854
 9261TIP3   OH249197   3.604   5.257  16.572  0.1113 -0.5049 -0.2906
 9261TIP3    H149198   3.536   5.322  16.589  0.6362  0.3630 -1.3980
 9261TIP3    H249199   3.626   5.223  16.659 -1.5361 -0.6175  0.1113
 9262TIP3   OH249200   6.053   1.915   2.614  0.7561 -0.0793  0.5543
 9262TIP3    H149201   5.964   1.939   2.589 -0.0236 -2.1758  1.0923
 9262TIP3    H249202   6.070   1.965   2.694 -0.1539 -0.0483  0.7399
 9263TIP3   OH249203   4.459   2.014  14.234  0.2341  0.1955  0.1489
 9263TIP3    H149204   4.386   2.013  14.296  1.5846 -0.0958  1.8021
 9263TIP3    H249205   4.450   1.931  14.187 -1.7940  1.1626 -1.3531
 9264TIP3   OH249206   3.115   2.744   4.793 -0.4052 -0.3825  0.2057
 9264TIP3    H149207   3.161   2.774   4.715 -0.6258  2.4307  1.0501
 9264TIP3    H249208   3.175   2.763   4.865 -0.9348 -1.2514  0.8902
 9265TIP3   OH249209   2.005   3.922  12.777 -0.2858 -0.2981  0.0282
 9265TIP3    H149210   2.090   3.890  12.746  0.9829  1.2681  1.6763
 9265TIP3    H249211   1.983   3.864  12.850 -0.2244 -0.2205  0.1092
 9266TIP3   OH249212   2.155   3.139  12.450 -0.2216 -0.7230 -0.0409
 9266TIP3    H149213   2.164   3.203  12.379  0.9458 -0.6663  0.1375
 9266TIP3    H249214   2.085   3.174  12.505  0.7830  0.7360  0.3649
 9267TIP3   OH249215   5.823   5.882  16.616  0.3063 -0.1953  0.2892
 9267TIP3    H149216   5.856   5.793  16.614 -1.2570 -0.7875 -0.3062
 9267TIP3    H249217   5.747   5.879  16.674 -0.8586  0.3355 -1.1598
 9268TIP3   OH249218   2.536   1.331  12.999 -0.2492  0.1052  0.3801
 9268TIP3    H149219   2.463   1.274  12.974 -1.0093  1.6970 -1.2469
 9268TIP3    H249220   2.493   1.412  13.027  0.8832  0.8431  0.0102
 9269TIP3   OH249221   6.282   1.251  17.175  0.0691 -0.2043  0.6449
 9269TIP3    H149222   6.193   1.219  17.160  0.4489 -1.3619  0.7225
 9269TIP3    H249223   6.288   1.261  17.270 -0.1947  0.5530  0.5854
 9270TIP3   OH249224   1.536   5.479  12.618 -0.0490  0.6865 -0.4800
 9270TIP3    H149225   1.515   5.499  12.709 -1.6493  1.6722 -1.0169
 9270TIP3    H249226   1.595   5.549  12.591  0.5001  0.3432 -0.1987
 9271TIP3   OH249227   5.522   2.448   6.256  0.4058  0.2169  0.9179
 9271TIP3    H149228   5.528   2.394   6.334 -1.6866  0.5002  1.3411
 9271TIP3    H249229   5.429   2.447   6.233  0.5998  2.0432 -0.1878
 9272TIP3   OH249230   2.891   2.294   0.431 -0.0719 -0.1429 -0.7575
 9272TIP3    H149231   2.960   2.284   0.365  0.5726 -0.8042 -0.0012
 9272TIP3    H249232   2.816   2.328   0.382  1.2989  2.3838 -1.3183
 9273TIP3   OH249233   0.840   3.103  12.966 -0.2351  0.0505  0.7300
 9273TIP3    H149234   0.904   3.173  12.958  0.4353 -0.2204  3.0061
 9273TIP3    H249235   0.792   3.122  13.046 -0.4056 -1.7904  1.1267
 9274TIP3   OH249236   0.824   1.080   0.721 -0.0870 -0.0164  0.3305
 9274TIP3    H149237   0.854   1.109   0.635 -0.9922 -0.5327 -0.1600
 9274TIP3    H249238   0.905   1.062   0.769  0.4284 -1.2653 -0.9388
 9275TIP3   OH249239   3.248   5.517  12.951  0.0608 -0.6983 -0.5664
 9275TIP3    H149240   3.331   5.533  12.994  0.5727 -0.9885 -1.4193
 9275TIP3    H249241   3.227   5.426  12.972 -0.7136 -0.2516  0.7294
 9276TIP3   OH249242   4.067   5.786  15.932 -0.2319  0.2441 -0.2483
 9276TIP3    H149243   4.124   5.837  15.873 -0.2549 -0.4060 -0.8565
 9276TIP3    H249244   3.980   5.821  15.918 -0.3457 -0.3582 -1.1334
 9277TIP3   OH249245   6.650   0.784  12.811 -0.1712 -0.2792 -0.5980
 9277TIP3    H149246   6.733   0.831  12.813 -0.1902 -0.2261 -1.0822
 9277TIP3    H249247   6.632   0.764  12.903  0.8634 -1.1513 -0.5641
 9278TIP3   OH249248   4.978   2.784   0.091  0.6276 -0.0988  0.1542
 9278TIP3    H149249   5.047   2.830   0.043 -0.0262  0.2194 -0.5085
 9278TIP3    H249250   4.957   2.842   0.164 -1.3591  1.5976 -1.5850
 9279TIP3   OH249251   6.263   6.106   3.136  0.0338 -0.1964 -0.0653
 9279TIP3    H149252   6.215   6.182   3.169  0.5022  0.8015 -1.5838
 9279TIP3    H249253   6.253   6.111   3.041  0.9970 -1.4190 -0.2540
 9280TIP3   OH249254   2.093   0.933   0.208  0.0487 -0.1045 -0.0898
 9280TIP3    H149255   2.084   0.958   0.116  3.3095 -0.0022 -0.5252
 9280TIP3    H249256   2.157   0.996   0.243  1.0770 -1.8767  1.4114
 9281TIP3   OH249257   2.942   4.204  12.279  0.1673  0.2180 -0.7341
 9281TIP3    H149258   2.928   4.223  12.372 -0.1074 -0.2066 -0.6825
 9281TIP3    H249259   2.991   4.279  12.246  0.4071  0.2964 -0.2107
 9282TIP3   OH249260   4.215   2.050   0.104  0.1084  0.0056  0.2086
 9282TIP3    H149261   4.146   1.996   0.066  0.3960 -0.3985  0.2552
 9282TIP3    H249262   4.191   2.139   0.080 -1.2097  0.0110  1.4387
 9283TIP3   OH249263   0.500   1.289  13.329  0.2803 -0.3001  0.6121
 9283TIP3    H149264   0.416   1.258  13.293  0.9086 -2.7882  1.0732
 9283TIP3    H249265   0.566   1.258  13.266  0.9129  1.6020  0.2704
 9284TIP3   OH249266   6.564   3.113   4.487  0.2894 -0.6651  0.1651
 9284TIP3    H149267   6.558   3.203   4.522 -0.3129 -0.9987  0.9716
 9284TIP3    H249268   6.658   3.095   4.484  0.4429  0.1777 -0.5093
 9285TIP3   OH249269   3.050   5.225   1.548  0.3240 -0.2770  0.1565
 9285TIP3    H149270   2.974   5.284   1.550  0.8391  0.4462 -0.8287
 9285TIP3    H249271   3.015   5.140   1.573 -1.0229 -0.1848 -1.2900
 9286TIP3   OH249272   3.498   6.321   0.853 -0.2618  0.4065  0.0794
 9286TIP3    H149273   3.524   6.373   0.929  2.0713 -2.0807  1.1649
 9286TIP3    H249274   3.456   6.243   0.890  1.1893 -0.9993 -1.0707
 9287TIP3   OH249275   5.612   1.030  15.237 -0.3353 -0.4975  0.2387
 9287TIP3    H149276   5.684   0.975  15.206  0.9840  0.8230  0.7886
 9287TIP3    H249277   5.598   1.093  15.167 -2.2313 -1.8167 -0.6374
 9288TIP3   OH249278   6.211   3.712   4.752  0.3426 -0.2944  0.0698
 9288TIP3    H149279   6.281   3.699   4.815  1.1407 -0.1738 -0.7690
 9288TIP3    H249280   6.151   3.639   4.767  0.5872 -0.3386  0.8658
 9289TIP3   OH249281   5.714   5.989   3.492 -0.3033  0.0459  0.1393
 9289TIP3    H149282   5.620   5.981   3.504 -0.2723  0.0553  0.3913
 9289TIP3    H249283   5.732   6.082   3.507  0.2431 -0.4767  3.7273
 9290TIP3   OH249284   0.237   0.831  11.471  0.2480 -0.5624  0.0932
 9290TIP3    H149285   0.231   0.748  11.424 -0.0466 -0.4590 -0.0524
 9290TIP3    H249286   0.161   0.881  11.443 -1.0937 -1.2803  2.1826
 9291TIP3   OH249287   6.438   3.767   4.354  0.4987  0.0912 -0.0993
 9291TIP3    H149288   6.514   3.721   4.317  1.3052  1.8926 -0.8286
 9291TIP3    H249289   6.364   3.737   4.301  1.4599  1.7585 -2.5507
 9292TIP3   OH249290   3.012   2.900  15.170 -0.1876 -0.3905  0.0874
 9292TIP3    H149291   3.031   2.850  15.250 -1.3746 -0.1674  0.5225
 9292TIP3    H249292   3.049   2.986  15.186 -0.6834 -0.2563  0.5223
 9293TIP3   OH249293   2.640   2.211  15.718 -0.4464 -0.0925  0.0416
 9293TIP3    H149294   2.577   2.188  15.649 -1.2870  3.0557 -0.4021
 9293TIP3    H249295   2.587   2.259  15.783  1.3082  2.2761 -0.1324
 9294TIP3   OH249296   3.616   1.667  16.399  0.1146  0.2419  0.7025
 9294TIP3    H149297   3.646   1.607  16.467  0.9198  0.6008  0.6802
 9294TIP3    H249298   3.688   1.670  16.336 -0.4812  0.1822  0.0095
 9295TIP3   OH249299   2.862   0.519  14.733 -0.1926  0.5631 -0.2727
 9295TIP3    H149300   2.812   0.497  14.654 -0.4300  0.8896 -0.2184
 9295TIP3    H249301   2.796   0.518  14.803 -0.6211  3.2058 -0.5313
 9296TIP3   OH249302   0.978   1.577   2.804 -0.2932 -0.2114  0.2781
 9296TIP3    H149303   1.054   1.626   2.774  0.3957 -1.0288  0.6449
 9296TIP3    H249304   0.992   1.489   2.770 -1.2152 -0.3109  0.1302
 9297TIP3   OH249305   3.644   6.385  13.549  0.2474  0.0244  0.3619
 9297TIP3    H149306   3.586   6.316  13.584  0.0770  0.3215  0.6706
 9297TIP3    H249307   3.588   6.434  13.488  0.6000 -0.6196 -0.5093
 9298TIP3   OH249308   1.774   2.194   4.502  0.0585 -0.1920 -0.2838
 9298TIP3    H149309   1.857   2.241   4.492  0.7719 -1.3318  0.0818
 9298TIP3    H249310   1.782   2.118   4.445 -0.4408 -0.6913  0.2908
 9299TIP3   OH249311   0.173   2.998  10.835 -0.2528 -0.4633 -0.2869
 9299TIP3    H149312   0.184   2.921  10.779  0.5011 -0.0521 -0.7164
 9299TIP3    H249313   0.256   3.044  10.829  0.2988 -1.0087  2.1275
 9300TIP3   OH249314   3.531   6.315  15.994 -0.1649 -0.0359  0.0855
 9300TIP3    H149315   3.436   6.327  15.988 -0.1154 -0.1892 -1.5186
 9300TIP3    H249316   3.568   6.391  15.948  0.5770  0.9653  2.2280
 9301TIP3   OH249317   3.677   6.189   6.072 -0.1692 -0.2359 -0.2370
 9301TIP3    H149318   3.624   6.138   6.134 -3.0197 -1.2538 -3.1935
 9301TIP3    H249319   3.745   6.129   6.044  0.6652 -0.0271  1.2579
 9302TIP3   OH249320   5.233   6.662   3.030  0.8842 -0.6357 -0.0869
 9302TIP3    H149321   5.210   6.570   3.040  0.6421 -0.4672  0.9862
 9302TIP3    H249322   5.148   6.707   3.023  1.0099 -0.5694 -1.4867
 9303TIP3   OH249323   0.921   6.204  14.491  0.0538 -0.0891 -0.6308
 9303TIP3    H149324   0.953   6.231  14.577  1.6679  0.5218 -1.3901
 9303TIP3    H249325   0.827   6.188  14.505  0.4827 -1.2700  1.5289
 9304TIP3   OH249326   4.903   5.381   4.348 -0.2332 -0.2686 -0.5810
 9304TIP3    H149327   4.951   5.299   4.348  0.0218 -0.1425 -1.9813
 9304TIP3    H249328   4.898   5.406   4.256  1.5696  2.3713 -0.0761
 9305TIP3   OH249329   2.815   5.010  13.733  0.0071 -0.0580  0.4764
 9305TIP3    H149330   2.868   4.967  13.666  1.2134 -3.0152  3.0867
 9305TIP3    H249331   2.726   4.981  13.715  0.7527 -3.9312  2.0537
 9306TIP3   OH249332   4.669   0.270  13.938 -0.3099 -0.1516  0.7681
 9306TIP3    H149333   4.606   0.201  13.962 -0.1615 -1.3600 -1.9779
 9306TIP3    H249334   4.686   0.256  13.845  0.4855  3.0520  0.3165
 9307TIP3   OH249335   4.784   5.479  11.400 -0.0761  0.4448  0.3406
 9307TIP3    H149336   4.846   5.459  11.470 -1.0737  1.2636  1.4799
 9307TIP3    H249337   4.787   5.574  11.390 -1.1679  0.5088  0.4510
 9308TIP3   OH249338   6.445   1.404   4.400 -0.3755 -0.3323 -0.5230
 9308TIP3    H149339   6.421   1.441   4.315  0.0606  0.3238 -0.3732
 9308TIP3    H249340   6.541   1.402   4.399 -0.3795 -0.8491 -0.2616
 9309TIP3   OH249341   0.854   4.456  14.109  0.2442 -0.1394  0.5653
 9309TIP3    H149342   0.889   4.504  14.184 -0.0778  0.0114  0.6201
 9309TIP3    H249343   0.759   4.465  14.117  0.2116 -0.0611  0.0965
 9310TIP3   OH249344   6.287   1.501   1.900 -0.6705  0.0541  0.5202
 9310TIP3    H149345   6.205   1.451   1.896 -0.2686 -0.5284 -1.5511
 9310TIP3    H249346   6.275   1.571   1.836  0.5366 -0.1877  0.0142
 9311TIP3   OH249347   0.067   4.245   2.211 -0.3630 -1.2281  0.1056
 9311TIP3    H149348   0.152   4.263   2.171 -0.4672 -0.0615  0.3769
 9311TIP3    H249349   0.063   4.149   2.217  1.6542 -1.2796  1.6855
 9312TIP3   OH249350   4.176   0.081  16.784 -0.1247 -0.1021  0.3094
 9312TIP3    H149351   4.144   0.131  16.860  1.2638  0.0121  0.8536
 9312TIP3    H249352   4.121   0.004  16.782 -2.1533  1.2832 -0.3884
 9313TIP3   OH249353   1.884   6.622   4.452  0.4898 -0.0969  0.3554
 9313TIP3    H149354   1.879   6.549   4.390  0.8177  0.6693 -0.5986
 9313TIP3    H249355   1.820   6.685   4.419  3.1781  1.9288 -1.4135
 9314TIP3   OH249356   5.419   2.279  17.157  0.2594 -0.1820 -0.4443
 9314TIP3    H149357   5.380   2.222  17.092  0.1379 -1.5385  0.7671
 9314TIP3    H249358   5.450   2.355  17.108 -2.3533  0.1700 -1.6872
 9315TIP3   OH249359   5.566   6.782   0.841  0.1430  0.3994 -0.3347
 9315TIP3    H149360   5.617   6.701   0.841 -1.0572 -0.3904 -0.6115
 9315TIP3    H249361   5.562   6.808   0.933  2.0700  1.1904 -0.4186
 9316TIP3   OH249362   3.361   3.156  11.456  0.0453  0.0905  0.0500
 9316TIP3    H149363   3.401   3.186  11.538 -0.7647 -1.4608  1.0648
 9316TIP3    H249364   3.317   3.234  11.421  0.4704  0.8075  1.0586
 9317TIP3   OH249365   1.469   4.195   2.748  0.7158 -0.3972 -0.1281
 9317TIP3    H149366   1.540   4.140   2.782  2.6332  1.0632 -1.5701
 9317TIP3    H249367   1.414   4.212   2.824  1.1314 -2.6341  0.7739
 9318TIP3   OH249368   2.474   4.142   1.518 -0.3631  0.0039 -0.3544
 9318TIP3    H149369   2.506   4.211   1.576  0.7063 -1.1647  0.4842
 9318TIP3    H249370   2.510   4.165   1.432  1.1503 -0.2079  0.1851
 9319TIP3   OH249371   5.965   0.011  15.316  0.0415 -0.0819 -0.5945
 9319TIP3    H149372   5.940   0.090  15.266 -3.5131  1.0868  2.5995
 9319TIP3    H249373   5.924  -0.061  15.269 -2.1378  0.8343 -0.2162
 9320TIP3   OH249374   5.843   1.731   6.153 -0.9515  0.1916  0.0014
 9320TIP3    H149375   5.865   1.659   6.212 -1.1241 -0.7540 -1.0616
 9320TIP3    H249376   5.772   1.778   6.197 -0.9131 -0.3502  0.6505
 9321TIP3   OH249377   5.478   2.394   0.967  0.2929  0.1602 -0.2095
 9321TIP3    H149378   5.532   2.456   1.016 -0.0822 -0.8891  1.6322
 9321TIP3    H249379   5.395   2.441   0.954  1.0512  1.1579 -1.5793
 9322TIP3   OH249380   0.115   3.854  10.217 -0.5345 -0.2616  0.6028
 9322TIP3    H149381   0.154   3.893  10.295  0.0007  0.0189  0.2085
 9322TIP3    H249382   0.110   3.760  10.236  2.0425 -0.6044  0.0176
 9323TIP3   OH249383   0.649   3.585   1.592 -0.0473  0.4438 -0.0299
 9323TIP3    H149384   0.594   3.518   1.550 -0.0611  0.0560  0.5957
 9323TIP3    H249385   0.678   3.640   1.519 -1.2316  0.6364 -0.3828
 9324TIP3   OH249386   4.217   2.822   3.884 -0.2879  0.3861  0.1998
 9324TIP3    H149387   4.218   2.729   3.861  1.8402  0.8707 -2.0394
 9324TIP3    H249388   4.154   2.861   3.823  0.4568  0.7245 -0.3586
 9325TIP3   OH249389   5.474   4.473   2.770  0.4876 -0.3803  0.7498
 9325TIP3    H149390   5.563   4.507   2.757  0.5422  0.1878  2.4587
 9325TIP3    H249391   5.425   4.546   2.807 -1.1661 -0.1725 -1.6208
 9326TIP3   OH249392   6.784   2.086  14.900 -0.1660  0.1643  0.1007
 9326TIP3    H149393   6.794   2.156  14.966 -1.4156 -0.9670  1.5509
 9326TIP3    H249394   6.834   2.013  14.936 -0.0903 -0.1757 -0.6935
 9327TIP3   OH249395   1.363   1.788   3.937 -0.4300  0.0507 -0.0981
 9327TIP3    H149396   1.340   1.810   4.027  0.1257 -0.5447  0.1951
 9327TIP3    H249397   1.371   1.692   3.937  1.7905  0.1854 -0.2410
 9328TIP3   OH249398   6.241   0.457   3.497 -0.0329  0.4082  0.2038
 9328TIP3    H149399   6.313   0.473   3.558 -0.9354  2.1950  0.8756
 9328TIP3    H249400   6.171   0.516   3.526 -0.9730  0.3507 -1.7663
 9329TIP3   OH249401   4.725   4.099  14.651 -0.0005  0.2596 -0.1443
 9329TIP3    H149402   4.667   4.167  14.685  1.2878  1.4527 -0.2560
 9329TIP3    H249403   4.738   4.039  14.724  0.0537  0.9609  0.4258
 9330TIP3   OH249404   6.027   2.942   6.311 -0.0649 -0.0556 -0.3204
 9330TIP3    H149405   6.057   2.934   6.220 -1.2887  0.5725 -0.8074
 9330TIP3    H249406   5.932   2.952   6.304 -0.0104  2.0720  0.8904
 9331TIP3   OH249407   5.626   1.432   0.243  0.1773  0.2150  0.0380
 9331TIP3    H149408   5.652   1.518   0.210 -2.5596  0.9708 -0.3896
 9331TIP3    H249409   5.656   1.431   0.333 -1.4399  2.5243  0.7003
 9332TIP3   OH249410   0.931   6.299  12.880  0.1475  0.2316 -0.4794
 9332TIP3    H149411   0.867   6.281  12.948 -1.5213  0.3264 -1.9498
 9332TIP3    H249412   1.012   6.260  12.912  0.4487  3.2419  3.1780
 9333TIP3   OH249413   5.199   6.006   1.447  0.7485 -1.0379  0.3694
 9333TIP3    H149414   5.144   5.964   1.381  0.2334  1.5526 -0.9485
 9333TIP3    H249415   5.165   5.973   1.531 -1.4049 -1.1290 -0.4800
 9334TIP3   OH249416   5.412   3.757   2.217 -0.3784 -0.9340 -0.0755
 9334TIP3    H149417   5.420   3.741   2.311 -0.6390 -1.7072 -0.1736
 9334TIP3    H249418   5.467   3.689   2.177  2.6072  1.4661 -0.4284
 9335TIP3   OH249419   6.737   1.350   1.062 -0.0525 -0.1184  0.0947
 9335TIP3    H149420   6.684   1.421   1.025 -0.7854 -0.9634 -0.5362
 9335TIP3    H249421   6.815   1.393   1.096  0.7420  0.7585 -2.5305
 9336TIP3   OH249422   6.266   0.730  14.674 -0.4747  0.5915  0.7200
 9336TIP3    H149423   6.338   0.721  14.611 -0.9911  2.7607 -0.3114
 9336TIP3    H249424   6.273   0.654  14.731  1.0273 -0.6216 -0.9687
 9337TIP3   OH249425   4.795   2.695   2.693  0.3600  0.0451  0.5195
 9337TIP3    H149426   4.765   2.780   2.660  1.6440  0.4830  0.4078
 9337TIP3    H249427   4.832   2.715   2.779 -0.4088 -0.6211  1.0185
 9338TIP3   OH249428   5.287   3.292  10.721  0.4419 -0.1490 -0.2227
 9338TIP3    H149429   5.374   3.327  10.703  0.4730  0.1905  0.5507
 9338TIP3    H249430   5.298   3.197  10.715  1.0711 -0.1486  0.7442
 9339TIP3   OH249431   6.238   2.947  11.288  0.9909 -0.2113  0.1586
 9339TIP3    H149432   6.183   2.931  11.211  0.1318  0.9273  0.5089
 9339TIP3    H249433   6.306   2.880  11.283  0.9687 -0.1583 -1.6036
 9340TIP3   OH249434   4.433   3.188  13.618  0.5812 -0.2384 -0.0330
 9340TIP3    H149435   4.413   3.126  13.688  0.5016  0.8951  0.9936
 9340TIP3    H249436   4.462   3.267  13.664  1.3371  0.2635 -1.3201
 9341TIP3   OH249437   3.703   3.013   5.089  0.1874  0.0613  0.0798
 9341TIP3    H149438   3.737   3.100   5.106  0.0057 -0.1716  1.7947
 9341TIP3    H249439   3.748   2.985   5.009  0.9733  1.3298  0.0516
 9342TIP3   OH249440   0.441   2.675  12.059 -0.0168 -0.1815  0.5242
 9342TIP3    H149441   0.518   2.726  12.084  0.8225 -0.4592 -1.3869
 9342TIP3    H249442   0.468   2.584  12.070 -0.5885 -0.2736  1.2564
 9343TIP3   OH249443   2.884   3.680   3.787 -1.0249 -0.0925  0.0764
 9343TIP3    H149444   2.792   3.667   3.764 -1.3970  2.2249  0.0359
 9343TIP3    H249445   2.888   3.670   3.882 -1.4030  0.2692  0.1280
 9344TIP3   OH249446   0.150   2.168  16.047 -0.3229 -0.4193 -0.0868
 9344TIP3    H149447   0.158   2.072  16.049  1.6200 -0.3132 -0.6668
 9344TIP3    H249448   0.095   2.189  16.122 -0.3866 -1.9666  0.3373
 9345TIP3   OH249449   5.855   6.598  14.220  0.2705  0.7237 -0.5534
 9345TIP3    H149450   5.922   6.605  14.288  0.7229 -2.6728 -0.4701
 9345TIP3    H249451   5.780   6.557  14.264  0.2025 -0.5789 -1.7930
 9346TIP3   OH249452   0.049   5.877   2.112 -0.1462 -0.2767 -0.2641
 9346TIP3    H149453   0.008   5.930   2.180  0.4871  0.3588 -0.3551
 9346TIP3    H249454   0.008   5.791   2.120 -1.1955  0.2184 -0.1024
 9347TIP3   OH249455   3.696   3.073  15.070 -0.1688 -0.1452 -0.4206
 9347TIP3    H149456   3.637   3.010  15.031  0.1851  1.0126 -3.0159
 9347TIP3    H249457   3.640   3.145  15.099 -0.2745 -0.2846 -0.2769
 9348TIP3   OH249458   3.109   0.154   2.605 -0.4189 -0.1881  0.2573
 9348TIP3    H149459   3.069   0.237   2.578  0.1066 -0.2742 -0.8548
 9348TIP3    H249460   3.203   0.169   2.595 -0.3808 -1.4402 -1.6065
 9349TIP3   OH249461   0.791   1.659  13.119  0.5104 -0.2360 -0.2390
 9349TIP3    H149462   0.881   1.651  13.148  0.3020  1.5849  1.1008
 9349TIP3    H249463   0.756   1.734  13.167 -0.9108  0.8805 -2.7666
 9350TIP3   OH249464   5.683   1.058  15.727  0.3740  0.1356 -0.0650
 9350TIP3    H149465   5.649   1.062  15.816  0.2895  0.2815 -0.1046
 9350TIP3    H249466   5.707   1.148  15.706  0.8450  0.0240 -0.0130
 9351TIP3   OH249467   5.787   3.786  16.983 -0.0677  0.1670  0.8495
 9351TIP3    H149468   5.704   3.833  16.985  0.3169  1.1461 -1.6955
 9351TIP3    H249469   5.769   3.702  17.025 -2.0460  0.7712  1.2964
 9352TIP3   OH249470   5.713   5.769  15.116 -0.6073 -0.3600 -0.0750
 9352TIP3    H149471   5.767   5.823  15.174  0.4508 -1.8301  0.3727
 9352TIP3    H249472   5.712   5.816  15.033  1.4995 -0.3390 -0.1263
 9353TIP3   OH249473   3.834   0.581  12.744  0.3686  0.1103 -0.0177
 9353TIP3    H149474   3.761   0.626  12.702  1.0564  2.5285  1.2230
 9353TIP3    H249475   3.896   0.650  12.766  1.3188 -1.3616  2.3787
 9354TIP3   OH249476   1.486   5.969  10.374  0.2518  0.3436  0.7975
 9354TIP3    H149477   1.497   5.925  10.458 -0.8764  0.1311  0.8532
 9354TIP3    H249478   1.480   6.062  10.395  4.8347  0.9148  0.5052
 9355TIP3   OH249479   1.305   5.531  13.654  0.1219 -0.0862  0.3027
 9355TIP3    H149480   1.218   5.557  13.624  0.5074  1.0601  0.1403
 9355TIP3    H249481   1.347   5.491  13.578  0.0096  0.0482  0.1730
 9356TIP3   OH249482   3.039   0.173  14.190  0.0428  0.4082 -0.1763
 9356TIP3    H149483   2.976   0.104  14.209  0.8665 -0.9480 -2.1000
 9356TIP3    H249484   2.992   0.233  14.132 -1.2498  2.5535  2.8132
 9357TIP3   OH249485   3.553   6.720   4.936 -0.2255  0.3747 -0.4725
 9357TIP3    H149486   3.615   6.736   4.865  0.0061  0.0820 -0.3378
 9357TIP3    H249487   3.607   6.709   5.014 -0.2970 -1.6486 -0.6480
 9358TIP3   OH249488   6.754   0.223  12.362 -0.0777 -0.3782 -0.4175
 9358TIP3    H149489   6.659   0.212  12.362 -0.3218  1.1436  1.5319
 9358TIP3    H249490   6.774   0.261  12.448  2.4103 -1.4549 -0.4267
 9359TIP3   OH249491   1.087   3.727  10.669 -0.1587 -0.4614  0.1673
 9359TIP3    H149492   1.174   3.706  10.633 -0.6743  0.1006 -1.5195
 9359TIP3    H249493   1.097   3.816  10.703 -0.1492 -0.2455 -0.3787
 9360TIP3   OH249494   1.812   2.539  15.079 -0.3039  0.1414  0.4953
 9360TIP3    H149495   1.778   2.628  15.074  1.0739  0.6468 -2.7428
 9360TIP3    H249496   1.756   2.489  15.019  1.1036 -0.2641 -0.5430
 9361TIP3   OH249497   0.956   0.927  14.509  0.0969 -0.4836 -0.0889
 9361TIP3    H149498   1.035   0.931  14.456  0.2015  3.2114  0.0772
 9361TIP3    H249499   0.969   0.852  14.567  3.0328 -0.5921 -0.7300
 9362TIP3   OH249500   5.648   6.412   2.385 -0.0365 -0.3037 -0.3566
 9362TIP3    H149501   5.582   6.377   2.445 -0.1188  0.2130 -0.1438
 9362TIP3    H249502   5.639   6.507   2.392  0.5704 -0.2316 -0.5018
 9363TIP3   OH249503   6.310   5.559  16.581  0.0838  1.1676  0.2739
 9363TIP3    H149504   6.267   5.641  16.555 -1.2023  0.3938 -0.1231
 9363TIP3    H249505   6.255   5.490  16.544  0.2301  0.0778  1.9867
 9364TIP3   OH249506   6.097   4.555   1.003 -0.7138 -0.7722 -0.4360
 9364TIP3    H149507   6.060   4.484   1.054 -3.1441 -0.4523 -1.6088
 9364TIP3    H249508   6.126   4.514   0.921 -0.6246 -0.6549 -0.4645
 9365TIP3   OH249509   3.556   4.064  13.402  0.3785 -0.3740 -0.4445
 9365TIP3    H149510   3.584   4.081  13.312 -0.3038  1.6773 -0.3284
 9365TIP3    H249511   3.468   4.027  13.394 -0.8689  2.3501 -0.6693
 9366TIP3   OH249512   2.152   6.617  14.089  0.2355  0.5025  0.0174
 9366TIP3    H149513   2.169   6.525  14.112 -1.3953  0.0617 -0.3799
 9366TIP3    H249514   2.136   6.615  13.995 -0.9557  0.9844  0.1879
 9367TIP3   OH249515   2.227   1.235   1.100  0.1285 -0.4468  0.0885
 9367TIP3    H149516   2.281   1.203   1.028  0.6528 -1.0012  0.7109
 9367TIP3    H249517   2.223   1.330   1.087 -0.0613 -0.5697 -0.8480
 9368TIP3   OH249518   6.294   0.765  11.517 -0.3049  0.5567  0.1528
 9368TIP3    H149519   6.360   0.737  11.454  1.0673 -0.6809  2.0176
 9368TIP3    H249520   6.272   0.685  11.566 -0.6612  1.6119  1.8023
 9369TIP3   OH249521   1.487   4.570  17.064  0.0410  0.4799  0.6755
 9369TIP3    H149522   1.528   4.546  17.147  2.3548 -2.7655 -1.1847
 9369TIP3    H249523   1.393   4.574  17.084  0.3751 -1.5155  3.1893
 9370TIP3   OH249524   3.743   4.915  11.256  0.4278  0.0338  0.0002
 9370TIP3    H149525   3.765   4.888  11.345 -0.1017 -0.5207 -0.0318
 9370TIP3    H249526   3.827   4.916  11.210  0.3080 -3.6426 -0.5592
 9371TIP3   OH249527   2.382   5.219   1.752  0.1070  0.4847  0.4373
 9371TIP3    H149528   2.456   5.276   1.773  0.3597  0.8713 -1.3541
 9371TIP3    H249529   2.369   5.229   1.658 -1.9871  0.1151  0.6291
 9372TIP3   OH249530   3.475   2.061   3.566  0.4432  0.4165  0.3592
 9372TIP3    H149531   3.503   2.152   3.563 -0.2072  0.5909 -1.1452
 9372TIP3    H249532   3.404   2.059   3.631 -1.5521  1.6195 -1.6495
 9373TIP3   OH249533   2.977   6.208  12.049  0.0858  0.3016  0.0873
 9373TIP3    H149534   2.888   6.222  12.016  1.1422  0.4879 -3.0011
 9373TIP3    H249535   3.034   6.253  11.986  2.5863 -3.0826 -0.3987
 9374TIP3   OH249536   4.446   5.300  17.079  0.4054 -0.2761  0.4512
 9374TIP3    H149537   4.390   5.323  17.006  0.2984 -0.2615  0.5378
 9374TIP3    H249538   4.523   5.259  17.039 -0.4985 -2.0486  0.4304
 9375TIP3   OH249539   1.689   6.736   4.820  0.0094  0.2625  0.8682
 9375TIP3    H149540   1.703   6.645   4.792 -0.5429  0.7095 -1.0145
 9375TIP3    H249541   1.598   6.754   4.799  0.5079  1.7084 -0.2199
 9376TIP3   OH249542   0.135   4.330   0.037 -0.5072 -0.0012  0.3680
 9376TIP3    H149543   0.136   4.356  -0.055  1.2759 -1.4519 -0.0765
 9376TIP3    H249544   0.227   4.323   0.062 -0.9319 -1.2189  1.7782
 9377TIP3   OH249545   5.689   6.146   5.555 -0.1105 -0.1419  0.5160
 9377TIP3    H149546   5.658   6.114   5.470 -0.2593 -0.7257  0.7854
 9377TIP3    H249547   5.717   6.236   5.538  0.6148 -0.5096 -0.3358
 9378TIP3   OH249548   2.682   2.011   0.330  0.1428 -0.3527  0.3768
 9378TIP3    H149549   2.720   2.032   0.415  0.7757 -0.1420  0.0501
 9378TIP3    H249550   2.603   1.961   0.350  0.7145 -0.9960  1.0728
 9379TIP3   OH249551   2.823   6.041   2.253 -0.2502 -0.0108 -0.4878
 9379TIP3    H149552   2.847   6.102   2.184 -1.5767 -0.7893 -1.6966
 9379TIP3    H249553   2.784   5.967   2.207  0.3792 -1.3341  0.9919
 9380TIP3   OH249554   5.047   2.346   1.350  0.1290 -0.5899 -0.0091
 9380TIP3    H149555   5.028   2.279   1.415 -0.2690  0.8824  1.4540
 9380TIP3    H249556   5.141   2.362   1.359  0.2873 -1.1339 -0.5786
 9381TIP3   OH249557   2.176   6.603  16.243  0.0693 -0.2760 -0.1133
 9381TIP3    H149558   2.093   6.627  16.283 -1.6627  0.3860 -3.7279
 9381TIP3    H249559   2.224   6.686  16.236 -0.0976 -0.2025 -0.3940
 9382TIP3   OH249560   5.679   3.075   5.849  0.1227  0.1246 -0.1030
 9382TIP3    H149561   5.638   2.989   5.848  1.1904 -0.4347 -2.0612
 9382TIP3    H249562   5.684   3.100   5.756  2.3253  1.0556  0.1934
 9383TIP3   OH249563   6.783   6.702  11.200  0.4335 -0.0765 -0.4348
 9383TIP3    H149564   6.710   6.760  11.178 -1.1938 -0.5204  3.1350
 9383TIP3    H249565   6.842   6.755  11.252  1.5668 -0.3472 -1.3978
 9384TIP3   OH249566   5.058   4.930   0.024 -0.5448 -0.0648 -0.4495
 9384TIP3    H149567   4.962   4.920   0.026 -0.4052 -1.5606 -0.0846
 9384TIP3    H249568   5.079   4.971   0.108 -0.8905  0.5239 -0.6466
 9385TIP3   OH249569   2.579   2.961  12.982 -0.5747 -0.5329  0.2447
 9385TIP3    H149570   2.517   2.960  12.909 -0.0629  0.8445 -0.2338
 9385TIP3    H249571   2.613   2.871  12.986 -0.8720 -0.7139 -0.9874
 9386TIP3   OH249572   2.049   0.704   5.913  0.2988 -0.8292 -0.0397
 9386TIP3    H149573   2.018   0.727   5.825  3.8901  0.5238 -1.1313
 9386TIP3    H249574   1.993   0.754   5.972  0.5417  1.8334 -1.8647
 9387TIP3   OH249575   1.502   0.566   2.805 -0.1525 -0.5109 -0.1496
 9387TIP3    H149576   1.427   0.625   2.799  2.1377  2.5746 -1.1254
 9387TIP3    H249577   1.465   0.484   2.837 -3.9735  0.6582 -0.9694
 9388TIP3   OH249578   3.615   5.819  15.514  0.2217  0.2601 -0.2316
 9388TIP3    H149579   3.609   5.913  15.533  0.4523  0.1015  0.6944
 9388TIP3    H249580   3.627   5.778  15.600  0.6709 -0.5696 -0.6739
 9389TIP3   OH249581   5.341   0.638  12.265 -0.4307 -0.8751  0.0404
 9389TIP3    H149582   5.422   0.683  12.287 -0.2597 -1.3785  0.4576
 9389TIP3    H249583   5.308   0.683  12.187 -0.8380  0.6799  1.0809
 9390TIP3   OH249584   3.598   3.294   0.104 -0.0877  0.5412 -0.2082
 9390TIP3    H149585   3.571   3.385   0.096  0.0303  0.5113 -1.0656
 9390TIP3    H249586   3.516   3.244   0.104 -0.1477  0.6369  0.1672
 9391TIP3   OH249587   0.946   1.896  15.777  0.1983 -0.0996 -0.1201
 9391TIP3    H149588   1.005   1.957  15.733  0.0754 -0.7867 -1.2854
 9391TIP3    H249589   0.868   1.893  15.721 -1.3410  1.4045  1.8127
 9392TIP3   OH249590   5.861   5.532  11.011  0.0248  0.0014 -0.4420
 9392TIP3    H149591   5.849   5.597  11.080 -1.0292 -0.2313 -0.3932
 9392TIP3    H249592   5.798   5.557  10.943 -0.3112 -0.8922 -0.4714
 9393TIP3   OH249593   5.147   1.446  13.439  0.8671 -0.1593 -0.0499
 9393TIP3    H149594   5.101   1.462  13.357  1.3798  1.6173 -0.0336
 9393TIP3    H249595   5.187   1.530  13.462  1.3747 -0.7983  1.6316
 9394TIP3   OH249596   4.285   2.328  14.074 -0.0692 -0.5293  0.6095
 9394TIP3    H149597   4.221   2.288  14.132  0.9212 -1.6891  0.9406
 9394TIP3    H249598   4.238   2.342  13.992 -0.4874 -2.3309  0.5025
 9395TIP3   OH249599   3.697   2.818   3.948  0.0149 -0.0121 -0.4567
 9395TIP3    H149600   3.737   2.898   3.915 -2.1381  0.6199 -1.7362
 9395TIP3    H249601   3.741   2.747   3.901  0.7500  0.5306 -0.5931
 9396TIP3   OH249602   1.977   0.130   6.174  0.1154  0.6094 -0.1912
 9396TIP3    H149603   1.915   0.112   6.245  1.6657  1.9904  1.6451
 9396TIP3    H249604   2.053   0.075   6.196  1.2556  2.2874  0.2232
 9397TIP3   OH249605   5.310   5.497   1.760  0.1819 -0.2834  0.2539
 9397TIP3    H149606   5.351   5.419   1.722 -1.1338 -0.6445 -0.5078
 9397TIP3    H249607   5.244   5.462   1.820 -1.7001  0.1373 -1.4536
 9398TIP3   OH249608   2.669   4.749  15.857 -0.0073  1.2447  0.1679
 9398TIP3    H149609   2.578   4.717  15.856 -0.2654  1.9528 -0.0983
 9398TIP3    H249610   2.681   4.783  15.945  0.6938 -0.7183  0.8648
 9399TIP3   OH249611   3.902   3.381   1.480 -0.6637 -0.5020  0.3571
 9399TIP3    H149612   3.915   3.289   1.503 -1.8298 -0.2607  2.2834
 9399TIP3    H249613   3.961   3.397   1.407 -1.7935 -3.2671 -1.3361
 9400TIP3   OH249614   1.762   6.002   4.549 -0.3761  0.0887 -0.3479
 9400TIP3    H149615   1.834   5.979   4.489 -0.4782 -0.8825 -0.1195
 9400TIP3    H249616   1.785   5.957   4.631 -0.7779  0.5375  0.0106
 9401TIP3   OH249617   2.472   3.223  16.242 -0.1845 -0.1984  0.7125
 9401TIP3    H149618   2.505   3.159  16.306 -0.8088 -1.8174 -0.5180
 9401TIP3    H249619   2.501   3.190  16.157 -0.7533  1.0368  0.0077
 9402TIP3   OH249620   2.830   4.249  11.474 -0.1563 -0.3116 -0.1015
 9402TIP3    H149621   2.847   4.325  11.419 -0.5007  0.3784  0.7386
 9402TIP3    H249622   2.898   4.251  11.541 -0.0309 -0.8782 -0.1997
 9403TIP3   OH249623   5.287   0.195   4.527 -0.9154 -0.1327 -0.8165
 9403TIP3    H149624   5.279   0.290   4.536 -1.6226 -0.1236 -1.5009
 9403TIP3    H249625   5.316   0.165   4.614  0.2139  0.7939 -0.8521
 9404TIP3   OH249626   1.020   1.328  16.959  0.0054 -0.3634  0.1767
 9404TIP3    H149627   1.003   1.367  17.045  0.0774 -0.1269  0.0838
 9404TIP3    H249628   0.948   1.359  16.904  1.5338  1.9392 -0.6446
 9405TIP3   OH249629   3.253   1.550  13.160  0.5003 -0.0153 -0.2504
 9405TIP3    H149630   3.236   1.510  13.075  2.3381 -0.3571 -0.4901
 9405TIP3    H249631   3.182   1.518  13.216 -1.4815  1.2243 -1.9108
 9406TIP3   OH249632   6.018   0.871  15.817  0.0708 -0.6040  0.1695
 9406TIP3    H149633   6.112   0.884  15.830 -0.3015  1.7887  1.0050
 9406TIP3    H249634   6.002   0.901  15.728  0.0800 -0.8349  0.0911
 9407TIP3   OH249635   4.078   5.918  14.071  0.3179 -0.3985 -0.1790
 9407TIP3    H149636   4.107   5.925  13.980 -1.2657  0.9088 -0.6272
 9407TIP3    H249637   4.120   5.993  14.114 -0.7021  0.3087 -0.3752
 9408TIP3   OH249638   1.520   4.822   3.313  0.4186  0.5499  0.2009
 9408TIP3    H149639   1.576   4.771   3.372 -0.7940  1.5295  2.2995
 9408TIP3    H249640   1.432   4.788   3.328 -0.0832  1.6768 -0.0826
 9409TIP3   OH249641   3.823   2.388  12.980  0.2606 -0.3300  0.4463
 9409TIP3    H149642   3.813   2.349  12.893  0.2546  0.7039 -0.0396
 9409TIP3    H249643   3.764   2.463  12.979  3.5096  2.4946 -0.4166
 9410TIP3   OH249644   6.698   5.768  16.174  0.2789 -0.1098 -0.0417
 9410TIP3    H149645   6.692   5.756  16.269  0.5691  0.1395  0.0119
 9410TIP3    H249646   6.762   5.839  16.163 -0.6630  0.7084 -0.3776
 9411TIP3   OH249647   6.613   1.958  14.231 -0.8781 -0.2294 -0.2394
 9411TIP3    H149648   6.653   1.918  14.308  0.3304 -2.8730 -2.0681
 9411TIP3    H249649   6.553   2.024  14.266  0.9822  0.0048  2.8420
 9412TIP3   OH249650   0.563   2.973   0.157 -0.0678 -0.4623 -0.1353
 9412TIP3    H149651   0.481   2.935   0.125  1.2720 -4.8984  0.9187
 9412TIP3    H249652   0.624   2.961   0.084  0.0181  1.6082 -0.4491
 9413TIP3   OH249653   6.365   1.277   0.264  0.0828 -0.4816  0.0304
 9413TIP3    H149654   6.441   1.289   0.322  0.4503  0.8931 -0.7118
 9413TIP3    H249655   6.327   1.364   0.255 -1.3516 -1.0727  0.0286
 9414TIP3   OH249656   1.865   6.337   3.309 -0.2010  0.2326 -0.0415
 9414TIP3    H149657   1.846   6.423   3.345 -0.9412 -0.6030  1.6711
 9414TIP3    H249658   1.794   6.320   3.247 -0.9276  0.2230  0.7822
 9415TIP3   OH249659   5.017   3.736   4.651  0.2781 -0.1380  0.1318
 9415TIP3    H149660   5.022   3.654   4.701  1.3134  0.0682  0.4003
 9415TIP3    H249661   5.106   3.771   4.655 -0.1186  0.9246 -0.1173
 9416TIP3   OH249662   1.337   4.250   2.037  0.0978  0.0244  0.0978
 9416TIP3    H149663   1.305   4.332   1.999  2.3193  0.4426 -1.0266
 9416TIP3    H249664   1.309   4.253   2.128 -0.4685  1.7035 -0.0975
 9417TIP3   OH249665   5.344   2.773  15.239 -0.5163 -0.0735 -0.4221
 9417TIP3    H149666   5.428   2.753  15.279 -0.7442  1.6205  1.0053
 9417TIP3    H249667   5.329   2.701  15.178  1.4835 -0.9245  0.0157
 9418TIP3   OH249668   0.211   0.674   1.928 -0.1248 -0.1318 -0.3709
 9418TIP3    H149669   0.198   0.767   1.949  2.0017  0.4362 -1.3322
 9418TIP3    H249670   0.207   0.630   2.013  1.6314  1.2399  0.4831
 9419TIP3   OH249671   4.228   2.392  12.170  0.0941 -0.3190 -0.3343
 9419TIP3    H149672   4.236   2.303  12.205  0.9734  0.4731  1.6333
 9419TIP3    H249673   4.174   2.439  12.233 -0.6027  0.4932 -1.4931
 9420TIP3   OH249674   6.694   1.089   5.820  0.4430 -0.1493  0.2861
 9420TIP3    H149675   6.699   1.113   5.913 -0.5164  1.7922 -0.1154
 9420TIP3    H249676   6.645   1.007   5.818 -1.7697  1.0775  1.3551
 9421TIP3   OH249677   0.182   4.122   2.533 -0.0652 -0.1383  0.2279
 9421TIP3    H149678   0.124   4.165   2.470 -0.2205 -1.0153 -0.2510
 9421TIP3    H249679   0.146   4.145   2.619 -0.2391  0.5354 -0.0190
 9422TIP3   OH249680   3.814   1.947  11.875 -0.1605 -0.0567  0.9148
 9422TIP3    H149681   3.877   2.005  11.917 -0.6851  0.5909  0.8112
 9422TIP3    H249682   3.840   1.947  11.783  0.7659 -1.1926  1.1440
 9423TIP3   OH249683   5.769   5.087   3.091  0.6997  0.0541 -0.1560
 9423TIP3    H149684   5.694   5.112   3.146  0.8766  1.8382 -0.6566
 9423TIP3    H249685   5.845   5.119   3.139  1.0718 -0.8202 -0.1530
 9424TIP3   OH249686   1.811   5.358  12.690 -0.3654 -0.1429 -0.3370
 9424TIP3    H149687   1.788   5.304  12.766 -1.1103  1.7168  0.8505
 9424TIP3    H249688   1.737   5.419  12.681  0.8050  1.2398 -1.0374
 9425TIP3   OH249689   4.792   3.551  12.598  0.4682 -0.3094 -0.1263
 9425TIP3    H149690   4.785   3.572  12.505 -0.5491  1.2517  0.2527
 9425TIP3    H249691   4.701   3.549  12.628  0.6047 -3.3124  0.3729
 9426TIP3   OH249692   0.613   3.807   2.028 -0.3500 -0.1307  0.7062
 9426TIP3    H149693   0.700   3.818   1.990 -0.1775 -2.2401  0.3512
 9426TIP3    H249694   0.626   3.819   2.122 -0.0695  1.4256  0.4962
 9427TIP3   OH249695   5.133   5.919  11.536  0.0096  0.2293 -0.6271
 9427TIP3    H149696   5.148   6.006  11.498 -1.8876  0.8051 -0.1885
 9427TIP3    H249697   5.211   5.902  11.589  0.8171  1.2548 -1.4301
 9428TIP3   OH249698   2.086   0.476  12.144 -0.0102  0.3403  0.7769
 9428TIP3    H149699   2.033   0.397  12.146 -1.6509  1.3017 -0.9876
 9428TIP3    H249700   2.136   0.469  12.063 -0.3832  1.2032  0.4568
 9429TIP3   OH249701   0.862   1.150   0.465  0.0549  0.3192  0.0559
 9429TIP3    H149702   0.951   1.171   0.439  0.3731 -0.8261  0.1460
 9429TIP3    H249703   0.822   1.115   0.386  0.3210 -1.0353  0.4870
 9430TIP3   OH249704   3.359   2.865   2.606 -0.1945  0.6350  0.2225
 9430TIP3    H149705   3.366   2.953   2.644  0.7618  0.6919 -0.0666
 9430TIP3    H249706   3.394   2.807   2.673  0.7538  0.6574 -0.2277
 9431TIP3   OH249707   2.836   3.100  12.994 -0.0897  0.5363  0.5758
 9431TIP3    H149708   2.758   3.057  13.030  0.2563  0.3301  1.1042
 9431TIP3    H249709   2.908   3.066  13.047  0.4404  0.2562 -0.3017
 9432TIP3   OH249710   1.310   4.526   2.657  0.3912  0.5850 -0.1457
 9432TIP3    H149711   1.356   4.497   2.736  2.9111  0.7990 -1.4391
 9432TIP3    H249712   1.274   4.612   2.681 -0.0322  0.0700  1.1526
 9433TIP3   OH249713   0.512   0.034   5.451 -0.1855  0.1111 -0.8489
 9433TIP3    H149714   0.483  -0.056   5.437  0.8511 -0.0295 -2.3935
 9433TIP3    H249715   0.563   0.030   5.532  0.3756 -0.8546 -1.2236
 9434TIP3   OH249716   6.072   3.487   1.927  0.1670  0.3504 -0.0808
 9434TIP3    H149717   6.113   3.439   1.855 -3.2814 -3.3012  0.0245
 9434TIP3    H249718   6.114   3.453   2.006  0.6557  0.7545 -0.1623
 9435TIP3   OH249719   6.069   6.401  11.813  0.1387 -0.3564  1.0518
 9435TIP3    H149720   6.163   6.411  11.800  0.1350  1.6686  2.1013
 9435TIP3    H249721   6.041   6.340  11.744  1.6657  1.7418 -1.6407
 9436TIP3   OH249722   1.567   1.029  15.400 -0.6315 -0.4687  0.2291
 9436TIP3    H149723   1.534   0.941  15.418  1.2634 -1.3168 -0.1547
 9436TIP3    H249724   1.498   1.071  15.348 -1.8945 -1.4289  1.0822
 9437TIP3   OH249725   3.707   6.481   2.957 -0.4783 -0.0817 -0.0624
 9437TIP3    H149726   3.769   6.410   2.939 -0.0661  0.1865  0.2934
 9437TIP3    H249727   3.665   6.456   3.039 -0.8777 -0.2829 -0.3229
 9438TIP3   OH249728   5.176   5.549   3.993  0.0356  0.5427 -0.1281
 9438TIP3    H149729   5.188   5.488   3.920 -3.5979 -0.4236 -0.0924
 9438TIP3    H249730   5.213   5.632   3.961 -0.1418 -0.2241 -2.5062
 9439TIP3   OH249731   1.359   0.880   1.055  0.3326 -0.1471 -0.1311
 9439TIP3    H149732   1.452   0.897   1.040  0.3161  0.1726  0.1195
 9439TIP3    H249733   1.320   0.967   1.063 -0.1324 -0.2539 -1.0879
 9440TIP3   OH249734   0.039   0.432   4.667  0.7239  0.1329  0.2098
 9440TIP3    H149735   0.052   0.526   4.653  0.7803 -0.0992 -1.5209
 9440TIP3    H249736  -0.040   0.426   4.721 -1.6587  1.1002 -2.8982
 9441TIP3   OH249737   3.188   3.847  15.686 -0.2982 -0.2308 -0.1493
 9441TIP3    H149738   3.167   3.916  15.749  0.9789 -0.2431  0.3067
 9441TIP3    H249739   3.158   3.882  15.602 -0.2461  0.6096  0.1714
 9442TIP3   OH249740   2.861   5.405   5.766  0.2805  0.0472 -0.2772
 9442TIP3    H149741   2.843   5.491   5.802 -2.4408  0.6768 -2.6775
 9442TIP3    H249742   2.929   5.420   5.700 -0.5936  0.5738 -1.1028
 9443TIP3   OH249743   6.592   2.688   3.783 -0.3007  0.4418 -0.2685
 9443TIP3    H149744   6.634   2.737   3.854  0.3207  0.7526 -0.8355
 9443TIP3    H249745   6.664   2.637   3.744 -0.8361 -0.5260 -0.0212
 9444TIP3   OH249746   2.855   6.666   4.807  0.3896 -0.2257  0.5616
 9444TIP3    H149747   2.913   6.604   4.851 -0.9915 -1.2707  0.9715
 9444TIP3    H249748   2.779   6.614   4.780 -0.3182  1.0685 -0.0752
 9445TIP3   OH249749   4.707   5.716  12.262 -0.2021  0.3167  0.3211
 9445TIP3    H149750   4.765   5.784  12.296  0.0771 -0.2078  0.9096
 9445TIP3    H249751   4.759   5.672  12.194 -0.2518  0.4550  0.1930
 9446TIP3   OH249752   3.411   3.946  14.743 -0.0185  0.1220 -0.1189
 9446TIP3    H149753   3.485   3.915  14.691  0.8216  1.0257  0.4972
 9446TIP3    H249754   3.451   3.979  14.824 -1.1020  0.5332  0.2641
 9447TIP3   OH249755   1.460   5.182   4.308 -0.3005  0.7042 -0.2311
 9447TIP3    H149756   1.500   5.245   4.249 -1.0895  1.2875 -0.1546
 9447TIP3    H249757   1.384   5.148   4.260 -0.1533  0.1522 -0.0875
 9448TIP3   OH249758   1.993   4.123  12.480 -0.0072  0.2961 -0.3100
 9448TIP3    H149759   1.901   4.099  12.473  0.3947 -1.3888 -0.0704
 9448TIP3    H249760   1.998   4.209  12.438 -2.0746  1.4628  1.5812
 9449TIP3   OH249761   4.878   2.806   5.105 -1.1384  0.1083  0.1983
 9449TIP3    H149762   4.845   2.872   5.044 -1.0135 -0.2488 -0.2634
 9449TIP3    H249763   4.888   2.853   5.188 -1.4816  0.5562 -0.0061
 9450TIP3   OH249764   0.856   3.015  13.467 -0.1444  0.0139 -0.7033
 9450TIP3    H149765   0.810   2.931  13.470  0.6653 -0.4332 -0.1637
 9450TIP3    H249766   0.914   3.012  13.543  0.3601  0.7948 -1.0500
 9451TIP3   OH249767   2.102   0.792   1.974 -0.7316 -0.0029  0.9941
 9451TIP3    H149768   2.025   0.768   2.026 -0.3911  1.4127  2.2318
 9451TIP3    H249769   2.173   0.739   2.010 -0.9429 -0.6470  0.4651
 9452TIP3   OH249770   0.403   2.586  15.197 -0.5137  0.0796 -0.1055
 9452TIP3    H149771   0.334   2.598  15.262 -0.4364  0.9954 -0.1767
 9452TIP3    H249772   0.415   2.492  15.192 -3.0448 -0.2538 -1.4270
 9453TIP3   OH249773   0.084   5.662   2.596  0.1753  0.4411  0.2704
 9453TIP3    H149774   0.057   5.584   2.548 -0.5697  1.5918 -1.2604
 9453TIP3    H249775   0.145   5.707   2.537  1.3988  0.5426  1.5437
 9454TIP3   OH249776   0.079   3.679   3.937  0.0214 -0.2323  0.6293
 9454TIP3    H149777   0.001   3.624   3.940  0.8385 -1.8783 -2.9307
 9454TIP3    H249778   0.148   3.624   3.975  0.2078 -0.4334  0.0148
 9455TIP3   OH249779   6.631   1.505  15.820  0.8116 -0.3661 -0.6900
 9455TIP3    H149780   6.672   1.420  15.807  1.3866  0.2935 -4.0431
 9455TIP3    H249781   6.537   1.485  15.821  0.8581 -1.0060 -2.8535
 9456TIP3   OH249782   5.151   4.672  12.872  0.1676 -0.3139 -0.3374
 9456TIP3    H149783   5.122   4.682  12.781 -0.8929 -1.0027 -0.0957
 9456TIP3    H249784   5.152   4.761  12.906  0.0492 -0.1022 -0.8722
 9457TIP3   OH249785   5.398   2.250  14.725  0.5812 -0.0618 -0.4710
 9457TIP3    H149786   5.451   2.285  14.654  2.5314 -0.6365  0.6304
 9457TIP3    H249787   5.368   2.327  14.773 -1.1254  0.3589 -2.0802
 9458TIP3   OH249788   2.841   1.578   5.462 -0.3870  0.0675  0.3481
 9458TIP3    H149789   2.785   1.654   5.447  1.5515  1.2105 -1.9089
 9458TIP3    H249790   2.887   1.598   5.543 -1.8959 -0.0708  1.2749
 9459TIP3   OH249791   4.682   4.259   4.704  0.0402 -0.4886  0.1368
 9459TIP3    H149792   4.605   4.213   4.737 -0.8409 -0.2527 -1.5323
 9459TIP3    H249793   4.647   4.336   4.660  1.2276 -0.4223 -0.7261
 9460TIP3   OH249794   1.159   1.329  11.689  0.3337 -0.3349 -0.2693
 9460TIP3    H149795   1.193   1.276  11.616 -0.1973 -0.4837 -0.4184
 9460TIP3    H249796   1.164   1.271  11.765 -2.3640 -1.4852 -0.8416
 9461TIP3   OH249797   6.461   2.883   4.963 -0.0932 -0.5267 -0.3172
 9461TIP3    H149798   6.416   2.843   5.038 -1.1575 -0.7953 -1.0671
 9461TIP3    H249799   6.554   2.869   4.980 -0.3080 -0.5782  0.9505
 9462TIP3   OH249800   4.010   0.609   1.200  0.4797 -0.3027 -0.5057
 9462TIP3    H149801   3.962   0.575   1.276 -0.6118 -0.9682 -1.4500
 9462TIP3    H249802   3.946   0.663   1.154  1.2980  0.5369 -0.6743
 9463TIP3   OH249803   4.959   4.630   2.287  0.6499  0.3271 -0.9979
 9463TIP3    H149804   4.926   4.540   2.279  1.0329  0.2506 -1.7903
 9463TIP3    H249805   5.024   4.625   2.357  0.2521  0.1155 -0.6350
 9464TIP3   OH249806   5.703   5.494   4.832  0.3270 -0.1311 -0.0345
 9464TIP3    H149807   5.773   5.517   4.892 -0.1415 -0.0436  0.4903
 9464TIP3    H249808   5.639   5.565   4.842 -0.9925 -1.4396  1.3627
 9465TIP3   OH249809   4.326   2.011   1.132  0.5945  0.6928 -0.1733
 9465TIP3    H149810   4.310   1.947   1.202  1.3286 -0.0278 -0.6575
 9465TIP3    H249811   4.418   2.001   1.110  0.1057 -0.0216 -2.1446
 9466TIP3   OH249812   4.838   3.266  16.663 -0.8943 -0.4046  0.5961
 9466TIP3    H149813   4.916   3.233  16.618 -1.7621  1.2269 -2.3781
 9466TIP3    H249814   4.870   3.335  16.720 -0.1252  0.3112 -0.6580
 9467TIP3   OH249815   5.298   1.256  15.654  0.3110  0.2996 -0.8414
 9467TIP3    H149816   5.321   1.163  15.646 -0.3289  0.1970 -1.6055
 9467TIP3    H249817   5.291   1.287  15.564  0.9808  1.2140 -0.5900
 9468TIP3   OH249818   1.808   2.587  14.619 -0.5944 -0.0734  0.0986
 9468TIP3    H149819   1.719   2.574  14.589 -0.1768 -0.5705 -0.9820
 9468TIP3    H249820   1.824   2.681  14.608 -0.1177 -0.3658 -2.3162
 9469TIP3   OH249821   1.330   3.996   2.203 -0.0950  0.2677 -0.5451
 9469TIP3    H149822   1.405   4.043   2.239 -1.0916  0.5874  1.1971
 9469TIP3    H249823   1.287   4.060   2.146  0.7627  0.1832 -1.2990
 9470TIP3   OH249824   4.018   4.378  16.880 -0.0012  0.9005  0.1940
 9470TIP3    H149825   4.102   4.331  16.882  0.0814  1.0628  1.1253
 9470TIP3    H249826   4.004   4.405  16.970 -2.2751 -1.2166  0.5890
 9471TIP3   OH249827   0.544   6.320   4.061 -0.2069  0.0726 -0.0671
 9471TIP3    H149828   0.585   6.262   4.126  1.1825  0.5469 -0.4873
 9471TIP3    H249829   0.453   6.327   4.090 -0.1160 -1.3430  0.6756
 9472TIP3   OH249830   6.096   1.286  15.145  0.3019  0.4868 -0.2577
 9472TIP3    H149831   6.184   1.300  15.108 -0.3886  2.8242 -1.2188
 9472TIP3    H249832   6.064   1.374  15.165 -1.7883 -0.3127  0.1800
 9473TIP3   OH249833   5.958   3.801  10.875  0.3087 -0.7875  0.1121
 9473TIP3    H149834   6.038   3.812  10.824  0.8830 -2.5889  0.5503
 9473TIP3    H249835   5.916   3.724  10.837 -1.2822  0.1573 -0.1492
 9474TIP3   OH249836   1.502   4.553   5.646 -0.1731 -0.7995  0.0983
 9474TIP3    H149837   1.478   4.518   5.732  0.4889 -1.2054  0.1295
 9474TIP3    H249838   1.462   4.640   5.643  0.9324 -0.2049  1.3891
 9475TIP3   OH249839   6.766   1.363   3.323  0.4663 -0.0221 -0.1514
 9475TIP3    H149840   6.699   1.416   3.280 -0.7204 -0.0875  1.5060
 9475TIP3    H249841   6.767   1.281   3.274 -0.6036  0.0244 -0.2788
 9476TIP3   OH249842   5.933   1.428   5.875 -0.1266  0.0773  0.7266
 9476TIP3    H149843   5.912   1.522   5.874 -1.7360 -0.2610 -1.1738
 9476TIP3    H249844   5.884   1.391   5.803  1.5020 -2.0624  0.6190
 9477TIP3   OH249845   0.984   3.174  12.071  0.0420 -0.5024 -0.2149
 9477TIP3    H149846   0.931   3.201  12.146  1.1480  0.3589  0.2844
 9477TIP3    H249847   0.923   3.176  11.997 -0.2810  2.1061  0.0291
 9478TIP3   OH249848   5.676   1.679   1.994  0.2963  0.1879  0.0536
 9478TIP3    H149849   5.620   1.744   2.037  0.6693  0.3098  0.3611
 9478TIP3    H249850   5.765   1.705   2.017  0.5574  0.8180 -1.5892
 9479TIP3   OH249851   5.707   3.664   5.476 -0.1496  0.4896  0.4336
 9479TIP3    H149852   5.672   3.632   5.393 -0.0632 -1.1472  0.9998
 9479TIP3    H249853   5.693   3.759   5.473  1.2750  0.7201 -2.1196
 9480TIP3   OH249854   1.130   2.182  13.127 -0.6904  0.2123  0.0811
 9480TIP3    H149855   1.097   2.121  13.062 -1.4618 -0.4499  1.0533
 9480TIP3    H249856   1.132   2.267  13.083 -0.9375 -0.2696 -0.8675
 9481TIP3   OH249857   2.910   3.100   2.218  0.6637  0.2685  0.5813
 9481TIP3    H149858   3.002   3.092   2.245  0.3544 -1.9439  1.1221
 9481TIP3    H249859   2.862   3.048   2.282 -0.8053  0.1533 -0.5763
 9482TIP3   OH249860   6.484   4.526  10.731  0.1848  0.2697  0.2559
 9482TIP3    H149861   6.397   4.534  10.692  0.7127  0.9249 -0.8483
 9482TIP3    H249862   6.518   4.442  10.697  1.2360  1.5236 -2.0600
 9483TIP3   OH249863   0.590   4.659   1.736  0.5485  0.2555  0.5277
 9483TIP3    H149864   0.539   4.629   1.661  2.2384 -0.6933 -0.3104
 9483TIP3    H249865   0.539   4.731   1.773 -1.1687 -0.3839 -0.4810
 9484TIP3   OH249866   5.039   3.594   1.973  1.1310  0.1213 -0.0573
 9484TIP3    H149867   5.046   3.518   2.031  1.2089  0.5630  0.5273
 9484TIP3    H249868   5.111   3.585   1.911  0.6640 -0.6926 -0.4900
 9485TIP3   OH249869   5.232   3.187  11.811  0.0320  0.3224  0.0208
 9485TIP3    H149870   5.262   3.104  11.773 -0.3563 -0.3001  1.0101
 9485TIP3    H249871   5.170   3.160  11.880  0.2586  1.4147  0.6782
 9486TIP3   OH249872   4.783   6.375   3.940  0.8910 -0.1664  0.5023
 9486TIP3    H149873   4.747   6.333   3.861  2.2963 -1.2028  0.3733
 9486TIP3    H249874   4.833   6.449   3.907  0.5712  0.0582  0.5175
 9487TIP3   OH249875   4.470   2.132  12.649 -0.1879 -0.3400  0.1634
 9487TIP3    H149876   4.542   2.130  12.712 -0.1211  0.0781  0.1078
 9487TIP3    H249877   4.400   2.179  12.695 -0.4577 -0.8326  0.2521
 9488TIP3   OH249878   2.522   2.090   5.615  0.4986 -0.6233  0.2197
 9488TIP3    H149879   2.617   2.096   5.623  0.5280 -0.2315 -0.4320
 9488TIP3    H249880   2.503   2.115   5.525 -0.3120  0.3673  0.6390
 9489TIP3   OH249881   4.857   2.633   2.357  0.2026  0.1660 -0.0014
 9489TIP3    H149882   4.779   2.660   2.308 -0.8407 -0.3190  1.3047
 9489TIP3    H249883   4.874   2.706   2.416  0.2240 -0.0761  0.2944
 9490TIP3   OH249884   1.193   5.443  16.427  0.7782 -0.2386 -0.2856
 9490TIP3    H149885   1.192   5.538  16.418 -1.4903 -0.0440  1.2473
 9490TIP3    H249886   1.267   5.426  16.486  1.7056  0.4720 -1.2108
 9491TIP3   OH249887   4.553   1.322   0.725  0.2660 -0.4597 -0.0391
 9491TIP3    H149888   4.638   1.294   0.760  0.1788 -0.5899  0.0670
 9491TIP3    H249889   4.557   1.418   0.726  0.4846 -0.4654 -0.2105
 9492TIP3   OH249890   6.140   3.497   5.549 -0.6814 -0.2228 -0.2279
 9492TIP3    H149891   6.055   3.456   5.559 -1.2841 -0.0838 -3.7126
 9492TIP3    H249892   6.140   3.568   5.613 -3.6112  0.4161 -0.8004
 9493TIP3   OH249893   1.912   1.258  15.581 -0.3522  0.2825 -0.5306
 9493TIP3    H149894   1.947   1.240  15.494 -0.3317  0.4027 -0.5468
 9493TIP3    H249895   1.981   1.229  15.641 -0.5319 -0.1878 -0.5420
 9494TIP3   OH249896   4.866   5.539   0.645 -0.1238 -0.1118  0.0552
 9494TIP3    H149897   4.889   5.632   0.641 -0.3177 -0.0058  1.0967
 9494TIP3    H249898   4.770   5.538   0.637 -0.3136 -0.0518  1.8954
 9495TIP3   OH249899   4.463   5.324   5.439  0.3996 -0.3445  0.2809
 9495TIP3    H149900   4.410   5.274   5.377  0.1495  0.4584 -0.1702
 9495TIP3    H249901   4.409   5.400   5.460  0.6587 -0.3908  1.1633
 9496TIP3   OH249902   5.514   2.899   1.683  0.1263  0.0557  0.1212
 9496TIP3    H149903   5.550   2.924   1.769  0.8393  1.0181 -0.4277
 9496TIP3    H249904   5.533   2.806   1.675 -0.5977 -0.2119  1.3115
 9497TIP3   OH249905   4.970   5.937   2.141  0.5156 -0.4639  0.0175
 9497TIP3    H149906   4.929   5.909   2.059  0.0697  0.9225 -0.2603
 9497TIP3    H249907   4.913   6.006   2.174 -0.0900 -1.9002  2.2441
 9498TIP3   OH249908   3.369   3.914  14.118 -0.0417  0.3014 -0.0466
 9498TIP3    H149909   3.403   3.918  14.208 -1.4882 -0.1721  0.5503
 9498TIP3    H249910   3.447   3.898  14.064  0.8855  0.8427  1.0876
 9499TIP3   OH249911   0.719   0.879  15.579  0.1080  0.5108 -0.2441
 9499TIP3    H149912   0.680   0.854  15.495  2.6985 -0.8100 -1.1741
 9499TIP3    H249913   0.662   0.839  15.645 -1.1499  0.3018 -1.4088
 9500TIP3   OH249914   5.540   0.429  14.829 -0.2515  0.3001 -0.1318
 9500TIP3    H149915   5.566   0.368  14.898  0.8426  2.2927  1.3101
 9500TIP3    H249916   5.572   0.388  14.748  0.3132 -1.0759  0.7490
 9501TIP3   OH249917   1.986   2.294   1.621  0.2958  0.8775 -0.2623
 9501TIP3    H149918   1.926   2.278   1.548  0.7959  0.9879 -0.7100
 9501TIP3    H249919   1.984   2.212   1.671 -0.9914  1.2400  0.3105
 9502TIP3   OH249920   2.221   0.734  15.370  0.5293 -0.0413  0.1624
 9502TIP3    H149921   2.151   0.689  15.322  0.8349  1.5025 -1.8972
 9502TIP3    H249922   2.177   0.808  15.413  0.3248 -1.2012  2.0443
 9503TIP3   OH249923   4.025   0.685  13.752  0.3837 -0.7669  0.2451
 9503TIP3    H149924   3.999   0.746  13.820 -0.7289 -2.4766  1.4426
 9503TIP3    H249925   3.956   0.691  13.686  1.8272  1.4226 -1.1974
 9504TIP3   OH249926   3.583   4.532   3.021  0.1518  0.0442  0.4845
 9504TIP3    H149927   3.500   4.580   3.020 -0.7142 -1.3930  0.2369
 9504TIP3    H249928   3.649   4.599   3.038 -0.7228  1.7425 -2.1185
 9505TIP3   OH249929   3.140   6.715  12.898 -0.4495 -0.2966 -0.4188
 9505TIP3    H149930   3.083   6.756  12.833  0.0684 -2.1728 -2.1880
 9505TIP3    H249931   3.090   6.640  12.931 -0.4369  0.2366  0.8585
 9506TIP3   OH249932   5.990   2.807   1.990  0.0799  0.7265 -0.1717
 9506TIP3    H149933   6.063   2.784   1.934 -1.5201 -0.5888 -1.8385
 9506TIP3    H249934   5.971   2.898   1.970 -1.4249 -0.1157 -3.0455
 9507TIP3   OH249935   1.439   3.292  15.033  0.4968 -0.3501  0.1287
 9507TIP3    H149936   1.449   3.381  15.064  0.3545 -0.2291 -0.1697
 9507TIP3    H249937   1.345   3.280  15.023  0.3381 -1.2455  2.2219
 9508TIP3   OH249938   1.336   6.105   4.776  0.1681 -0.0944  0.1054
 9508TIP3    H149939   1.426   6.130   4.799  0.7893 -3.8695  2.7400
 9508TIP3    H249940   1.282   6.144   4.844  0.4709 -1.4798  1.1811
 9509TIP3   OH249941   0.168   3.746  13.941  0.3721  0.4386  0.2580
 9509TIP3    H149942   0.167   3.787  14.028 -0.1644 -1.6244  1.3073
 9509TIP3    H249943   0.260   3.724  13.926  0.7169  2.1734 -0.4555
 9510TIP3   OH249944   3.668   3.450   3.520  0.3746 -0.0462  0.3566
 9510TIP3    H149945   3.589   3.504   3.522  1.5242  1.6969  0.4265
 9510TIP3    H249946   3.692   3.448   3.427  1.5849  1.5219  0.5952
 9511TIP3   OH249947   2.021   1.672   4.408  0.7230  0.0821  0.2249
 9511TIP3    H149948   1.962   1.746   4.397 -2.3558 -1.9454  1.5691
 9511TIP3    H249949   2.106   1.703   4.377 -0.8962  3.3840 -1.3396
 9512TIP3   OH249950   4.186   5.542  13.087  0.0553  0.0407 -0.2867
 9512TIP3    H149951   4.118   5.594  13.130 -1.2284 -2.9702  1.6145
 9512TIP3    H249952   4.262   5.552  13.144  0.0902  0.5212 -0.4136
 9513TIP3   OH249953   1.169   1.904   1.601  0.2276 -0.1116 -0.1415
 9513TIP3    H149954   1.248   1.913   1.653 -0.3133  0.9800  0.5358
 9513TIP3    H249955   1.163   1.810   1.581  1.3014 -0.3007  0.3886
 9514TIP3   OH249956   3.206   4.314   0.913  0.0717  0.0599  0.1224
 9514TIP3    H149957   3.258   4.233   0.910  0.5962  0.3700  0.7407
 9514TIP3    H249958   3.199   4.334   1.006 -2.1459 -0.5995  0.1675
 9515TIP3   OH249959   3.483   5.982  13.329  0.0329 -0.1801  0.1852
 9515TIP3    H149960   3.433   6.009  13.252  1.3464 -0.7830 -0.9212
 9515TIP3    H249961   3.575   5.989  13.302  0.5374 -0.2382  1.7590
 9516TIP3   OH249962   1.874   3.895  10.481 -0.0007  0.3159 -0.2507
 9516TIP3    H149963   1.780   3.906  10.464  0.1395  1.6071 -0.2682
 9516TIP3    H249964   1.878   3.837  10.558 -0.7326 -1.9746 -1.8146
 9517TIP3   OH249965   6.084   5.333   1.246 -0.4347 -0.6661 -0.0996
 9517TIP3    H149966   6.048   5.342   1.157  0.9394 -1.8366 -0.8172
 9517TIP3    H249967   6.029   5.267   1.288 -0.5597 -0.7427 -0.3815
 9518TIP3   OH249968   2.898   6.252   3.720 -0.3730 -0.2882 -0.4076
 9518TIP3    H149969   2.960   6.212   3.780 -0.1703 -1.3250 -1.2895
 9518TIP3    H249970   2.951   6.310   3.666 -0.4700  0.2181  0.0297
 9519TIP3   OH249971   5.288   0.035  11.226  0.9564  0.0911  0.3086
 9519TIP3    H149972   5.354   0.005  11.163  0.0656 -1.7256  0.1856
 9519TIP3    H249973   5.240  -0.044  11.250  0.1499  1.0397  1.9690
 9520TIP3   OH249974   0.706   3.776  16.691  0.2418  0.1284 -0.3422
 9520TIP3    H149975   0.762   3.699  16.685  1.7257  0.8273  2.7486
 9520TIP3    H249976   0.720   3.822  16.608  1.1369 -1.7191 -1.2592
 9521TIP3   OH249977   5.686   0.255  15.054  0.0270 -0.3130  0.2583
 9521TIP3    H149978   5.723   0.254  15.142  1.4729  1.5586 -0.2534
 9521TIP3    H249979   5.756   0.219  14.999 -1.5947 -3.4180  0.0317
 9522TIP3   OH249980   1.340   3.353  12.258  0.1242  0.1148 -0.1185
 9522TIP3    H149981   1.361   3.398  12.176 -0.6055  1.7707  0.5610
 9522TIP3    H249982   1.244   3.351  12.261  0.1435 -0.6317  0.3367
 9523TIP3   OH249983   0.793   3.886  13.125  0.1563 -1.3490  0.2608
 9523TIP3    H149984   0.861   3.920  13.066  2.7408 -2.7789  2.1746
 9523TIP3    H249985   0.752   3.815  13.076  1.1228 -1.4508 -0.4344
 9524TIP3   OH249986   2.463   3.647   0.024 -0.1004 -0.0758 -0.3157
 9524TIP3    H149987   2.426   3.724  -0.020  0.4617  0.6074  0.3509
 9524TIP3    H249988   2.491   3.681   0.110  0.8598 -0.8441 -0.3060
 9525TIP3   OH249989   3.877   1.985  16.649  0.2193  0.1827  0.2579
 9525TIP3    H149990   3.806   1.932  16.612 -0.0323  0.3449  0.5012
 9525TIP3    H249991   3.838   2.025  16.727  0.8667 -0.4838  0.9394
 9526TIP3   OH249992   5.910   1.046  14.262 -0.1126  0.1158 -0.0025
 9526TIP3    H149993   5.825   1.090  14.263  0.2814  0.9211 -0.7025
 9526TIP3    H249994   5.928   1.030  14.169  0.1171 -0.8180  0.1948
 9527TIP3   OH249995   3.305   0.058  14.856 -0.4935  0.5026  0.1910
 9527TIP3    H149996   3.254  -0.010  14.899 -0.3066 -0.5404 -1.1882
 9527TIP3    H249997   3.243   0.098  14.794 -0.1284  0.4221 -0.2264
 9528TIP3   OH249998   4.841   5.929   2.398  0.3415 -0.0130 -0.1291
 9528TIP3    H149999   4.824   5.997   2.333 -0.9863 -1.0672 -0.9479
 9528TIP3    H250000   4.801   5.850   2.361 -1.1877 -0.4921  2.3128
 9529TIP3   OH250001   1.261   3.773   5.519 -0.0225 -0.3490  0.1849
 9529TIP3    H150002   1.304   3.836   5.577  1.1801  0.2255 -1.2832
 9529TIP3    H250003   1.330   3.713   5.492 -0.5134 -0.4997 -0.7958
 9530TIP3   OH250004   5.307   0.517   0.465 -0.3185 -0.1054  0.0344
 9530TIP3    H150005   5.311   0.446   0.529 -1.0406  0.4281  0.6826
 9530TIP3    H250006   5.387   0.506   0.413  0.2535 -0.5802  0.9834
 9531TIP3   OH250007   6.223   2.794   1.824  0.3822 -0.1128 -0.1310
 9531TIP3    H150008   6.184   2.808   1.738  1.1216  0.8350 -0.3272
 9531TIP3    H250009   6.299   2.852   1.826 -0.1989  0.6516  1.5535
 9532TIP3   OH250010   5.207   2.150  16.170  0.4814 -0.2338  0.1571
 9532TIP3    H150011   5.173   2.238  16.154  2.7747  0.5647 -0.7994
 9532TIP3    H250012   5.232   2.119  16.083  2.0433 -0.7665  0.7591
 9533TIP3   OH250013   1.221   1.898   0.042 -0.4273 -0.5889  0.1927
 9533TIP3    H150014   1.296   1.957   0.036 -1.0979  0.1678 -1.7349
 9533TIP3    H250015   1.258   1.810   0.031  0.3294 -0.3529  0.7959
 9534TIP3   OH250016   4.335   6.247   0.424  0.3029 -0.3618  0.3630
 9534TIP3    H150017   4.402   6.312   0.401  1.3032 -1.5655 -0.2806
 9534TIP3    H250018   4.296   6.223   0.341  3.4087 -4.1816 -0.3154
 9535TIP3   OH250019   1.686   0.161  16.299 -0.1303  0.0446  0.2614
 9535TIP3    H150020   1.733   0.190  16.377 -0.2335  0.2530  0.2473
 9535TIP3    H250021   1.593   0.177  16.320 -0.0946  1.1848 -0.3349
 9536TIP3   OH250022   3.903   3.377   4.182 -0.4564  0.2386  0.1734
 9536TIP3    H150023   3.860   3.372   4.096  0.2364 -0.4227 -0.1547
 9536TIP3    H250024   3.833   3.399   4.243 -0.8948  1.1032 -0.6121
 9537TIP3   OH250025   3.622   1.105  13.588 -0.1891  0.3179  0.0950
 9537TIP3    H150026   3.674   1.058  13.653  2.5378  1.9525 -0.7259
 9537TIP3    H250027   3.604   1.190  13.628  0.9731  1.1059 -0.9767
 9538TIP3   OH250028   4.406   3.623  16.871 -0.0688  0.0755  0.0880
 9538TIP3    H150029   4.381   3.533  16.848 -1.2014  0.1738  0.8500
 9538TIP3    H250030   4.326   3.660  16.910  0.5454  1.2438  0.2571
 9539TIP3   OH250031   1.526   4.916   0.719 -0.3244 -0.5673 -0.2813
 9539TIP3    H150032   1.472   4.993   0.701 -0.9629 -1.4435 -2.4677
 9539TIP3    H250033   1.475   4.864   0.781 -1.7496 -1.0756 -1.8234
 9540TIP3   OH250034   6.132   5.721   0.451 -0.4374  0.0159 -0.3799
 9540TIP3    H150035   6.163   5.714   0.541 -0.4118  0.1625 -0.3772
 9540TIP3    H250036   6.048   5.766   0.457  0.2831  1.4166 -0.5640
 9541TIP3   OH250037   1.741   6.168  15.555  0.0034  0.2494  0.4018
 9541TIP3    H150038   1.690   6.088  15.545  0.7455 -0.1093 -0.8795
 9541TIP3    H250039   1.816   6.142  15.609 -0.8971  0.6518  1.8651
 9542TIP3   OH250040   6.244   6.749  17.132 -0.0314 -0.1980  0.2329
 9542TIP3    H150041   6.302   6.805  17.081  1.2822 -1.4305  0.3092
 9542TIP3    H250042   6.298   6.674  17.157 -1.5835 -1.2704  0.5559
 9543TIP3   OH250043   4.871   5.952   0.383  0.1114  0.3034  0.0882
 9543TIP3    H150044   4.907   6.016   0.444  2.3249  0.3654 -1.1724
 9543TIP3    H250045   4.918   5.871   0.403 -0.7341 -0.2540 -0.0970
 9544TIP3   OH250046   2.039   0.700   2.774  0.1117  0.0487  0.5645
 9544TIP3    H150047   2.004   0.635   2.712  0.7107 -0.0259  0.2966
 9544TIP3    H250048   2.049   0.780   2.722  0.2984  0.0797  0.6469
 9545TIP3   OH250049   2.270   0.752   1.599  0.1828 -0.2096  0.1344
 9545TIP3    H150050   2.340   0.796   1.551  0.3316  0.4900  0.9712
 9545TIP3    H250051   2.238   0.685   1.538  3.0934 -2.1624  0.5087
 9546TIP3   OH250052   5.898   1.284   0.589  0.2511 -0.1562 -0.6952
 9546TIP3    H150053   5.945   1.244   0.516 -1.2553 -1.2898 -1.1011
 9546TIP3    H250054   5.940   1.248   0.667  1.3754  0.4618 -1.0075
 9547TIP3   OH250055   4.884   4.096  12.212 -0.3906 -0.1825 -0.6517
 9547TIP3    H150056   4.873   4.037  12.287  2.1224  2.0986  1.7433
 9547TIP3    H250057   4.826   4.170  12.231  2.2894  1.7369  0.7268
 9548TIP3   OH250058   2.380   5.793  11.280 -0.0336  0.2580  0.1715
 9548TIP3    H150059   2.288   5.803  11.256 -0.5716 -0.0452  1.9632
 9548TIP3    H250060   2.407   5.882  11.305  0.4332  0.5127 -1.1641
 9549TIP3   OH250061   0.837   4.955   0.018 -0.0490  0.1648  0.2989
 9549TIP3    H150062   0.793   5.025   0.066 -2.6919  1.0288 -3.0127
 9549TIP3    H250063   0.920   4.993  -0.010 -0.3221  1.0769  0.6918
 9550TIP3   OH250064   5.346   1.369   0.351 -0.5399 -0.1593  0.6746
 9550TIP3    H150065   5.286   1.310   0.305  0.7425 -1.1686  0.2131
 9550TIP3    H250066   5.421   1.377   0.293  1.1967 -1.5670  2.5582
 9551TIP3   OH250067   1.822   0.823  11.684  1.0277 -0.5198  0.1500
 9551TIP3    H150068   1.845   0.745  11.735  3.2760 -1.0081 -1.4911
 9551TIP3    H250069   1.798   0.790  11.598  1.7417  0.5778 -0.4876
 9552TIP3   OH250070   3.062   0.184  12.480 -0.4963  0.1999 -0.2984
 9552TIP3    H150071   3.088   0.256  12.423 -1.2247  0.9249  0.2620
 9552TIP3    H250072   2.983   0.215  12.524  0.1712 -0.2361  1.2781
 9553TIP3   OH250073   5.835   3.998  16.535  0.3748 -0.2593 -0.0800
 9553TIP3    H150074   5.867   4.039  16.455  0.0563  0.4730  0.1580
 9553TIP3    H250075   5.910   3.999  16.594  0.7111 -1.1143 -0.4736
 9554TIP3   OH250076   3.102   3.999  13.501 -0.2561 -0.2244 -0.3122
 9554TIP3    H150077   3.086   4.020  13.593 -0.8445 -0.4187 -0.3666
 9554TIP3    H250078   3.149   3.916  13.503  0.3349  0.1067 -0.1666
 9555TIP3   OH250079   4.991   1.916  16.255  0.5144  0.7003  0.3639
 9555TIP3    H150080   5.063   1.979  16.264  0.9709  0.3663 -0.7134
 9555TIP3    H250081   4.913   1.970  16.241  1.2063  1.0931 -2.6964
 9556TIP3   OH250082   4.388   2.259  13.773 -0.0823 -0.2721 -0.3003
 9556TIP3    H150083   4.346   2.341  13.800  0.4650 -0.4905  1.3669
 9556TIP3    H250084   4.393   2.265  13.678 -0.8069  1.2583 -0.2805
 9557TIP3   OH250085   0.545   6.670  15.629  0.4945  0.4127  0.2494
 9557TIP3    H150086   0.595   6.590  15.648  0.8086  0.4180 -0.5273
 9557TIP3    H250087   0.490   6.682  15.707  0.8873 -0.2167  0.6410
 9558TIP3   OH250088   5.522   0.096  13.052 -0.1457  0.4564 -0.0127
 9558TIP3    H150089   5.522   0.002  13.072  0.4232  0.7425  1.4833
 9558TIP3    H250090   5.479   0.102  12.967 -0.9512 -1.0813  0.2381
 9559TIP3   OH250091   0.002   4.357   4.868  0.0476  0.1591 -0.0015
 9559TIP3    H150092  -0.040   4.272   4.885 -0.3934  0.2520 -0.5812
 9559TIP3    H250093  -0.071   4.419   4.862  0.2139  0.2513 -1.4520
 9560TIP3   OH250094   0.204   1.315  13.493  0.0971 -0.6006  0.1970
 9560TIP3    H150095   0.238   1.375  13.427 -0.9569  0.5239  0.6364
 9560TIP3    H250096   0.141   1.260  13.446 -2.9318  2.1501  0.6997
 9561TIP3   OH250097   2.531   0.947   2.837  0.7724  0.4682  0.2121
 9561TIP3    H150098   2.479   1.010   2.887  0.4818 -0.2191  0.7839
 9561TIP3    H250099   2.468   0.898   2.785  1.1889  2.2610 -2.1481
 9562TIP3   OH250100   5.832   5.610   0.567 -0.3384  0.0760 -0.1362
 9562TIP3    H150101   5.819   5.553   0.491 -2.2750 -1.1519  1.0489
 9562TIP3    H250102   5.745   5.642   0.588  0.3410  1.2991  0.9174
 9563TIP3   OH250103   5.549   2.716  15.439  0.1982  0.2207  0.8411
 9563TIP3    H150104   5.470   2.752  15.478 -0.0497  0.6060  0.0173
 9563TIP3    H250105   5.604   2.692  15.513 -0.9396 -0.6248  1.4303
 9564TIP3   OH250106   2.211   0.437  13.958 -0.4662 -0.2293  0.8094
 9564TIP3    H150107   2.192   0.531  13.948  2.7370  0.4458 -0.0465
 9564TIP3    H250108   2.196   0.420  14.051 -0.4818  1.2891  1.1125
 9565TIP3   OH250109   4.196   2.855  10.348 -0.0968  0.2660 -0.4575
 9565TIP3    H150110   4.179   2.767  10.381  0.5598  0.5003  0.5298
 9565TIP3    H250111   4.151   2.913  10.408 -0.0053  0.6416 -0.7458
 9566TIP3   OH250112   1.522   2.826  16.322 -0.4536  0.5997 -0.2359
 9566TIP3    H150113   1.583   2.889  16.284  0.7847 -1.0134 -1.0600
 9566TIP3    H250114   1.467   2.799  16.248 -1.6712  1.4272  0.3295
 9567TIP3   OH250115   5.940   1.575   0.845 -0.2365  0.3739 -0.0646
 9567TIP3    H150116   5.845   1.570   0.852 -0.2260 -0.1985 -0.3117
 9567TIP3    H250117   5.972   1.493   0.883  0.3221  1.7419  2.7361
 9568TIP3   OH250118   4.467   3.217  14.074  0.2867  0.2337  0.0362
 9568TIP3    H150119   4.422   3.287  14.026  1.0979 -0.3012 -1.5743
 9568TIP3    H250120   4.552   3.254  14.097  1.1725 -0.5239 -1.8129
 9569TIP3   OH250121   6.620   0.108  10.594  0.3954 -0.1971 -0.7015
 9569TIP3    H150122   6.545   0.067  10.551 -1.1771  2.4754 -0.7897
 9569TIP3    H250123   6.582   0.180  10.644  2.8475  0.7928 -0.1134
 9570TIP3   OH250124   4.314   4.594  16.717 -0.1094 -0.2504  0.0071
 9570TIP3    H150125   4.278   4.516  16.759 -0.1572 -0.5095 -0.5067
 9570TIP3    H250126   4.375   4.630  16.782 -3.0812  1.6539  1.9653
 9571TIP3   OH250127   3.294   1.123  15.022 -0.1189 -0.0546  0.0415
 9571TIP3    H150128   3.276   1.104  14.929  0.8111 -0.3114 -0.0900
 9571TIP3    H250129   3.360   1.192  15.019  0.4856 -0.6149  0.5190
 9572TIP3   OH250130   0.326   3.525  14.595 -0.6102  0.0838  0.1864
 9572TIP3    H150131   0.322   3.586  14.668 -0.2180 -1.1541  1.2688
 9572TIP3    H250132   0.410   3.543  14.553 -0.4933  0.2935  0.5070
 9573TIP3   OH250133   1.197   2.686  11.776 -0.5901  0.1392  0.3439
 9573TIP3    H150134   1.213   2.772  11.814 -1.1687  1.2521 -1.7624
 9573TIP3    H250135   1.137   2.703  11.703  1.6019 -1.5639 -2.0230
 9574TIP3   OH250136   1.860   3.078   4.471 -0.2334 -0.1370  0.0913
 9574TIP3    H150137   1.850   3.164   4.513 -0.1386 -0.7744  1.4834
 9574TIP3    H250138   1.771   3.054   4.446 -0.7078 -0.8300  2.2411
 9575TIP3   OH250139   3.261   5.086  16.199 -0.7304  0.0832 -0.2765
 9575TIP3    H150140   3.180   5.057  16.241 -0.5381  0.0211  0.0537
 9575TIP3    H250141   3.329   5.065  16.262 -0.5066  0.5521 -0.3600
 9576TIP3   OH250142   1.139   5.687  14.676 -0.1606  0.3954  0.0131
 9576TIP3    H150143   1.113   5.604  14.717  0.2738  1.0405  1.6544
 9576TIP3    H250144   1.223   5.708  14.716 -0.7298  2.1274  0.3633
 9577TIP3   OH250145   0.105   3.674   5.165  0.1517 -0.2726 -0.7184
 9577TIP3    H150146   0.157   3.595   5.150 -1.4237 -1.2269 -1.3994
 9577TIP3    H250147   0.110   3.722   5.082  2.0769  1.0046  0.0605
 9578TIP3   OH250148   6.443   0.159  14.814  0.0427  0.1282  0.0968
 9578TIP3    H150149   6.509   0.106  14.767  2.4698  0.6295  2.6744
 9578TIP3    H250150   6.410   0.101  14.882 -0.0433  0.7761  0.6129
 9579TIP3   OH250151   1.716   5.658  15.696 -0.0270 -0.0101 -0.5221
 9579TIP3    H150152   1.706   5.587  15.632  1.5382 -0.0538 -0.7606
 9579TIP3    H250153   1.788   5.628  15.752 -1.5889 -0.1550  1.5370
 9580TIP3   OH250154   1.982   6.748  14.274 -0.3154 -0.5803 -0.1032
 9580TIP3    H150155   2.007   6.698  14.197 -0.9184  1.0138 -1.3805
 9580TIP3    H250156   2.060   6.745  14.330  0.2453 -1.4963 -0.8970
 9581TIP3   OH250157   4.768   1.825  16.613  0.4683 -0.7281 -0.1963
 9581TIP3    H150158   4.692   1.881  16.627  0.4055 -1.1643  1.4377
 9581TIP3    H250159   4.818   1.833  16.694  1.2250 -1.8521 -0.5389
 9582TIP3   OH250160   3.282   5.069   2.167  0.1551 -0.7704 -0.4158
 9582TIP3    H150161   3.191   5.063   2.137  0.4411  1.9069 -2.1232
 9582TIP3    H250162   3.334   5.069   2.087  1.3777  1.2297  0.3085
 9583TIP3   OH250163   5.026   3.374  11.201  0.5943  0.2001 -0.0516
 9583TIP3    H150164   5.016   3.384  11.106  0.2103 -1.6810 -0.2422
 9583TIP3    H250165   5.110   3.415  11.221 -0.3355  2.6311 -0.8272
 9584TIP3   OH250166   4.396   5.871   2.283 -0.6598 -0.1442 -0.0939
 9584TIP3    H150167   4.491   5.879   2.291 -0.7368  0.0487  0.7419
 9584TIP3    H250168   4.362   5.953   2.319 -1.2005 -1.1233  1.7737
 9585TIP3   OH250169   4.826   5.325  14.529 -0.1058  0.3654  0.6909
 9585TIP3    H150170   4.861   5.381  14.459 -1.2478 -1.1409 -1.1803
 9585TIP3    H250171   4.732   5.340  14.527 -0.2949 -0.7466  0.9519
 9586TIP3   OH250172   5.112   2.924  15.061 -0.1556  0.1901  0.1258
 9586TIP3    H150173   5.206   2.934  15.046 -0.0611 -0.8371 -0.0720
 9586TIP3    H250174   5.073   2.999  15.017  0.4608 -0.2700 -1.2655
 9587TIP3   OH250175   2.669   4.525  11.421  0.0939  0.1567  0.2834
 9587TIP3    H150176   2.676   4.607  11.373 -0.0101 -0.3787 -0.6703
 9587TIP3    H250177   2.581   4.526  11.459 -0.6348 -0.3286 -1.2981
 9588TIP3   OH250178   3.084   4.688   0.539  0.2325  0.0243 -0.1866
 9588TIP3    H150179   3.118   4.776   0.559 -0.0123  0.0108  0.3287
 9588TIP3    H250180   3.069   4.649   0.625 -0.0511 -0.3692 -0.4137
 9589TIP3   OH250181   2.437   3.021  16.688 -0.3188  0.3696  0.2203
 9589TIP3    H150182   2.372   3.044  16.623 -0.2750 -0.1718 -0.0183
 9589TIP3    H250183   2.485   3.103  16.705 -1.1039  0.7891  0.4605
 9590TIP3   OH250184   3.914   4.328  10.750 -0.1404 -0.1169 -0.6658
 9590TIP3    H150185   3.838   4.335  10.693 -0.4256 -2.2230 -0.6110
 9590TIP3    H250186   3.978   4.388  10.712 -1.0980  0.1645 -1.9003
 9591TIP3   OH250187   5.243   6.644   0.908 -0.5433  0.2967  0.0065
 9591TIP3    H150188   5.247   6.685   0.995  1.8208  0.1910  0.0149
 9591TIP3    H250189   5.315   6.580   0.909 -1.1935 -0.5043 -1.6518
 9592TIP3   OH250190   2.745   4.269   3.336  0.2695  0.1420 -0.1475
 9592TIP3    H150191   2.697   4.337   3.289 -1.2031 -1.6426 -1.3714
 9592TIP3    H250192   2.773   4.311   3.417 -3.7020  1.2924  0.8434
 9593TIP3   OH250193   5.273   0.171   2.026  0.1370  0.4017  0.6969
 9593TIP3    H150194   5.191   0.145   1.983 -0.7489  1.9677  1.3180
 9593TIP3    H250195   5.287   0.105   2.094  1.7940 -2.3630 -2.1065
 9594TIP3   OH250196   3.778   3.377   5.363 -0.0666 -0.0342  0.4010
 9594TIP3    H150197   3.861   3.417   5.386  0.0932 -0.3287  0.3426
 9594TIP3    H250198   3.721   3.450   5.340  0.6452  0.0747 -1.0790
 9595TIP3   OH250199   5.897   1.137  13.280 -0.2558  0.7584  0.3948
 9595TIP3    H150200   5.853   1.072  13.335 -1.1955  0.9931 -0.0451
 9595TIP3    H250201   5.987   1.139  13.311 -0.2121 -0.7238  0.4438
 9596TIP3   OH250202   4.973   3.167  14.286  0.1552  0.1169  0.4436
 9596TIP3    H150203   4.991   3.238  14.347 -0.0009  0.8504 -0.3478
 9596TIP3    H250204   5.041   3.102  14.305  1.5800  1.3534 -0.1737
 9597TIP3   OH250205   4.963   5.489  15.263 -0.0945 -0.2670  0.4446
 9597TIP3    H150206   4.978   5.564  15.321  0.7671  0.0116 -0.1205
 9597TIP3    H250207   4.901   5.434  15.311  0.3984  0.0827  1.5119
 9598TIP3   OH250208   1.871   0.816   1.014  0.2400  0.3495  0.3783
 9598TIP3    H150209   1.889   0.842   1.104 -1.0812  1.8719  0.2601
 9598TIP3    H250210   1.794   0.868   0.989 -0.9460 -1.8231 -0.8180
 9599TIP3   OH250211   5.051   6.125  16.924  0.4776 -0.0236 -0.6330
 9599TIP3    H150212   4.967   6.105  16.966  1.5047 -0.6301  1.2564
 9599TIP3    H250213   5.031   6.197  16.864 -1.0772  1.0656  1.0794
 9600TIP3   OH250214   1.603   3.528  12.024 -0.3526  0.3626 -0.2256
 9600TIP3    H150215   1.564   3.558  12.106 -0.8010  1.9153 -0.9840
 9600TIP3    H250216   1.591   3.600  11.963  2.4563  0.3915 -0.9122
 9601TIP3   OH250217   4.825   5.539  12.066  0.1780  0.5126 -0.1956
 9601TIP3    H150218   4.898   5.518  12.124 -0.1091 -1.3460 -0.4481
 9601TIP3    H250219   4.866   5.549  11.979  0.1488 -0.4866 -0.3309
 9602TIP3   OH250220   4.864   3.843   5.536 -0.3775  0.3846  0.3569
 9602TIP3    H150221   4.776   3.859   5.502  0.1229 -1.0861 -1.8222
 9602TIP3    H250222   4.900   3.930   5.551 -2.2051  1.0188  1.4096
 9603TIP3   OH250223   2.450   2.771   1.551  0.2542 -0.2520 -0.3499
 9603TIP3    H150224   2.524   2.780   1.491  0.2243  1.5847 -0.1681
 9603TIP3    H250225   2.480   2.813   1.632  0.1082 -2.2315  0.8007
 9604TIP3   OH250226   2.049   5.843   2.683 -0.6126 -0.2976 -0.5512
 9604TIP3    H150227   2.109   5.801   2.621  0.0278 -0.7175  0.3368
 9604TIP3    H250228   2.014   5.918   2.634  1.1440  0.3652 -0.8963
 9605TIP3   OH250229   6.789   5.290  16.395 -0.1460  0.6172  0.0350
 9605TIP3    H150230   6.815   5.381  16.377  0.2101  0.6699  0.7755
 9605TIP3    H250231   6.783   5.249  16.308  1.7486  0.7885 -0.2243
 9606TIP3   OH250232   0.895   6.019  14.854 -0.3588 -0.1388  0.5472
 9606TIP3    H150233   0.826   6.083  14.869 -0.7031 -0.5633  0.8369
 9606TIP3    H250234   0.895   5.966  14.934 -1.1709 -1.5021 -0.3242
 9607TIP3   OH250235   4.852   6.309   5.057  0.3847  0.1958 -0.4215
 9607TIP3    H150236   4.787   6.310   4.987 -1.4214 -0.2882  1.1747
 9607TIP3    H250237   4.929   6.351   5.018  0.0455 -1.5023 -3.1855
 9608TIP3   OH250238   2.276   5.632  12.203  0.3358  0.4684  0.1839
 9608TIP3    H150239   2.250   5.558  12.259 -0.3722  0.5276 -0.0531
 9608TIP3    H250240   2.370   5.622  12.193  0.1440 -0.8920 -0.5276
 9609TIP3   OH250241   6.053   0.243  16.528 -0.0355 -0.4926 -1.1176
 9609TIP3    H150242   6.102   0.323  16.546 -1.0010  0.6007 -3.1131
 9609TIP3    H250243   6.074   0.186  16.602  2.0368  0.9313 -0.5058
 9610TIP3   OH250244   6.793   3.139  12.353  0.0390 -0.0503 -0.3157
 9610TIP3    H150245   6.825   3.206  12.414  1.2100 -1.2363  0.4461
 9610TIP3    H250246   6.704   3.120  12.382  0.4547 -0.3325  0.8451
 9611TIP3   OH250247   0.514   4.529   3.599  0.1094  0.0618  0.1511
 9611TIP3    H150248   0.450   4.480   3.651 -0.1484  0.2499  0.0139
 9611TIP3    H250249   0.549   4.594   3.661  0.1911 -0.0611  0.2350
 9612TIP3   OH250250   0.019   3.768  16.710  0.1731 -0.0964 -0.2191
 9612TIP3    H150251   0.089   3.768  16.644 -2.2823 -3.4462 -3.2046
 9612TIP3    H250252   0.044   3.698  16.771 -0.8495 -1.8970 -1.7842
 9613TIP3   OH250253   6.319   4.493   1.451 -0.4198 -0.1726 -0.1797
 9613TIP3    H150254   6.287   4.403   1.457 -0.6719 -0.1293 -0.7896
 9613TIP3    H250255   6.340   4.517   1.541  0.0937 -0.9999 -0.0616
 9614TIP3   OH250256   5.951   5.871   4.128  0.8157 -0.7779 -0.1330
 9614TIP3    H150257   5.872   5.822   4.148 -1.4642  1.4449 -2.8390
 9614TIP3    H250258   6.010   5.807   4.087 -1.3225 -1.7245 -1.9166
 9615TIP3   OH250259   2.832   3.508   5.147 -0.2427 -0.3297 -0.2703
 9615TIP3    H150260   2.748   3.548   5.168  0.7910  1.4223  0.7462
 9615TIP3    H250261   2.860   3.466   5.228  0.7241  0.7552 -0.0199
 9616TIP3   OH250262   1.851   5.209  16.443  0.4275 -0.5440  0.2287
 9616TIP3    H150263   1.812   5.273  16.503 -0.1616 -1.6212  1.0434
 9616TIP3    H250264   1.827   5.124  16.481 -2.6475 -1.4295 -3.1015
 9617TIP3   OH250265   6.766   5.047  17.129 -0.2923 -0.3135 -0.2274
 9617TIP3    H150266   6.840   5.076  17.184  0.0340 -0.7807 -0.4099
 9617TIP3    H250267   6.704   5.009  17.191  0.6832 -2.1066 -0.2906
 9618TIP3   OH250268   3.996   5.236   4.070 -0.1274  0.2020 -0.3743
 9618TIP3    H150269   4.022   5.285   4.148  1.6693 -0.7438 -0.3476
 9618TIP3    H250270   3.913   5.277   4.044  0.9125  2.7929  0.0391
 9619TIP3   OH250271   0.890   2.805  12.308 -0.4250  0.0046  0.4123
 9619TIP3    H150272   0.948   2.860  12.256 -1.4045  1.1027  0.4422
 9619TIP3    H250273   0.866   2.859  12.383 -1.0200 -0.6362  0.6981
 9620TIP3   OH250274   3.296   4.631   5.704 -0.2572  0.3422 -0.0485
 9620TIP3    H150275   3.204   4.607   5.701 -0.5439  1.4731 -1.3308
 9620TIP3    H250276   3.298   4.716   5.747  0.3760 -0.3444  1.3494
 9621TIP3   OH250277   3.960   3.701  12.051 -0.2149  0.5672 -0.2088
 9621TIP3    H150278   4.042   3.655  12.032 -1.6472 -2.6787  0.7058
 9621TIP3    H250279   3.981   3.761  12.122  1.0492 -1.5859  1.3498
 9622TIP3   OH250280   3.937   5.083  14.188  0.2242 -0.3565  0.0219
 9622TIP3    H150281   3.922   5.107  14.279  0.6529  1.9829 -0.4549
 9622TIP3    H250282   4.030   5.060  14.184  1.0649  2.6302 -0.3144
 9623TIP3   OH250283   2.433   1.100  16.046  0.1996 -0.1501  0.2888
 9623TIP3    H150284   2.408   1.055  16.127  2.6271 -1.4587  0.4086
 9623TIP3    H250285   2.479   1.034  15.995  0.3666  1.1710 -1.3565
 9624TIP3   OH250286   6.296   0.133   3.697  0.0492 -0.2179 -0.3533
 9624TIP3    H150287   6.323   0.163   3.610  0.9976 -0.4078 -0.1454
 9624TIP3    H250288   6.376   0.140   3.750 -0.2724 -0.9881  0.2615
 9625TIP3   OH250289   2.292   5.311  14.768 -0.2757 -0.0137 -0.6537
 9625TIP3    H150290   2.298   5.322  14.673 -0.1883 -0.3524 -0.6869
 9625TIP3    H250291   2.280   5.217  14.781 -0.4130  0.0449 -0.3356
 9626TIP3   OH250292   6.614   2.949  15.544 -0.1218  0.0299  0.0622
 9626TIP3    H150293   6.532   2.957  15.495 -0.4346 -1.0127  0.3954
 9626TIP3    H250294   6.624   3.033  15.587  0.0803  0.9323 -1.6532
 9627TIP3   OH250295   0.106   2.952   0.583 -0.5792  0.5574 -0.2008
 9627TIP3    H150296   0.079   2.861   0.595  1.6125  0.0411  1.4486
 9627TIP3    H250297   0.192   2.946   0.540  0.3550  1.7320  1.4154
 9628TIP3   OH250298   3.904   6.247  12.449  0.5678 -0.3300 -0.3083
 9628TIP3    H150299   3.822   6.263  12.404 -0.2591 -0.2888  1.1545
 9628TIP3    H250300   3.969   6.298  12.400 -0.5445  0.8712 -0.5721
 9629TIP3   OH250301   5.548   5.402  14.504  0.2236 -0.2577  0.7341
 9629TIP3    H150302   5.516   5.445  14.583 -1.0493 -0.2284  0.2133
 9629TIP3    H250303   5.488   5.329  14.490  1.2268 -1.0771  0.5314
 9630TIP3   OH250304   2.850   3.765  15.153  0.3262 -0.1012 -0.3446
 9630TIP3    H150305   2.936   3.780  15.192  0.1805  2.1607 -0.7562
 9630TIP3    H250306   2.800   3.844  15.174 -0.9156 -0.3721 -2.0420
 9631TIP3   OH250307   1.879   3.123  16.750  0.1617 -0.4954  0.1319
 9631TIP3    H150308   1.968   3.087  16.756  0.6579  0.5426 -0.5604
 9631TIP3    H250309   1.890   3.216  16.769 -0.1378  0.4200 -3.4072
 9632TIP3   OH250310   3.672   3.964   3.427 -0.0446 -0.1080  0.2466
 9632TIP3    H150311   3.620   4.044   3.419  0.7898  0.4383  0.0459
 9632TIP3    H250312   3.751   3.983   3.375  1.7459  0.2912  2.9368
 9633TIP3   OH250313   1.533   3.975   3.866  0.2185  0.5658  0.0865
 9633TIP3    H150314   1.620   3.934   3.876  0.1799  0.7251  1.0861
 9633TIP3    H250315   1.540   4.023   3.784  0.5031 -0.8578 -0.7716
 9634TIP3   OH250316   5.338   1.313   4.350 -0.2796  0.3646 -0.0806
 9634TIP3    H150317   5.335   1.282   4.260  0.2919 -1.4943  0.4928
 9634TIP3    H250318   5.298   1.243   4.401  1.2722  0.4124  1.3058
 9635TIP3   OH250319   2.864   5.678   1.707 -0.0962 -0.6965 -0.5977
 9635TIP3    H150320   2.871   5.628   1.789  2.1124  1.8126  0.8977
 9635TIP3    H250321   2.774   5.710   1.707  0.3043  0.6917  1.8591
 9636TIP3   OH250322   5.933   5.877   1.680  0.5002  0.7523 -0.0356
 9636TIP3    H150323   5.902   5.874   1.770 -3.0048 -2.9398 -1.0380
 9636TIP3    H250324   6.008   5.818   1.679 -0.3902 -0.4293  0.2867
 9637TIP3   OH250325   4.613   1.393  11.671 -0.8717  0.2067  0.0372
 9637TIP3    H150326   4.678   1.345  11.722 -1.6434  0.1372  0.9900
 9637TIP3    H250327   4.537   1.335  11.668 -0.6370 -0.0794 -1.7938
 9638TIP3   OH250328   4.171   6.218  14.262 -0.0575  0.1603 -0.1383
 9638TIP3    H150329   4.093   6.217  14.317 -0.3689  0.9736 -0.5706
 9638TIP3    H250330   4.204   6.128  14.267 -1.8819 -0.6178 -1.2088
 9639TIP3   OH250331   2.460   1.437  14.427  0.2415 -0.1524 -0.3299
 9639TIP3    H150332   2.473   1.485  14.509  0.8175 -2.4694  1.0248
 9639TIP3    H250333   2.548   1.411  14.401 -0.1624 -1.7678 -0.1596
 9640TIP3   OH250334   0.286   5.671  12.309 -0.2709 -0.5815 -0.3181
 9640TIP3    H150335   0.195   5.694  12.291 -0.8677  1.1064  3.7061
 9640TIP3    H250336   0.336   5.751  12.291 -0.5693  0.4079  2.7403
 9641TIP3   OH250337   6.138   1.349   3.153 -0.5074  0.1903 -0.4048
 9641TIP3    H150338   6.190   1.417   3.197  0.1054 -0.7285  0.3306
 9641TIP3    H250339   6.110   1.390   3.071 -1.0073  1.6727  0.4631
 9642TIP3   OH250340   4.801   4.836   2.373 -0.0701  0.1753  0.8622
 9642TIP3    H150341   4.879   4.783   2.392  0.5877  0.6335 -0.4985
 9642TIP3    H250342   4.733   4.796   2.427  1.4056  0.7426  3.3610
 9643TIP3   OH250343   0.327   0.588  15.649  0.6249  0.0673 -0.4371
 9643TIP3    H150344   0.298   0.558  15.735  3.0994 -1.7024 -0.1204
 9643TIP3    H250345   0.286   0.526  15.588  1.0965 -0.4266 -0.2643
 9644TIP3   OH250346   1.483   4.534  14.080  0.4834 -0.0663  0.6483
 9644TIP3    H150347   1.548   4.582  14.030 -0.2746  1.0724  0.7346
 9644TIP3    H250348   1.504   4.442  14.064  0.1191  0.2307 -1.9738
 9645TIP3   OH250349   6.220   1.460   5.748  0.1874  0.0891 -0.2843
 9645TIP3    H150350   6.185   1.540   5.709 -0.1320 -1.1026 -2.6215
 9645TIP3    H250351   6.279   1.425   5.682  0.4725 -1.5203  0.7648
 9646TIP3   OH250352   5.653   4.746   2.384  0.1517 -0.5104  0.4326
 9646TIP3    H150353   5.677   4.732   2.292 -0.9917  0.2752 -0.0072
 9646TIP3    H250354   5.671   4.662   2.427 -0.3271 -1.2285 -0.7309
 9647TIP3   OH250355   0.936   4.000  13.516 -0.1730 -1.0806  1.2101
 9647TIP3    H150356   0.984   4.000  13.434  1.5014 -1.4513  2.1464
 9647TIP3    H250357   0.861   4.056  13.500  0.5726 -0.4765 -0.3198
 9648TIP3   OH250358   6.722   5.559   6.315  0.5115  0.2211 -0.0618
 9648TIP3    H150359   6.708   5.512   6.397  0.4599 -2.2360 -1.3702
 9648TIP3    H250360   6.659   5.519   6.254  1.5120  0.9722 -1.6367
 9649TIP3   OH250361   1.751   2.139   2.921  0.1423 -0.0535 -0.3389
 9649TIP3    H150362   1.757   2.112   2.830 -0.7694 -0.5785 -0.2570
 9649TIP3    H250363   1.667   2.104   2.951  0.6525 -0.3340  0.8470
 9650TIP3   OH250364   5.300   5.943  13.645  0.3398  0.8454 -0.5013
 9650TIP3    H150365   5.394   5.931  13.632  0.5019  0.4430  0.9395
 9650TIP3    H250366   5.264   5.854  13.647  0.3778  0.8312  1.9373
 9651TIP3   OH250367   0.392   1.223  16.871 -0.7475 -0.0360 -0.4987
 9651TIP3    H150368   0.385   1.260  16.959  0.6688  1.1965 -0.8803
 9651TIP3    H250369   0.324   1.155  16.868  0.6753 -1.7572  2.3287
 9652TIP3   OH250370   4.228   0.668  13.943 -0.0240 -0.3519  0.3351
 9652TIP3    H150371   4.247   0.762  13.937 -0.9449 -0.1349  0.7053
 9652TIP3    H250372   4.156   0.653  13.882  0.4195 -0.9071 -0.0594
 9653TIP3   OH250373   5.978   0.455  13.862  0.2353 -0.3751 -0.5165
 9653TIP3    H150374   5.981   0.367  13.899  0.3901  0.0758  0.5673
 9653TIP3    H250375   6.014   0.444  13.774 -0.3925 -1.5161 -0.6616
 9654TIP3   OH250376   0.402   1.606  12.921 -0.0936 -0.2920  0.7227
 9654TIP3    H150377   0.468   1.546  12.956  1.2925 -0.7946 -2.3435
 9654TIP3    H250378   0.436   1.694  12.942  1.5086 -0.5471 -0.5315
 9655TIP3   OH250379   3.079   3.794   5.457 -0.5733  0.0297 -0.3257
 9655TIP3    H150380   3.101   3.794   5.364 -0.0751  0.4413 -0.2108
 9655TIP3    H250381   3.079   3.886   5.482  1.3479 -0.1642  0.5494
 9656TIP3   OH250382   1.046   6.555  14.035 -0.4471 -0.5766 -0.4206
 9656TIP3    H150383   1.104   6.628  14.056  0.5199 -1.4519  0.0696
 9656TIP3    H250384   1.097   6.500  13.976 -2.8542  1.4964 -4.9051
 9657TIP3   OH250385   1.444   4.584   0.167 -0.1447  0.8226 -0.3931
 9657TIP3    H150386   1.473   4.676   0.165 -2.5990  1.6552 -1.7450
 9657TIP3    H250387   1.404   4.574   0.253  1.5028  0.5017  0.3727
 9658TIP3   OH250388   3.874   5.271  11.636  0.7072  0.0511  0.0889
 9658TIP3    H150389   3.856   5.307  11.723 -2.0880 -0.9938  0.0666
 9658TIP3    H250390   3.924   5.191  11.653 -2.3482 -1.8135  1.1547
 9659TIP3   OH250391   1.346   3.318  16.272 -0.0556 -0.4116  0.0318
 9659TIP3    H150392   1.415   3.288  16.330 -0.4660 -2.1802 -0.3504
 9659TIP3    H250393   1.373   3.290  16.185 -0.1919  0.8530 -0.4431
 9660TIP3   OH250394   4.335   6.736   0.832  0.1272  0.0883  0.0990
 9660TIP3    H150395   4.259   6.794   0.831 -0.9624 -1.2317 -2.6915
 9660TIP3    H250396   4.395   6.773   0.768  0.2212 -0.8137 -0.3579
 9661TIP3   OH250397   1.845   2.473  14.154  0.0386 -0.7168 -0.1462
 9661TIP3    H150398   1.909   2.439  14.092 -0.1827 -1.9377  0.2616
 9661TIP3    H250399   1.764   2.482  14.103  0.6362  1.3876 -0.8094
 9662TIP3   OH250400   0.208   1.022  13.908  0.3006  0.1196  0.5700
 9662TIP3    H150401   0.144   1.029  13.980 -2.3740 -1.9521 -1.3691
 9662TIP3    H250402   0.194   1.101  13.856 -0.4894 -0.1655  0.3365
 9663TIP3   OH250403   0.153   3.816   4.629 -0.2165  0.9522 -0.1168
 9663TIP3    H150404   0.071   3.817   4.581 -0.2419 -0.7498 -0.1759
 9663TIP3    H250405   0.214   3.770   4.572  0.4034  0.9912  0.4920
 9664TIP3   OH250406   5.831   3.588   2.718 -0.1882 -0.1616  0.6825
 9664TIP3    H150407   5.901   3.523   2.720 -0.6216 -0.6191  1.1364
 9664TIP3    H250408   5.864   3.661   2.771  1.1906  0.9477 -1.5246
 9665TIP3   OH250409   2.064   4.756   4.621  0.0436 -0.2154 -0.4040
 9665TIP3    H150410   1.989   4.809   4.649 -0.4925 -0.5336 -1.1815
 9665TIP3    H250411   2.106   4.808   4.552  0.3234 -0.2056 -0.2288
 9666TIP3   OH250412   5.891   6.410   4.030  0.0372  0.1218 -0.4286
 9666TIP3    H150413   5.958   6.344   4.050 -0.9382 -0.6000  0.6315
 9666TIP3    H250414   5.823   6.361   3.984 -0.0154  0.7271 -1.0066
 9667TIP3   OH250415   6.705   5.960  13.519  0.6667  0.4859  0.1401
 9667TIP3    H150416   6.626   5.964  13.465 -1.0391  1.0215  2.5147
 9667TIP3    H250417   6.752   5.882  13.488 -0.1911  0.7728 -2.0514
 9668TIP3   OH250418   0.888   5.037  12.583  0.2119  0.3525  0.3158
 9668TIP3    H150419   0.925   5.034  12.671 -0.0458  1.9879  0.5237
 9668TIP3    H250420   0.949   5.092  12.533 -0.9517  1.5883  0.1891
 9669TIP3   OH250421   4.087   2.471   3.086 -0.8802 -0.5010  0.2091
 9669TIP3    H150422   3.999   2.481   3.049 -1.0873 -1.8688  0.2685
 9669TIP3    H250423   4.100   2.376   3.091  0.4943 -0.3175  0.4676
 9670TIP3   OH250424   1.970   1.221  11.500 -0.2831 -0.0167  0.1598
 9670TIP3    H150425   1.906   1.178  11.443 -1.1311  2.5914 -0.9809
 9670TIP3    H250426   2.053   1.214  11.453 -0.3127 -0.7424  0.2002
 9671TIP3   OH250427   3.096   3.524   5.473  0.1199  0.5209  0.3060
 9671TIP3    H150428   3.044   3.484   5.543  0.1930 -1.1852 -0.5506
 9671TIP3    H250429   3.080   3.618   5.481 -3.0252  0.1060  0.1674
 9672TIP3   OH250430   5.004   1.844   0.054 -0.1277 -0.1953  0.0321
 9672TIP3    H150431   5.022   1.833  -0.039  0.0754 -0.2397  0.0771
 9672TIP3    H250432   5.021   1.758   0.092 -0.8050 -0.3487  0.0163
 9673TIP3   OH250433   2.473   1.062   2.554 -0.2627 -0.0173 -0.6021
 9673TIP3    H150434   2.542   1.050   2.489 -0.2731  0.4100 -0.6954
 9673TIP3    H250435   2.519   1.098   2.630 -0.0159 -1.8063  0.1310
 9674TIP3   OH250436   4.812   0.452  13.583  0.5293 -0.0206  0.4851
 9674TIP3    H150437   4.770   0.371  13.555 -1.5885  1.2245 -0.1973
 9674TIP3    H250438   4.868   0.426  13.657  0.5922 -2.1985 -0.2474
 9675TIP3   OH250439   2.651   0.111   2.382  0.2683 -0.1770 -0.0127
 9675TIP3    H150440   2.676   0.197   2.347  1.5098 -0.5425 -0.0708
 9675TIP3    H250441   2.696   0.048   2.326 -1.3197 -0.9202 -0.5090
 9676TIP3   OH250442   5.992   2.148   0.003  0.2353  0.0826 -0.6820
 9676TIP3    H150443   6.056   2.200   0.051  0.9678 -2.1677  0.9409
 9676TIP3    H250444   5.909   2.165   0.047  0.5984 -0.6165  0.3083
 9677TIP3   OH250445   0.785   3.065   6.280 -0.5045 -0.0536  0.1442
 9677TIP3    H150446   0.867   3.091   6.238 -0.6089  0.6313  0.3560
 9677TIP3    H250447   0.733   3.145   6.283 -0.2558  0.0818  2.1569
 9678TIP3   OH250448   2.736   2.769   5.282  0.6477 -0.0240  0.2127
 9678TIP3    H150449   2.791   2.838   5.245  2.2461 -1.5686 -0.4225
 9678TIP3    H250450   2.749   2.695   5.224 -0.3243 -1.1464  1.3814
 9679TIP3   OH250451   4.630   4.937  16.518  0.1933  0.1455  0.3028
 9679TIP3    H150452   4.545   4.892  16.517  0.6702 -0.7957 -0.1922
 9679TIP3    H250453   4.659   4.932  16.609 -0.0969  0.1053  0.3938
 9680TIP3   OH250454   2.139   4.099  15.041 -0.1546  0.1474 -0.2157
 9680TIP3    H150455   2.044   4.104  15.038 -0.0840  1.4113 -0.9399
 9680TIP3    H250456   2.166   4.098  14.949  0.5545  0.0744 -0.0161
 9681TIP3   OH250457   0.820   4.992   5.104 -0.3917 -0.2216 -0.0978
 9681TIP3    H150458   0.853   4.905   5.129  0.5644 -0.0099 -0.5738
 9681TIP3    H250459   0.867   5.052   5.162  1.3735  0.2256 -1.8622
 9682TIP3   OH250460   4.453   1.295   2.360 -0.0751 -0.1354 -0.2437
 9682TIP3    H150461   4.361   1.323   2.366  0.5518  2.4332 -1.6398
 9682TIP3    H250462   4.485   1.301   2.450 -1.4122 -1.8190  0.4133
 9683TIP3   OH250463   6.456   0.299  10.732 -0.7408 -0.0374  0.1084
 9683TIP3    H150464   6.432   0.287  10.823  1.7434 -0.3723  0.7906
 9683TIP3    H250465   6.423   0.386  10.709 -1.1781  0.1434  1.3924
 9684TIP3   OH250466   4.434   2.676   6.252 -0.2685  0.4442  0.1134
 9684TIP3    H150467   4.465   2.614   6.317  2.1642  0.9809 -0.4321
 9684TIP3    H250468   4.463   2.762   6.284 -0.5671  0.9163 -0.8281
 9685TIP3   OH250469   2.105   6.593  12.451  0.0073  0.6788 -0.0410
 9685TIP3    H150470   2.042   6.521  12.450  0.0934  0.5160  2.0657
 9685TIP3    H250471   2.104   6.625  12.541  3.7433 -0.0652  0.4219
 9686TIP3   OH250472   3.950   0.252  11.724  0.0886 -0.1005  0.2265
 9686TIP3    H150473   3.960   0.157  11.719  1.1980 -0.0375  0.9755
 9686TIP3    H250474   3.949   0.281  11.632 -0.5557 -0.8580 -0.0112
 9687TIP3   OH250475   4.444   6.732   0.185 -0.4023 -0.5788  0.0656
 9687TIP3    H150476   4.454   6.675   0.109  0.0511  0.3695 -0.6149
 9687TIP3    H250477   4.350   6.753   0.187 -0.9006 -2.7171  1.3786
 9688TIP3   OH250478   6.296   0.135  11.248 -0.5083 -0.7263 -0.0052
 9688TIP3    H150479   6.294   0.040  11.241  0.2427 -0.8125  0.7325
 9688TIP3    H250480   6.204   0.161  11.255 -0.7204 -1.3849 -0.3023
 9689TIP3   OH250481   6.673   3.691   3.167  0.0088  0.5727 -0.2492
 9689TIP3    H150482   6.672   3.658   3.257 -0.2188 -0.2117 -0.5366
 9689TIP3    H250483   6.690   3.614   3.113 -1.3823  0.7682 -0.9996
 9690TIP3   OH250484   0.076   6.387  16.165  0.5610 -0.1630 -0.2223
 9690TIP3    H150485   0.004   6.358  16.222  0.6980 -0.2415 -0.0868
 9690TIP3    H250486   0.043   6.375  16.076 -0.9611  3.1897 -0.2274
 9691TIP3   OH250487   3.799   3.861  13.522 -0.1882 -0.0243  0.2204
 9691TIP3    H150488   3.861   3.885  13.591  0.8147 -0.3122 -0.5580
 9691TIP3    H250489   3.719   3.836  13.569  0.6205 -0.6501  1.3099
 9692TIP3   OH250490   4.227   0.328  16.669  0.5252 -0.3101  0.1387
 9692TIP3    H150491   4.177   0.247  16.660  1.1214 -0.5889 -0.8116
 9692TIP3    H250492   4.241   0.337  16.763  0.4434 -1.3083  0.2567
 9693TIP3   OH250493   1.241   6.499   5.676 -0.0500 -0.1473 -0.4701
 9693TIP3    H150494   1.278   6.442   5.608 -0.2510  0.9585 -1.5428
 9693TIP3    H250495   1.303   6.571   5.683 -1.0718  0.7968 -0.9808
 9694TIP3   OH250496   3.921   1.643  15.990 -0.1456  0.1983 -0.2466
 9694TIP3    H150497   3.958   1.731  15.977 -1.0953  0.4201 -1.6361
 9694TIP3    H250498   3.834   1.659  16.027  0.2026 -0.2357  0.8113
 9695TIP3   OH250499   4.625   5.760  13.117 -0.2362  0.2180  0.0513
 9695TIP3    H150500   4.694   5.784  13.055 -0.1781  0.3948  0.1876
 9695TIP3    H250501   4.575   5.840  13.130 -0.7036 -0.0029 -0.3503
 9696TIP3   OH250502   2.576   6.338  16.082  0.1987  0.7032  0.1573
 9696TIP3    H150503   2.521   6.262  16.061  0.6724 -0.2080  1.9653
 9696TIP3    H250504   2.524   6.387  16.146  1.3336 -0.0504  1.7210
 9697TIP3   OH250505   5.179   6.313  11.142 -0.0983  0.5168  0.3895
 9697TIP3    H150506   5.185   6.314  11.047 -0.3373 -0.8841  0.3286
 9697TIP3    H250507   5.181   6.220  11.165  2.0269  0.8458  1.8857
 9698TIP3   OH250508   2.104   3.362   3.634 -0.1411  0.1685  0.1815
 9698TIP3    H150509   2.040   3.379   3.565  1.5418 -0.9708 -1.7651
 9698TIP3    H250510   2.055   3.312   3.700 -1.7218  1.0674 -0.2493
 9699TIP3   OH250511   5.766   0.555   0.380 -0.1427  0.1265  0.0386
 9699TIP3    H150512   5.716   0.586   0.303  0.7352 -0.0092 -0.5987
 9699TIP3    H250513   5.713   0.484   0.415 -1.5695  1.4817  0.7697
 9700TIP3   OH250514   0.920   5.845  14.635 -0.2894 -0.4648  0.6329
 9700TIP3    H150515   0.907   5.913  14.702 -0.6864  0.5460 -0.4485
 9700TIP3    H250516   1.001   5.801  14.661 -0.5768 -0.2739  1.9237
 9701TIP3   OH250517   6.233   6.228  17.050  0.1303 -0.9477  0.2483
 9701TIP3    H150518   6.150   6.185  17.028 -1.3662  1.2310  1.3856
 9701TIP3    H250519   6.242   6.216  17.144  0.1734  0.3705  0.4207
 9702TIP3   OH250520   4.545   0.654  12.767 -0.0801  0.0691  0.6666
 9702TIP3    H150521   4.616   0.629  12.826  1.0668  1.2301 -0.1819
 9702TIP3    H250522   4.577   0.731  12.721 -1.4569 -0.0285 -0.5495
 9703TIP3   OH250523   2.134   5.763  14.185 -0.2295 -0.3295  0.1505
 9703TIP3    H150524   2.217   5.740  14.227 -1.2851 -1.6178  1.6335
 9703TIP3    H250525   2.143   5.730  14.095  0.3685 -1.6621  0.6808
 9704TIP3   OH250526   6.436   5.565  12.690  0.3164  0.1700  0.4833
 9704TIP3    H150527   6.422   5.473  12.713 -0.6873  0.7188  2.2763
 9704TIP3    H250528   6.531   5.574  12.679  0.2706 -1.6459 -2.6177
 9705TIP3   OH250529   2.125   5.257   2.189  0.4077  0.3724 -0.8476
 9705TIP3    H150530   2.044   5.305   2.204 -0.8687 -1.6497 -0.9326
 9705TIP3    H250531   2.182   5.283   2.262 -0.5876  1.2221 -0.3543
 9706TIP3   OH250532   0.027   2.906  15.096  0.4666 -0.1374  0.6009
 9706TIP3    H150533   0.113   2.948  15.100  0.0611  0.7191  0.3319
 9706TIP3    H250534   0.007   2.884  15.188  1.7411 -1.9671  0.5002
 9707TIP3   OH250535   2.622   2.638  17.078  0.5304 -0.4303  0.2834
 9707TIP3    H150536   2.541   2.599  17.110  1.7049 -1.8014  1.7388
 9707TIP3    H250537   2.655   2.576  17.013  1.2197 -0.7273  0.8987
 9708TIP3   OH250538   2.354   5.001   4.763 -0.2700  0.1765 -0.0592
 9708TIP3    H150539   2.351   5.083   4.715 -1.2279  0.9618  1.2660
 9708TIP3    H250540   2.262   4.980   4.781 -0.0472  1.7486  4.2945
 9709TIP3   OH250541   1.613   3.886  13.570  0.6195  0.6821 -1.1591
 9709TIP3    H150542   1.684   3.833  13.534 -0.0736  0.0136 -1.5886
 9709TIP3    H250543   1.535   3.853  13.527 -0.2099  0.1422  0.6631
 9710TIP3   OH250544   1.601   4.069  14.199  0.1044  0.6247  0.4617
 9710TIP3    H150545   1.559   3.994  14.241  1.2864  1.0058  2.4202
 9710TIP3    H250546   1.655   4.030  14.131  1.5954 -0.4691  2.1887
 9711TIP3   OH250547   3.455   0.183   0.908 -0.1382 -0.5451 -0.0983
 9711TIP3    H150548   3.528   0.245   0.900  0.4356 -1.1067  0.7021
 9711TIP3    H250549   3.411   0.208   0.989 -1.3861  0.3394 -1.0057
 9712TIP3   OH250550   1.183   6.545  17.020  0.2455  0.2829  0.3633
 9712TIP3    H150551   1.152   6.629  17.055 -0.8422 -0.0479  0.2436
 9712TIP3    H250552   1.236   6.569  16.944  0.4881  0.8853  0.7134
 9713TIP3   OH250553   3.740   2.501  11.382 -0.0393  0.8253  0.0503
 9713TIP3    H150554   3.663   2.470  11.334  0.0855  1.6771 -0.7438
 9713TIP3    H250555   3.784   2.421  11.411 -0.4426  0.2963 -0.7564
 9714TIP3   OH250556   5.014   3.931   4.038 -0.3686  0.2049 -0.3481
 9714TIP3    H150557   5.013   3.847   3.993  0.1795  0.6842 -1.2835
 9714TIP3    H250558   5.091   3.928   4.094 -1.7167 -0.8787  1.5888
 9715TIP3   OH250559   1.029   2.071  16.884  0.1498  0.5945  0.1733
 9715TIP3    H150560   1.116   2.106  16.903  0.7863 -0.1305 -1.2663
 9715TIP3    H250561   1.034   1.979  16.908 -0.2374  0.5615  0.1315
 9716TIP3   OH250562   2.878   4.920   2.343  0.2739  0.0921 -0.1393
 9716TIP3    H150563   2.802   4.933   2.400  0.8450 -1.5187  1.0857
 9716TIP3    H250564   2.925   5.003   2.346  1.1294 -0.3599  3.1314
 9717TIP3   OH250565   1.955   2.594   0.308 -0.0062 -0.2165  0.0980
 9717TIP3    H150566   1.960   2.636   0.394  0.1898  2.0745 -0.9816
 9717TIP3    H250567   1.887   2.528   0.318 -0.7843  0.7786  1.7068
 9718TIP3   OH250568   4.855   6.402  14.895 -0.2461  0.3272 -0.0527
 9718TIP3    H150569   4.822   6.378  14.808 -4.0458 -1.9583  1.7296
 9718TIP3    H250570   4.903   6.325  14.924 -1.9776 -0.4089  1.0522
 9719TIP3   OH250571   4.986   3.094   5.467 -0.5575 -0.7754 -0.0799
 9719TIP3    H150572   4.914   3.100   5.529 -1.4235  0.1607 -1.1170
 9719TIP3    H250573   5.052   3.155   5.499  0.0657 -2.0556  1.1875
 9720TIP3   OH250574   3.588   5.421  10.752  0.0432  0.1601 -0.0301
 9720TIP3    H150575   3.627   5.481  10.817  0.9162  2.2152 -2.2900
 9720TIP3    H250576   3.658   5.406  10.688 -0.7638 -1.8480 -0.5003
 9721TIP3   OH250577   1.252   0.897  11.076 -0.8187  0.3248  0.2551
 9721TIP3    H150578   1.221   0.988  11.080  1.2396  1.0470  2.0060
 9721TIP3    H250579   1.238   0.863  11.164 -2.0457 -1.2968 -0.5104
 9722TIP3   OH250580   1.518   2.078  11.392  0.2420  0.8283  0.3246
 9722TIP3    H150581   1.580   2.029  11.338  0.3499  0.3462  0.8731
 9722TIP3    H250582   1.432   2.057  11.356  0.2705  0.0286  0.7133
 9723TIP3   OH250583   1.507   5.244   1.545  0.2717  0.2687  0.7050
 9723TIP3    H150584   1.511   5.166   1.489  0.3917 -0.4119  1.6307
 9723TIP3    H250585   1.501   5.317   1.484 -2.2066 -0.5813 -0.1656
 9724TIP3   OH250586   2.787   6.147  16.276 -0.1885 -0.7734  0.0005
 9724TIP3    H150587   2.733   6.068  16.270  0.1014 -1.2542  2.5457
 9724TIP3    H250588   2.730   6.211  16.319  0.4446 -0.4939  0.4297
 9725TIP3   OH250589   4.506   5.488   2.251  0.2201 -0.0819 -1.2172
 9725TIP3    H150590   4.424   5.532   2.229  0.4846  0.8823 -0.3511
 9725TIP3    H250591   4.499   5.468   2.344 -0.2050 -2.6162 -1.7221
 9726TIP3   OH250592   1.301   6.610  12.257  0.5691 -0.0745 -0.0159
 9726TIP3    H150593   1.247   6.531  12.249  2.3134 -1.1727 -1.4540
 9726TIP3    H250594   1.255   6.675  12.204 -1.0213  0.0357  1.3831
 9727TIP3   OH250595   5.280   1.403  11.943 -0.0910 -0.0995  0.0408
 9727TIP3    H150596   5.188   1.382  11.957 -1.0182  2.8605 -0.8059
 9727TIP3    H250597   5.309   1.441  12.026  0.3846 -0.9925  0.2939
 9728TIP3   OH250598   5.466   4.791  15.915  0.2627  0.4167  0.0280
 9728TIP3    H150599   5.430   4.747  15.838  0.7369  1.7807 -1.0109
 9728TIP3    H250600   5.546   4.743  15.935  0.4686  0.4325 -0.7321
 9729TIP3   OH250601   5.425   2.471   0.157  0.9253  0.0309 -0.2783
 9729TIP3    H150602   5.439   2.390   0.108  0.2456 -0.4443  0.2916
 9729TIP3    H250603   5.410   2.441   0.247  1.9348  0.8692  0.1846
 9730TIP3   OH250604   2.967   2.406  12.690  0.1276  0.1805  0.2141
 9730TIP3    H150605   2.953   2.490  12.645  0.8684 -0.8668 -2.1432
 9730TIP3    H250606   3.044   2.422  12.744 -0.8999  1.5481  1.3560
 9731TIP3   OH250607   3.140   4.593   3.510  0.4207  0.4924  0.0211
 9731TIP3    H150608   3.082   4.558   3.443  0.2739 -2.4406  1.5588
 9731TIP3    H250609   3.083   4.646   3.566 -0.2384 -0.2466  0.0549
 9732TIP3   OH250610   2.092   0.040  12.284  0.1740 -0.2544 -0.4557
 9732TIP3    H150611   2.115  -0.048  12.315 -1.1492 -0.1971  0.7921
 9732TIP3    H250612   2.145   0.099  12.337 -1.1568 -0.2079  0.8724
 9733TIP3   OH250613   2.373   2.304   0.763  0.1923 -0.2180  0.2090
 9733TIP3    H150614   2.282   2.307   0.736 -0.4435 -0.7051  2.1025
 9733TIP3    H250615   2.371   2.319   0.858  2.1170  0.1917  0.2380
 9734TIP3   OH250616   3.940   6.206   0.675 -0.1336  0.6225  0.2121
 9734TIP3    H150617   3.923   6.197   0.769 -0.2305 -0.9923  0.0783
 9734TIP3    H250618   3.869   6.262   0.644 -2.2344 -1.6310  0.5691
 9735TIP3   OH250619   4.405   4.401   0.694  0.2675 -0.2818  0.1540
 9735TIP3    H150620   4.430   4.455   0.618  2.4055  0.4340  1.2792
 9735TIP3    H250621   4.489   4.369   0.729 -0.7055 -1.0745  1.8845
 9736TIP3   OH250622   3.877   5.175  14.421 -0.3394  0.0159 -0.0576
 9736TIP3    H150623   3.872   5.267  14.396 -0.0425  0.1743  0.4656
 9736TIP3    H250624   3.941   5.172  14.492 -2.0380 -0.2407  1.5408
 9737TIP3   OH250625   3.477   1.237  14.653  0.5564 -0.0416 -0.4398
 9737TIP3    H150626   3.553   1.293  14.669  0.5357  0.1523 -0.9957
 9737TIP3    H250627   3.464   1.241  14.558 -0.2450  0.0457 -0.3311
 9738TIP3   OH250628   6.283   2.043   5.527  0.6255  0.5385  0.5835
 9738TIP3    H150629   6.243   2.113   5.579  0.3899  0.9405 -0.1265
 9738TIP3    H250630   6.355   2.086   5.481 -2.0521  1.4546 -3.2302
 9739TIP3   OH250631   2.448   1.676  16.301 -0.2867  0.2396 -0.7108
 9739TIP3    H150632   2.426   1.749  16.243 -0.7587 -0.0605 -0.9127
 9739TIP3    H250633   2.449   1.599  16.244 -2.9195 -0.4302 -0.0026
 9740TIP3   OH250634   0.464   3.967  16.149 -0.2435  0.0272 -0.0497
 9740TIP3    H150635   0.482   3.930  16.235  1.3264 -0.9190 -0.7395
 9740TIP3    H250636   0.480   4.060  16.158 -1.1611  0.1094  0.9313
 9741TIP3   OH250637   6.356   6.602   3.616  0.0001 -0.1063 -0.0157
 9741TIP3    H150638   6.313   6.617   3.700 -1.3959 -2.2121 -0.2912
 9741TIP3    H250639   6.426   6.540   3.636 -0.2954 -0.5626 -0.3895
 9742TIP3   OH250640   6.789   3.218  15.376 -0.1021  0.1642  0.2499
 9742TIP3    H150641   6.738   3.266  15.442  0.3354  1.1021 -0.0896
 9742TIP3    H250642   6.723   3.174  15.323 -0.4788 -0.2215  1.0133
 9743TIP3   OH250643   3.230   0.622   5.397  0.0931  0.2144 -0.7109
 9743TIP3    H150644   3.279   0.701   5.420 -2.1140  1.3239  0.4957
 9743TIP3    H250645   3.146   0.654   5.365 -0.9572 -1.6289  0.0564
 9744TIP3   OH250646   1.468   0.089  16.636  0.2237 -0.3864  0.2956
 9744TIP3    H150647   1.559   0.059  16.638 -0.0809 -1.3266  0.2351
 9744TIP3    H250648   1.417   0.011  16.616 -0.6074  0.1295  0.3588
 9745TIP3   OH250649   6.373   0.409   4.755 -0.3042 -0.0556 -0.1429
 9745TIP3    H150650   6.330   0.491   4.730 -0.8989 -0.3667 -0.1684
 9745TIP3    H250651   6.376   0.358   4.674  0.4692  0.1113 -0.2275
 9746TIP3   OH250652   4.307   3.079  15.327 -0.3600 -0.3026  0.1284
 9746TIP3    H150653   4.400   3.071  15.349 -0.1464 -1.0956 -0.9613
 9746TIP3    H250654   4.263   3.090  15.411  0.7732  0.6888  0.6241
 9747TIP3   OH250655   0.682   6.124   1.286  0.0551 -0.4231  0.6897
 9747TIP3    H150656   0.619   6.154   1.351 -0.4845 -0.0069 -0.0077
 9747TIP3    H250657   0.748   6.077   1.336 -0.7350 -0.7470  1.4493
 9748TIP3   OH250658   6.547   5.477   3.995 -0.2387 -0.5482  0.1860
 9748TIP3    H150659   6.568   5.533   3.919 -1.3142 -0.9168 -0.3978
 9748TIP3    H250660   6.523   5.393   3.957 -5.7428  0.5641  0.4241
 9749TIP3   OH250661   5.307   4.951  11.738  0.0439 -0.7187 -0.2387
 9749TIP3    H150662   5.318   5.014  11.809  0.8378  2.1267 -2.6865
 9749TIP3    H250663   5.308   4.866  11.781  0.5816  0.8316  3.1094
 9750TIP3   OH250664   6.004   2.041   2.285 -0.0772  0.2557 -0.7330
 9750TIP3    H150665   5.943   1.969   2.307 -1.0085  0.5703 -2.1710
 9750TIP3    H250666   5.991   2.104   2.355 -0.2262 -0.3921 -0.1598
 9751TIP3   OH250667   2.517   2.543   3.730  0.6042  0.0433  0.1133
 9751TIP3    H150668   2.571   2.589   3.794 -0.8964  0.0112  1.4537
 9751TIP3    H250669   2.489   2.463   3.774 -0.2350 -0.1191 -0.6753
 9752TIP3   OH250670   3.791   5.554  16.148  0.1263  0.3818  0.3579
 9752TIP3    H150671   3.769   5.507  16.229  1.1245  1.3089  1.1926
 9752TIP3    H250672   3.870   5.510  16.116  0.2930  0.6354  0.4205
 9753TIP3   OH250673   1.814   0.183   0.535  0.0635  0.2366  0.6384
 9753TIP3    H150674   1.826   0.273   0.505  2.7972 -0.3354 -0.2813
 9753TIP3    H250675   1.891   0.165   0.589  0.0783 -1.8087  0.0278
 9754TIP3   OH250676   3.639   0.667   6.131  0.1149 -0.7380 -0.4257
 9754TIP3    H150677   3.587   0.722   6.190  0.4303 -1.4347  0.5470
 9754TIP3    H250678   3.600   0.680   6.045  0.1007  0.8811 -0.2038
 9755TIP3   OH250679   3.515   4.474   5.686 -0.2569 -0.1611  0.2844
 9755TIP3    H150680   3.515   4.411   5.758  0.2976  2.3192  2.6352
 9755TIP3    H250681   3.432   4.520   5.695 -0.9105 -0.8552 -1.7484
 9756TIP3   OH250682   4.216   3.435   3.021 -0.5614 -0.0990 -0.8379
 9756TIP3    H150683   4.228   3.341   3.006 -0.0265  0.1837 -2.3719
 9756TIP3    H250684   4.285   3.459   3.082 -0.4859 -0.6440 -0.7051
 9757TIP3   OH250685   2.212   3.389  11.311 -0.2019 -0.0908  0.4863
 9757TIP3    H150686   2.208   3.309  11.364  0.0402 -1.6888 -1.7987
 9757TIP3    H250687   2.305   3.409  11.305 -0.3231  1.2727  2.2346
 9758TIP3   OH250688   1.232   5.535   1.043 -0.1061  0.0859  0.4938
 9758TIP3    H150689   1.298   5.600   1.067 -1.4516  0.6257  3.0663
 9758TIP3    H250690   1.150   5.570   1.078 -1.3688 -1.6394 -0.6019
 9759TIP3   OH250691   4.917   5.434  14.774 -0.0732 -0.5555  0.2974
 9759TIP3    H150692   4.882   5.393  14.695  0.6890 -0.7616  0.0549
 9759TIP3    H250693   5.003   5.394  14.785  0.5831  0.7858  0.2065
 9760TIP3   OH250694   2.223   5.726   1.429  0.1709  0.0582 -0.2288
 9760TIP3    H150695   2.302   5.704   1.478 -0.4278  0.6350  1.0247
 9760TIP3    H250696   2.177   5.790   1.484 -0.2836  1.1115 -1.7604
 9761TIP3   OH250697   5.855   0.100  16.413 -0.7960 -0.0508  0.1990
 9761TIP3    H150698   5.863   0.006  16.433  0.1784  0.2877  1.5359
 9761TIP3    H250699   5.931   0.140  16.455 -1.3683  1.3859 -0.0806
 9762TIP3   OH250700   3.953   4.165   5.450  0.3723 -0.2703  0.0514
 9762TIP3    H150701   3.908   4.083   5.470 -2.6311  1.2569  0.1000
 9762TIP3    H250702   3.949   4.215   5.532  2.5844 -0.1863  0.1703
 9763TIP3   OH250703   6.461   2.859   4.578  0.4339  0.4009 -0.1603
 9763TIP3    H150704   6.482   2.947   4.546  1.2084  0.3728  0.2234
 9763TIP3    H250705   6.392   2.828   4.521  0.5632  1.0348 -0.6752
 9764TIP3   OH250706   0.624   2.394   3.092  0.5545  0.3496 -0.0132
 9764TIP3    H150707   0.604   2.355   3.007  0.0130 -1.7877  1.0161
 9764TIP3    H250708   0.604   2.487   3.082  1.0542  0.2563 -2.3613
 9765TIP3   OH250709   4.110   0.309  14.966 -0.0276 -0.0196 -0.7539
 9765TIP3    H150710   4.120   0.232  15.022 -1.0486 -0.9760 -1.8296
 9765TIP3    H250711   4.194   0.317  14.920  1.6901  2.1090  2.3927
 9766TIP3   OH250712   1.570   3.376   3.968 -0.0162  0.4014  0.1884
 9766TIP3    H150713   1.592   3.295   3.922  0.4296  0.3862  0.4190
 9766TIP3    H250714   1.475   3.382   3.963  0.0030  0.2157 -0.4226
 9767TIP3   OH250715   0.974   0.748  12.316 -0.4482  0.5147  0.2772
 9767TIP3    H150716   1.061   0.711  12.330 -1.1225 -0.8650  0.9631
 9767TIP3    H250717   0.925   0.678  12.274 -0.9389  1.6601 -1.1711
 9768TIP3   OH250718   5.273   1.234  13.227  0.4903 -0.2665 -0.8788
 9768TIP3    H150719   5.179   1.241  13.240  0.3203 -1.3273 -1.4032
 9768TIP3    H250720   5.305   1.189  13.306  0.5012 -0.2625 -0.8813
 9769TIP3   OH250721   4.140   1.804  13.552 -0.3808 -0.3629 -0.1256
 9769TIP3    H150722   4.161   1.833  13.463  0.3082 -0.9837 -0.1689
 9769TIP3    H250723   4.044   1.808  13.556 -0.3490  2.0848 -0.0673
 9770TIP3   OH250724   3.426   0.475   3.891 -0.2795  0.3357  0.1378
 9770TIP3    H150725   3.416   0.557   3.940 -0.9505  0.1311  0.3534
 9770TIP3    H250726   3.404   0.497   3.801 -1.0339  0.2732  0.2994
 9771TIP3   OH250727   4.744   1.741  15.753 -0.3624 -0.9534  0.0125
 9771TIP3    H150728   4.718   1.823  15.796 -0.4989  0.1205 -1.9715
 9771TIP3    H250729   4.831   1.759  15.717 -0.9811 -1.1288 -1.6828
 9772TIP3   OH250730   1.085   5.860   0.643  0.0662 -0.0521 -0.0945
 9772TIP3    H150731   1.021   5.796   0.611 -2.7720  0.3670  3.9274
 9772TIP3    H250732   1.146   5.809   0.697  0.6015  0.0794 -0.5685
 9773TIP3   OH250733   4.782   1.640   5.819  0.7769  0.3377  0.1681
 9773TIP3    H150734   4.797   1.694   5.741  0.3135  0.5913  0.2527
 9773TIP3    H250735   4.854   1.577   5.819  0.4277 -0.0959 -0.8429
 9774TIP3   OH250736   0.601   4.031  14.969 -0.1238  0.3912 -0.2109
 9774TIP3    H150737   0.559   3.988  15.044 -0.2605 -0.9372 -1.0270
 9774TIP3    H250738   0.684   3.986  14.959 -0.5061 -0.0738 -1.4235
 9775TIP3   OH250739   3.215   3.397   2.146  0.2272 -0.5799  0.3406
 9775TIP3    H150740   3.287   3.434   2.094 -0.6747  0.4190 -0.2396
 9775TIP3    H250741   3.171   3.474   2.184 -2.6986 -0.8279 -2.1987
 9776TIP3   OH250742   4.379   4.835  16.578 -0.4996  0.1796 -0.2985
 9776TIP3    H150743   4.294   4.879  16.568  0.2405  1.5098 -0.9466
 9776TIP3    H250744   4.366   4.775  16.651 -2.0497  0.2337 -0.4935
 9777TIP3   OH250745   4.840   4.934  15.895 -0.7072  0.0674  0.3039
 9777TIP3    H150746   4.851   5.005  15.958  1.7931  0.2022 -0.1833
 9777TIP3    H250747   4.900   4.866  15.925 -0.5479 -0.4483 -1.1191
 9778TIP3   OH250748   4.214   1.515  17.103  0.3804  0.2543  0.2209
 9778TIP3    H150749   4.142   1.471  17.058  0.6719  0.5425 -0.5409
 9778TIP3    H250750   4.225   1.466  17.184 -0.2784 -0.1594  0.0730
 9779TIP3   OH250751   2.542   6.316   2.151 -0.6007 -0.3541 -0.5448
 9779TIP3    H150752   2.633   6.338   2.171 -0.9415 -0.6457  1.4436
 9779TIP3    H250753   2.493   6.395   2.173 -1.1902 -1.2558  1.5928
 9780TIP3   OH250754   4.865   2.663  14.880 -0.1351  0.1955 -0.0251
 9780TIP3    H150755   4.853   2.755  14.858 -0.2777  0.0536 -0.5361
 9780TIP3    H250756   4.790   2.619  14.841  0.8417 -0.3854 -1.3305
 9781TIP3   OH250757   0.123   5.763   3.337 -0.0687 -0.3709  0.0809
 9781TIP3    H150758   0.088   5.758   3.248 -0.5491  0.0616  0.2422
 9781TIP3    H250759   0.056   5.810   3.387  1.2352  1.5454  0.1346
 9782TIP3   OH250760   3.170   0.599   5.021 -0.4118 -0.3638 -0.2005
 9782TIP3    H150761   3.243   0.652   5.055 -1.3802  1.1950 -0.4389
 9782TIP3    H250762   3.211   0.518   4.992  1.3877  0.7993 -1.1359
 9783TIP3   OH250763   4.934   3.288   0.168  0.1104 -0.4299  0.2787
 9783TIP3    H150764   4.977   3.373   0.154  0.7852 -0.9242 -0.7619
 9783TIP3    H250765   4.872   3.280   0.097 -1.0038 -0.1848  1.1985
 9784TIP3   OH250766   5.163   3.509  11.494  0.2248  0.2692 -0.1379
 9784TIP3    H150767   5.185   3.588  11.445 -1.3800  0.8324 -0.0142
 9784TIP3    H250768   5.109   3.540  11.567 -1.4687 -1.0275 -0.7712
 9785TIP3   OH250769   1.327   3.398   4.410  0.4021 -0.1644  0.3174
 9785TIP3    H150770   1.368   3.348   4.340 -0.1134  0.1992 -0.2518
 9785TIP3    H250771   1.242   3.357   4.423  0.2232  0.1840  0.2638
 9786TIP3   OH250772   5.148   2.019   2.401  0.1918  0.1951 -0.6000
 9786TIP3    H150773   5.142   2.062   2.316 -0.4922  1.5843  0.1200
 9786TIP3    H250774   5.214   2.069   2.449  0.3526 -0.3873 -0.2031
 9787TIP3   OH250775   1.537   2.883  13.741 -0.0288  0.4943 -0.2277
 9787TIP3    H150776   1.632   2.866  13.743 -0.1211 -0.1863 -1.0005
 9787TIP3    H250777   1.505   2.827  13.671 -0.9858  0.8642 -0.0920
 9788TIP3   OH250778   3.888   6.027  12.833  0.5614 -0.2601  0.5543
 9788TIP3    H150779   3.877   6.121  12.841  1.5072  0.0677 -1.3815
 9788TIP3    H250780   3.946   6.016  12.757  0.2648 -2.4001  0.5792
 9789TIP3   OH250781   1.365   6.606  10.713  0.7384  0.4542 -0.2443
 9789TIP3    H150782   1.385   6.604  10.619 -0.1980  1.0891 -0.4724
 9789TIP3    H250783   1.271   6.593  10.718  1.0451 -1.7431  0.7541
 9790TIP3   OH250784   5.251   4.754   1.331 -0.7119 -0.0896  0.4925
 9790TIP3    H150785   5.205   4.821   1.282  1.2084  0.3652 -0.8137
 9790TIP3    H250786   5.210   4.671   1.303  0.3328  0.1473 -2.0062
 9791TIP3   OH250787   1.309   2.682   3.226 -0.6594  0.0458  0.4552
 9791TIP3    H150788   1.267   2.642   3.303  0.0643  0.1986  0.9406
 9791TIP3    H250789   1.273   2.771   3.224  1.4962  1.0693  2.4114
 9792TIP3   OH250790   1.663   2.181   1.683  0.2425 -0.0628 -0.3249
 9792TIP3    H150791   1.692   2.092   1.707 -0.0388  0.1584  0.9109
 9792TIP3    H250792   1.572   2.184   1.712  0.6116  1.0287  0.7560
 9793TIP3   OH250793   3.889   2.733  13.752 -0.2879  0.6076 -0.7603
 9793TIP3    H150794   3.853   2.821  13.751 -0.3349  0.5845 -1.1147
 9793TIP3    H250795   3.951   2.733  13.825  1.2152  1.5212 -1.9766
 9794TIP3   OH250796   6.534   5.560  14.111 -0.1447  0.5268  0.2103
 9794TIP3    H150797   6.559   5.645  14.145 -1.5798  1.3845 -0.7434
 9794TIP3    H250798   6.461   5.532  14.167  1.2408 -0.7878  1.4327
 9795TIP3   OH250799   0.225   3.381  16.627 -0.7306  0.1705  0.0496
 9795TIP3    H150800   0.261   3.385  16.716 -2.6228 -0.8309  0.9162
 9795TIP3    H250801   0.142   3.427  16.633 -1.2380 -0.5824 -1.0109
 9796TIP3   OH250802   2.478   3.374   5.753 -0.0511  0.1563  0.7467
 9796TIP3    H150803   2.573   3.362   5.755 -0.1952 -1.1189  0.6355
 9796TIP3    H250804   2.443   3.286   5.740 -1.2450  0.6429  0.5688
 9797TIP3   OH250805   3.279   1.004   2.695  0.5583 -0.1636 -0.6851
 9797TIP3    H150806   3.211   0.959   2.645 -0.5372  0.8658 -0.1789
 9797TIP3    H250807   3.280   0.959   2.780  1.6525 -1.2054 -1.2263
 9798TIP3   OH250808   1.853   3.525   3.755 -0.8194  0.5986  0.0963
 9798TIP3    H150809   1.806   3.512   3.672 -0.2499  0.8572 -0.2759
 9798TIP3    H250810   1.788   3.565   3.813 -0.8577  1.6479 -0.6415
 9799TIP3   OH250811   3.458   0.013   5.928  0.2679  0.1111  0.0773
 9799TIP3    H150812   3.535  -0.032   5.963 -0.0668 -1.7696 -1.4030
 9799TIP3    H250813   3.404  -0.057   5.891 -2.5254  1.2651  1.6449
 9800TIP3   OH250814   0.378   1.972  13.941 -0.1000  0.0734  0.5093
 9800TIP3    H150815   0.379   2.061  13.905 -2.1270  0.0745  0.3657
 9800TIP3    H250816   0.364   1.916  13.865 -0.7943 -0.1978  0.8284
 9801TIP3   OH250817   2.659   3.077   1.606 -0.6927  0.1827 -0.5239
 9801TIP3    H150818   2.594   3.136   1.644  1.0448  0.7653  1.7218
 9801TIP3    H250819   2.726   3.136   1.569  0.3414 -0.3570  0.4467
 9802TIP3   OH250820   1.069   1.952   1.105  0.1686 -0.0139  0.5218
 9802TIP3    H150821   1.099   1.866   1.134 -0.7331 -0.4781  0.1505
 9802TIP3    H250822   0.983   1.963   1.146  0.2070  0.6359  0.4403
 9803TIP3   OH250823   3.214   4.771  13.721  0.2313  0.7205  0.4582
 9803TIP3    H150824   3.221   4.680  13.691 -0.8173  1.1998 -1.4387
 9803TIP3    H250825   3.296   4.812  13.694  0.1491  0.6424  0.0801
 9804TIP3   OH250826   3.128   3.269  14.230  0.1989  0.2036 -0.7252
 9804TIP3    H150827   3.209   3.223  14.210 -0.9549 -1.8136 -1.0955
 9804TIP3    H250828   3.117   3.258  14.324 -0.1488 -0.4780 -0.8345
 9805TIP3   OH250829   2.335   2.160  12.758 -0.1533 -0.6679  0.0788
 9805TIP3    H150830   2.388   2.192  12.831  0.9004  0.5891 -1.1762
 9805TIP3    H250831   2.262   2.222  12.753  0.8461  0.4487 -1.1439
 9806TIP3   OH250832   2.720   2.163  13.218 -0.3769  0.4471  0.5970
 9806TIP3    H150833   2.682   2.160  13.306  0.6454 -2.0727  1.0280
 9806TIP3    H250834   2.811   2.188  13.231 -0.7632  2.4925 -0.0694
 9807TIP3   OH250835   1.951   2.702  14.336 -0.5565  0.1218 -0.0309
 9807TIP3    H150836   1.986   2.677  14.250  1.5231 -0.0862  0.8171
 9807TIP3    H250837   1.873   2.754  14.316 -0.8241 -0.9693 -1.9981
 9808TIP3   OH250838   2.650   4.064   5.829  0.1238  0.4220  0.0503
 9808TIP3    H150839   2.701   3.983   5.825 -0.9669 -0.2568 -1.0970
 9808TIP3    H250840   2.628   4.083   5.738 -0.3425  1.5426  0.3820
 9809TIP3   OH250841   5.095   4.351   4.197 -0.0320  0.0245 -0.8176
 9809TIP3    H150842   5.077   4.438   4.232  0.5752  0.1154 -0.7142
 9809TIP3    H250843   5.045   4.291   4.253  3.1416 -0.1311  2.2297
 9810TIP3   OH250844   2.352   1.309  10.815  0.0659 -0.3547 -0.3071
 9810TIP3    H150845   2.312   1.234  10.771  1.4600 -0.3321 -1.6956
 9810TIP3    H250846   2.304   1.385  10.783  0.3076 -0.4450 -0.8919
 9811TIP3   OH250847   3.056   0.385   5.798 -0.1306  0.3973 -0.2799
 9811TIP3    H150848   3.012   0.326   5.737  0.8880 -1.1379  0.3837
 9811TIP3    H250849   3.008   0.375   5.880  0.0645  0.4479 -0.1572
 9812TIP3   OH250850   5.735   5.066  10.198 -0.0415  0.1097  0.0937
 9812TIP3    H150851   5.732   4.980  10.240 -1.0947  0.8914  1.7136
 9812TIP3    H250852   5.818   5.105  10.227 -0.3413  0.2843  0.7303
 9813TIP3   OH250853   1.123   3.125   3.556 -0.8074 -0.1188  0.1861
 9813TIP3    H150854   1.067   3.049   3.571 -0.6827 -0.5125 -1.1668
 9813TIP3    H250855   1.197   3.090   3.505  0.5092  0.4500  1.6393
 9814TIP3   OH250856   5.898   2.969   3.372 -0.6743  0.7254  0.4392
 9814TIP3    H150857   5.857   3.054   3.387 -0.6288  0.6400  1.1118
 9814TIP3    H250858   5.923   2.939   3.460  0.8266  0.7656  0.0428
 9815TIP3   OH250859   6.122   2.367   2.198  0.2832  0.4496  0.1028
 9815TIP3    H150860   6.081   2.444   2.237  0.1597  0.5283 -0.1720
 9815TIP3    H250861   6.160   2.399   2.116 -2.6367 -0.3584 -1.7607
 9816TIP3   OH250862   3.998   1.615   0.505  0.1008 -0.2039  0.3352
 9816TIP3    H150863   3.923   1.669   0.528  0.4564 -0.2620  1.7297
 9816TIP3    H250864   4.060   1.627   0.578  1.8076  0.4858 -1.1445
 9817TIP3   OH250865   0.963   2.961  14.979  0.3331 -0.1365  0.1793
 9817TIP3    H150866   0.968   2.896  14.909 -0.4331 -0.2850  0.2599
 9817TIP3    H250867   1.055   2.979  15.001  0.5700 -0.4601 -0.5143
 9818TIP3   OH250868   4.388   4.189   3.130  0.4427  0.3015 -0.1589
 9818TIP3    H150869   4.380   4.276   3.093 -0.6271 -0.6484 -2.3634
 9818TIP3    H250870   4.299   4.153   3.126  0.7820 -0.7645  1.0612
 9819TIP3   OH250871   1.400   5.865   4.256 -0.3917  0.2449 -0.7308
 9819TIP3    H150872   1.372   5.805   4.187 -1.1576  0.7434 -0.8608
 9819TIP3    H250873   1.496   5.866   4.249 -0.3288 -1.2147 -0.5014
 9820TIP3   OH250874   4.000   3.408  13.738 -0.2545 -0.3453  0.6149
 9820TIP3    H150875   4.049   3.476  13.784 -1.5230  0.1263  1.3247
 9820TIP3    H250876   4.012   3.428  13.645  3.6037 -2.1921  0.5322
 9821TIP3   OH250877   0.817   2.068  14.816  0.1328  0.0582 -0.1366
 9821TIP3    H150878   0.827   2.091  14.724  1.0779 -0.8128 -0.2664
 9821TIP3    H250879   0.727   2.036  14.823  0.2250 -0.3908 -0.8823
 9822TIP3   OH250880   2.262   2.026   1.811 -0.9397 -0.0168 -0.6865
 9822TIP3    H150881   2.357   2.027   1.810 -0.8363 -2.1848  0.3998
 9822TIP3    H250882   2.237   2.108   1.854  0.3895  0.8013 -1.4284
 9823TIP3   OH250883   2.926   6.273   1.611 -0.0953  0.1323 -0.2209
 9823TIP3    H150884   2.996   6.245   1.551  1.1350  0.6825  0.9086
 9823TIP3    H250885   2.922   6.203   1.676  0.4924  0.8209  0.5788
 9824TIP3   OH250886   5.563   4.997   0.934 -0.1705  0.6546 -0.0784
 9824TIP3    H150887   5.553   5.010   0.840 -0.4282  0.5462 -0.0673
 9824TIP3    H250888   5.641   5.047   0.957 -0.2005  0.8141 -0.3208
 9825TIP3   OH250889   6.514   2.222   4.012  0.1501  0.6964 -0.1410
 9825TIP3    H150890   6.583   2.276   4.051  0.1462  0.3644  0.3322
 9825TIP3    H250891   6.545   2.203   3.924  0.0946  1.5732 -0.3587
 9826TIP3   OH250892   3.977   1.436  16.981 -0.0112 -0.0455  0.1153
 9826TIP3    H150893   3.905   1.406  16.925  0.5551  0.7752 -1.1012
 9826TIP3    H250894   3.941   1.513  17.026 -1.0026 -1.5991  2.1905
 9827TIP3   OH250895   1.381   4.817   4.976 -0.1246 -0.2500  0.6387
 9827TIP3    H150896   1.323   4.792   5.047  2.8034 -0.4493  3.1964
 9827TIP3    H250897   1.378   4.743   4.915 -2.1990 -0.3765  0.8296
 9828TIP3   OH250898   6.202   4.000   1.582  0.2944  0.1911  0.0996
 9828TIP3    H150899   6.158   3.916   1.570  1.1584 -0.0693 -1.4462
 9828TIP3    H250900   6.192   4.019   1.676 -3.3885  0.3548 -0.2025
 9829TIP3   OH250901   2.635   6.694   2.789 -0.3494  0.0790 -0.0949
 9829TIP3    H150902   2.627   6.671   2.696 -0.3785  2.7666 -0.8166
 9829TIP3    H250903   2.569   6.761   2.803 -0.7913 -0.7481  2.0754
 9830TIP3   OH250904   1.986   0.392  14.754 -0.2854  0.3285 -0.2298
 9830TIP3    H150905   1.938   0.435  14.684  0.3046  1.8673  0.2616
 9830TIP3    H250906   2.020   0.312  14.714  0.2113  1.2638 -1.7721
 9831TIP3   OH250907   5.047   1.027  15.292 -0.3169 -0.3535  0.1746
 9831TIP3    H150908   5.053   1.114  15.331  0.2403 -0.5181  0.4647
 9831TIP3    H250909   4.956   1.000  15.306 -0.2524 -0.1984  0.9000
 9832TIP3   OH250910   2.778   4.727  12.546 -0.4076  0.2664  0.4466
 9832TIP3    H150911   2.853   4.786  12.555 -0.2828 -0.0450  1.5889
 9832TIP3    H250912   2.770   4.714  12.452 -0.9072  2.7073  0.0768
 9833TIP3   OH250913   3.911   6.696   0.259 -0.0678  0.2189  0.1329
 9833TIP3    H150914   3.896   6.610   0.300  1.4044 -0.4826 -0.7054
 9833TIP3    H250915   3.869   6.758   0.318 -1.3935 -1.0886  0.6404
 9834TIP3   OH250916   5.210   4.853  16.955 -0.2755 -0.2807 -0.4155
 9834TIP3    H150917   5.266   4.835  16.880  0.7421 -0.0936  0.2866
 9834TIP3    H250918   5.125   4.875  16.916 -0.0106 -1.0319 -1.4720
 9835TIP3   OH250919   4.084   5.358   4.301  0.4569  0.0822 -0.6089
 9835TIP3    H150920   4.149   5.345   4.370  1.5899  0.3131 -1.5972
 9835TIP3    H250921   4.113   5.437   4.255 -1.4773  1.1904 -0.0561
 9836TIP3   OH250922   0.656   3.218   1.039 -0.1234  0.1377  0.1136
 9836TIP3    H150923   0.599   3.289   1.010 -0.1970  0.9781  2.1259
 9836TIP3    H250924   0.668   3.234   1.133  2.0812 -0.9748  0.0818
 9837TIP3   OH250925   3.897   6.779  15.164 -0.3504 -0.2352  1.0052
 9837TIP3    H150926   3.863   6.730  15.090 -0.1494 -2.2693  2.1673
 9837TIP3    H250927   3.820   6.800  15.217 -0.7092  2.7005 -0.5141
 9838TIP3   OH250928   5.252   0.212  17.179 -0.7750  0.0323 -0.2042
 9838TIP3    H150929   5.248   0.254  17.264 -4.0026  0.3909 -0.4124
 9838TIP3    H250930   5.290   0.278  17.121 -0.9119  0.7297  0.4856
 9839TIP3   OH250931   6.615   0.296   5.036  0.2683  0.1989 -0.0047
 9839TIP3    H150932   6.551   0.243   5.083  1.3139 -0.8683  0.2683
 9839TIP3    H250933   6.564   0.339   4.967 -1.0734  0.8725  1.3381
 9840TIP3   OH250934   2.390   4.437   2.495  0.2966 -0.0913 -0.0629
 9840TIP3    H150935   2.389   4.426   2.400 -0.9222 -0.6451  0.0022
 9840TIP3    H250936   2.367   4.528   2.510  1.7359  0.3357 -0.3241
 9841TIP3   OH250937   4.788   4.074   4.131  0.4131  0.3799 -0.5744
 9841TIP3    H150938   4.857   4.042   4.073  0.5184 -0.1703 -0.1505
 9841TIP3    H250939   4.835   4.116   4.203  0.3440 -0.7242  0.1402
 9842TIP3   OH250940   3.324   4.354   2.583  0.0639  0.1164  0.0569
 9842TIP3    H150941   3.273   4.277   2.560  0.0946  0.2003 -0.2955
 9842TIP3    H250942   3.412   4.335   2.550  0.0504  0.3382 -0.1057
 9843TIP3   OH250943   1.976   4.078  14.565  0.4206 -0.1439 -0.8206
 9843TIP3    H150944   1.890   4.078  14.523  0.4241 -0.4809 -0.8327
 9843TIP3    H250945   2.012   4.164  14.546 -1.0091  1.0478  1.4653
 9844TIP3   OH250946   0.301   5.002   1.972  0.5392 -0.4962  0.3597
 9844TIP3    H150947   0.368   4.974   2.034  0.4656 -2.1640 -0.2648
 9844TIP3    H250948   0.323   4.958   1.890 -0.0485  0.7149 -0.5002
 9845TIP3   OH250949   2.804   3.265  15.815 -0.5387 -0.8742 -0.0820
 9845TIP3    H150950   2.830   3.329  15.881  1.1662 -1.7271  0.1354
 9845TIP3    H250951   2.714   3.288  15.793 -0.9443 -0.1937  2.0938
 9846TIP3   OH250952   2.424   4.734  15.159 -0.4019 -0.3903 -0.6398
 9846TIP3    H150953   2.475   4.776  15.091  0.0302  1.0311  0.5094
 9846TIP3    H250954   2.357   4.798  15.182  0.4552 -0.1516  1.3678
 9847TIP3   OH250955   2.269   0.269  12.837 -0.1542 -0.2961  0.5884
 9847TIP3    H150956   2.340   0.294  12.778  1.4926  0.2406  2.6486
 9847TIP3    H250957   2.272   0.174  12.841  1.9609 -0.2410  2.2405
 9848TIP3   OH250958   1.569   2.962   4.708  0.1585 -0.7975 -0.4392
 9848TIP3    H150959   1.591   2.902   4.637 -0.7691 -0.2005 -1.2618
 9848TIP3    H250960   1.492   3.009   4.676  0.9509  0.9495  0.1193
 9849TIP3   OH250961   3.315   1.931   5.511  0.1540  0.0310 -0.1035
 9849TIP3    H150962   3.328   1.944   5.605 -0.9615  0.6791 -0.0230
 9849TIP3    H250963   3.349   1.843   5.494 -0.9750 -0.7062  1.1957
 9850TIP3   OH250964   4.194   6.389  12.789 -0.5691 -1.0669  0.0692
 9850TIP3    H150965   4.168   6.386  12.697  1.0828  0.3149 -0.4985
 9850TIP3    H250966   4.126   6.442  12.831 -0.3326 -0.0761 -0.7614
 9851TIP3   OH250967   1.782   1.777   0.145 -0.0984 -0.0213  0.1979
 9851TIP3    H150968   1.835   1.846   0.186 -0.5890 -0.4290  1.6076
 9851TIP3    H250969   1.692   1.798   0.171 -0.3972 -0.4706 -0.4492
 9852TIP3   OH250970   1.931   1.038   0.613 -0.1666 -0.3981 -0.3138
 9852TIP3    H150971   1.879   1.077   0.683  0.9779  0.5032  0.0534
 9852TIP3    H250972   1.963   0.956   0.650  1.3400  0.5767  0.6757
 9853TIP3   OH250973   0.242   3.612  11.428  0.0689  0.2175  0.2249
 9853TIP3    H150974   0.254   3.707  11.429  0.1181  0.2936 -1.8188
 9853TIP3    H250975   0.210   3.590  11.515 -2.6217  2.4789 -0.0459
 9854TIP3   OH250976   6.648   4.893   1.248 -0.4527  0.2089 -0.1481
 9854TIP3    H150977   6.686   4.828   1.189 -1.0828 -1.8028  1.5522
 9854TIP3    H250978   6.627   4.844   1.328 -1.1978  2.4640  1.1265
 9855TIP3   OH250979   6.582   4.887  11.039 -0.0450  0.1746 -0.0897
 9855TIP3    H150980   6.664   4.851  11.005  0.9516  3.1908 -1.1276
 9855TIP3    H250981   6.550   4.944  10.969 -0.8029  2.3358  1.8927
 9856TIP3   OH250982   3.127   5.368  11.942  0.5968  0.1300 -0.0369
 9856TIP3    H150983   3.105   5.397  12.030  1.3172  0.8424 -0.0781
 9856TIP3    H250984   3.219   5.391  11.931  1.6561 -3.2436  0.3677
 9857TIP3   OH250985   4.345   6.162  14.035 -0.3393  0.6952 -0.6687
 9857TIP3    H150986   4.398   6.211  14.097 -0.8393  1.1489 -0.5916
 9857TIP3    H250987   4.276   6.223  14.008 -2.1515 -0.5294  0.8857
 9858TIP3   OH250988   0.129   0.787  12.042 -0.1649 -0.7371 -0.1940
 9858TIP3    H150989   0.195   0.798  12.110 -2.2430  0.0423  1.7965
 9858TIP3    H250990   0.054   0.747  12.086 -2.1270  1.0796 -1.6311
 9859TIP3   OH250991   0.864   1.623   3.354 -0.0595 -0.0180  0.4525
 9859TIP3    H150992   0.899   1.541   3.388 -0.0373 -0.1256  0.1693
 9859TIP3    H250993   0.887   1.623   3.262 -0.5808  0.0280  0.3163
 9860TIP3   OH250994   5.666   6.672  12.067  0.2112  0.3008 -0.3532
 9860TIP3    H150995   5.755   6.653  12.036 -0.1469  0.5961 -1.6085
 9860TIP3    H250996   5.650   6.762  12.040 -0.6471  0.1001 -0.5508
 9861TIP3   OH250997   4.643   2.439  13.872 -1.0621  0.2292  0.3921
 9861TIP3    H150998   4.720   2.496  13.872 -0.2368 -0.8400  1.3682
 9861TIP3    H250999   4.598   2.460  13.790  0.8762  0.0731 -0.7934
 9862TIP3   OH251000   6.531   3.586  16.222  0.0417  0.1994 -0.7497
 9862TIP3    H151001   6.599   3.637  16.178 -0.2745  1.3075  0.0051
 9862TIP3    H251002   6.560   3.583  16.314  0.0860 -1.0532 -0.7844
 9863TIP3   OH251003   1.484   6.682   4.543  0.1825 -0.0654 -0.3744
 9863TIP3    H151004   1.437   6.752   4.498  1.1327  1.3498  0.7145
 9863TIP3    H251005   1.511   6.622   4.474  0.8810  1.5954 -1.6068
 9864TIP3   OH251006   6.721   6.176  14.332 -0.0289 -0.0168 -0.2733
 9864TIP3    H151007   6.748   6.108  14.270  1.1370  0.9723 -0.9031
 9864TIP3    H251008   6.765   6.153  14.413  1.1655  0.4740 -0.7494
 9865TIP3   OH251009   4.921   5.267  10.563 -0.3017 -0.7987 -0.4571
 9865TIP3    H151010   4.903   5.218  10.483 -2.6571 -0.6341 -0.0998
 9865TIP3    H251011   4.921   5.359  10.535  0.4372 -0.8091 -0.5099
 9866TIP3   OH251012   1.403   3.625   5.727 -0.3909 -0.6854 -0.0898
 9866TIP3    H151013   1.443   3.543   5.698 -1.3090  0.0302 -3.9921
 9866TIP3    H251014   1.323   3.599   5.772  0.4553 -1.9401  0.7370
 9867TIP3   OH251015   6.541   1.632  14.104  0.5841  0.0007  0.2911
 9867TIP3    H151016   6.484   1.709  14.100  2.0977  1.1468 -1.7286
 9867TIP3    H251017   6.628   1.667  14.084  1.4488 -2.1447  0.0440
 9868TIP3   OH251018   4.061   2.429  15.277 -0.2931 -0.0170 -0.8460
 9868TIP3    H151019   3.989   2.402  15.335 -1.3805  0.3985 -1.9632
 9868TIP3    H251020   4.104   2.347  15.253  1.5863 -0.0857  2.2135
 9869TIP3   OH251021   5.231   5.674  13.633 -0.2251 -0.7456 -0.4983
 9869TIP3    H151022   5.199   5.607  13.695  0.6622  1.4840  2.6014
 9869TIP3    H251023   5.322   5.649  13.617 -0.1890 -0.8599 -0.1456
 9870TIP3   OH251024   3.345   5.084   1.507 -0.1129  0.1188  0.6214
 9870TIP3    H151025   3.282   5.152   1.529 -2.0081 -1.5145  0.4832
 9870TIP3    H251026   3.294   5.003   1.503  1.8471 -1.1665 -0.3062
 9871TIP3   OH251027   2.193   6.368   1.322 -0.2598 -0.3757  0.1074
 9871TIP3    H151028   2.207   6.458   1.290  0.1946 -0.3665  0.3197
 9871TIP3    H251029   2.098   6.360   1.331 -0.2566  0.3814  0.9254
 9872TIP3   OH251030   6.282   5.879   5.329 -0.3658  0.2646 -0.3030
 9872TIP3    H151031   6.356   5.938   5.322 -0.3833  0.2147 -0.9163
 9872TIP3    H251032   6.268   5.846   5.241 -2.5192  1.9974 -0.6965
 9873TIP3   OH251033   5.705   1.535  17.107 -0.6204  0.6511 -0.1675
 9873TIP3    H151034   5.688   1.624  17.074 -1.8353  1.1726  1.6823
 9873TIP3    H251035   5.694   1.543  17.202 -0.8054 -1.4936  0.0340
 9874TIP3   OH251036   1.024   1.270   5.583  0.4105 -0.3300 -0.1057
 9874TIP3    H151037   1.015   1.190   5.634  2.1207  0.7016  2.0284
 9874TIP3    H251038   1.117   1.274   5.562  0.2269  0.7414 -0.7817
 9875TIP3   OH251039   2.732   0.954   2.398 -0.3569  0.8831  0.4933
 9875TIP3    H151040   2.771   0.888   2.456  2.6932  1.1234 -1.0734
 9875TIP3    H251041   2.749   1.038   2.442 -1.8842  0.8546  1.2147
 9876TIP3   OH251042   6.361   6.545   2.276 -0.0003  0.1741  0.5725
 9876TIP3    H151043   6.271   6.521   2.254 -0.1975  1.8013 -0.5941
 9876TIP3    H251044   6.412   6.517   2.200  0.4246 -0.3910  1.0597
 9877TIP3   OH251045   1.150   4.475   3.920 -0.1324 -0.2666  0.1087
 9877TIP3    H151046   1.177   4.536   3.851 -1.0966  1.5604  1.2673
 9877TIP3    H251047   1.128   4.394   3.873  0.6144  0.4400 -1.5551
 9878TIP3   OH251048   4.437   0.670  16.070  0.4625 -0.0563  0.3362
 9878TIP3    H151049   4.360   0.665  16.013  0.3024 -0.1980  0.5609
 9878TIP3    H251050   4.439   0.761  16.100  0.8997  0.1800 -0.3732
 9879TIP3   OH251051   3.454   0.124   3.980 -0.2038  0.2771 -0.0078
 9879TIP3    H151052   3.538   0.080   3.964 -0.7821 -0.2600 -1.6888
 9879TIP3    H251053   3.420   0.144   3.893  0.8440  5.7982  0.4592
 9880TIP3   OH251054   3.612   0.333  11.320  0.6015  0.5193 -0.0858
 9880TIP3    H151055   3.591   0.244  11.292 -2.3169  1.1870 -0.2734
 9880TIP3    H251056   3.573   0.389  11.253  3.2144  2.0168 -0.5137
 9881TIP3   OH251057   4.836   1.229  13.138 -0.1135 -0.2250 -0.0987
 9881TIP3    H151058   4.747   1.217  13.172 -0.1104  0.5738  0.2075
 9881TIP3    H251059   4.825   1.232  13.043 -0.4224 -0.1047 -0.0611
 9882TIP3   OH251060   5.781   4.393   4.741  0.2612 -0.2170 -0.0748
 9882TIP3    H151061   5.815   4.313   4.781  0.7930  0.6713  1.3210
 9882TIP3    H251062   5.843   4.414   4.672 -0.0058 -1.1060 -0.6114
 9883TIP3   OH251063   4.497   0.761  16.751  0.4446 -0.2171  0.5349
 9883TIP3    H151064   4.466   0.851  16.741  1.3043  0.1571  1.1024
 9883TIP3    H251065   4.444   0.725  16.822  1.3603  0.4667  1.6007
 9884TIP3   OH251066   3.716   2.291  13.745  0.1050  0.5292  0.3334
 9884TIP3    H151067   3.773   2.252  13.811 -0.3130 -1.0920 -0.2167
 9884TIP3    H251068   3.691   2.218  13.688  0.2800  1.8256 -1.5039
 9885TIP3   OH251069   0.598   1.479  13.100  0.2313 -0.2444 -0.6689
 9885TIP3    H151070   0.626   1.388  13.108  0.7094 -0.0218  0.4300
 9885TIP3    H251071   0.678   1.530  13.117 -0.1565  0.3774 -0.6877
 9886TIP3   OH251072   4.313   3.490   5.954 -0.3046 -0.4260 -0.1761
 9886TIP3    H151073   4.359   3.546   6.016  1.6483 -2.6257  0.4866
 9886TIP3    H251074   4.314   3.539   5.872  2.3804  0.0853  0.0704
 9887TIP3   OH251075   2.815   2.060  16.364  0.1423  0.5303  0.2569
 9887TIP3    H151076   2.754   2.016  16.423  0.3540 -1.6460 -1.0498
 9887TIP3    H251077   2.770   2.061  16.279  1.0827  0.7574 -0.2541
 9888TIP3   OH251078   0.538   1.666  13.940 -0.4196  0.4463  0.1234
 9888TIP3    H151079   0.453   1.622  13.940 -0.5782  0.7445 -0.0264
 9888TIP3    H251080   0.589   1.622  13.872 -0.5851  0.5126 -0.0432
 9889TIP3   OH251081   1.505   3.824   5.053 -0.2221 -0.1007  0.6985
 9889TIP3    H151082   1.482   3.877   4.976 -0.0819 -1.2968 -0.1843
 9889TIP3    H251083   1.431   3.835   5.113 -1.9823 -1.8247 -1.0293
 9890TIP3   OH251084   1.911   6.057   1.694 -0.6706 -0.4076 -0.6125
 9890TIP3    H151085   1.847   6.079   1.762 -2.5218 -0.9304 -2.1062
 9890TIP3    H251086   1.903   6.128   1.630  1.2028  0.1913 -0.2365
 9891TIP3   OH251087   4.476   2.525   1.555 -0.5086  0.2668 -0.4958
 9891TIP3    H151088   4.551   2.477   1.521  0.0741  0.7061  0.1219
 9891TIP3    H251089   4.469   2.497   1.646 -2.2336 -1.1277 -1.0125
 9892TIP3   OH251090   0.506   2.723  17.015  0.4416 -0.0585 -0.1445
 9892TIP3    H151091   0.436   2.780  17.046  0.1205 -0.0232 -0.9245
 9892TIP3    H251092   0.462   2.643  16.988  0.9496 -1.0104  1.6217
 9893TIP3   OH251093   0.883   3.551  10.741 -0.3273 -0.2964  0.5348
 9893TIP3    H151094   0.858   3.501  10.664  0.2356 -1.3234  1.0102
 9893TIP3    H251095   0.956   3.605  10.713  0.7685 -1.6607  0.6743
 9894TIP3   OH251096   1.793   3.925   5.842 -0.2434 -0.7325 -0.1455
 9894TIP3    H151097   1.882   3.892   5.828 -0.5601 -0.8121 -2.3564
 9894TIP3    H251098   1.801   3.989   5.912  1.5539 -0.7422 -0.3099
 9895TIP3   OH251099   0.140   6.659  16.722 -0.3285 -0.0286  0.7526
 9895TIP3    H151100   0.051   6.693  16.735 -0.3154 -0.1309  1.1179
 9895TIP3    H251101   0.147   6.586  16.784 -0.2968 -0.5969  0.0929
 9896TIP3   OH251102   3.156   2.905   3.112 -0.6254  0.8055 -0.5117
 9896TIP3    H151103   3.189   2.995   3.109 -0.4902  0.7807  0.0650
 9896TIP3    H251104   3.173   2.877   3.202  0.8865 -0.3730 -1.1247
 9897TIP3   OH251105   2.778   0.816   2.827 -0.5208 -0.5660  0.4052
 9897TIP3    H151106   2.704   0.877   2.827 -0.2204 -0.1966 -0.1125
 9897TIP3    H251107   2.767   0.766   2.908 -1.2562 -0.4183  0.4073
 9898TIP3   OH251108   4.370   0.348   0.581  0.3572  0.3263 -0.2746
 9898TIP3    H151109   4.337   0.281   0.520  0.8925  0.2269 -0.4644
 9898TIP3    H251110   4.408   0.414   0.524  0.5779  0.3873 -0.0556
 9899TIP3   OH251111   6.381   3.273   0.440 -0.3050 -0.1709 -0.8070
 9899TIP3    H151112   6.301   3.322   0.420 -0.4337  0.4946  1.2093
 9899TIP3    H251113   6.443   3.300   0.373 -0.6992  1.9661 -0.3650
 9900TIP3   OH251114   4.061   5.005   0.863 -0.5540  0.2320 -0.0342
 9900TIP3    H151115   4.041   4.970   0.950 -0.6606  3.4062  1.3557
 9900TIP3    H251116   3.982   5.053   0.838 -0.2579 -0.0551 -1.5746
 9901TIP3   OH251117   2.733   6.180  14.272 -0.1935  0.2990  0.1357
 9901TIP3    H151118   2.766   6.260  14.312  2.7985 -0.2856 -0.9356
 9901TIP3    H251119   2.735   6.115  14.343  4.1417 -0.4872 -0.4442
 9902TIP3   OH251120   6.484   3.506  14.868 -0.3060  0.0579  0.1136
 9902TIP3    H151121   6.428   3.468  14.800  0.5042 -0.9872  0.0062
 9902TIP3    H251122   6.447   3.593  14.883  0.0733  0.7490 -2.3991
 9903TIP3   OH251123   4.285   1.752  14.215  0.1431  0.6092 -0.5909
 9903TIP3    H151124   4.289   1.663  14.181 -0.6586  0.7584 -1.1012
 9903TIP3    H251125   4.197   1.783  14.191  0.0030  1.1474  0.5505
 9904TIP3   OH251126   0.595   1.413   0.059 -0.2835  0.0895  0.0594
 9904TIP3    H151127   0.569   1.476   0.126  1.5108 -0.2898  1.1958
 9904TIP3    H251128   0.527   1.346   0.062 -0.6576  0.4829  0.9526
 9905TIP3   OH251129   3.519   1.478  11.431 -0.1921  0.1901 -0.6395
 9905TIP3    H151130   3.612   1.502  11.434 -0.2061  0.2134 -0.3708
 9905TIP3    H251131   3.504   1.430  11.512 -0.2538 -0.4109 -0.9960
 9906TIP3   OH251132   5.346   2.041   3.158 -0.0380  0.0016 -0.0912
 9906TIP3    H151133   5.334   2.135   3.151 -0.8300 -0.1991 -2.0839
 9906TIP3    H251134   5.272   2.011   3.211 -0.2584  0.4020 -0.1670
 9907TIP3   OH251135   4.493   0.152   1.426 -0.1549  0.0760 -0.2988
 9907TIP3    H151136   4.478   0.245   1.447  2.0685  0.1658  1.2811
 9907TIP3    H251137   4.463   0.105   1.504  0.8710 -0.3197 -0.1340
 9908TIP3   OH251138   3.800   2.063   1.121 -0.1154 -0.1803  0.1785
 9908TIP3    H151139   3.737   1.993   1.141  0.8221 -0.1446  3.8293
 9908TIP3    H251140   3.766   2.140   1.166  0.9754  0.6636 -0.3946
 9909TIP3   OH251141   0.102   4.389  10.927  0.0072 -0.1043 -0.6586
 9909TIP3    H151142   0.043   4.313  10.922 -0.9734  0.3817  1.7154
 9909TIP3    H251143   0.045   4.464  10.907  0.1795  0.2282  0.0519
 9910TIP3   OH251144   5.650   2.387  13.463 -0.2463 -0.2605 -0.9264
 9910TIP3    H151145   5.674   2.459  13.522 -0.2011 -1.0506  0.0523
 9910TIP3    H251146   5.588   2.426  13.402  0.4099  0.8113 -0.9371
 9911TIP3   OH251147   5.260   1.423  14.874 -0.3727 -0.6020  0.1133
 9911TIP3    H151148   5.269   1.410  14.968 -3.3755 -1.0378  0.4388
 9911TIP3    H251149   5.180   1.375  14.851 -0.4690  0.6311 -2.4133
 9912TIP3   OH251150   2.911   2.258  16.087 -0.4059  0.0737 -0.0897
 9912TIP3    H151151   2.843   2.191  16.092  1.4683 -1.8558  2.2950
 9912TIP3    H251152   2.941   2.268  16.178  2.9352  0.2799 -1.0901
 9913TIP3   OH251153   4.483   5.481  13.230 -0.0696  0.3662 -0.1398
 9913TIP3    H151154   4.511   5.553  13.174 -1.9133 -0.7262 -2.6412
 9913TIP3    H251155   4.541   5.485  13.306  0.8793  3.4949 -0.9164
 9914TIP3   OH251156   4.139   0.228  13.084  0.3014  0.0037 -0.1538
 9914TIP3    H151157   4.118   0.251  12.994  0.9476 -2.2530 -0.9522
 9914TIP3    H251158   4.235   0.223  13.087  0.2598 -0.6947  0.4370
 9915TIP3   OH251159   2.895   4.398  14.286 -0.5323  0.3105  0.0793
 9915TIP3    H151160   2.913   4.440  14.370  1.4539  0.7866 -0.5204
 9915TIP3    H251161   2.899   4.469  14.222 -0.9534 -0.2088 -0.5356
 9916TIP3   OH251162   4.350   2.072  15.807 -0.1398  0.1847 -0.1010
 9916TIP3    H151163   4.352   2.004  15.740 -0.4484  0.0274  0.0457
 9916TIP3    H251164   4.413   2.138  15.777 -0.5192  0.2752 -0.7110
 9917TIP3   OH251165   6.421   6.178  14.778  0.3171 -0.3153 -0.3760
 9917TIP3    H151166   6.424   6.097  14.726 -0.6634  0.8550 -2.3909
 9917TIP3    H251167   6.474   6.240  14.728  0.3160  0.5572  0.6750
 9918TIP3   OH251168   2.900   0.050  12.760 -0.2024  0.2964  0.4486
 9918TIP3    H151169   2.888   0.136  12.800 -0.0041  0.4651  0.1527
 9918TIP3    H251170   2.838   0.049  12.688 -0.9561 -0.2253  1.0937
 9919TIP3   OH251171   5.190   5.049   0.249 -0.6381  0.5636 -0.2281
 9919TIP3    H151172   5.174   5.143   0.246  1.2643  0.9753  0.6384
 9919TIP3    H251173   5.162   5.023   0.337  0.8324  0.7910  0.3419
 9920TIP3   OH251174   0.627   2.545   2.227 -0.3408 -0.0018  0.3845
 9920TIP3    H151175   0.716   2.516   2.252 -0.9888 -0.6329  2.1264
 9920TIP3    H251176   0.626   2.538   2.132  0.9444 -1.6599  0.4398
 9921TIP3   OH251177   0.868   2.992   3.504  0.2107 -0.0532  0.1939
 9921TIP3    H151178   0.885   2.917   3.561 -1.3385 -0.6543 -0.0933
 9921TIP3    H251179   0.852   3.064   3.564  0.8061 -0.1515  0.4831
 9922TIP3   OH251180   2.494   5.936   0.429  0.1363 -0.2376 -0.3435
 9922TIP3    H151181   2.582   5.960   0.397 -0.3491  2.8354  0.2587
 9922TIP3    H251182   2.482   5.989   0.507 -1.5500 -2.1019  0.7463
 9923TIP3   OH251183   4.809   0.119  12.836  0.3294 -0.1146 -0.0854
 9923TIP3    H151184   4.836   0.210  12.822  0.1048  0.4441  2.5944
 9923TIP3    H251185   4.713   0.122  12.834  0.3229 -0.3372 -0.1763
 9924TIP3   OH251186   0.155   1.491   1.155  0.6675  0.3743  0.1176
 9924TIP3    H151187   0.113   1.474   1.239 -0.0812 -1.9061 -0.6378
 9924TIP3    H251188   0.245   1.460   1.166  0.5937  0.1578  0.1199
 9925TIP3   OH251189   2.740   3.394   5.927  0.1785 -0.1391  0.4259
 9925TIP3    H151190   2.782   3.434   6.004 -0.5867  0.2009  0.6762
 9925TIP3    H251191   2.702   3.313   5.961  0.7586 -0.5319  0.1615
 9926TIP3   OH251192   3.034   3.411   3.518  0.3835  0.3301 -0.2610
 9926TIP3    H151193   3.003   3.401   3.608 -0.4845 -0.5708 -0.6456
 9926TIP3    H251194   3.121   3.370   3.518  0.5840  0.7484  0.2715
 9927TIP3   OH251195   3.146   2.223  15.893 -0.0025  0.4236  0.0961
 9927TIP3    H151196   3.078   2.181  15.946 -2.0026  1.5464 -1.4384
 9927TIP3    H251197   3.152   2.312  15.928  1.9029 -0.0795  1.2385
 9928TIP3   OH251198   0.753   0.873   5.945 -0.3135  0.6252  0.0440
 9928TIP3    H151199   0.706   0.949   5.979  1.5966  1.8828  0.0484
 9928TIP3    H251200   0.830   0.866   6.001 -1.1096 -2.2637  0.9684
 9929TIP3   OH251201   4.953   2.981   3.489  0.1370  0.2280 -0.4085
 9929TIP3    H151202   4.911   3.055   3.533 -0.5248  0.1001 -0.7959
 9929TIP3    H251203   4.936   2.997   3.396 -0.5632 -0.7253 -0.4566
 9930TIP3   OH251204   0.595   6.130  11.869  0.0085  0.5520 -0.0227
 9930TIP3    H151205   0.543   6.115  11.790 -0.2319 -0.4044  0.2985
 9930TIP3    H251206   0.678   6.165  11.837  0.6913 -1.6720 -0.8926
 9931TIP3   OH251207   0.693   4.995  16.607  0.1714 -0.4847  0.9237
 9931TIP3    H151208   0.760   5.045  16.560 -0.0064  0.2383  1.4281
 9931TIP3    H251209   0.741   4.945  16.673  0.1043  1.0978  2.2171
 9932TIP3   OH251210   1.351   6.193  11.918 -0.2072  0.2916  0.2735
 9932TIP3    H151211   1.373   6.286  11.910  1.2092 -0.0668 -0.1379
 9932TIP3    H251212   1.268   6.185  11.870 -0.0314  1.2218 -0.2160
 9933TIP3   OH251213   3.529   6.012   1.239 -0.2304  0.5022 -0.3462
 9933TIP3    H151214   3.611   6.058   1.256 -0.1238 -0.2643  1.5245
 9933TIP3    H251215   3.555   5.933   1.193 -0.1495  1.1563 -1.4473
 9934TIP3   OH251216   5.547   5.711  14.112  0.1278  0.4945  0.1912
 9934TIP3    H151217   5.490   5.704  14.035 -0.3895  1.2799  0.4860
 9934TIP3    H251218   5.498   5.768  14.172  1.0629  0.8775  0.6069
 9935TIP3   OH251219   3.802   0.525   3.790  0.4853 -0.1989  0.1994
 9935TIP3    H151220   3.740   0.593   3.816  2.0010  1.0481  0.6807
 9935TIP3    H251221   3.880   0.572   3.762  0.4651 -1.5973 -2.7041
 9936TIP3   OH251222   6.217   5.335   4.407  0.0655  0.0823  0.0344
 9936TIP3    H151223   6.305   5.366   4.388  1.0524 -1.9327  0.9357
 9936TIP3    H251224   6.188   5.388   4.482  1.0512 -0.0793  0.5431
 9937TIP3   OH251225   4.808   5.677   3.197 -0.1597  0.2671  0.4907
 9937TIP3    H151226   4.877   5.668   3.262 -2.1586  0.8522  2.8261
 9937TIP3    H251227   4.812   5.768   3.169  2.7088 -0.6293 -2.7928
 9938TIP3   OH251228   5.950   4.356   2.059 -0.0411 -0.1323  0.5091
 9938TIP3    H151229   5.978   4.427   2.117  0.4646 -0.5003  0.7229
 9938TIP3    H251230   5.854   4.359   2.062 -0.0651  1.4407 -0.5813
 9939TIP3   OH251231   1.639   2.148  12.818 -0.3010 -0.0360  0.4705
 9939TIP3    H151232   1.729   2.128  12.844  0.0719  1.0877  0.1080
 9939TIP3    H251233   1.646   2.172  12.726 -0.9008  0.4746  0.5505
 9940TIP3   OH251234   5.452   1.087   1.218  0.4074 -0.2690  0.2962
 9940TIP3    H151235   5.360   1.114   1.224  0.5210  0.2203 -0.0826
 9940TIP3    H251236   5.456   1.005   1.268 -0.4337 -0.7960 -0.4619
 9941TIP3   OH251237   1.988   2.686  12.857  0.3164 -0.0546  0.5816
 9941TIP3    H151238   2.050   2.695  12.784  0.6139  0.0909  0.8470
 9941TIP3    H251239   2.014   2.755  12.919  0.9624 -1.0632  1.4644
 9942TIP3   OH251240   4.369   2.991   4.288  0.0529 -0.0256  0.4119
 9942TIP3    H151241   4.393   3.080   4.262  0.5856 -0.4980 -0.8353
 9942TIP3    H251242   4.276   2.985   4.269  0.3730 -0.2684 -1.2478
 9943TIP3   OH251243   3.945   1.761   2.697 -0.0700 -0.2353  0.4891
 9943TIP3    H151244   4.012   1.694   2.678  1.7175  1.9363 -1.5165
 9943TIP3    H251245   3.872   1.739   2.639  0.6013 -0.3480 -0.3337
 9944TIP3   OH251246   1.118   2.047  15.610 -0.0135  0.2968 -0.2065
 9944TIP3    H151247   1.214   2.045  15.605  0.0019  1.1274 -0.3532
 9944TIP3    H251248   1.093   2.127  15.564 -0.6614  1.1848  1.6121
 9945TIP3   OH251249   3.702   0.380  14.497 -0.3242 -0.2400 -0.5899
 9945TIP3    H151250   3.783   0.419  14.529 -1.2494  1.0740  0.2331
 9945TIP3    H251251   3.643   0.454  14.484 -1.6512 -1.2362 -0.4398
 9946TIP3   OH251252   2.274   3.412   0.006  0.2613 -0.1261  0.1236
 9946TIP3    H151253   2.318   3.497   0.012  1.2605 -0.6746  0.7484
 9946TIP3    H251254   2.238   3.397   0.093 -0.1609 -0.2272 -0.0623
 9947TIP3   OH251255   3.305   2.486   2.548  0.6121  0.4521  0.1680
 9947TIP3    H151256   3.362   2.562   2.543  0.4671  0.5225 -0.5541
 9947TIP3    H251257   3.218   2.522   2.568  0.5531  0.4767 -0.1246
 9948TIP3   OH251258   3.292   3.148   4.177 -0.9085 -0.3311  0.1514
 9948TIP3    H151259   3.258   3.069   4.134 -2.1951 -1.1185  2.4708
 9948TIP3    H251260   3.218   3.182   4.228 -0.6404  2.8715 -1.3077
 9949TIP3   OH251261   0.072   6.790   5.792 -0.1383 -0.0788  0.3114
 9949TIP3    H151262   0.053   6.710   5.841  1.7693  0.2303  1.6531
 9949TIP3    H251263  -0.007   6.843   5.801  0.0518 -0.1137  2.9975
 9950TIP3   OH251264   0.881   2.486   0.922  0.0707  0.4878  0.1852
 9950TIP3    H151265   0.944   2.457   0.856  1.2144  1.3243  0.8687
 9950TIP3    H251266   0.797   2.486   0.877  0.7355  0.4754 -1.0947
 9951TIP3   OH251267   6.517   4.380  16.978  0.7838  0.2511  0.1830
 9951TIP3    H151268   6.509   4.386  17.074  0.4059  0.1094  0.1645
 9951TIP3    H251269   6.600   4.334  16.964  0.2992 -0.7497  0.4761
 9952TIP3   OH251270   0.054   0.213   4.150 -0.2078  0.7504  0.4680
 9952TIP3    H151271   0.020   0.126   4.168  0.4085  0.5371  0.5951
 9952TIP3    H251272   0.110   0.234   4.225  0.6838  0.7214 -0.1791
 9953TIP3   OH251273   6.697   3.018   5.437 -0.2157  0.4191  0.3441
 9953TIP3    H151274   6.642   2.969   5.497 -0.9904 -0.3554 -0.9412
 9953TIP3    H251275   6.766   3.055   5.492 -1.4964  0.6644  1.8559
 9954TIP3   OH251276   6.119   4.457   2.460 -0.4894 -0.4308  0.4698
 9954TIP3    H151277   6.213   4.448   2.471 -0.5150 -0.3235  0.8056
 9954TIP3    H251278   6.081   4.407   2.532 -0.6628  0.4163  0.9909
 9955TIP3   OH251279   2.058   1.386   4.336  0.2988  0.0885 -0.3872
 9955TIP3    H151280   1.969   1.360   4.310  0.0739  0.2648  0.1976
 9955TIP3    H251281   2.051   1.479   4.356  0.7603  0.2496 -0.9551
 9956TIP3   OH251282   0.541   6.715   0.974  0.1466  0.1835  0.5576
 9956TIP3    H151283   0.476   6.656   0.937 -2.5052  1.2349  3.1742
 9956TIP3    H251284   0.543   6.790   0.914 -0.2395 -0.3283 -0.1002
 9957TIP3   OH251285   3.100   2.218   4.889  0.3892 -0.2767 -0.1378
 9957TIP3    H151286   3.110   2.155   4.818  0.0099  1.0033 -1.3840
 9957TIP3    H251287   3.059   2.294   4.847 -0.4089  0.2891  1.5946
 9958TIP3   OH251288   4.185   3.412  15.249 -0.1215 -0.3440 -0.2866
 9958TIP3    H151289   4.103   3.368  15.224 -0.5698 -0.2194  0.8820
 9958TIP3    H251290   4.182   3.413  15.345  0.6239  0.8586 -0.2687
 9959TIP3   OH251291   6.630   0.219   1.387  0.3024  0.4339 -0.5027
 9959TIP3    H151292   6.559   0.170   1.428  1.1190 -0.4563 -0.0962
 9959TIP3    H251293   6.702   0.156   1.381  0.8762  1.1457 -1.4281
 9960TIP3   OH251294   6.648   1.894   0.998 -0.0806  0.1336  0.1058
 9960TIP3    H151295   6.736   1.856   0.992 -0.0151  0.2912  0.0645
 9960TIP3    H251296   6.597   1.846   0.933 -0.1148 -0.2046  0.3785
 9961TIP3   OH251297   1.451   3.974  12.862  0.4456  0.5791 -0.0695
 9961TIP3    H151298   1.542   4.004  12.862  0.2904  1.0703 -0.4278
 9961TIP3    H251299   1.399   4.054  12.852 -0.0828  0.4461  1.3160
 9962TIP3   OH251300   0.563   6.709  11.208  0.8043 -0.1435 -0.1845
 9962TIP3    H151301   0.523   6.657  11.138  0.4964 -0.2140  0.0440
 9962TIP3    H251302   0.489   6.738  11.262  1.0494 -0.1876  0.1804
 9963TIP3   OH251303   6.047   0.479   4.555  0.1729 -0.0047  0.2019
 9963TIP3    H151304   6.125   0.527   4.582  1.5857 -1.0411 -1.7543
 9963TIP3    H251305   6.063   0.389   4.582 -0.4535 -0.1905 -0.0065
 9964TIP3   OH251306   6.189   6.623   1.718 -0.5028 -0.0921 -0.3017
 9964TIP3    H151307   6.261   6.569   1.684  0.5394  0.7268  0.5407
 9964TIP3    H251308   6.166   6.681   1.646  0.6312  0.5749 -0.1470
 9965TIP3   OH251309   4.241   3.165  14.363  0.0984  0.0028  0.1183
 9965TIP3    H151310   4.319   3.161  14.418  0.0951  0.1074  0.1302
 9965TIP3    H251311   4.263   3.112  14.286  0.4286  0.5788 -0.1895
 9966TIP3   OH251312   2.339   0.767   3.466  0.4815  0.0009 -0.0952
 9966TIP3    H151313   2.393   0.787   3.542  0.4201  0.8529 -0.2708
 9966TIP3    H251314   2.254   0.741   3.503  0.5715  0.0349  0.1356
 9967TIP3   OH251315   0.051   5.490   0.356 -0.6288 -0.2441 -0.1627
 9967TIP3    H151316   0.042   5.405   0.400 -0.6193  0.6979  1.7656
 9967TIP3    H251317  -0.032   5.501   0.309 -0.6399 -1.3031 -0.4149
 9968TIP3   OH251318   6.528   0.968   2.169 -0.1934  0.5668 -0.2731
 9968TIP3    H151319   6.592   0.899   2.185  0.1452  0.7090 -0.9747
 9968TIP3    H251320   6.536   0.987   2.076  0.1811  1.9943  0.0186
 9969TIP3   OH251321   5.082   5.371   2.366 -0.2692 -0.2864 -0.6168
 9969TIP3    H151322   5.099   5.354   2.459 -1.2879 -0.6691 -0.4863
 9969TIP3    H251323   5.020   5.444   2.367  1.6152  1.4081 -1.0854
 9970TIP3   OH251324   4.794   0.265  12.418 -0.6195  0.1617 -0.3500
 9970TIP3    H151325   4.744   0.183  12.420  1.9936 -1.5150  0.3380
 9970TIP3    H251326   4.756   0.317  12.489 -1.9899 -0.6568 -0.4451
 9971TIP3   OH251327   2.131   3.540   2.249 -0.2582  0.6574  0.4162
 9971TIP3    H151328   2.173   3.525   2.165  0.5124 -0.0172  0.9127
 9971TIP3    H251329   2.103   3.453   2.278 -0.5775  0.8935  0.8357
 9972TIP3   OH251330   5.285   5.387   3.744 -0.0406 -0.2643 -0.0560
 9972TIP3    H151331   5.296   5.348   3.657  0.5587  1.1671 -0.6502
 9972TIP3    H251332   5.368   5.432   3.760  0.1665 -1.1495  1.6201
 9973TIP3   OH251333   3.773   1.497   2.870  0.7092  0.1702  0.5751
 9973TIP3    H151334   3.678   1.488   2.876  0.7046  0.5673  1.1534
 9973TIP3    H251335   3.790   1.589   2.891  1.0017  0.8675 -2.2741
 9974TIP3   OH251336   6.053   2.338   0.480 -0.1327  0.1740  0.0975
 9974TIP3    H151337   6.128   2.352   0.538  0.5113  0.5904 -0.7959
 9974TIP3    H251338   5.990   2.405   0.505  0.3950  0.7461 -0.0840
 9975TIP3   OH251339   2.198   3.059   6.417 -0.4442 -0.1999 -0.2787
 9975TIP3    H151340   2.246   3.031   6.495 -0.8607 -1.6957 -0.5359
 9975TIP3    H251341   2.161   2.979   6.381 -1.5966  0.6785 -1.1362
 9976TIP3   OH251342   6.685   5.630  16.723 -0.1657  0.5957 -0.0861
 9976TIP3    H151343   6.683   5.593  16.634 -0.8972  2.2774 -0.8016
 9976TIP3    H251344   6.736   5.566  16.773 -0.5475 -0.8934 -1.4719
 9977TIP3   OH251345   4.690   4.979   4.557  0.1628  0.1503 -0.1902
 9977TIP3    H151346   4.598   5.004   4.571 -0.0177 -0.1943 -0.7357
 9977TIP3    H251347   4.729   4.983   4.644 -0.2373  0.8366 -0.0339
 9978TIP3   OH251348   5.488   1.745   1.671 -0.1449  0.1320  0.4134
 9978TIP3    H151349   5.464   1.715   1.583  1.1435  1.0904 -0.2991
 9978TIP3    H251350   5.466   1.671   1.728 -0.8712 -0.5686 -0.7205
 9979TIP3   OH251351   1.285   2.588   4.328 -0.0279  0.2736  0.4563
 9979TIP3    H151352   1.293   2.659   4.263 -1.1883  0.8338  0.8951
 9979TIP3    H251353   1.322   2.511   4.284  0.1756  0.8847 -0.4724
 9980TIP3   OH251354   5.050   5.826   3.052 -0.1529 -0.3802  0.2692
 9980TIP3    H151355   5.107   5.749   3.061 -0.4172 -0.7289 -0.8385
 9980TIP3    H251356   4.996   5.807   2.975 -0.9940  0.4382  0.6356
 9981TIP3   OH251357   5.438   4.336   0.025  0.2394  0.2444  0.0853
 9981TIP3    H151358   5.402   4.276  -0.040  1.2714  1.5560 -1.7850
 9981TIP3    H251359   5.525   4.301   0.044  0.4087  0.5331 -0.1576
 9982TIP3   OH251360   6.100   2.212   3.307  0.8494 -0.1800 -0.7618
 9982TIP3    H151361   6.055   2.132   3.281 -2.0924  0.8751  0.6563
 9982TIP3    H251362   6.114   2.202   3.402 -0.3239  1.2796 -0.4045
 9983TIP3   OH251363   0.287   5.244  16.893  0.8594 -0.0380  0.1298
 9983TIP3    H151364   0.326   5.330  16.904  1.3240 -0.2524  0.2021
 9983TIP3    H251365   0.317   5.215  16.807  1.6628 -0.6045  0.5846
 9984TIP3   OH251366   1.237   5.416  12.970 -0.0548 -0.2330  0.1717
 9984TIP3    H151367   1.177   5.430  13.043  0.0922 -0.1941  0.2858
 9984TIP3    H251368   1.254   5.322  12.970 -0.1213 -0.2453  0.1340
 9985TIP3   OH251369   6.617   2.072  12.197 -0.3170  0.0561 -0.3943
 9985TIP3    H151370   6.602   2.137  12.128  1.3292  0.6597 -0.2342
 9985TIP3    H251371   6.547   2.008  12.185 -0.0959  0.1400 -2.6303
 9986TIP3   OH251372   4.327   0.977  12.264 -0.2133  0.0544  0.2014
 9986TIP3    H151373   4.368   0.900  12.225  2.0489  1.2096  0.1754
 9986TIP3    H251374   4.363   0.982  12.353 -1.5883  0.2066  0.7871
 9987TIP3   OH251375   6.528   5.326  11.933 -0.1499  0.2626  0.3684
 9987TIP3    H151376   6.578   5.346  12.013  1.9572 -1.4251 -0.4302
 9987TIP3    H251377   6.583   5.359  11.862 -0.6196 -0.7971 -0.5072
 9988TIP3   OH251378   3.067   1.458  15.187 -0.0800  0.1630 -0.0287
 9988TIP3    H151379   3.126   1.385  15.209 -0.5032  0.1488  1.1631
 9988TIP3    H251380   2.997   1.418  15.135  0.0076 -0.1697  0.1077
 9989TIP3   OH251381   4.377   1.917  15.588  0.4847 -0.7389  0.3659
 9989TIP3    H151382   4.470   1.926  15.567  0.6942 -2.9371  0.1189
 9989TIP3    H251383   4.332   1.942  15.507  0.9660 -1.6192 -0.1886
 9990TIP3   OH251384   2.324   4.046  12.198 -0.0169 -0.4112  0.3509
 9990TIP3    H151385   2.353   3.956  12.182 -0.3797 -0.2041 -1.7151
 9990TIP3    H251386   2.367   4.098  12.131 -3.0177  0.2948 -1.2134
 9991TIP3   OH251387   3.246   1.671   3.547 -0.1121 -0.1612  0.0464
 9991TIP3    H151388   3.164   1.658   3.498  0.0501  0.8744 -0.5375
 9991TIP3    H251389   3.310   1.695   3.480  0.8702 -1.6515  0.4003
 9992TIP3   OH251390   5.498   0.804  12.435 -0.2280 -0.1541  0.1893
 9992TIP3    H151391   5.447   0.803  12.516  0.4090 -1.1718  0.5877
 9992TIP3    H251392   5.588   0.820  12.463  0.0516 -0.8529 -0.2763
 9993TIP3   OH251393   6.478   6.534  14.508 -0.4844  0.5512  0.2285
 9993TIP3    H151394   6.408   6.577  14.556  0.5605  1.0309  1.3788
 9993TIP3    H251395   6.523   6.480  14.573 -1.0822 -1.4896 -0.9423
 9994TIP3   OH251396   0.319   3.231   3.699 -0.0261 -0.8003 -0.0937
 9994TIP3    H151397   0.333   3.137   3.706 -0.0571 -0.7827  0.2201
 9994TIP3    H251398   0.228   3.244   3.727 -0.1768 -0.7332 -0.6093
 9995TIP3   OH251399   4.460   3.260   1.374 -0.0409  0.2239 -0.5596
 9995TIP3    H151400   4.450   3.176   1.328  0.1247 -0.0072 -0.1798
 9995TIP3    H251401   4.382   3.265   1.430  0.4229 -0.1338  0.1316
 9996TIP3   OH251402   2.945   1.650   6.143 -0.4755  0.0097 -0.4585
 9996TIP3    H151403   2.903   1.691   6.068  0.2361  2.1480  0.2469
 9996TIP3    H251404   3.010   1.714   6.173  0.6581 -1.6150  0.7657
 9997TIP3   OH251405   6.573   0.477   1.465 -0.5777  0.3096  0.1480
 9997TIP3    H151406   6.630   0.514   1.397 -1.4301  0.9179 -0.2522
 9997TIP3    H251407   6.563   0.385   1.440 -2.4736  0.9458 -1.7280
 9998TIP3   OH251408   6.512   5.835   5.811 -0.0952  0.6850  0.1117
 9998TIP3    H151409   6.571   5.872   5.876 -0.0832  0.3568  0.2914
 9998TIP3    H251410   6.469   5.762   5.856 -1.5627  1.6660  0.3720
 9999TIP3   OH251411   1.427   0.909   1.355 -0.7047  0.1239 -0.0729
 9999TIP3    H151412   1.384   0.824   1.352  1.6743 -1.3003  2.1415
 9999TIP3    H251413   1.369   0.963   1.410 -1.2901 -0.6623  0.1031
10000TIP3   OH251414   0.651   0.166   1.364  0.1835  0.4457 -0.2211
10000TIP3    H151415   0.599   0.239   1.397 -0.8409  0.2628 -1.3506
10000TIP3    H251416   0.742   0.196   1.367 -0.1666  1.4998 -0.0411
10001TIP3   OH251417   5.612   6.324  14.023 -0.3598 -0.2838 -0.4303
10001TIP3    H151418   5.565   6.245  14.051  1.6085 -1.7638 -1.0482
10001TIP3    H251419   5.544   6.390  14.014 -1.9436 -1.5452  1.3041
10002TIP3   OH251420   0.776   3.178  13.255 -0.1320 -0.6877  0.3403
10002TIP3    H151421   0.857   3.227  13.238  0.9410 -2.9648 -1.6211
10002TIP3    H251422   0.798   3.121  13.329 -0.3057 -0.5313  0.5122
10003TIP3   OH251423   5.754   2.547   3.847  0.3246 -0.6304 -0.1968
10003TIP3    H151424   5.844   2.519   3.861 -0.0312 -1.7619  0.0001
10003TIP3    H251425   5.758   2.607   3.773  1.4065  0.4311  0.6867
10004TIP3   OH251426   3.303   6.392   4.193  0.4943  0.3241 -0.0219
10004TIP3    H151427   3.292   6.475   4.146 -2.2449 -0.1994 -0.4481
10004TIP3    H251428   3.353   6.337   4.134  1.7530  1.4176 -0.0184
10005TIP3   OH251429   3.459   2.824   3.112  0.1898  0.0625 -0.2099
10005TIP3    H151430   3.443   2.730   3.101 -1.1381  0.1917  0.4551
10005TIP3    H251431   3.542   2.839   3.067  1.2516 -1.7220  1.0338
10006TIP3   OH251432   4.804   2.788  15.916 -0.6133  0.3574  0.1867
10006TIP3    H151433   4.798   2.721  15.984 -1.1180 -1.5204 -1.6160
10006TIP3    H251434   4.730   2.771  15.858 -0.4704  2.1888 -0.6291
10007TIP3   OH251435   5.308   0.426   3.807 -0.1758 -0.5371  0.0961
10007TIP3    H151436   5.266   0.510   3.828  1.4117  0.2857  0.0875
10007TIP3    H251437   5.338   0.392   3.891  1.3532  0.1167 -0.1594
10008TIP3   OH251438   0.092   4.715  11.202  0.3373 -0.1971  0.2071
10008TIP3    H151439   0.099   4.742  11.111 -2.5381 -2.3388 -0.7779
10008TIP3    H251440   0.180   4.687  11.226  0.6667 -2.2560 -2.8594
10009TIP3   OH251441   2.964   2.507   5.106 -0.0254  0.6191 -0.0018
10009TIP3    H151442   2.979   2.467   5.192  0.7339  0.8332 -0.0282
10009TIP3    H251443   3.048   2.499   5.061 -0.7399 -0.5368 -1.1779
10010TIP3   OH251444   2.132   3.946  13.182 -0.1242  0.1869 -0.2578
10010TIP3    H151445   2.218   3.986  13.175 -0.8807  2.1854  1.1456
10010TIP3    H251446   2.093   3.984  13.261 -1.6029 -2.0333  0.1883
10011TIP3   OH251447   0.012   4.952   5.737  0.3116 -0.4111 -0.3239
10011TIP3    H151448   0.015   4.859   5.759  0.2972 -0.4389 -0.4359
10011TIP3    H251449  -0.056   4.988   5.794  0.2437 -0.4898 -0.3555
10012TIP3   OH251450   1.639   4.421   1.479  0.5585 -0.4756 -0.2823
10012TIP3    H151451   1.732   4.429   1.498  0.4070 -1.2180  0.8516
10012TIP3    H251452   1.634   4.426   1.383  1.5689  1.2975 -0.2783
10013TIP3   OH251453   3.547   0.129  15.258 -0.2653 -0.3153  0.6792
10013TIP3    H151454   3.521   0.205  15.207 -1.4637 -0.9993  0.2314
10013TIP3    H251455   3.555   0.161  15.348  0.0876  0.5073  0.3660
10014TIP3   OH251456   5.328   2.499  15.451  0.3733  0.7641 -0.0530
10014TIP3    H151457   5.374   2.581  15.471  1.2670  1.0215 -2.6694
10014TIP3    H251458   5.239   2.527  15.428  0.5960  0.9881 -0.6663
10015TIP3   OH251459   0.139   3.163   6.658  0.0060 -0.3397  0.2492
10015TIP3    H151460   0.045   3.167   6.679  0.0949  0.8404  0.4860
10015TIP3    H251461   0.168   3.254   6.662  0.8015 -0.4846 -1.5239
10016TIP3   OH251462   0.054   0.304  14.948 -0.1009  0.4616 -0.1993
10016TIP3    H151463  -0.026   0.281  14.996 -1.6492  0.5476 -2.6039
10016TIP3    H251464   0.023   0.347  14.868  2.3784  0.6615 -1.1420
10017TIP3   OH251465   5.310   3.531   2.734  0.3687 -0.5065  0.1579
10017TIP3    H151466   5.243   3.478   2.691  0.5813 -1.5206  1.0372
10017TIP3    H251467   5.353   3.578   2.663 -1.4593  0.4183 -0.4073
10018TIP3   OH251468   1.905   2.060   2.404  0.1955 -0.3753 -0.0561
10018TIP3    H151469   1.828   2.091   2.452  1.3075  0.4238  1.2922
10018TIP3    H251470   1.971   2.046   2.472  1.5097 -0.2324 -1.2590
10019TIP3   OH251471   0.608   1.707  11.639  0.4177  0.2217  0.4346
10019TIP3    H151472   0.682   1.740  11.689  0.8106  0.4166 -0.2672
10019TIP3    H251473   0.534   1.761  11.667  0.5512  0.0808  1.0712
10020TIP3   OH251474   4.712   3.657  13.256  0.0308  0.3084 -0.4879
10020TIP3    H151475   4.730   3.567  13.280  0.6989  0.6361  0.2955
10020TIP3    H251476   4.743   3.665  13.165 -2.0335 -0.8008 -1.3546
10021TIP3   OH251477   0.630   2.600  14.549  0.4742  0.0442  0.0500
10021TIP3    H151478   0.589   2.521  14.584  0.3637  0.1874  0.2489
10021TIP3    H251479   0.718   2.600  14.585  1.4376 -1.4006 -2.0766
10022TIP3   OH251480   1.356   5.727   3.362  0.3668  0.0019  0.1526
10022TIP3    H151481   1.317   5.759   3.281  0.6074  0.1971  0.1114
10022TIP3    H251482   1.283   5.722   3.424 -0.1391 -1.7292 -0.5286
10023TIP3   OH251483   5.718   4.315   1.866  0.1597 -0.3982 -0.8890
10023TIP3    H151484   5.632   4.341   1.898  0.0381 -1.9695  0.2282
10023TIP3    H251485   5.701   4.272   1.782 -0.3359 -1.7145 -0.1504
10024TIP3   OH251486   1.915   5.601  14.922  0.1861  0.3172 -0.1033
10024TIP3    H151487   1.867   5.658  14.982  1.0672  0.7609  0.1975
10024TIP3    H251488   1.930   5.521  14.971 -0.9003 -0.1219 -0.4644
10025TIP3   OH251489   2.448   0.366   5.187  0.1577 -0.3329  0.4695
10025TIP3    H151490   2.502   0.372   5.265  0.7750  0.5428  0.0002
10025TIP3    H251491   2.509   0.348   5.116 -0.1942  0.3458 -0.0214
10026TIP3   OH251492   1.568   4.597  13.148  0.0632 -0.2296  0.0831
10026TIP3    H151493   1.639   4.651  13.113  1.4294 -1.3489  1.0108
10026TIP3    H251494   1.568   4.617  13.242 -0.3379 -0.8229  0.2093
10027TIP3   OH251495   0.603   3.552   2.297 -0.7081  0.3287  0.4608
10027TIP3    H151496   0.518   3.567   2.256 -0.5129  0.7495  0.1933
10027TIP3    H251497   0.583   3.533   2.389 -1.0626  1.0985  0.5558
10028TIP3   OH251498   5.416   4.098   3.745 -0.2558  0.0836 -0.1084
10028TIP3    H151499   5.486   4.132   3.800 -0.5418 -0.5051  0.6375
10028TIP3    H251500   5.425   4.003   3.750 -1.2882 -0.0109  0.2641
10029TIP3   OH251501   5.968   4.531   0.563  0.3685  0.0481 -0.6571
10029TIP3    H151502   6.056   4.568   0.558  1.4432 -1.8104  1.9530
10029TIP3    H251503   5.914   4.602   0.599  1.1112  0.7725 -0.9504
10030TIP3   OH251504   6.232   5.305   3.308  0.5368  0.0638 -0.0996
10030TIP3    H151505   6.276   5.380   3.349  0.6625 -0.3610  0.5453
10030TIP3    H251506   6.263   5.306   3.218  1.9745 -0.2985  0.3735
10031TIP3   OH251507   6.473   5.662   4.990  0.2316  0.0517 -0.5463
10031TIP3    H151508   6.468   5.649   4.896 -0.0839 -0.0143 -0.5204
10031TIP3    H251509   6.383   5.677   5.018  0.4915  1.6697 -0.4817
10032TIP3   OH251510   5.318   5.097   2.582 -0.3102  0.2626  0.0009
10032TIP3    H151511   5.379   5.025   2.564  1.1009  1.6407 -0.9864
10032TIP3    H251512   5.234   5.066   2.548 -0.0314 -1.3600  0.6703
10033TIP3   OH251513   0.384   4.841   0.938  0.4344 -0.5490 -0.4737
10033TIP3    H151514   0.345   4.926   0.919 -0.8530 -0.7752  0.9831
10033TIP3    H251515   0.383   4.794   0.854 -1.6700 -0.2296 -0.6667
10034TIP3   OH251516   5.445   1.713   4.850  0.0555  0.5502 -0.2438
10034TIP3    H151517   5.397   1.778   4.798 -0.1040  1.5422  1.1021
10034TIP3    H251518   5.536   1.739   4.842 -0.1304  1.9260  1.5355
10035TIP3   OH251519   2.204   0.966   1.786 -0.0244  0.3893 -0.4467
10035TIP3    H151520   2.185   0.891   1.843  1.0748  1.7342  1.8174
10035TIP3    H251521   2.260   0.930   1.717 -0.0234 -0.9813  0.2356
10036TIP3   OH251522   2.984   0.145   3.378  0.1086 -0.4983 -0.3085
10036TIP3    H151523   3.004   0.226   3.331 -0.6602 -0.7227 -1.0376
10036TIP3    H251524   2.907   0.165   3.431 -1.7292 -1.4401 -2.4761
10037TIP3   OH251525   1.609   0.145  16.917  0.4334  0.3681 -0.4104
10037TIP3    H151526   1.571   0.058  16.909 -0.2343  0.7369 -1.4787
10037TIP3    H251527   1.699   0.129  16.945  0.2434 -0.6514 -0.3296
10038TIP3   OH251528   4.296   1.056   3.892  0.1027 -0.5806  0.9394
10038TIP3    H151529   4.213   1.024   3.929 -1.1273  1.8743  0.5433
10038TIP3    H251530   4.279   1.062   3.798  1.2796 -1.4925  0.6558
10039TIP3   OH251531   0.793   5.956   5.987 -0.1889 -0.5948 -0.3649
10039TIP3    H151532   0.842   5.951   6.069 -0.3302  1.5666 -0.0822
10039TIP3    H251533   0.718   5.899   6.001  0.4370 -1.2431  0.5102
10040TIP3   OH251534   5.508   1.502  11.781 -0.1737 -0.4621  0.0885
10040TIP3    H151535   5.478   1.592  11.796 -0.9932 -0.7057 -0.0052
10040TIP3    H251536   5.454   1.449  11.841 -0.1767 -0.9572 -0.3449
10041TIP3   OH251537   1.558   4.081   1.255 -0.0642 -0.2470  0.2314
10041TIP3    H151538   1.622   4.145   1.287  0.2155 -0.3011 -0.2133
10041TIP3    H251539   1.497   4.070   1.328  1.1236 -1.1150  1.1361
10042TIP3   OH251540   5.970   1.686   2.014 -0.7782 -0.0445  0.3541
10042TIP3    H151541   5.981   1.594   1.991 -0.2890 -0.1155  0.8508
10042TIP3    H251542   6.014   1.695   2.098 -0.5124  0.7257  0.1388
10043TIP3   OH251543   2.145   3.174  11.481  0.1999  0.0584  0.1739
10043TIP3    H151544   2.091   3.095  11.489 -2.3272  1.6603  0.1397
10043TIP3    H251545   2.113   3.231  11.550  0.5272  1.8374 -1.0830
10044TIP3   OH251546   5.497   2.669   0.695  0.2977 -0.1609 -0.8795
10044TIP3    H151547   5.498   2.682   0.790 -0.1122 -1.0066 -0.7534
10044TIP3    H251548   5.428   2.727   0.663  1.0872  0.8635 -0.7889
10045TIP3   OH251549   6.689   0.321  16.092 -0.4497  0.1948  0.2314
10045TIP3    H151550   6.773   0.297  16.131  1.0615  0.6699 -2.4604
10045TIP3    H251551   6.667   0.405  16.132  1.2702  0.9079 -0.2420
10046TIP3   OH251552   3.888   5.218   6.067  0.7171 -0.4442  0.0548
10046TIP3    H151553   3.794   5.229   6.058  0.4989 -1.8950  0.2105
10046TIP3    H251554   3.926   5.295   6.024 -0.5345  0.8938  1.2580
10047TIP3   OH251555   0.280   3.523   5.526  0.2627  0.6408 -0.3807
10047TIP3    H151556   0.334   3.507   5.448  0.0304  0.0346 -0.4153
10047TIP3    H251557   0.337   3.575   5.583  1.0175 -0.2656 -0.2760
10048TIP3   OH251558   1.126   0.073   3.525  0.2054  0.4051 -0.8936
10048TIP3    H151559   1.107   0.028   3.443  0.8987 -0.0395 -0.8209
10048TIP3    H251560   1.199   0.024   3.563  1.0515  1.6411 -0.8567
10049TIP3   OH251561   0.246   2.859  13.771 -0.2633 -0.3089 -0.1011
10049TIP3    H151562   0.261   2.904  13.854  0.3120  0.1258 -0.4336
10049TIP3    H251563   0.186   2.787  13.793  0.3281 -0.5461  0.8003
10050TIP3   OH251564   4.949   5.743  11.812 -0.0831  0.6649  0.1513
10050TIP3    H151565   4.936   5.823  11.863  1.5423  2.0661 -1.5014
10050TIP3    H251566   5.006   5.769  11.740  1.2658 -2.1803  0.0352
10051TIP3   OH251567   4.823   4.498   0.489  0.5517 -0.1636 -0.0556
10051TIP3    H151568   4.735   4.461   0.487  0.2052  0.6402 -0.1611
10051TIP3    H251569   4.871   4.450   0.422  0.9077 -2.2877  1.6346
10052TIP3   OH251570   1.353   4.843   3.775 -0.9994  0.2536  0.2523
10052TIP3    H151571   1.362   4.756   3.734 -0.3573  0.1637  0.5575
10052TIP3    H251572   1.370   4.905   3.704  1.2423  0.0940  0.5534
10053TIP3   OH251573   4.360   3.812  13.103  0.3526  0.2468  0.0801
10053TIP3    H151574   4.374   3.808  13.008  0.7276 -2.2219  0.1650
10053TIP3    H251575   4.290   3.876  13.114 -1.0036 -0.7218 -2.0687
10054TIP3   OH251576   6.766   1.732   1.270 -0.4061  0.1214  0.8580
10054TIP3    H151577   6.803   1.739   1.182  1.1901  0.6094  1.5225
10054TIP3    H251578   6.839   1.700   1.324 -1.0602  0.7834  2.1864
10055TIP3   OH251579   2.291   5.082   2.715 -0.5376 -0.2518  0.4242
10055TIP3    H151580   2.226   5.024   2.755 -2.3215  0.9704 -0.5130
10055TIP3    H251581   2.308   5.044   2.630 -1.7369  0.5490 -0.2060
10056TIP3   OH251582   3.565   4.083   0.440 -0.3969  0.1458  0.1307
10056TIP3    H151583   3.511   4.042   0.373 -0.0826  0.7129 -0.4909
10056TIP3    H251584   3.646   4.107   0.394 -0.4322  1.1243  0.5567
10057TIP3   OH251585   5.438   4.593   5.017 -0.5867 -0.5433 -0.5524
10057TIP3    H151586   5.497   4.638   4.956 -0.1448 -0.0215  0.2468
10057TIP3    H251587   5.482   4.510   5.035  0.5155  0.3341  0.9552
10058TIP3   OH251588   6.133   4.499   4.847 -0.0603 -0.0654  0.5722
10058TIP3    H151589   6.136   4.476   4.940 -1.6070 -1.7195  0.2566
10058TIP3    H251590   6.221   4.479   4.815 -0.0012 -1.0804  1.3226
10059TIP3   OH251591   3.987   3.221   1.174  0.0924 -0.3229 -0.0594
10059TIP3    H151592   3.984   3.213   1.078 -1.9075  1.0636 -0.1904
10059TIP3    H251593   3.941   3.144   1.206 -1.0319  0.2047 -0.3454
10060TIP3   OH251594   4.428   5.156  16.584  0.0426  0.3104 -0.4933
10060TIP3    H151595   4.422   5.061  16.572  0.0689  0.1234  0.7562
10060TIP3    H251596   4.445   5.191  16.497 -0.5888 -0.7782 -1.0753
10061TIP3   OH251597   0.907   0.707   0.571 -0.0241 -0.0846 -0.7564
10061TIP3    H151598   0.940   0.796   0.584 -0.6822 -0.0284  0.7686
10061TIP3    H251599   0.965   0.652   0.626 -0.6921 -0.3487 -0.2994
10062TIP3   OH251600   0.167   0.950  16.453 -0.4541  0.7008 -0.3171
10062TIP3    H151601   0.148   1.000  16.532  1.2054 -2.2966  2.2077
10062TIP3    H251602   0.261   0.966  16.437  0.1818 -1.6697  0.7233
10063TIP3   OH251603   0.282   0.615   2.200  0.1489 -0.8583  1.0435
10063TIP3    H151604   0.314   0.525   2.190 -3.8909 -2.3226 -1.4619
10063TIP3    H251605   0.222   0.610   2.275 -0.6844 -0.5576  0.4200
10064TIP3   OH251606   0.411   2.141  16.689 -0.0664  0.1507 -0.4699
10064TIP3    H151607   0.485   2.095  16.651 -0.0878  1.1455 -1.7881
10064TIP3    H251608   0.335   2.087  16.670  0.1565 -0.2465 -0.2337
10065TIP3   OH251609   0.936   0.774   5.256  0.2647  0.1627 -0.4600
10065TIP3    H151610   0.946   0.757   5.350 -0.2571  0.2838 -0.3794
10065TIP3    H251611   0.886   0.856   5.252 -1.4271 -0.8463 -0.8403
10066TIP3   OH251612   4.059   3.846   3.480  0.2351 -0.3398 -0.5963
10066TIP3    H151613   4.145   3.885   3.470  0.7332 -1.4480 -0.8041
10066TIP3    H251614   4.065   3.762   3.433 -1.4757  0.3250 -2.1413
10067TIP3   OH251615   4.719   6.221   3.366  0.2490  0.2281 -0.7032
10067TIP3    H151616   4.713   6.125   3.368  0.2728  0.2309  0.4019
10067TIP3    H251617   4.632   6.250   3.340  0.2448 -0.0929 -1.0608
10068TIP3   OH251618   1.050   2.700   3.660  0.0472 -0.5442 -0.1467
10068TIP3    H151619   1.123   2.762   3.664 -0.7594  0.7220 -2.7612
10068TIP3    H251620   0.982   2.740   3.715  0.1443 -0.0067 -0.4129
10069TIP3   OH251621   6.049   2.389  11.868  0.2206  0.8000  0.0524
10069TIP3    H151622   6.100   2.341  11.803  0.1678 -0.7554  1.0884
10069TIP3    H251623   6.076   2.480  11.858  0.5618  0.5398 -1.7970
10070TIP3   OH251624   0.599   4.145   5.731  0.2712  0.1325 -0.5642
10070TIP3    H151625   0.663   4.204   5.771  0.5465 -0.2329 -0.4611
10070TIP3    H251626   0.597   4.170   5.639  0.7422 -0.0093 -0.6183
10071TIP3   OH251627   3.167   2.864   2.084 -0.1587  0.4393  0.4936
10071TIP3    H151628   3.245   2.888   2.034  0.2507 -2.4437 -0.4561
10071TIP3    H251629   3.112   2.818   2.022 -1.0447 -0.5817  1.9713
10072TIP3   OH251630   4.231   6.480  14.266  0.5473  0.0306  0.3790
10072TIP3    H151631   4.211   6.386  14.264 -0.8590  0.3171 -0.0075
10072TIP3    H251632   4.322   6.484  14.295  0.4157 -1.4233  1.1025
10073TIP3   OH251633   5.213   6.092  16.550  0.4414  0.8652  0.1296
10073TIP3    H151634   5.274   6.052  16.489  1.4826 -0.3954  1.8795
10073TIP3    H251635   5.131   6.044  16.536  0.1249  1.8073 -1.4580
10074TIP3   OH251636   6.089   1.564  12.770  0.4622  0.4632 -0.4348
10074TIP3    H151637   6.105   1.500  12.701  0.7556 -0.4505  0.4642
10074TIP3    H251638   6.128   1.526  12.848 -0.4120  1.1917  0.3835
10075TIP3   OH251639   4.288   3.301  11.859  0.2025  0.0128  0.2524
10075TIP3    H151640   4.355   3.273  11.796 -0.4672  1.6172 -1.2584
10075TIP3    H251641   4.206   3.300  11.809 -0.5511  0.1831  1.4453
10076TIP3   OH251642   5.447   6.114  16.751 -0.1402  0.5217  0.3154
10076TIP3    H151643   5.481   6.203  16.761 -2.5477  1.3880  1.5589
10076TIP3    H251644   5.367   6.125  16.698 -2.0502 -0.4088  2.7996
10077TIP3   OH251645   4.004   0.395  13.816  0.0617  0.0536  0.0776
10077TIP3    H151646   3.919   0.432  13.839  0.5596  0.9606  0.5029
10077TIP3    H251647   3.997   0.379  13.721  0.1844  2.2814 -0.3626
10078TIP3   OH251648   0.821   4.811  12.986 -0.0179 -0.5009  0.1733
10078TIP3    H151649   0.892   4.848  13.039 -0.5162  0.2601  0.3411
10078TIP3    H251650   0.741   4.836  13.033 -0.4039 -1.1864 -0.1068
10079TIP3   OH251651   1.679   5.403  14.485 -0.4525 -0.2064  0.3664
10079TIP3    H151652   1.773   5.403  14.503 -0.3367  2.6731  0.2481
10079TIP3    H251653   1.667   5.334  14.421  2.6732  2.8525 -4.1834
10080TIP3   OH251654   4.576   0.776  14.119  0.3377 -0.1234 -0.8842
10080TIP3    H151655   4.572   0.681  14.107  2.6811 -0.6499  1.5911
10080TIP3    H251656   4.531   0.792  14.202  0.6332  0.7991 -0.8867
10081TIP3   OH251657   1.375   2.161   4.705  0.0834 -0.4890  0.1535
10081TIP3    H151658   1.359   2.222   4.633 -3.3648 -1.7655 -0.3827
10081TIP3    H251659   1.441   2.100   4.671 -0.9322 -0.6354 -1.7428
10082TIP3   OH251660   5.579   1.198   6.354 -0.1383  0.1269 -0.4927
10082TIP3    H151661   5.646   1.165   6.295  0.7435  0.5035  0.2713
10082TIP3    H251662   5.542   1.120   6.395  1.0357 -0.0122  0.3507
10083TIP3   OH251663   5.877   2.969  13.451 -0.1645  0.2015  0.9002
10083TIP3    H151664   5.792   2.943  13.415 -0.1519  0.4918  0.6571
10083TIP3    H251665   5.860   3.053  13.494  0.0300  0.3311  0.7231
10084TIP3   OH251666   6.283   0.941  13.464 -0.6127 -0.2125 -0.2344
10084TIP3    H151667   6.224   1.016  13.456 -0.4067 -0.0363 -0.1375
10084TIP3    H251668   6.229   0.865  13.445 -1.3390 -0.2347  1.7287
10085TIP3   OH251669   5.872   4.839  15.513 -0.0654  0.2711 -0.0521
10085TIP3    H151670   5.877   4.751  15.551  0.1389 -0.4815 -1.6961
10085TIP3    H251671   5.939   4.889  15.558 -0.5286 -0.2583  1.2710
10086TIP3   OH251672   1.277   5.674   4.023  0.3639 -0.5210 -0.4900
10086TIP3    H151673   1.185   5.697   4.030  0.7008  0.4988  0.8415
10086TIP3    H251674   1.285   5.593   4.073 -0.1495 -1.7323 -2.2656
10087TIP3   OH251675   3.165   1.166  15.508  0.0013 -0.2057 -0.2762
10087TIP3    H151676   3.147   1.165  15.414 -1.5645 -0.5414  0.0059
10087TIP3    H251677   3.235   1.231  15.517 -2.1428  2.4620 -1.3149
10088TIP3   OH251678   5.057   4.263   2.383 -0.2847  0.1058  1.0062
10088TIP3    H151679   5.057   4.213   2.301 -1.5471 -2.3382  2.3674
10088TIP3    H251680   5.145   4.250   2.419  0.2086  1.0195  0.1631
10089TIP3   OH251681   0.287   4.859   4.741  0.3123 -0.1063 -0.1965
10089TIP3    H151682   0.226   4.886   4.673  0.3124  2.1770  0.6235
10089TIP3    H251683   0.232   4.846   4.819  0.7003  0.6938  0.2208
10090TIP3   OH251684   3.212   5.758  15.689  0.0057  0.3389 -0.5909
10090TIP3    H151685   3.188   5.780  15.779  0.7195 -1.3351  0.0558
10090TIP3    H251686   3.139   5.704  15.657  0.4916 -0.4542 -0.4070
10091TIP3   OH251687   5.037   2.069  13.147 -0.5494 -0.1776  0.1550
10091TIP3    H151688   5.105   2.001  13.149 -0.0652  0.0672 -2.7501
10091TIP3    H251689   5.034   2.103  13.236  1.6876 -1.5897  0.8618
10092TIP3   OH251690   6.239   4.067  11.894 -0.0993  0.3425  0.4700
10092TIP3    H151691   6.144   4.065  11.892 -0.0815 -0.5133 -1.7671
10092TIP3    H251692   6.264   3.986  11.938 -0.3795  0.6632  1.2424
10093TIP3   OH251693   2.251   3.054   2.263 -0.4967 -0.0431  0.4037
10093TIP3    H151694   2.315   3.124   2.251  1.2317 -1.2803  1.8177
10093TIP3    H251695   2.225   3.030   2.174  1.4107  0.1799 -0.2751
10094TIP3   OH251696   5.317   6.681  12.011 -0.2066 -0.9932  0.0495
10094TIP3    H151697   5.295   6.626  11.936 -0.0262 -0.9922 -0.0045
10094TIP3    H251698   5.234   6.690  12.059 -0.6908  0.3237 -0.9899
10095TIP3   OH251699   0.979   3.778   2.085  0.1306  0.1575  0.4409
10095TIP3    H151700   0.928   3.788   2.004 -1.0196 -0.4371  1.0682
10095TIP3    H251701   1.070   3.787   2.057 -0.1473 -1.4262 -1.1856
10096TIP3   OH251702   1.281   3.862   4.220 -0.1076 -0.1046  0.1856
10096TIP3    H151703   1.371   3.832   4.226 -1.4575 -4.6145  2.9674
10096TIP3    H251704   1.235   3.793   4.171 -2.2087  1.9102 -0.9458
10097TIP3   OH251705   5.326   1.931  11.876  0.5105 -0.1864  0.4179
10097TIP3    H151706   5.365   1.975  11.800  1.6275  1.0131  1.6304
10097TIP3    H251707   5.269   1.998  11.915 -0.8917 -1.1376  0.0664
10098TIP3   OH251708   2.937   4.279   0.859 -0.2113 -0.0464  0.1115
10098TIP3    H151709   2.881   4.351   0.888  0.5290  0.3929  0.4842
10098TIP3    H251710   3.014   4.284   0.916 -0.7331 -1.9799  1.0911
10099TIP3   OH251711   0.133   2.296  11.648 -1.2260 -0.1809  0.0961
10099TIP3    H151712   0.133   2.384  11.611  0.3260 -0.1061  0.2169
10099TIP3    H251713   0.095   2.307  11.736 -1.2203  0.3305  0.0375
10100TIP3   OH251714   1.514   5.306  12.959  0.0217  0.0204  0.0686
10100TIP3    H151715   1.446   5.250  12.997 -1.3004  0.5930 -1.3677
10100TIP3    H251716   1.566   5.246  12.905  0.3441 -0.3164  0.7364
10101TIP3   OH251717   0.499   4.477  16.392 -0.3261 -0.7319  0.4007
10101TIP3    H151718   0.451   4.560  16.389  1.1140  0.1145 -0.5298
10101TIP3    H251719   0.587   4.502  16.419 -0.4045 -2.2669  2.2598
10102TIP3   OH251720   0.665   2.233  12.475 -0.6670 -0.1587  0.1240
10102TIP3    H151721   0.748   2.187  12.465 -1.1436 -0.6835 -1.8471
10102TIP3    H251722   0.647   2.229  12.569  1.0173 -0.9341  0.4540
10103TIP3   OH251723   2.772   1.006  14.288  0.2818 -0.1655  0.6511
10103TIP3    H151724   2.793   0.967  14.373  1.7713  1.0088  0.8577
10103TIP3    H251725   2.856   1.018  14.245 -0.2421  1.3163 -0.0552
10104TIP3   OH251726   3.519   2.437  12.029  0.3904  0.5188  0.3475
10104TIP3    H151727   3.446   2.385  11.997  0.8875  0.0857 -0.0933
10104TIP3    H251728   3.590   2.374  12.043  0.7832  0.9779  0.4551
10105TIP3   OH251729   2.629   5.239   2.193 -0.1016  1.2706  0.1044
10105TIP3    H151730   2.670   5.266   2.275 -0.4477  0.3063  0.6132
10105TIP3    H251731   2.560   5.304   2.178 -2.2151 -0.2730  2.3235
10106TIP3   OH251732   5.369   6.373  15.980  0.0190  0.3305 -0.2842
10106TIP3    H151733   5.299   6.438  15.971  0.3109  0.6811 -0.0416
10106TIP3    H251734   5.330   6.292  15.949  0.3120  1.0260 -2.6918
10107TIP3   OH251735   5.334   2.761  12.234 -0.2611 -0.0309 -0.3776
10107TIP3    H151736   5.241   2.774  12.252 -0.2702 -0.9091  0.2768
10107TIP3    H251737   5.351   2.670  12.258  1.1903  0.6347  1.3763
10108TIP3   OH251738   3.723   6.514  16.368  0.0962 -0.2331  0.2100
10108TIP3    H151739   3.643   6.467  16.393 -1.3479  1.6880 -0.5323
10108TIP3    H251740   3.722   6.593  16.422  1.6542 -0.3042  0.3726
10109TIP3   OH251741   4.892   6.262   0.490  0.7208 -0.0320 -0.1205
10109TIP3    H151742   4.812   6.226   0.452 -0.0466  1.5148 -0.0605
10109TIP3    H251743   4.891   6.233   0.581 -1.2596  2.1752  0.6652
10110TIP3   OH251744   4.840   3.268   0.421  0.4883  0.0643  0.6662
10110TIP3    H151745   4.859   3.187   0.467 -0.1773  0.1010  1.0231
10110TIP3    H251746   4.879   3.257   0.334  0.5326 -0.5713  0.7663
10111TIP3   OH251747   4.201   6.500  11.481 -0.0266  0.1108 -0.1822
10111TIP3    H151748   4.236   6.487  11.392 -1.0440 -1.1325 -0.4308
10111TIP3    H251749   4.160   6.586  11.478  0.0547  0.1300 -0.8855
10112TIP3   OH251750   0.977   4.671   0.708  0.2480 -0.3015 -0.1671
10112TIP3    H151751   0.884   4.652   0.713  0.3881 -0.9429  0.0309
10112TIP3    H251752   0.981   4.767   0.703 -0.3645 -0.1840  1.1726
10113TIP3   OH251753   1.656   5.418  14.769  0.1949  0.4105 -0.3771
10113TIP3    H151754   1.723   5.479  14.738  0.7950  0.0403  0.1641
10113TIP3    H251755   1.674   5.337  14.721 -0.9894  0.8165 -1.5614
10114TIP3   OH251756   4.839   3.767   2.456  0.1460 -0.2616 -0.1155
10114TIP3    H151757   4.786   3.789   2.379 -1.4857 -1.3953  0.6076
10114TIP3    H251758   4.928   3.790   2.431 -0.6237  1.4161 -1.5335
10115TIP3   OH251759   1.364   4.507   5.880 -0.7846  0.3273  0.1256
10115TIP3    H151760   1.359   4.553   5.963 -0.7579 -0.5223  0.6041
10115TIP3    H251761   1.385   4.416   5.903 -1.8676 -0.1621 -0.7383
10116TIP3   OH251762   5.108   4.690   5.326  0.3541  0.2936 -0.2183
10116TIP3    H151763   5.192   4.654   5.298  0.5770  0.1825  0.5564
10116TIP3    H251764   5.084   4.752   5.258  0.9440  0.1380 -0.5722
10117TIP3   OH251765   2.819   1.749  10.781  0.3546  0.2390  0.0815
10117TIP3    H151766   2.834   1.799  10.701  2.0030 -1.0993 -0.4969
10117TIP3    H251767   2.905   1.715  10.805  0.1342  1.5186  3.1043
10118TIP3   OH251768   0.549   3.218  12.296  0.4944  0.3811  0.1420
10118TIP3    H151769   0.458   3.249  12.286  0.3643  0.0302  0.2497
10118TIP3    H251770   0.547   3.162  12.374  1.0714  1.3959  0.9116
10119TIP3   OH251771   1.097   1.399  16.540 -0.2840 -0.3323 -0.3506
10119TIP3    H151772   1.121   1.434  16.625 -1.2087 -2.6253  0.9416
10119TIP3    H251773   1.005   1.423  16.529 -0.5294 -1.1294 -0.0928
10120TIP3   OH251774   6.597   4.582   4.857  0.7312 -0.4972 -0.4698
10120TIP3    H151775   6.591   4.646   4.785 -1.0113  1.9739  1.6736
10120TIP3    H251776   6.665   4.618   4.915  0.8447 -1.4842  0.0343
10121TIP3   OH251777   0.613   0.656   0.032 -0.0844 -0.1801 -0.0235
10121TIP3    H151778   0.530   0.633   0.074 -0.8400  3.1180  0.5775
10121TIP3    H251779   0.593   0.657  -0.061  0.0501 -1.9539 -0.1024
10122TIP3   OH251780   0.080   2.478  16.038  0.0003  0.1810 -0.6147
10122TIP3    H151781   0.065   2.410  16.104  0.1229 -0.3066 -1.0851
10122TIP3    H251782   0.003   2.534  16.044 -0.2854 -0.2211 -0.4950
10123TIP3   OH251783   1.839   2.355   0.385  0.5583  0.6894 -0.0804
10123TIP3    H151784   1.912   2.318   0.434 -1.1579 -1.4537  1.0464
10123TIP3    H251785   1.798   2.280   0.342 -2.0617  1.4317  0.8823
10124TIP3   OH251786   5.954   0.663   4.847 -0.1166  0.4046  0.7010
10124TIP3    H151787   5.869   0.680   4.807 -0.9160 -1.8630  1.3168
10124TIP3    H251788   5.975   0.745   4.893 -2.2533  0.8158  1.0533
10125TIP3   OH251789   2.553   1.219   0.026 -0.1567  0.4226 -0.7652
10125TIP3    H151790   2.475   1.230   0.080  0.1514 -0.6142 -0.0920
10125TIP3    H251791   2.597   1.304   0.031  0.6014 -0.0330  1.8075
10126TIP3   OH251792   6.731   1.699   5.220  0.2658 -0.2553  0.3528
10126TIP3    H151793   6.674   1.625   5.237  0.7672 -1.0215 -1.1453
10126TIP3    H251794   6.707   1.729   5.132 -0.0922  1.5260  1.0121
10127TIP3   OH251795   0.498   1.197   5.655 -0.7615  0.2088 -0.1409
10127TIP3    H151796   0.589   1.194   5.686 -0.4708  0.3033 -0.9636
10127TIP3    H251797   0.455   1.258   5.714 -0.3806 -0.1163  0.4867
10128TIP3   OH251798   0.062   6.529   5.902  0.1461 -0.2322  0.7799
10128TIP3    H151799   0.121   6.509   5.829 -0.2644  0.3771  0.2761
10128TIP3    H251800   0.117   6.518   5.980  0.2792 -2.0294  0.4725
10129TIP3   OH251801   1.215   4.854   0.701  0.3343  0.5712  0.4394
10129TIP3    H151802   1.162   4.929   0.726 -0.3056  0.1059  0.4923
10129TIP3    H251803   1.189   4.835   0.610 -0.3400 -0.2783  0.7955
10130TIP3   OH251804   0.210   5.357   2.546 -0.8866  0.1272  0.4445
10130TIP3    H151805   0.252   5.391   2.625 -0.1395  0.8334 -0.2384
10130TIP3    H251806   0.280   5.353   2.482 -1.7949  1.1137 -0.6648
10131TIP3   OH251807   6.636   4.626   1.922  0.1230 -0.3787 -0.6564
10131TIP3    H151808   6.553   4.584   1.942 -1.3084  1.6120 -2.0585
10131TIP3    H251809   6.682   4.564   1.865  0.4040 -2.2069  1.4163
10132TIP3   OH251810   3.462   2.823  12.194  0.1396 -0.0160 -0.3677
10132TIP3    H151811   3.491   2.737  12.226  1.7396  0.5472 -0.2450
10132TIP3    H251812   3.478   2.821  12.100 -1.9261 -0.6270 -0.7717
10133TIP3   OH251813   4.975   4.792   3.739  0.5118  0.5600  0.2748
10133TIP3    H151814   4.978   4.737   3.661  1.5829 -1.6589  1.7747
10133TIP3    H251815   4.969   4.881   3.705  0.6979 -0.3235 -2.3114
10134TIP3   OH251816   5.738   5.780   4.536 -0.1145 -0.4915  0.4344
10134TIP3    H151817   5.752   5.804   4.628 -0.4971 -0.7692  0.5671
10134TIP3    H251818   5.717   5.687   4.539  0.2943 -0.5959  0.0235
10135TIP3   OH251819   3.036   5.707   1.432 -0.2146  0.6988 -0.2252
10135TIP3    H151820   3.085   5.699   1.514 -1.5954 -1.3368  0.4708
10135TIP3    H251821   3.073   5.785   1.390  0.6586  1.7203  2.2433
10136TIP3   OH251822   2.605   5.651  11.247 -0.0468 -0.6084 -0.2771
10136TIP3    H151823   2.522   5.696  11.261 -0.2877 -0.5866 -1.6530
10136TIP3    H251824   2.627   5.615  11.333 -3.0699 -3.3126 -0.4372
10137TIP3   OH251825   3.037   6.744   3.191  0.0696  0.4134  0.8857
10137TIP3    H151826   2.974   6.745   3.120 -0.4624 -0.1150  1.3382
10137TIP3    H251827   3.010   6.815   3.249 -0.6037 -0.3104  1.4841
10138TIP3   OH251828   3.485   3.923  15.059  0.3059 -0.2726 -0.2582
10138TIP3    H151829   3.497   4.017  15.049  0.8244  0.0065  2.2693
10138TIP3    H251830   3.559   3.884  15.012 -0.7652  0.4268 -2.6754
10139TIP3   OH251831   6.559   0.994   1.471  0.2591  0.0490  0.8185
10139TIP3    H151832   6.649   1.025   1.487  0.3680  0.8054 -0.9701
10139TIP3    H251833   6.567   0.939   1.393 -0.3898 -2.4135  2.3945
10140TIP3   OH251834   2.482   3.206  14.368  0.0953 -0.2681  0.5358
10140TIP3    H151835   2.428   3.226  14.292 -1.4558  0.1678  1.7088
10140TIP3    H251836   2.540   3.136  14.338 -2.4359 -2.1793 -0.2555
10141TIP3   OH251837   6.377   0.748  14.121  0.3243 -0.1083  0.2932
10141TIP3    H151838   6.448   0.716  14.176  0.5857 -0.9700 -0.5260
10141TIP3    H251839   6.297   0.728  14.171  0.6306  0.7653  1.1646
10142TIP3   OH251840   1.894   5.938   2.462 -0.3977  0.7906  0.0165
10142TIP3    H151841   1.806   5.961   2.492 -0.2010  2.6833 -0.6796
10142TIP3    H251842   1.885   5.851   2.425 -1.2893 -0.3519  2.7109
10143TIP3   OH251843   0.777   5.364   0.172 -0.7557  0.1964 -0.3298
10143TIP3    H151844   0.821   5.281   0.193 -1.3098 -0.2086 -0.7496
10143TIP3    H251845   0.728   5.346   0.092 -0.8788  0.9351 -0.4268
10144TIP3   OH251846   5.737   6.655  11.245 -0.4673  0.3637  1.0647
10144TIP3    H151847   5.699   6.742  11.235 -1.2460  0.1625  2.1778
10144TIP3    H251848   5.821   6.671  11.289  0.3302  0.7140 -0.5219
10145TIP3   OH251849   3.747   4.126  16.133 -0.5955 -0.2720 -0.5257
10145TIP3    H151850   3.694   4.079  16.068  0.5619 -1.0954 -0.9120
10145TIP3    H251851   3.702   4.110  16.216 -3.4201  2.7015 -1.2802
10146TIP3   OH251852   1.966   2.502   2.467 -0.3070  0.2028 -0.1582
10146TIP3    H151853   1.997   2.439   2.401 -0.4766 -0.7039  0.5984
10146TIP3    H251854   2.045   2.525   2.516 -0.2317  0.6374 -0.4876
10147TIP3   OH251855   4.254   4.749   1.325  0.4321  0.3878 -0.4884
10147TIP3    H151856   4.262   4.824   1.384 -0.5075  0.0715  0.0631
10147TIP3    H251857   4.160   4.735   1.316  0.5860 -0.4496 -0.9460
10148TIP3   OH251858   3.906   1.642  13.967 -0.3020 -0.2322 -0.0022
10148TIP3    H151859   4.002   1.643  13.960 -0.2511  0.8016  0.5477
10148TIP3    H251860   3.888   1.593  14.047 -0.3164 -1.7060 -0.8831
10149TIP3   OH251861   0.683   5.622   4.527 -0.3198  0.0214 -0.6359
10149TIP3    H151862   0.730   5.538   4.523  0.1361  0.2797 -0.7722
10149TIP3    H251863   0.600   5.605   4.483 -0.1242 -0.2929 -0.8921
10150TIP3   OH251864   2.178   4.341  14.269 -0.5597 -0.0428 -0.2933
10150TIP3    H151865   2.094   4.308  14.299 -0.5677  0.2328 -0.0126
10150TIP3    H251866   2.178   4.433  14.294 -0.7519  0.3089 -1.5120
10151TIP3   OH251867   3.410   2.860  13.866  0.3053 -0.4272 -0.0163
10151TIP3    H151868   3.400   2.795  13.935  0.6522 -0.4753 -0.0097
10151TIP3    H251869   3.492   2.837  13.822  0.7191  0.3184  0.3335
10152TIP3   OH251870   5.175   1.959   2.954  0.0555 -0.6306 -0.4623
10152TIP3    H151871   5.189   1.864   2.959  0.3619 -0.5838 -0.4370
10152TIP3    H251872   5.254   1.997   2.991 -0.2622 -0.3660 -0.0472
10153TIP3   OH251873   3.421   5.785   6.022  0.1329  0.4850  0.1291
10153TIP3    H151874   3.385   5.762   6.107 -0.7454  0.4200 -0.2523
10153TIP3    H251875   3.346   5.819   5.972  0.1913 -1.3405 -1.2862
10154TIP3   OH251876   6.256   3.676  15.279  0.3803 -0.3675  0.1130
10154TIP3    H151877   6.328   3.653  15.338  0.7834  0.5788  0.0089
10154TIP3    H251878   6.300   3.702  15.198 -0.0893  0.1081  0.0129
10155TIP3   OH251879   0.090   3.845  14.191  0.1366  0.1310  0.4545
10155TIP3    H151880   0.126   3.915  14.246 -0.6313  0.6272  0.3318
10155TIP3    H251881   0.121   3.765  14.232  1.8059  0.5403  0.0703
10156TIP3   OH251882   6.473   0.871  12.282  0.3222 -0.4226 -0.1704
10156TIP3    H151883   6.461   0.778  12.267  1.9178 -0.5982 -0.5318
10156TIP3    H251884   6.477   0.881  12.377 -0.9876 -0.5394 -0.0865
10157TIP3   OH251885   0.427   4.541  11.553  0.0534  0.0012 -0.1148
10157TIP3    H151886   0.334   4.559  11.564  0.2606  1.1393 -0.0253
10157TIP3    H251887   0.471   4.618  11.591  1.0828 -1.2309  1.2819
10158TIP3   OH251888   5.031   0.942   2.740 -0.0965 -0.2422 -0.0320
10158TIP3    H151889   5.041   0.857   2.782  0.4823  0.4528  1.3041
10158TIP3    H251890   5.018   1.004   2.812  2.2528  1.2010 -0.7264
10159TIP3   OH251891   6.153   6.666  15.450 -0.1944  0.1951 -0.5303
10159TIP3    H151892   6.126   6.754  15.425 -2.3618  0.0551  1.1302
10159TIP3    H251893   6.111   6.609  15.386 -1.0766  0.1959  0.0453
10160TIP3   OH251894   0.898   0.361   0.942 -0.5004 -0.0336  0.0731
10160TIP3    H151895   0.990   0.335   0.955 -0.1566  1.5876  1.1933
10160TIP3    H251896   0.848   0.302   0.998 -0.0085 -0.0493  0.4995
10161TIP3   OH251897   0.854   2.454   1.242 -0.5929  0.2676  0.0317
10161TIP3    H151898   0.861   2.468   1.148 -2.2689  0.9472 -0.0231
10161TIP3    H251899   0.887   2.535   1.281 -2.8792  1.3584 -0.1032
10162TIP3   OH251900   5.321   2.916   2.054 -0.0162  0.5362 -0.4125
10162TIP3    H151901   5.324   2.822   2.036 -0.3280  0.5439 -0.5121
10162TIP3    H251902   5.228   2.939   2.048  0.1683  1.0678 -1.5636
10163TIP3   OH251903   4.109   2.915  10.840 -0.1108  0.2159  0.4393
10163TIP3    H151904   4.072   2.929  10.753 -1.8483 -1.6158  0.7937
10163TIP3    H251905   4.163   2.992  10.857 -0.3529  0.9614 -1.9289
10164TIP3   OH251906   5.972   1.910  13.860  0.1562  0.1019 -0.0293
10164TIP3    H151907   5.953   1.916  13.954  3.8614  1.1162  0.8212
10164TIP3    H251908   5.910   1.972  13.820 -0.4810  0.8351  1.9398
10165TIP3   OH251909   5.306   5.241  12.139 -0.2951  0.0198  0.0938
10165TIP3    H151910   5.334   5.254  12.229 -0.5558 -0.3044  0.2239
10165TIP3    H251911   5.337   5.153  12.116  2.4717  1.1840 -1.1591
10166TIP3   OH251912   0.626   0.833  15.243  0.1617  0.1787 -0.1944
10166TIP3    H151913   0.561   0.868  15.182 -1.0261 -0.5819  0.5923
10166TIP3    H251914   0.679   0.909  15.268 -0.8877  0.9647 -0.2919
10167TIP3   OH251915   2.176   5.382  12.352 -0.2861 -0.7325  0.3077
10167TIP3    H151916   2.090   5.387  12.392 -0.9563 -0.0750 -1.1276
10167TIP3    H251917   2.195   5.288  12.347 -0.4459 -0.8450  1.5453
10168TIP3   OH251918   3.676   3.153  14.199 -0.1922 -0.5212  0.3640
10168TIP3    H151919   3.739   3.087  14.228 -0.4307 -0.9288 -0.0261
10168TIP3    H251920   3.611   3.104  14.148 -0.5092 -0.0220  0.2748
10169TIP3   OH251921   5.748   4.234  12.985  0.2182  0.4600 -0.3652
10169TIP3    H151922   5.777   4.308  13.038  1.8953  0.9323 -1.8442
10169TIP3    H251923   5.665   4.263  12.947 -0.2175  0.7065  0.7293
10170TIP3   OH251924   5.162   2.897  17.100 -0.1236  0.1567 -1.0820
10170TIP3    H151925   5.130   2.888  17.010 -0.3921 -1.4536 -0.8530
10170TIP3    H251926   5.235   2.836  17.105  0.7179  1.1727 -0.5480
10171TIP3   OH251927   0.727   6.362  15.384  0.4842 -0.3159  0.1499
10171TIP3    H151928   0.819   6.380  15.367  0.5702 -1.0943 -0.2731
10171TIP3    H251929   0.699   6.307  15.310 -0.4599  0.3301 -0.0045
10172TIP3   OH251930   4.076   0.353  10.472  0.2060 -0.0721 -0.2670
10172TIP3    H151931   4.134   0.305  10.532 -0.1086  1.3535  1.2617
10172TIP3    H251932   4.136   0.404  10.418  0.4585  0.9649  0.9285
10173TIP3   OH251933   4.973   5.727  14.234  0.8509  0.1904  0.0987
10173TIP3    H151934   4.966   5.814  14.272  1.2052  0.0888  0.4097
10173TIP3    H251935   4.995   5.741  14.142  1.4799  0.4221  0.2836
10174TIP3   OH251936   4.359   3.512   0.213 -0.5120  0.1174 -0.1154
10174TIP3    H151937   4.285   3.540   0.267 -1.3341 -1.4966 -0.3518
10174TIP3    H251938   4.344   3.554   0.128  0.0628  1.5671  0.4618
10175TIP3   OH251939   6.032   6.167  15.440  0.2229  0.8384  0.0439
10175TIP3    H151940   6.034   6.080  15.481  0.3416 -0.1608 -1.9484
10175TIP3    H251941   5.940   6.191  15.438 -0.0526 -0.1883 -1.1684
10176TIP3   OH251942   3.595   6.041   3.132 -0.2528 -0.9642  0.5195
10176TIP3    H151943   3.527   6.095   3.171  0.4146 -0.0892  0.5109
10176TIP3    H251944   3.677   6.079   3.164  0.3083 -0.4064 -1.4357
10177TIP3   OH251945   3.056   6.756  15.756 -0.0704 -0.2968 -0.1306
10177TIP3    H151946   3.007   6.816  15.812 -1.5270 -0.9977 -0.6098
10177TIP3    H251947   3.143   6.794  15.751 -0.8061  1.5129 -0.0101
10178TIP3   OH251948   3.318   5.526  14.600  0.2493 -0.0548 -0.1474
10178TIP3    H151949   3.331   5.517  14.506  0.5250 -0.2736 -0.0900
10178TIP3    H251950   3.268   5.448  14.625  2.2828 -1.2756  0.2835
10179TIP3   OH251951   3.828   3.307  12.545 -0.5430 -0.5833  0.0473
10179TIP3    H151952   3.777   3.322  12.466 -0.6044  0.6320  0.2976
10179TIP3    H251953   3.873   3.224  12.530  0.3498  0.1863 -1.7540
10180TIP3   OH251954   3.177   4.581   1.262 -0.0949  0.1793  0.2594
10180TIP3    H151955   3.204   4.490   1.275  1.4305  0.6263  0.4935
10180TIP3    H251956   3.247   4.619   1.208 -1.0206  1.0621 -0.3643
10181TIP3   OH251957   1.248   6.210  10.945  0.1188  0.1007 -0.1978
10181TIP3    H151958   1.252   6.167  10.860 -0.4041 -0.4993  0.0706
10181TIP3    H251959   1.268   6.140  11.008 -0.5167  0.2982  0.2296
10182TIP3   OH251960   4.227   1.070  14.841  0.1225  0.2756 -0.4089
10182TIP3    H151961   4.232   1.040  14.750 -1.6230  0.0163 -0.4466
10182TIP3    H251962   4.318   1.065  14.873  0.6231 -0.4591 -1.8575
10183TIP3   OH251963   5.510   3.797  15.305 -0.5421  0.7713  0.3989
10183TIP3    H151964   5.550   3.743  15.236 -1.5630 -0.7399  0.9503
10183TIP3    H251965   5.572   3.794  15.377 -0.4652  0.5790  0.3234
10184TIP3   OH251966   4.925   4.549  11.336  0.2173  0.0076  0.3728
10184TIP3    H151967   4.987   4.567  11.266  0.4718  0.0349  0.6057
10184TIP3    H251968   4.906   4.456  11.328 -1.3463  0.3934 -1.0417
10185TIP3   OH251969   2.758   4.705  14.361  0.2738  0.5129  0.7516
10185TIP3    H151970   2.753   4.755  14.443 -0.0766  1.7585 -0.0094
10185TIP3    H251971   2.851   4.707  14.339  0.5681 -0.8967  1.7402
10186TIP3   OH251972   2.670   6.287   3.356 -0.0735  0.1533 -0.4594
10186TIP3    H151973   2.747   6.343   3.360 -0.3354  0.5662 -1.0392
10186TIP3    H251974   2.596   6.346   3.370 -0.4435  0.2234 -2.4396
10187TIP3   OH251975   3.529   5.591  14.206  0.2205  0.9707 -0.0981
10187TIP3    H151976   3.544   5.549  14.290 -0.6721  0.1936 -0.3023
10187TIP3    H251977   3.616   5.601  14.167  0.6782  1.6849  1.0584
10188TIP3   OH251978   0.767   4.847  16.866 -0.1358 -0.5193 -0.8121
10188TIP3    H151979   0.828   4.786  16.909  0.3216 -2.0277 -3.4231
10188TIP3    H251980   0.703   4.791  16.822 -2.1080  1.0061 -0.0662
10189TIP3   OH251981   3.337   6.497   1.590  0.5218  0.6691  0.0226
10189TIP3    H151982   3.283   6.575   1.574 -0.7760 -0.4799 -1.4843
10189TIP3    H251983   3.408   6.504   1.525 -0.5650 -0.2126 -1.3313
10190TIP3   OH251984   2.216   3.609   2.766 -0.2162 -0.0804  0.5752
10190TIP3    H151985   2.187   3.636   2.679  0.5440  1.8479  0.8896
10190TIP3    H251986   2.289   3.548   2.750 -0.4916 -0.2309 -0.1236
10191TIP3   OH251987   4.179   0.748   6.194  0.0099 -0.3060 -0.0701
10191TIP3    H151988   4.088   0.717   6.199 -0.3055  0.4751 -0.6828
10191TIP3    H251989   4.230   0.671   6.171 -0.4221 -0.8667  0.7812
10192TIP3   OH251990   1.647   3.873   0.629 -0.0930 -0.4228 -0.5121
10192TIP3    H151991   1.709   3.830   0.570  0.0286 -0.6506 -0.2225
10192TIP3    H251992   1.562   3.862   0.587  0.0472 -0.2376 -0.8391
10193TIP3   OH251993   6.250   3.243  16.845 -0.7943 -0.1171  0.1833
10193TIP3    H151994   6.228   3.151  16.826 -0.2093 -0.5471  1.5048
10193TIP3    H251995   6.197   3.265  16.922 -0.5712  0.5160  0.1635
10194TIP3   OH251996   5.685   5.712  11.454 -0.2980  0.6097 -0.3497
10194TIP3    H151997   5.604   5.713  11.402 -1.4294 -2.1015  1.1975
10194TIP3    H251998   5.728   5.794  11.430 -2.5574  1.2837 -2.6722
10195TIP3   OH251999   1.526   5.069   3.189 -0.8951 -0.0042 -0.3472
10195TIP3    H152000   1.529   4.993   3.247  1.2869  0.0855 -0.2646
10195TIP3    H252001   1.579   5.135   3.233 -0.7254  0.7046 -1.5707
10196TIP3   OH252002   0.778   5.670  11.828  0.2663  0.3787 -0.1561
10196TIP3    H152003   0.843   5.722  11.875  0.7308  0.1930 -0.5694
10196TIP3    H252004   0.694   5.705  11.855  0.5663  1.4714 -0.5616
10197TIP3   OH252005   5.912   0.995  12.846 -0.2714 -0.5012  0.0790
10197TIP3    H152006   5.920   0.929  12.777  1.0877 -1.0440  0.7226
10197TIP3    H252007   5.827   0.977  12.886 -0.1887 -1.4778 -0.1621
10198TIP3   OH252008   3.394   3.630   5.651 -0.5308  0.0369  0.2822
10198TIP3    H152009   3.345   3.550   5.635  0.5019 -0.1052 -2.7680
10198TIP3    H252010   3.483   3.601   5.673  0.3679  0.2096 -2.7031
10199TIP3   OH252011   1.220   0.756  12.667 -0.0477 -0.5406  0.4577
10199TIP3    H152012   1.219   0.735  12.574  2.0149  0.5918  0.1177
10199TIP3    H252013   1.288   0.823  12.676 -1.3232  0.5853  2.5487
10200TIP3   OH252014   4.352   3.989  13.500 -0.0176  0.0346 -0.4568
10200TIP3    H152015   4.275   3.997  13.443 -0.2831 -4.2706 -1.0305
10200TIP3    H252016   4.316   3.989  13.589 -0.1126  2.1146 -0.4417
10201TIP3   OH252017   4.408   4.740   3.110 -0.8422  0.0079  0.0261
10201TIP3    H152018   4.405   4.691   3.028  3.0286  0.3030 -0.5043
10201TIP3    H252019   4.364   4.822   3.090 -2.2774 -0.9436 -0.9007
10202TIP3   OH252020   4.986   6.614   4.021 -0.0631  0.0770 -1.2964
10202TIP3    H152021   5.063   6.668   4.038  0.5273 -0.7652 -1.2320
10202TIP3    H252022   5.017   6.524   4.028 -1.4137 -0.3142  0.4394
10203TIP3   OH252023   3.469   4.754   5.532 -0.2602 -0.5191 -0.3115
10203TIP3    H152024   3.391   4.741   5.586  0.2784  0.0568  0.6305
10203TIP3    H252025   3.488   4.847   5.540  0.9992 -0.7965  0.1576
10204TIP3   OH252026   0.626   6.028  13.279  0.2215  0.6684 -0.3077
10204TIP3    H152027   0.588   6.072  13.355 -0.5416  0.2448 -0.4367
10204TIP3    H252028   0.716   6.059  13.276  0.3461  0.4545  0.9458
10205TIP3   OH252029   2.982   1.975  16.630  0.0948  0.8168  0.6274
10205TIP3    H152030   3.043   1.908  16.600 -0.8806 -0.1429  0.7073
10205TIP3    H252031   2.927   1.994  16.554 -0.0839  1.0235  0.8053
10206TIP3   OH252032   0.117   6.674   3.226  0.2866  0.3789 -0.2569
10206TIP3    H152033   0.066   6.595   3.211 -1.7004  1.3698  0.8204
10206TIP3    H252034   0.154   6.663   3.313 -2.1247  1.6255  1.0150
10207TIP3   OH252035   1.343   0.125   2.191 -0.3712 -0.0690  0.6623
10207TIP3    H152036   1.381   0.193   2.246 -1.7303  1.8651 -0.6517
10207TIP3    H252037   1.363   0.043   2.236  0.6134  1.2508  2.7519
10208TIP3   OH252038   0.178   0.935   4.945 -0.3904  0.6526 -0.1781
10208TIP3    H152039   0.232   0.894   4.878 -0.6780  1.0453 -0.6536
10208TIP3    H252040   0.091   0.895   4.934 -0.0458 -0.4969  1.0411
10209TIP3   OH252041   1.558   6.539  12.194  0.7387  0.6368  0.3551
10209TIP3    H152042   1.600   6.475  12.251  0.3683 -0.9569 -1.0794
10209TIP3    H252043   1.466   6.539  12.221  0.2930 -1.0840 -1.0170
10210TIP3   OH252044   0.334   1.600   3.674  0.4952  0.7321  0.3458
10210TIP3    H152045   0.314   1.678   3.623  0.6869  1.1199  0.8587
10210TIP3    H252046   0.411   1.563   3.631 -0.9995 -0.5488 -1.3894
10211TIP3   OH252047   1.464   4.494  15.118  0.6475 -0.2169 -0.0088
10211TIP3    H152048   1.446   4.555  15.047  2.6934  0.0694 -0.3578
10211TIP3    H252049   1.410   4.525  15.191 -0.4661  0.2901 -1.0199
10212TIP3   OH252050   3.090   1.872   4.446 -0.3126  0.1162  0.5959
10212TIP3    H152051   3.089   1.845   4.355 -0.6029  2.4407 -0.1548
10212TIP3    H252052   3.068   1.793   4.495 -3.4013 -0.5036 -1.5381
10213TIP3   OH252053   4.568   3.550   3.758  0.1030  0.0534  0.0077
10213TIP3    H152054   4.634   3.619   3.752  0.6904 -0.5415 -0.3584
10213TIP3    H252055   4.485   3.598   3.758  0.4923  0.7532 -0.5454
10214TIP3   OH252056   5.656   5.191  13.061  0.0064  0.1716 -0.0220
10214TIP3    H152057   5.640   5.186  12.967  1.2427  1.6286 -0.3282
10214TIP3    H252058   5.574   5.160  13.100 -0.2876 -1.1266 -1.5473
10215TIP3   OH252059   2.351   4.057   4.595 -0.3535 -0.4318 -0.2937
10215TIP3    H152060   2.315   3.968   4.598 -0.2266 -0.4982 -0.6280
10215TIP3    H252061   2.331   4.087   4.506  2.1895 -1.2164 -1.2127
10216TIP3   OH252062   3.065   3.754  13.720 -0.0153  0.3631 -0.3098
10216TIP3    H152063   3.126   3.758  13.794  0.4280  1.2207 -0.7149
10216TIP3    H252064   3.120   3.727  13.646 -0.8314 -2.6811  0.0434
10217TIP3   OH252065   3.686   1.021   3.241  0.1990  0.2594 -0.2167
10217TIP3    H152066   3.691   1.013   3.337  2.4265 -0.2574 -0.3082
10217TIP3    H252067   3.681   1.115   3.225  2.2546  0.5333  0.4172
10218TIP3   OH252068   1.677   0.209   1.176  0.1460 -0.6238 -0.2388
10218TIP3    H152069   1.679   0.304   1.172  0.2117 -0.3475  3.2970
10218TIP3    H252070   1.586   0.188   1.199  0.1719 -1.4318 -0.8109
10219TIP3   OH252071   6.280   0.547  15.181 -0.3109 -0.2731  0.3595
10219TIP3    H152072   6.231   0.468  15.156 -2.0812  0.7411  0.4677
10219TIP3    H252073   6.365   0.514  15.210 -0.8168 -2.0924 -0.0861
10220TIP3   OH252074   4.775   3.147   0.840 -0.2824  0.3624  0.1324
10220TIP3    H152075   4.754   3.218   0.780 -1.6753 -1.3436 -1.5152
10220TIP3    H252076   4.860   3.171   0.878 -1.6060  3.8451  1.2349
10221TIP3   OH252077   6.582   6.374  14.710 -0.0162 -0.2424  0.5726
10221TIP3    H152078   6.654   6.319  14.680 -0.9732 -0.8721 -0.7135
10221TIP3    H252079   6.620   6.429  14.778  1.8490 -0.0443 -0.5553
10222TIP3   OH252080   2.675   2.380   2.479 -0.3455 -0.1934 -0.2474
10222TIP3    H152081   2.765   2.412   2.472 -1.3805  3.0683 -0.2307
10222TIP3    H252082   2.678   2.318   2.552  1.6671  0.7162  0.5272
10223TIP3   OH252083   0.960   6.020  10.880 -0.1869  0.3613 -0.1517
10223TIP3    H152084   1.008   6.093  10.841 -0.4447  1.0263  0.7398
10223TIP3    H252085   0.897   5.994  10.813  0.3406  0.5274 -0.7238
10224TIP3   OH252086   4.501   0.507  11.541 -0.1044  0.1345  0.3320
10224TIP3    H152087   4.593   0.500  11.514  0.2935  1.9996  1.0602
10224TIP3    H252088   4.452   0.493  11.460  0.8596  0.2441 -0.2906
10225TIP3   OH252089   2.109   3.737  10.603  0.1441  1.4631 -0.5373
10225TIP3    H152090   2.059   3.754  10.683  0.7464  0.4340  0.0780
10225TIP3    H252091   2.099   3.817  10.551  1.4093  2.9799  1.4076
10226TIP3   OH252092   6.667   2.545  10.519  0.1242  0.3887  0.2471
10226TIP3    H152093   6.707   2.597  10.588  0.4693  0.1396  0.2381
10226TIP3    H252094   6.578   2.579  10.512  0.3552  1.0005  0.2131
10227TIP3   OH252095   2.058   6.337   6.343 -0.0867 -0.7050 -0.1719
10227TIP3    H152096   2.023   6.260   6.297 -0.3091 -0.4012 -0.5194
10227TIP3    H252097   1.985   6.398   6.345 -0.5070 -1.2192  1.7901
10228TIP3   OH252098   3.733   5.242   3.604  0.4154  0.5549  0.0127
10228TIP3    H152099   3.794   5.252   3.531 -0.2378 -1.7687 -0.9159
10228TIP3    H252100   3.772   5.295   3.674  1.9960  1.4046 -1.4252
10229TIP3   OH252101   2.768   0.291   6.352  0.5946 -0.6104 -0.0948
10229TIP3    H152102   2.854   0.278   6.312  1.1174 -0.8568  1.0803
10229TIP3    H252103   2.707   0.286   6.278  1.7309  1.8849 -1.2986
10230TIP3   OH252104   5.184   5.831  12.359 -0.1111 -0.2761  0.4757
10230TIP3    H152105   5.125   5.896  12.319 -0.2169 -0.4901  0.2848
10230TIP3    H252106   5.272   5.866  12.343 -0.1839  0.1044  0.8651
10231TIP3   OH252107   6.356   4.552  12.132 -0.5252 -0.4027 -0.0048
10231TIP3    H152108   6.347   4.606  12.211  1.7028  1.1119 -0.6878
10231TIP3    H252109   6.447   4.564  12.105 -0.5662 -2.7681 -1.5068
10232TIP3   OH252110   3.743   2.084   5.950 -0.9003  0.3125  0.2162
10232TIP3    H152111   3.833   2.052   5.943 -0.4585  1.5779 -0.2735
10232TIP3    H252112   3.700   2.023   6.010 -0.7070 -2.4494 -2.2063
10233TIP3   OH252113   2.177   1.315  12.531  0.0728  0.1014 -0.0617
10233TIP3    H152114   2.169   1.366  12.451 -1.9796  0.5051  0.3421
10233TIP3    H252115   2.169   1.379  12.601  1.7713 -0.2574  0.5147
10234TIP3   OH252116   0.066   0.314  16.667 -0.0370 -0.6768  0.0901
10234TIP3    H152117   0.078   0.407  16.652 -3.3018  0.0014  0.9363
10234TIP3    H252118  -0.008   0.290  16.611 -2.0181 -1.7166  2.9400
10235TIP3   OH252119   4.189   1.914  15.107  0.0351  0.5517  0.5908
10235TIP3    H152120   4.239   1.993  15.123 -1.0133  1.2886  0.3064
10235TIP3    H252121   4.203   1.860  15.185  0.2252  1.2923  1.0719
10236TIP3   OH252122   3.373   3.713  16.852 -0.0980 -0.0947  0.5942
10236TIP3    H152123   3.454   3.693  16.899  2.4313 -0.6888 -3.5027
10236TIP3    H252124   3.336   3.627  16.831 -1.5012  0.1685  1.8893
10237TIP3   OH252125   3.950   0.706  16.808  0.1705  0.2417 -0.1028
10237TIP3    H152126   4.030   0.735  16.852  0.3009 -2.3987  1.6685
10237TIP3    H252127   3.981   0.646  16.740 -0.2398 -0.0167 -0.0664
10238TIP3   OH252128   6.473   1.704  17.064  0.2478  0.5505 -0.0553
10238TIP3    H152129   6.544   1.725  17.126 -0.4310 -1.0116  1.3098
10238TIP3    H252130   6.396   1.748  17.100 -0.1908 -0.5135  0.3617
10239TIP3   OH252131   5.442   3.464   0.032 -0.3060 -0.1582  0.5704
10239TIP3    H152132   5.421   3.491   0.121 -0.5260  0.5796  0.3010
10239TIP3    H252133   5.412   3.373   0.026  1.7191 -0.9959  1.9424
10240TIP3   OH252134   1.096   0.804   1.326 -0.1184 -0.0401  0.0298
10240TIP3    H152135   1.094   0.771   1.416  0.0836  0.0525  0.0681
10240TIP3    H252136   1.026   0.869   1.324  1.4274  1.7438  0.8190
10241TIP3   OH252137   5.982   6.238  11.609  0.1732  0.4475  0.2186
10241TIP3    H152138   5.992   6.186  11.530  1.4123  2.8704 -1.3517
10241TIP3    H252139   5.902   6.289  11.595  0.1109  0.5159  0.7824
10242TIP3   OH252140   3.052   2.821   3.623  0.6059  0.2723  0.0072
10242TIP3    H152141   2.958   2.823   3.640  0.5238  1.0225 -0.4683
10242TIP3    H252142   3.093   2.825   3.709  0.2187 -1.6530  0.3311
10243TIP3   OH252143   4.412   1.349   4.785  0.2302 -0.0636  0.4525
10243TIP3    H152144   4.502   1.324   4.765 -0.9402 -3.1140 -1.6777
10243TIP3    H252145   4.387   1.294   4.859 -0.1168  0.2996  0.6144
10244TIP3   OH252146   4.263   6.528   3.725 -0.0323  0.2879  0.4328
10244TIP3    H152147   4.258   6.504   3.818  0.6865 -1.0586  0.1422
10244TIP3    H252148   4.173   6.518   3.693 -0.1370  0.0039  0.8035
10245TIP3   OH252149   5.299   2.969   4.820 -0.0064 -0.6149  0.5668
10245TIP3    H152150   5.295   3.009   4.733  0.6019  2.3340  1.7969
10245TIP3    H252151   5.209   2.942   4.838 -0.4145  0.0222 -0.4169
10246TIP3   OH252152   4.548   0.441  15.895  0.5901  0.4080  0.2128
10246TIP3    H152153   4.523   0.501  15.965  0.2202  0.3002  0.1751
10246TIP3    H252154   4.502   0.474  15.818 -1.1687 -0.9907  0.5770
10247TIP3   OH252155   4.529   6.589  14.941  0.0549  0.0872 -0.9109
10247TIP3    H152156   4.585   6.545  14.878  0.8098  1.0016 -0.9066
10247TIP3    H252157   4.590   6.624  15.007 -0.5545  0.6984 -0.6528
10248TIP3   OH252158   2.613   4.602   1.929  0.4255 -0.7670 -0.0442
10248TIP3    H152159   2.535   4.656   1.939  0.2748 -1.2905  1.9597
10248TIP3    H252160   2.684   4.665   1.916 -0.1172 -0.2274 -0.4281
10249TIP3   OH252161   2.453   2.088   3.462 -0.6792 -0.0688 -0.1805
10249TIP3    H152162   2.545   2.078   3.438 -1.1581 -2.4682 -1.2762
10249TIP3    H252163   2.452   2.070   3.557 -0.0322 -0.2510 -0.1992
10250TIP3   OH252164   0.246   1.024  10.646  0.2700  0.1410  0.1722
10250TIP3    H152165   0.311   1.091  10.627  0.3813 -0.4060 -1.5875
10250TIP3    H252166   0.191   1.021  10.567 -0.9057 -0.5211  0.9820
10251TIP3   OH252167   0.774   6.028  17.065 -0.3178  0.1787  0.0651
10251TIP3    H152168   0.687   6.009  17.029 -0.5190 -0.5521  0.8893
10251TIP3    H252169   0.818   5.943  17.067  0.2409  0.4691  0.0882
10252TIP3   OH252170   4.116   0.772  11.621  0.3004 -0.3997 -0.2674
10252TIP3    H152171   4.138   0.805  11.708 -1.2768 -0.9150  0.3562
10252TIP3    H252172   4.068   0.844  11.580 -1.1013 -1.0124  0.2305
10253TIP3   OH252173   2.425   6.429   3.442  0.3931 -0.2331 -0.3705
10253TIP3    H152174   2.421   6.483   3.521  1.7403  0.0865 -0.5046
10253TIP3    H252175   2.403   6.341   3.472 -2.6924  0.4549 -0.2879
10254TIP3   OH252176   1.431   6.780  12.966  0.2921 -0.1903  0.0711
10254TIP3    H152177   1.372   6.841  13.011  2.5727  0.8561  1.8346
10254TIP3    H252178   1.519   6.812  12.986  1.5249 -2.0161 -1.9598
10255TIP3   OH252179   1.512   5.180   5.571  0.5959  0.0298  0.3380
10255TIP3    H152180   1.469   5.146   5.650 -1.0666  1.5030  0.1298
10255TIP3    H252181   1.603   5.151   5.579  0.0562 -1.4591  1.8451
10256TIP3   OH252182   0.715   0.523   1.161  0.2945 -0.3450 -0.2419
10256TIP3    H152183   0.733   0.581   1.234 -0.2326  2.6523 -2.3152
10256TIP3    H252184   0.795   0.472   1.150  0.9320  0.2255  1.4498
10257TIP3   OH252185   1.636   2.712  11.930  0.5868 -0.0822 -0.0344
10257TIP3    H152186   1.719   2.685  11.970 -0.4255 -2.2333  0.7173
10257TIP3    H252187   1.580   2.735  12.004  0.0511  0.0362 -0.4712
10258TIP3   OH252188   4.112   3.663   3.255 -0.4777 -0.0629 -0.5187
10258TIP3    H152189   4.189   3.606   3.253 -1.6250 -1.6764 -1.5079
10258TIP3    H252190   4.092   3.680   3.163 -0.3488  1.7337 -0.2432
10259TIP3   OH252191   3.216   1.093   2.995  0.0391  0.1516 -0.0936
10259TIP3    H152192   3.302   1.093   3.037 -0.5624 -0.3090  1.1856
10259TIP3    H252193   3.209   1.180   2.955  0.5570  0.6798  0.9353
10260TIP3   OH252194   3.561   3.827  13.649 -0.2505  0.1720  0.6906
10260TIP3    H152195   3.465   3.834  13.653 -0.3694 -0.0313 -1.0296
10260TIP3    H252196   3.592   3.907  13.692 -1.2117  0.8374  0.1928
10261TIP3   OH252197   3.711   0.210   2.019  0.5685 -0.1163  0.2156
10261TIP3    H152198   3.678   0.145   1.958 -0.1267  0.0235  0.4283
10261TIP3    H252199   3.746   0.160   2.092  2.6101 -0.3307 -0.8574
10262TIP3   OH252200   0.717   4.665  13.300 -0.1842  0.3178 -0.2863
10262TIP3    H152201   0.640   4.608  13.296  0.6539 -0.8017 -1.2952
10262TIP3    H252202   0.698   4.735  13.237  0.2987 -0.8981 -1.8619
10263TIP3   OH252203   2.779   0.878   0.409  0.7696  0.2299 -0.2329
10263TIP3    H152204   2.806   0.873   0.317  0.5051  0.9288 -0.3567
10263TIP3    H252205   2.691   0.840   0.411  0.4807  0.8708 -0.4070
10264TIP3   OH252206   3.879   2.712  11.284  0.3936 -0.2090 -0.4090
10264TIP3    H152207   3.937   2.753  11.348  0.0630  0.5030 -0.5431
10264TIP3    H252208   3.839   2.639  11.331  1.2703 -0.6167 -0.2713
10265TIP3   OH252209   1.100   5.607  15.204  0.7159  0.3053 -0.3678
10265TIP3    H152210   1.193   5.609  15.181  0.4609  0.2693 -1.4617
10265TIP3    H252211   1.069   5.524  15.167  0.0773  0.7035 -0.7414
10266TIP3   OH252212   4.185   3.170   2.861  0.0163  0.4499 -0.5590
10266TIP3    H152213   4.141   3.162   2.776 -0.3368 -0.1638 -0.3301
10266TIP3    H252214   4.274   3.140   2.845 -0.0168  0.4457 -0.7391
10267TIP3   OH252215   0.392   6.253   1.110 -0.2144 -0.1699 -0.2057
10267TIP3    H152216   0.429   6.168   1.085  0.2411  0.3043 -1.2344
10267TIP3    H252217   0.469   6.310   1.119 -0.5992  0.5642 -1.3121
10268TIP3   OH252218   6.229   5.039  16.255 -0.1680  0.2638  0.2592
10268TIP3    H152219   6.242   5.045  16.160 -1.3934 -1.3000 -0.0498
10268TIP3    H252220   6.139   5.069  16.268 -0.7754 -1.6104  0.6153
10269TIP3   OH252221   1.617   0.595   4.292  0.2526 -0.3183 -0.0450
10269TIP3    H152222   1.581   0.679   4.263  2.2938  0.6124 -0.0625
10269TIP3    H252223   1.690   0.578   4.233  1.1782 -1.0276  1.2408
10270TIP3   OH252224   3.690   1.148  16.321 -0.3274 -0.0233  0.3300
10270TIP3    H152225   3.658   1.075  16.267 -1.0751  0.5694 -0.0437
10270TIP3    H252226   3.717   1.214  16.258  0.5572 -0.0562  0.6681
10271TIP3   OH252227   0.632   6.335  13.446 -0.2695  0.2267 -0.6929
10271TIP3    H152228   0.718   6.299  13.425  0.3678  1.1065  0.3417
10271TIP3    H252229   0.583   6.261  13.482  0.8798  0.2488  1.0207
10272TIP3   OH252230   5.611   0.332  14.566 -0.1577 -0.2397 -0.5971
10272TIP3    H152231   5.540   0.268  14.579 -1.2128  0.7010 -1.5373
10272TIP3    H252232   5.690   0.278  14.561 -0.8394 -1.3576  0.0307
10273TIP3   OH252233   0.409   4.201   4.389 -0.8732 -0.0040  0.0895
10273TIP3    H152234   0.456   4.254   4.325  0.7680 -1.1466  0.2780
10273TIP3    H252235   0.364   4.264   4.445 -1.2128  1.0524 -1.3254
10274TIP3   OH252236   0.369   3.778  16.745  0.1890 -0.1502 -0.2454
10274TIP3    H152237   0.337   3.833  16.675 -2.4947 -3.3123 -1.8004
10274TIP3    H252238   0.444   3.731  16.708 -0.5459 -1.0179 -0.6662
10275TIP3   OH252239   3.335   5.474  13.274  0.2641  0.3190  0.3581
10275TIP3    H152240   3.266   5.433  13.223 -0.1399  1.3492  0.0592
10275TIP3    H252241   3.329   5.432  13.360 -1.2429  0.9363  0.5746
10276TIP3   OH252242   0.894   1.591   5.227  0.3381 -0.9323  0.0864
10276TIP3    H152243   0.820   1.639   5.191  0.5253 -0.7587 -0.0674
10276TIP3    H252244   0.879   1.591   5.321  0.5129 -0.2780  0.1206
10277TIP3   OH252245   3.865   6.724  14.422 -0.1490 -0.0056  0.1102
10277TIP3    H152246   3.954   6.726  14.388  0.1466  0.2921  0.8764
10277TIP3    H252247   3.814   6.679  14.354  0.3017  1.0524 -0.9679
10278TIP3   OH252248   5.691   0.801  14.184 -0.0622 -0.4470  0.0549
10278TIP3    H152249   5.729   0.824  14.100  1.4489 -0.4208  0.7088
10278TIP3    H252250   5.612   0.752  14.163 -0.8971  1.4120 -1.3591
10279TIP3   OH252251   4.348   1.374  12.832  0.4304 -0.3803 -0.0863
10279TIP3    H152252   4.258   1.358  12.803  0.7317 -1.9351 -0.2401
10279TIP3    H252253   4.347   1.465  12.863 -1.4435 -0.6625  0.8616
10280TIP3   OH252254   3.767   4.213   4.072  0.1667 -0.0045 -0.0166
10280TIP3    H152255   3.791   4.130   4.113  0.9815  0.1465 -0.1777
10280TIP3    H252256   3.806   4.208   3.984  1.3255  1.0833  0.4238
10281TIP3   OH252257   1.407   0.071   5.976  0.7565 -0.1901 -0.6652
10281TIP3    H152258   1.497   0.092   6.002  0.4086  1.3915 -0.6609
10281TIP3    H252259   1.371   0.024   6.051  0.6427  1.8674  0.6519
10282TIP3   OH252260   3.465   1.331  15.039  0.0442 -0.2765 -0.3583
10282TIP3    H152261   3.544   1.377  15.013  0.3240 -0.1898  0.6110
10282TIP3    H252262   3.462   1.340  15.135 -0.7259 -0.9276 -0.3088
10283TIP3   OH252263   4.877   0.014  13.512  0.1093  0.0874 -0.1250
10283TIP3    H152264   4.894   0.032  13.419 -0.2805  0.0232 -0.2087
10283TIP3    H252265   4.783   0.030  13.523 -0.2430 -1.7923 -0.1742
10284TIP3   OH252266   1.443   2.201   5.348 -0.6768  0.8806  0.1594
10284TIP3    H152267   1.518   2.148   5.374 -1.8472 -1.3154 -0.6771
10284TIP3    H252268   1.472   2.245   5.267 -0.1806  0.3224  0.0258
10285TIP3   OH252269   0.328   0.463   3.455  0.2280  0.1213  0.1776
10285TIP3    H152270   0.260   0.443   3.390  1.5056  0.7208 -1.4125
10285TIP3    H252271   0.371   0.541   3.421  0.7694  0.6206  1.9272
10286TIP3   OH252272   4.421   3.259  11.329 -0.3330  0.0799 -0.1924
10286TIP3    H152273   4.464   3.303  11.255 -0.1505 -0.1684 -0.2383
10286TIP3    H252274   4.494   3.221  11.378 -0.5404 -1.0693 -0.7339
10287TIP3   OH252275   0.447   6.650  12.558  0.0651 -0.0082  0.3717
10287TIP3    H152276   0.516   6.615  12.615 -2.0549 -1.9211  1.9309
10287TIP3    H252277   0.439   6.742  12.584  4.1843  1.4089 -2.2248
10288TIP3   OH252278   1.523   2.992   0.108 -0.1943 -0.1061  0.0993
10288TIP3    H152279   1.509   2.900   0.084 -0.0385 -0.1091  0.0242
10288TIP3    H252280   1.597   3.021   0.055  0.7966 -0.3978  1.2560
10289TIP3   OH252281   0.790   4.803  14.116  0.0206  0.0322 -0.2376
10289TIP3    H152282   0.738   4.877  14.146 -2.1030 -1.9777  1.3901
10289TIP3    H252283   0.797   4.815  14.022 -0.9763  1.8445 -0.1208
10290TIP3   OH252284   4.060   2.537   2.563  0.1954  0.2999 -0.0808
10290TIP3    H152285   4.132   2.519   2.623 -0.0906  0.6402  0.3722
10290TIP3    H252286   4.091   2.609   2.508  0.6264 -0.3054 -0.6428
10291TIP3   OH252287   3.404   3.113  16.014 -0.0962 -0.4597  0.1774
10291TIP3    H152288   3.420   3.205  16.036  0.2430 -0.0608 -1.5805
10291TIP3    H252289   3.491   3.079  15.991 -0.3636 -0.9498 -0.1157
10292TIP3   OH252290   6.532   1.026   4.221 -0.5713  0.3506 -0.2458
10292TIP3    H152291   6.527   1.063   4.309 -0.7704 -1.0963  0.3759
10292TIP3    H252292   6.460   1.067   4.173 -1.6551 -0.2579  0.8232
10293TIP3   OH252293   1.636   2.856  11.709  0.0737  0.0237 -0.0987
10293TIP3    H152294   1.622   2.814  11.794 -0.5454  2.1889  0.9314
10293TIP3    H252295   1.702   2.923  11.725  0.7647 -0.2533 -1.6095
10294TIP3   OH252296   5.826   1.343   1.284 -0.2952  0.3494  0.1071
10294TIP3    H152297   5.830   1.362   1.378  0.4028 -2.4522  0.7461
10294TIP3    H252298   5.916   1.353   1.254 -0.2690 -0.0505  0.0472
10295TIP3   OH252299   6.234   6.057   4.265 -0.1638 -0.4840  0.3144
10295TIP3    H152300   6.265   6.134   4.217  0.5173 -1.3114 -0.6218
10295TIP3    H252301   6.194   6.092   4.345  0.3263  0.8167  0.0053
10296TIP3   OH252302   2.985   5.482   2.399  0.0935  0.0733 -0.6583
10296TIP3    H152303   3.079   5.477   2.420 -0.0566  2.3732  0.9615
10296TIP3    H252304   2.975   5.569   2.360 -1.8762  1.5972  2.7924
10297TIP3   OH252305   5.361   6.560   5.440  0.2858  0.0930 -0.3720
10297TIP3    H152306   5.395   6.530   5.356  1.1520  2.1979 -0.8488
10297TIP3    H252307   5.411   6.640   5.459 -0.8475  0.4323  1.4683
10298TIP3   OH252308   5.749   0.683  15.205 -0.6366 -0.0732  0.0384
10298TIP3    H152309   5.771   0.602  15.250  1.2976  0.5884  0.3884
10298TIP3    H252310   5.701   0.655  15.127  2.5120 -1.8937 -1.4662
10299TIP3   OH252311   0.701   2.425  16.223  0.1823  0.2363  0.1538
10299TIP3    H152312   0.651   2.344  16.217 -1.1689  0.8775  1.9559
10299TIP3    H252313   0.708   2.443  16.317  1.8247  1.3956 -0.1344
10300TIP3   OH252314   2.524   3.783   4.060  0.2969 -0.2560 -0.4460
10300TIP3    H152315   2.435   3.752   4.077  0.4396 -1.4774 -1.7052
10300TIP3    H252316   2.517   3.837   3.982  0.6811 -0.5505 -0.6919
10301TIP3   OH252317   4.919   4.302   3.004  0.9244 -0.6474 -0.1427
10301TIP3    H152318   4.824   4.296   3.019  1.1358 -2.0274  0.8119
10301TIP3    H252319   4.955   4.325   3.090  1.4684 -0.2728 -0.4692
10302TIP3   OH252320   1.815   6.729   0.093  0.2245  0.3273 -0.4798
10302TIP3    H152321   1.826   6.794   0.162  0.6537 -0.3033  0.0559
10302TIP3    H252322   1.735   6.681   0.117  0.8497 -0.4704  0.0754
10303TIP3   OH252323   0.300   6.640   4.976 -0.4013  0.5126 -0.2894
10303TIP3    H152324   0.353   6.651   4.896 -1.0380  1.0630 -0.6470
10303TIP3    H252325   0.210   6.634   4.944 -0.5425 -0.6874  0.2951
10304TIP3   OH252326   0.966   2.028  16.337 -0.4861  0.5580  0.0621
10304TIP3    H152327   1.001   2.061  16.254 -0.5707 -1.0226 -0.6320
10304TIP3    H252328   0.900   1.964  16.311 -0.3124 -0.1639  1.3407
10305TIP3   OH252329   3.166   4.859  13.981  0.1001  0.1215 -0.0470
10305TIP3    H152330   3.080   4.826  14.009  0.2862  0.1845  0.6147
10305TIP3    H252331   3.166   4.848  13.886 -0.9522  0.8436 -0.1500
10306TIP3   OH252332   2.374   4.998  16.566 -0.1458  0.0636 -0.1009
10306TIP3    H152333   2.341   5.057  16.635 -0.9821  0.0470 -0.4831
10306TIP3    H252334   2.327   4.916  16.581  1.7898 -0.8968  1.0986
10307TIP3   OH252335   4.337   3.242   0.251  0.0136 -0.4117 -0.5629
10307TIP3    H152336   4.342   3.337   0.242  0.5130 -0.3955 -0.1342
10307TIP3    H252337   4.393   3.222   0.326 -1.0301 -0.9197  0.1041
10308TIP3   OH252338   0.524   4.295  15.185  0.1685  0.2781 -0.8413
10308TIP3    H152339   0.554   4.337  15.104  0.0005  2.5575  0.1891
10308TIP3    H252340   0.600   4.247  15.217  0.8719  1.0259 -1.3338
10309TIP3   OH252341   4.975   4.391  13.775  0.3364 -0.0724 -0.0802
10309TIP3    H152342   4.897   4.336  13.775  0.9807 -1.0228  0.4420
10309TIP3    H252343   4.941   4.481  13.769 -0.7882 -0.4615  0.1661
10310TIP3   OH252344   0.992   4.167   2.317  0.0476  0.0743  0.4251
10310TIP3    H152345   0.931   4.232   2.284 -0.5140  1.7751  4.2666
10310TIP3    H252346   1.078   4.209   2.310 -0.0309  0.3029  0.8243
10311TIP3   OH252347   2.983   5.374   0.726  0.5477  0.6084  0.3978
10311TIP3    H152348   2.912   5.322   0.764 -0.2683  2.0504  0.9233
10311TIP3    H252349   2.959   5.383   0.633  0.8139 -0.1034  0.2481
10312TIP3   OH252350   4.974   2.159   5.333  0.2510 -0.6419  0.2144
10312TIP3    H152351   4.934   2.124   5.253 -1.4982  0.0620  0.7403
10312TIP3    H252352   5.054   2.203   5.302  0.8279 -2.3177 -0.8317
10313TIP3   OH252353   6.663   4.705  15.479 -0.7137  0.0236  0.0524
10313TIP3    H152354   6.744   4.743  15.512 -0.0361  0.5770 -2.0724
10313TIP3    H252355   6.664   4.725  15.386 -2.0660 -2.1593 -0.5047
10314TIP3   OH252356   6.570   4.955  16.775  0.3329  0.4536 -0.5126
10314TIP3    H152357   6.484   4.990  16.751 -0.0605  0.5514  0.9220
10314TIP3    H252358   6.617   4.949  16.693 -1.2890 -0.2553 -1.4511
10315TIP3   OH252359   6.389   0.495  14.449 -0.1607  0.2812  0.1011
10315TIP3    H152360   6.371   0.420  14.506 -1.0008 -0.4731 -1.1146
10315TIP3    H252361   6.305   0.541  14.444  0.7944  2.5329  2.4464
10316TIP3   OH252362   2.861   5.392  11.811  0.2963 -0.4751 -0.0158
10316TIP3    H152363   2.944   5.391  11.859  0.7813 -1.6335 -0.8289
10316TIP3    H252364   2.870   5.321  11.747 -1.3617 -0.6746 -0.0628
10317TIP3   OH252365   4.048   4.313  12.877  0.5964 -0.2376 -0.2492
10317TIP3    H152366   3.969   4.330  12.825  0.4864  0.0228 -0.0022
10317TIP3    H252367   4.049   4.219  12.889  1.3541 -0.4704 -1.8697
10318TIP3   OH252368   5.628   5.714  14.667 -0.5579 -0.3089  0.1750
10318TIP3    H152369   5.566   5.786  14.654 -0.1643 -0.0926 -0.5089
10318TIP3    H252370   5.653   5.687  14.579  2.4347  1.4205  0.3704
10319TIP3   OH252371   5.102   0.220  11.282 -0.7788  0.4190 -0.1062
10319TIP3    H152372   5.029   0.162  11.262  0.1006 -1.4685  1.7704
10319TIP3    H252373   5.180   0.170  11.259  0.0023  1.0610  1.0126
10320TIP3   OH252374   1.067   1.500   0.817  0.0713  0.3152  0.1080
10320TIP3    H152375   0.997   1.437   0.799  2.0789 -1.8867 -0.5736
10320TIP3    H252376   1.087   1.539   0.732  0.0822  0.4666  0.1805
10321TIP3   OH252377   4.279   6.643   2.425  0.6239  0.6973  0.1258
10321TIP3    H152378   4.311   6.600   2.504  1.3502  0.0044 -0.5259
10321TIP3    H252379   4.271   6.735   2.450 -0.6462  0.2644  1.4411
10322TIP3   OH252380   3.057   1.076   2.092 -0.3809  0.7226  0.3308
10322TIP3    H152381   3.048   1.108   2.181  0.0717  1.4880  0.1123
10322TIP3    H252382   3.150   1.087   2.072 -0.6801  1.6876 -0.6332
10323TIP3   OH252383   1.358   2.898  11.165  0.2488  0.0089  0.3576
10323TIP3    H152384   1.305   2.865  11.238  0.5286  0.4543  0.7684
10323TIP3    H252385   1.434   2.839  11.163  0.1437 -0.1267  0.2925
10324TIP3   OH252386   5.872   0.478  11.616 -0.4259  0.3211  0.8168
10324TIP3    H152387   5.830   0.393  11.599  0.3503  0.0969 -0.0669
10324TIP3    H252388   5.847   0.499  11.707 -2.3083  0.1543  0.3805
10325TIP3   OH252389   3.999   1.736   4.833 -0.1830 -0.3584 -0.0082
10325TIP3    H152390   4.065   1.673   4.861  0.5263  0.0777 -0.6542
10325TIP3    H252391   4.038   1.778   4.756 -1.3309 -0.2885 -0.5619
10326TIP3   OH252392   5.699   3.766  14.735 -0.0827  0.4794  0.4686
10326TIP3    H152393   5.662   3.840  14.687 -0.5417  0.2803  0.5107
10326TIP3    H252394   5.651   3.690  14.702  0.4628  0.1826  0.3413
10327TIP3   OH252395   1.980   1.795   4.687  0.0695  0.1672  0.4655
10327TIP3    H152396   2.034   1.754   4.619 -0.1053  0.2826  0.2537
10327TIP3    H252397   1.991   1.889   4.673 -1.9257  0.2393 -1.0341
10328TIP3   OH252398   4.518   5.169  14.856 -0.1188  0.3916 -0.3603
10328TIP3    H152399   4.454   5.180  14.926 -0.7557  0.8583 -0.9909
10328TIP3    H252400   4.579   5.242  14.868 -1.7704  2.1370 -1.8511
10329TIP3   OH252401   3.503   2.115   2.940 -0.1545  0.4905  0.2288
10329TIP3    H152402   3.544   2.181   2.995 -2.0659  0.6394  1.6119
10329TIP3    H252403   3.543   2.032   2.967 -0.4740  0.6652  1.2807
10330TIP3   OH252404   6.517   1.544  15.209 -0.0102 -0.2400  0.0423
10330TIP3    H152405   6.459   1.528  15.284 -0.7001 -1.0384 -0.6482
10330TIP3    H252406   6.518   1.639  15.198 -0.6912 -0.1849  0.4425
10331TIP3   OH252407   0.791   3.853  14.013 -0.1015 -0.2139 -0.6660
10331TIP3    H152408   0.829   3.772  13.980  0.3775  0.0745 -0.8176
10331TIP3    H252409   0.863   3.897  14.057 -0.3609  0.1380 -0.5922
10332TIP3   OH252410   2.022   3.488  14.944  0.4994 -0.2707 -0.6319
10332TIP3    H152411   2.115   3.512  14.937  0.7344 -0.7551  0.4987
10332TIP3    H252412   2.022   3.392  14.945 -0.0788 -0.2837 -1.2311
10333TIP3   OH252413   5.993   6.114  17.000 -0.3896  0.4006 -0.1846
10333TIP3    H152414   5.908   6.153  16.980  0.7447  2.8148 -0.7079
10333TIP3    H252415   5.973   6.035  17.050 -2.8658  1.9815  1.5051
10334TIP3   OH252416   1.701   5.648   3.793 -0.1887 -0.3659  0.5149
10334TIP3    H152417   1.764   5.645   3.721  0.4796 -3.1849  1.0792
10334TIP3    H252418   1.615   5.651   3.750  0.1855 -2.1781 -0.4832
10335TIP3   OH252419   5.124   4.049   1.857 -0.1702  0.1543  0.1245
10335TIP3    H152420   5.177   4.087   1.787 -0.6995 -2.1677 -1.6689
10335TIP3    H252421   5.174   3.973   1.886 -1.5471 -0.9596 -0.2716
10336TIP3   OH252422   1.160   0.952  14.276  0.4585 -0.2308 -0.1122
10336TIP3    H152423   1.242   0.951  14.326 -0.1835  1.5040  1.0690
10336TIP3    H252424   1.181   0.908  14.194  2.0304 -1.6235  0.9784
10337TIP3   OH252425   4.413   3.916   2.397  0.7180 -0.3045 -0.5981
10337TIP3    H152426   4.387   3.967   2.474  2.5094  1.3594 -1.0263
10337TIP3    H252427   4.344   3.933   2.333 -0.1489 -0.7083  0.2128
10338TIP3   OH252428   2.568   4.001  13.156  0.1026  0.1674 -0.5251
10338TIP3    H152429   2.513   4.079  13.167 -0.4508  0.0463 -2.1095
10338TIP3    H252430   2.532   3.938  13.218  0.0851  0.9140  0.2484
10339TIP3   OH252431   5.907   0.008  16.041  0.1424  0.2508  0.1525
10339TIP3    H152432   5.988  -0.024  16.080  2.0510  2.6534 -1.5415
10339TIP3    H252433   5.919  -0.001  15.947 -2.2015 -0.6285 -0.1353
10340TIP3   OH252434   5.796   4.696   2.162 -0.1765 -0.0865  0.0411
10340TIP3    H152435   5.883   4.692   2.203  0.1152  0.8475 -0.4463
10340TIP3    H252436   5.814   4.717   2.070 -0.8254 -1.9406 -0.5419
10341TIP3   OH252437   4.342   4.642   5.087  0.0068 -0.2812  0.6157
10341TIP3    H152438   4.309   4.650   4.997  0.3124 -1.0827  0.4245
10341TIP3    H252439   4.331   4.729   5.125 -0.7711 -0.1175  0.0208
10342TIP3   OH252440   5.149   1.847  12.857 -0.1183 -0.2063  0.1334
10342TIP3    H152441   5.177   1.843  12.949 -0.5437  2.4683  0.4581
10342TIP3    H252442   5.193   1.924  12.822 -1.9830  0.3265 -1.1774
10343TIP3   OH252443   5.265   4.225  17.018 -0.2618 -0.0117  0.1106
10343TIP3    H152444   5.310   4.196  16.938 -0.5690 -1.4458  0.4361
10343TIP3    H252445   5.242   4.317  17.001 -0.2392 -0.2681 -1.4023
10344TIP3   OH252446   5.337   3.739  15.797 -0.7406 -0.2668 -0.1276
10344TIP3    H152447   5.317   3.744  15.891 -0.1751 -1.0583  0.0495
10344TIP3    H252448   5.282   3.667  15.765 -1.3952  0.4041 -0.5432
10345TIP3   OH252449   4.837   5.682  11.004 -0.1778  0.2560 -0.2689
10345TIP3    H152450   4.911   5.655  10.950 -0.3005 -0.7855  0.0704
10345TIP3    H252451   4.761   5.677  10.945  0.0208  1.5207 -0.6753
10346TIP3   OH252452   4.253   4.829  14.843  0.3308 -0.3417  0.3027
10346TIP3    H152453   4.341   4.821  14.808 -0.5278 -0.7992 -1.9213
10346TIP3    H252454   4.201   4.867  14.772 -1.4011 -0.6653  1.3116
10347TIP3   OH252455   3.044   3.299   4.757  0.4582  0.3387 -0.5462
10347TIP3    H152456   3.042   3.262   4.669 -0.0244 -0.7563 -0.0986
10347TIP3    H252457   3.114   3.252   4.801 -0.8506 -0.8599  0.3491
10348TIP3   OH252458   5.486   1.257   3.876  0.2278  0.0024  0.6481
10348TIP3    H152459   5.458   1.171   3.906  0.5488 -0.4272 -0.2659
10348TIP3    H252460   5.554   1.239   3.811  1.1610  0.9651  1.3238
10349TIP3   OH252461   1.405   3.693  13.843  0.0752 -0.3567 -0.0914
10349TIP3    H152462   1.356   3.774  13.828 -0.6155 -0.9194 -0.9423
10349TIP3    H252463   1.451   3.678  13.761  0.7729 -0.4494  0.3142
10350TIP3   OH252464   2.325   4.185   4.043 -0.5429  0.3237  0.0635
10350TIP3    H152465   2.357   4.115   3.987 -0.1527 -0.2117  0.9237
10350TIP3    H252466   2.385   4.258   4.027 -1.5846  0.8531 -1.6282
10351TIP3   OH252467   1.109   5.426  11.532 -0.4490 -0.0633 -0.0577
10351TIP3    H152468   1.045   5.488  11.497 -0.1623 -0.3888 -1.1897
10351TIP3    H252469   1.193   5.470  11.523 -0.4327  0.0968  0.8166
10352TIP3   OH252470   1.650   0.149   2.140 -0.7843 -0.3260 -0.2848
10352TIP3    H152471   1.708   0.206   2.191 -1.0902 -1.4418  1.3625
10352TIP3    H252472   1.580   0.208   2.110  0.1668  0.6389 -0.7021
10353TIP3   OH252473   3.922   1.942  11.625  0.1804 -0.1338 -0.3209
10353TIP3    H152474   3.942   1.983  11.541  0.0402 -0.3004 -0.4369
10353TIP3    H252475   3.957   1.853  11.617  0.8164  0.0713  0.0680
10354TIP3   OH252476   2.266   5.452  14.246  0.1900 -0.1254  0.1682
10354TIP3    H152477   2.172   5.464  14.256  0.1636  0.5590 -0.7776
10354TIP3    H252478   2.275   5.386  14.178  0.3740  1.4851 -1.4413
10355TIP3   OH252479   5.248   1.872  13.127  0.3150  0.0001  0.2186
10355TIP3    H152480   5.288   1.836  13.206 -1.4309  3.6009  3.0744
10355TIP3    H252481   5.296   1.953  13.111 -2.5739  2.0538  0.9753
10356TIP3   OH252482   5.647   0.044  15.232 -0.3774  0.5678 -0.2088
10356TIP3    H152483   5.615   0.039  15.323 -1.3592 -0.7184 -0.5823
10356TIP3    H252484   5.572   0.077  15.182 -0.3959 -0.2674 -0.7632
10357TIP3   OH252485   1.104   5.281   0.912 -0.2520  0.2715  0.1233
10357TIP3    H152486   1.183   5.333   0.896 -0.7989  0.6389 -1.5530
10357TIP3    H252487   1.061   5.325   0.985  1.1015  0.0276  1.1141
10358TIP3   OH252488   4.782   6.129   2.231 -1.2719 -0.0162  0.6086
10358TIP3    H152489   4.725   6.099   2.160 -0.2846  1.4874 -0.9216
10358TIP3    H252490   4.746   6.214   2.256  0.3666  1.0803 -0.5700
10359TIP3   OH252491   6.598   3.596  11.402  0.4606 -0.0579 -0.6456
10359TIP3    H152492   6.550   3.515  11.422  0.6139 -0.1901 -0.8094
10359TIP3    H252493   6.545   3.640  11.336  0.3204  0.0328 -0.4768
10360TIP3   OH252494   5.016   5.631   6.091 -1.1983  0.1190  0.0041
10360TIP3    H152495   4.941   5.691   6.090 -2.2902 -1.1974 -0.5725
10360TIP3    H252496   4.976   5.544   6.090  0.3534 -0.6099 -0.2202
10361TIP3   OH252497   6.771   2.940   0.005  0.0731 -0.0289  0.4047
10361TIP3    H152498   6.858   2.909  -0.022 -0.6552  0.8917 -3.7127
10361TIP3    H252499   6.767   3.030  -0.027 -2.0844  0.2636  1.3452
10362TIP3   OH252500   5.418   4.149  12.809 -0.5483  0.2759  0.1242
10362TIP3    H152501   5.487   4.126  12.747 -1.1726  0.5578 -0.6884
10362TIP3    H252502   5.439   4.238  12.837 -0.1752  0.0885  0.4474
10363TIP3   OH252503   2.239   2.875   1.414  0.1193  0.1796 -0.5095
10363TIP3    H152504   2.307   2.864   1.480  1.2559  2.3098 -1.2190
10363TIP3    H252505   2.186   2.949   1.445 -2.3937 -1.8468  0.3707
10364TIP3   OH252506   3.031   1.026  11.928 -0.6052 -0.0163  0.0628
10364TIP3    H152507   3.012   0.941  11.888 -0.2608  0.9129 -2.2637
10364TIP3    H252508   3.118   1.048  11.896 -0.8056  1.3316  0.3911
10365TIP3   OH252509   1.249   4.907   3.261 -0.0336  0.0028 -0.6453
10365TIP3    H152510   1.299   4.929   3.182 -2.9140  2.5770 -1.9842
10365TIP3    H252511   1.253   4.985   3.315  1.5440 -1.5809  1.7072
10366TIP3   OH252512   5.710   4.307   2.204  0.7431  0.1389  0.1482
10366TIP3    H152513   5.748   4.308   2.292 -0.1348  1.3655  0.5398
10366TIP3    H252514   5.628   4.260   2.214  0.2750  0.9463  0.1560
10367TIP3   OH252515   0.648   0.081  12.514  0.6890 -0.3044 -0.2722
10367TIP3    H152516   0.687   0.011  12.566  2.6662 -0.0945 -1.3618
10367TIP3    H252517   0.596   0.035  12.448 -0.1067 -0.6309  0.5586
10368TIP3   OH252518   4.732   6.542  12.685  0.4465 -0.3121  0.3060
10368TIP3    H152519   4.737   6.561  12.591  2.0489 -1.0566  0.1993
10368TIP3    H252520   4.808   6.586  12.722  2.2855 -3.3943  0.5629
10369TIP3   OH252521   5.676   1.290  11.040 -0.2430 -0.7265  0.3754
10369TIP3    H152522   5.688   1.264  10.949 -1.3540  0.2301 -0.0769
10369TIP3    H252523   5.590   1.255  11.063 -0.6777  0.4154  0.5282
10370TIP3   OH252524   2.433   1.977  16.330  0.0138  0.4241  0.9170
10370TIP3    H152525   2.353   1.985  16.382 -1.9400 -3.6623 -0.9994
10370TIP3    H252526   2.414   2.026  16.250 -0.1911  0.2797  0.8763
10371TIP3   OH252527   2.720   5.638  15.465  0.0041 -0.0755  0.0913
10371TIP3    H152528   2.645   5.602  15.512 -0.3616  0.2810 -0.2134
10371TIP3    H252529   2.715   5.598  15.378  0.7424 -0.8194  0.3709
10372TIP3   OH252530   3.546   2.703  14.723 -0.3472 -0.0155  0.1106
10372TIP3    H152531   3.584   2.715  14.636 -0.9362 -1.4401 -0.3753
10372TIP3    H252532   3.454   2.679  14.706 -0.6269  0.2799  1.1417
10373TIP3   OH252533   3.951   2.441   2.340 -0.0402 -0.4383 -0.0801
10373TIP3    H152534   3.915   2.356   2.363 -2.1324  0.3332 -0.3563
10373TIP3    H252535   3.997   2.469   2.420  1.4711 -2.1525 -0.2683
10374TIP3   OH252536   6.277   3.910   3.066 -0.0942  0.5953  0.0801
10374TIP3    H152537   6.284   3.829   3.015  1.4339  2.0432 -2.2181
10374TIP3    H252538   6.346   3.902   3.132 -0.2978 -0.1842  0.2099
10375TIP3   OH252539   5.674   2.552   5.739 -0.2814  0.0342  0.5919
10375TIP3    H152540   5.762   2.526   5.709 -1.1705 -2.1770 -0.3400
10375TIP3    H252541   5.615   2.513   5.675 -1.9629  2.1913  0.7270
10376TIP3   OH252542   4.293   1.863   3.044  0.0232  0.4392 -0.2206
10376TIP3    H152543   4.346   1.935   3.078  0.3774  0.5106 -0.9119
10376TIP3    H252544   4.356   1.796   3.018 -0.2685  0.1572 -0.2113
10377TIP3   OH252545   2.100   2.388   3.630  0.3841  0.8719  0.3267
10377TIP3    H152546   2.045   2.312   3.650 -0.9953  1.9499  0.7048
10377TIP3    H252547   2.176   2.350   3.586 -1.1748 -0.5752 -1.2956
10378TIP3   OH252548   5.678   2.511   0.560 -0.2033 -0.2988  0.4198
10378TIP3    H152549   5.609   2.558   0.606 -2.9095 -1.3985 -2.1730
10378TIP3    H252550   5.640   2.426   0.538  1.7965 -0.8004 -1.5326
10379TIP3   OH252551   0.284   6.499   3.407 -0.1047 -0.2163 -0.4739
10379TIP3    H152552   0.271   6.412   3.445  0.0029 -0.8022 -1.7345
10379TIP3    H252553   0.371   6.496   3.368 -0.3504  0.2390 -1.0781
10380TIP3   OH252554   2.168   1.121  10.723  0.2547  0.0387  0.6730
10380TIP3    H152555   2.196   1.132  10.632 -0.2814  0.6275  0.5788
10380TIP3    H252556   2.076   1.148  10.724  0.1209 -0.4017  1.2997
10381TIP3   OH252557   6.435   1.521  14.319 -0.5636 -0.4933 -0.4895
10381TIP3    H152558   6.475   1.580  14.256 -0.7651  0.5099  0.2902
10381TIP3    H252559   6.462   1.433  14.292  0.9649  0.0614 -0.8068
10382TIP3   OH252560   0.213   3.242  15.249  0.1224 -0.1939  0.2945
10382TIP3    H152561   0.132   3.212  15.290  0.6208 -1.3499  0.4930
10382TIP3    H252562   0.185   3.281  15.166 -0.6654 -0.2215  0.5409
10383TIP3   OH252563   5.230   4.318  15.746  0.8587  0.1128  0.0804
10383TIP3    H152564   5.323   4.294  15.750  1.1651  1.3843  1.2202
10383TIP3    H252565   5.184   4.235  15.734  2.1507 -0.5073 -0.8424
10384TIP3   OH252566   0.390   2.535   1.000 -0.0064 -0.6119  0.4165
10384TIP3    H152567   0.335   2.569   0.930  0.7819 -1.0336 -0.4289
10384TIP3    H252568   0.391   2.440   0.986  2.2667 -0.4906 -0.6284
10385TIP3   OH252569   0.548   5.402  12.726 -0.5772 -0.1032  0.6086
10385TIP3    H152570   0.523   5.471  12.664 -0.0402 -0.4589 -0.0215
10385TIP3    H252571   0.485   5.410  12.798 -1.7301 -0.1994 -0.3536
10386TIP3   OH252572   4.149   6.040  10.583  0.4328  0.1627 -0.4726
10386TIP3    H152573   4.236   6.078  10.589  0.4157  0.3513 -1.2530
10386TIP3    H252574   4.110   6.056  10.669  1.6953 -1.2818  0.4204
10387TIP3   OH252575   0.573   5.075   1.747  0.2638  0.5383 -0.2134
10387TIP3    H152576   0.517   5.129   1.692  1.6204  0.9986 -1.1931
10387TIP3    H252577   0.531   4.989   1.747 -0.0752  0.6898 -1.4832
10388TIP3   OH252578   5.523   2.343  10.604 -0.1998 -0.4502 -0.1247
10388TIP3    H152579   5.497   2.399  10.677  0.7507 -0.5920  0.3414
10388TIP3    H252580   5.464   2.268  10.610 -0.9613  0.1139 -0.2799
10389TIP3   OH252581   3.889   3.023   3.544 -0.2588  0.3320  0.0360
10389TIP3    H152582   3.912   2.990   3.457 -0.1348  1.5896 -0.4295
10389TIP3    H252583   3.797   3.000   3.554 -0.9181  2.1042 -1.3905
10390TIP3   OH252584   1.518   5.573   1.951  0.2617 -0.0576  0.5755
10390TIP3    H152585   1.535   5.599   1.860  1.4676 -0.3356  0.7117
10390TIP3    H252586   1.424   5.554   1.952  0.5055 -1.7105 -1.0662
10391TIP3   OH252587   3.010   0.310  16.509 -0.0054  0.2868  0.3227
10391TIP3    H152588   3.063   0.388  16.491 -0.5763  0.7386  0.5633
10391TIP3    H252589   3.029   0.251  16.437  1.9014 -0.1477  1.1029
10392TIP3   OH252590   6.664   0.710  15.290 -0.7361  0.6373 -0.0048
10392TIP3    H152591   6.665   0.680  15.380 -1.4914 -0.2028 -0.2695
10392TIP3    H252592   6.686   0.633  15.238  1.3793  1.4625 -0.4730
10393TIP3   OH252593   1.561   4.868   0.097 -0.2817  0.1439 -0.2513
10393TIP3    H152594   1.480   4.912   0.071  1.3218  2.7439 -1.2608
10393TIP3    H252595   1.605   4.847   0.014  0.5869 -0.1328  0.2612
10394TIP3   OH252596   2.877   6.231   5.001 -0.0966  0.6208  0.1767
10394TIP3    H152597   2.847   6.211   5.089  0.0998 -1.2315 -0.1483
10394TIP3    H252598   2.801   6.217   4.945 -0.1137  1.4050 -0.0132
10395TIP3   OH252599   1.377   5.377  13.452 -0.5981 -0.1284  0.3981
10395TIP3    H152600   1.461   5.409  13.420 -0.8884  2.1458  1.6586
10395TIP3    H252601   1.384   5.282  13.450  0.2392 -0.1634 -3.9559
10396TIP3   OH252602   5.813   2.074  14.773  0.3914  0.0936  0.5688
10396TIP3    H152603   5.810   2.162  14.737  0.3901 -0.0466  0.2246
10396TIP3    H252604   5.721   2.051  14.789  0.4019  0.2168  0.8182
10397TIP3   OH252605   4.899   2.785   3.689 -0.1930  0.1878 -0.0178
10397TIP3    H152606   4.830   2.835   3.733  0.1252  0.2360  0.4335
10397TIP3    H252607   4.942   2.849   3.633  1.7827  1.0859  2.3384
10398TIP3   OH252608   4.855   3.386  12.074 -0.1107  0.3934 -0.3430
10398TIP3    H152609   4.775   3.431  12.101 -0.7475 -0.2602 -1.0979
10398TIP3    H252610   4.838   3.357  11.985  1.6890  1.9396 -1.2790
10399TIP3   OH252611   4.415   3.459  10.617  0.3867  0.1650 -0.1959
10399TIP3    H152612   4.358   3.446  10.542  0.5180 -0.8776 -0.1290
10399TIP3    H252613   4.386   3.393  10.681  1.4907 -0.2153 -0.0665
10400TIP3   OH252614   3.465   5.041   2.989  0.4519 -0.1341  0.7940
10400TIP3    H152615   3.460   5.002   2.902 -1.8024 -0.3317  0.9551
10400TIP3    H252616   3.489   4.968   3.046  0.0069 -0.4344  0.5995
10401TIP3   OH252617   3.510   1.119   4.302 -0.5216  0.6349  0.4790
10401TIP3    H152618   3.430   1.066   4.298  1.2554 -2.2154  0.0632
10401TIP3    H252619   3.507   1.172   4.222 -0.4326 -1.9606 -1.3508
10402TIP3   OH252620   6.749   2.303  16.808  0.0281 -0.1902 -0.5049
10402TIP3    H152621   6.680   2.292  16.742 -1.5853 -1.8352  1.3028
10402TIP3    H252622   6.738   2.392  16.840 -0.1709  0.1033 -1.3550
10403TIP3   OH252623   0.590   2.423  12.090 -0.3832  0.2033 -0.3602
10403TIP3    H152624   0.535   2.347  12.070 -0.3712  0.4762 -1.4837
10403TIP3    H252625   0.647   2.432  12.014 -1.3016  2.1519 -0.8829
10404TIP3   OH252626   2.315   1.986  14.234 -0.1244 -0.1323  0.6191
10404TIP3    H152627   2.399   1.985  14.188 -0.1963  0.3573  0.4762
10404TIP3    H252628   2.328   1.928  14.309  0.3358 -0.0734  0.5860
10405TIP3   OH252629   0.245   1.813   1.667 -0.1600  0.0287  0.2976
10405TIP3    H152630   0.286   1.898   1.681 -1.1299  0.6273 -0.4016
10405TIP3    H252631   0.315   1.750   1.686  0.5164  0.9572  1.0172
10406TIP3   OH252632   2.411   1.790   5.664  0.3794 -0.5950  0.6127
10406TIP3    H152633   2.439   1.796   5.756  1.0612  0.7164  0.3338
10406TIP3    H252634   2.489   1.813   5.614 -0.8756  2.3293 -0.2075
10407TIP3   OH252635   0.338   3.742   0.155 -0.5368 -0.0751 -0.2052
10407TIP3    H152636   0.292   3.758   0.238  0.8523 -1.5956  0.9216
10407TIP3    H252637   0.283   3.679   0.109 -1.7764  1.4446 -0.9097
10408TIP3   OH252638   6.420   4.938  11.929  0.6378 -0.8841 -0.2914
10408TIP3    H152639   6.505   4.895  11.927  1.3631  0.3912  0.8805
10408TIP3    H252640   6.391   4.929  12.020 -0.7251 -1.7332 -0.7903
10409TIP3   OH252641   1.615   4.194   3.658  0.3070  0.0045 -0.3535
10409TIP3    H152642   1.654   4.188   3.571 -1.3456  1.8962 -1.3048
10409TIP3    H252643   1.523   4.171   3.645 -0.4280  2.2066  0.4498
10410TIP3   OH252644   2.073   5.877  13.794  0.1786 -0.1655 -0.3995
10410TIP3    H152645   2.014   5.952  13.802  0.9485  0.3004  1.5249
10410TIP3    H252646   2.121   5.892  13.712  0.1424  1.3193 -0.1652
10411TIP3   OH252647   3.499   6.774   2.129 -0.3844  0.1275  0.3007
10411TIP3    H152648   3.504   6.781   2.034  1.5851  0.4495  0.3835
10411TIP3    H252649   3.511   6.681   2.147  1.5867  0.3296  0.2784
10412TIP3   OH252650   1.010   3.034  16.638 -0.1701 -0.0590  0.3853
10412TIP3    H152651   1.081   3.096  16.626  1.1196 -1.2893  1.2729
10412TIP3    H252652   0.967   3.061  16.719  0.9637 -0.8022  1.2668
10413TIP3   OH252653   2.966   3.554  12.622  0.3022 -0.1499 -0.2377
10413TIP3    H152654   2.991   3.462  12.623 -0.6424 -0.4964  3.1270
10413TIP3    H252655   2.870   3.553  12.621  0.1233  0.5299  3.3106
10414TIP3   OH252656   1.131   6.390   0.379  0.4731  0.1339  0.3017
10414TIP3    H152657   1.056   6.449   0.382 -0.4064 -0.7434 -2.2360
10414TIP3    H252658   1.093   6.304   0.364  1.9732 -0.0876 -2.9747
10415TIP3   OH252659   5.534   4.307  13.539 -0.2474 -0.8957 -0.0803
10415TIP3    H152660   5.533   4.297  13.444 -1.8999 -0.4437 -0.1355
10415TIP3    H252661   5.488   4.230  13.572  1.9044 -2.0036  0.5003
10416TIP3   OH252662   6.635   4.178   0.166  0.0879 -0.0506 -0.5991
10416TIP3    H152663   6.607   4.235   0.238  0.2167 -0.5974 -0.1026
10416TIP3    H252664   6.670   4.237   0.100 -0.1748  0.4740 -0.2760
10417TIP3   OH252665   6.197   3.885   1.917 -0.3547  0.0803  0.2569
10417TIP3    H152666   6.141   3.827   1.969 -0.3008  0.5275  0.8329
10417TIP3    H252667   6.158   3.972   1.929 -0.5948  0.1270 -0.8221
10418TIP3   OH252668   1.085   2.464   2.056 -0.2217 -0.3200 -0.3021
10418TIP3    H152669   1.068   2.375   2.087 -1.1282  0.4913  1.7694
10418TIP3    H252670   1.164   2.491   2.103 -0.5440  0.3084 -0.1057
10419TIP3   OH252671   3.288   4.395  16.859  0.0809  0.1605  0.5741
10419TIP3    H152672   3.290   4.314  16.808 -0.1804  0.3440  0.2638
10419TIP3    H252673   3.379   4.421  16.868  0.0604  1.0856 -1.3657
10420TIP3   OH252674   4.722   4.021   1.798 -0.0731 -0.0105  0.2585
10420TIP3    H152675   4.757   3.960   1.862  2.3208  0.5407 -0.4378
10420TIP3    H252676   4.794   4.037   1.738 -2.0705 -0.0991 -2.3181
10421TIP3   OH252677   2.128   1.468  11.080 -0.1661 -0.3945 -0.1367
10421TIP3    H152678   2.213   1.427  11.094 -0.7196 -1.5470 -0.0206
10421TIP3    H252679   2.075   1.400  11.037 -0.6044  0.7669 -1.5296
10422TIP3   OH252680   1.345   6.708  16.481  0.1409 -0.2424  0.8552
10422TIP3    H152681   1.322   6.797  16.454  0.4471 -0.1865  0.7707
10422TIP3    H252682   1.322   6.653  16.406  0.1068 -0.2111  0.8432
10423TIP3   OH252683   6.517   3.341   2.385  0.0628 -0.3573  0.3747
10423TIP3    H152684   6.469   3.424   2.392  1.2305  0.4107 -0.3503
10423TIP3    H252685   6.609   3.367   2.391  0.5111 -1.3976 -1.4907
10424TIP3   OH252686   4.562   0.130  14.264 -0.0396  0.3798 -0.1333
10424TIP3    H152687   4.566   0.140  14.359 -0.5134 -0.1459 -0.0502
10424TIP3    H252688   4.611   0.205  14.230  1.7198 -0.3899  0.5514
10425TIP3   OH252689   0.110   5.960  15.895 -0.5375 -0.0954 -0.1300
10425TIP3    H152690   0.190   6.011  15.893 -0.8874  0.4321 -1.6833
10425TIP3    H252691   0.133   5.880  15.942  0.2779  1.0231  1.4648
10426TIP3   OH252692   5.521   5.575  16.383  0.2737  0.4230 -0.4421
10426TIP3    H152693   5.533   5.487  16.346 -0.4111  0.5581 -1.0227
10426TIP3    H252694   5.445   5.609  16.337  0.1237  1.0668  0.2677
10427TIP3   OH252695   0.765   3.648  11.187 -0.4908 -0.0425  0.0275
10427TIP3    H152696   0.859   3.651  11.206 -0.1810  1.8415 -1.4140
10427TIP3    H252697   0.758   3.595  11.108 -0.6672 -0.2735  0.1962
10428TIP3   OH252698   4.073   4.812  13.167  0.0835  0.2000  0.4243
10428TIP3    H152699   4.151   4.821  13.112  1.0586 -1.2635  1.4611
10428TIP3    H252700   4.037   4.900  13.174  0.6301  0.6060 -1.5132
10429TIP3   OH252701   5.986   0.385   0.536  0.2909 -0.1037 -0.2569
10429TIP3    H152702   6.014   0.402   0.626 -1.9925  0.2724  0.4269
10429TIP3    H252703   6.000   0.468   0.490 -0.0599  0.1958  0.1722
10430TIP3   OH252704   3.864   0.958   4.035 -0.1344  0.7827 -0.1873
10430TIP3    H152705   3.922   0.973   3.960  1.2471  0.8109  0.8467
10430TIP3    H252706   3.863   1.041   4.081 -0.9109  0.7374 -0.1103
10431TIP3   OH252707   2.540   5.915   5.825  0.0637 -0.1831 -0.3217
10431TIP3    H152708   2.563   5.988   5.883 -0.6399 -0.6956  0.6307
10431TIP3    H252709   2.610   5.913   5.760 -0.3768  1.9377 -0.9394
10432TIP3   OH252710   1.885   0.179  16.087  0.0296  0.3284  0.2711
10432TIP3    H152711   1.800   0.144  16.114 -0.1859  0.4411 -0.2489
10432TIP3    H252712   1.867   0.271  16.069 -0.3093 -0.1597 -2.2361
10433TIP3   OH252713   4.316   5.711   1.401  0.0493 -0.6107  0.0950
10433TIP3    H152714   4.254   5.719   1.329  1.3091 -0.6881 -1.0326
10433TIP3    H252715   4.262   5.687   1.477 -1.3649 -0.0143 -0.6889
10434TIP3   OH252716   4.594   3.788  10.758  0.2104  0.3847 -0.6468
10434TIP3    H152717   4.528   3.829  10.814 -0.7047 -1.2831 -0.4462
10434TIP3    H252718   4.621   3.710  10.807 -3.0211 -3.0440 -3.7529
10435TIP3   OH252719   4.329   2.451   0.914  0.1166  0.4774 -0.7475
10435TIP3    H152720   4.244   2.482   0.944  0.6784  1.6285 -0.2565
10435TIP3    H252721   4.310   2.400   0.836 -1.0691  0.2582 -0.3304
10436TIP3   OH252722   0.806   3.568   0.809 -0.3280 -0.5145 -0.5482
10436TIP3    H152723   0.807   3.645   0.752  0.2145 -0.5134 -0.5433
10436TIP3    H252724   0.786   3.495   0.751  1.4686 -0.6942 -0.9908
10437TIP3   OH252725   6.076   0.803   1.957  0.0397  0.0283 -0.3206
10437TIP3    H152726   6.091   0.833   2.047 -0.4510  0.3787 -0.3506
10437TIP3    H252727   6.147   0.843   1.906 -0.6635  1.2385 -0.3767
10438TIP3   OH252728   6.280   6.565  11.024  0.0107  0.2643  1.0265
10438TIP3    H152729   6.333   6.541  10.948  1.3807  1.4232  1.5638
10438TIP3    H252730   6.294   6.659  11.034 -2.2411  0.6340  1.1634
10439TIP3   OH252731   6.152   1.751  13.421  0.0293  0.5712 -0.4847
10439TIP3    H152732   6.068   1.797  13.419  0.0166  0.5554 -0.3009
10439TIP3    H252733   6.149   1.699  13.501 -0.2788 -0.3540 -1.0887
10440TIP3   OH252734   4.605   4.300   4.215  0.0283 -0.2551  0.2766
10440TIP3    H152735   4.601   4.206   4.235 -0.6457 -0.3692 -0.3377
10440TIP3    H252736   4.593   4.304   4.120  0.5718  0.4233  0.2324
10441TIP3   OH252737   1.928   6.029  17.183 -0.4427 -0.2834  0.3780
10441TIP3    H152738   1.851   6.054  17.234 -0.1539 -1.6526  1.5842
10441TIP3    H252739   1.944   5.938  17.208  2.6758  0.4782  1.6732
10442TIP3   OH252740   4.400   2.977  12.004 -0.0805  0.1907  0.4261
10442TIP3    H152741   4.456   3.022  12.067  0.3050 -0.5752  0.6368
10442TIP3    H252742   4.460   2.941  11.939 -0.4635  0.8318 -0.2976
10443TIP3   OH252743   3.533   0.707   4.142  0.2177  0.0093 -0.1587
10443TIP3    H152744   3.443   0.728   4.116 -0.5969 -2.9286 -0.0226
10443TIP3    H252745   3.583   0.709   4.060 -0.2340  0.3824 -0.4296
10444TIP3   OH252746   0.791   5.689  16.069 -0.6490  0.0888 -0.1261
10444TIP3    H152747   0.814   5.659  15.982  0.1526  1.7745 -0.5427
10444TIP3    H252748   0.820   5.780  16.071 -0.1962 -0.0461  2.0605
10445TIP3   OH252749   0.933   1.434  15.566  0.5032 -0.5811 -0.5051
10445TIP3    H152750   0.989   1.477  15.631 -0.2656 -0.7700  0.2996
10445TIP3    H252751   0.954   1.341  15.575 -0.0541 -0.6678 -0.0861
10446TIP3   OH252752   0.727   5.413  11.762  0.9817  0.5561 -0.0313
10446TIP3    H152753   0.766   5.500  11.768 -0.6036  1.5298 -2.4136
10446TIP3    H252754   0.802   5.354  11.751  2.0184  1.7808  0.2642
10447TIP3   OH252755   2.012   3.446  10.602  0.8457 -0.0012 -0.3258
10447TIP3    H152756   2.045   3.526  10.561  2.4601 -1.3430 -1.8138
10447TIP3    H252757   2.085   3.415  10.656  0.3306 -0.5716  0.0567
10448TIP3   OH252758   6.222   4.810  12.801  0.1410  0.1497 -0.4035
10448TIP3    H152759   6.267   4.778  12.879  1.0153  0.7168 -0.6613
10448TIP3    H252760   6.133   4.774  12.808  0.0207  0.6761  1.1376
10449TIP3   OH252761   4.601   5.239   3.679  0.1783 -0.1437 -0.3349
10449TIP3    H152762   4.574   5.206   3.764  0.4202  0.4692 -0.0190
10449TIP3    H252763   4.656   5.315   3.698 -1.5302  1.3293 -1.0745
10450TIP3   OH252764   3.089   2.942  11.588 -0.6732  0.0984  0.8321
10450TIP3    H152765   3.063   2.859  11.626 -1.7937  0.5389  1.0703
10450TIP3    H252766   3.082   2.929  11.493  0.1618 -0.3751  0.8209
10451TIP3   OH252767   3.121   5.236   2.764  0.5001 -0.2579 -0.3496
10451TIP3    H152768   3.167   5.301   2.818  1.0510  0.1831 -1.3259
10451TIP3    H252769   3.035   5.228   2.804  1.4582 -1.3007  1.7121
10452TIP3   OH252770   1.977   0.730  11.462 -0.0670  0.6431  0.3069
10452TIP3    H152771   1.958   0.746  11.370  0.1521  1.9439  0.4650
10452TIP3    H252772   2.072   0.727  11.467 -0.0895 -1.2127  0.2370
10453TIP3   OH252773   2.375   6.162   3.862 -0.1804 -0.6014 -0.2169
10453TIP3    H152774   2.345   6.247   3.831 -1.6574 -1.2833 -0.7394
10453TIP3    H252775   2.467   6.175   3.882 -0.3944  1.1384 -0.2136
10454TIP3   OH252776   3.095   5.273   4.647 -0.3495 -0.2816 -0.1094
10454TIP3    H152777   3.087   5.350   4.591  2.7308 -0.1671 -0.5667
10454TIP3    H252778   3.104   5.200   4.585  0.2945 -0.5228  0.2663
10455TIP3   OH252779   3.677   0.537  16.077 -0.2357  0.4392  0.0559
10455TIP3    H152780   3.695   0.616  16.127  1.4205  0.4796 -0.5669
10455TIP3    H252781   3.626   0.482  16.137  1.2247  0.7097  1.6047
10456TIP3   OH252782   4.799   2.843   1.993  0.0726  0.1437 -0.3604
10456TIP3    H152783   4.762   2.912   1.937 -2.8785  1.2088  2.5856
10456TIP3    H252784   4.803   2.766   1.937 -1.3851  1.4641 -2.4103
10457TIP3   OH252785   5.385   1.567   0.941 -0.1921 -0.8164 -0.0183
10457TIP3    H152786   5.373   1.650   0.988 -0.6755 -0.9657  0.1275
10457TIP3    H252787   5.468   1.577   0.895  0.2671 -0.6351  0.8167
10458TIP3   OH252788   1.446   5.998  12.177 -0.2854  0.2062  0.1783
10458TIP3    H152789   1.376   6.050  12.217  0.3715  0.7621  0.6347
10458TIP3    H252790   1.466   5.930  12.242 -0.4396  0.0103  0.0231
10459TIP3   OH252791   5.950   0.162   5.739 -0.3456  0.1107 -0.1051
10459TIP3    H152792   5.899   0.180   5.818 -1.2364  1.9576 -1.0228
10459TIP3    H252793   5.980   0.248   5.710 -0.6522 -0.4202 -2.1472
10460TIP3   OH252794   1.412   6.369   2.616  0.0722  0.3935 -0.5772
10460TIP3    H152795   1.466   6.369   2.537 -0.5555 -2.6376 -1.1113
10460TIP3    H252796   1.365   6.453   2.612  2.6795  1.9290 -1.4465
10461TIP3   OH252797   2.109   6.368  15.216 -0.2243  0.7415 -0.3120
10461TIP3    H152798   2.125   6.347  15.308 -1.1324 -0.9509 -0.4943
10461TIP3    H252799   2.021   6.334  15.199  0.2549  0.2398 -2.0069
10462TIP3   OH252800   3.442   1.802  12.550  0.4113  0.1078 -0.3258
10462TIP3    H152801   3.521   1.766  12.588 -0.5270  0.2907  1.9678
10462TIP3    H252802   3.379   1.730  12.552  0.5303 -0.1050 -2.3340
10463TIP3   OH252803   3.220   0.112   4.664  0.1159 -0.7262 -0.0835
10463TIP3    H152804   3.227   0.104   4.759  0.3212 -1.5523 -0.1611
10463TIP3    H252805   3.128   0.094   4.646 -1.4353  4.8905  0.4341
10464TIP3   OH252806   0.813   0.242  11.580 -0.2374  0.3203  0.2787
10464TIP3    H152807   0.728   0.207  11.607 -0.1877 -0.2447 -0.2734
10464TIP3    H252808   0.791   0.326  11.539 -0.7814 -0.7168 -1.6729
10465TIP3   OH252809   4.054   4.399  13.216 -0.1551 -0.5559 -0.3130
10465TIP3    H152810   3.994   4.331  13.185  1.1334 -4.0450  3.7922
10465TIP3    H252811   4.012   4.433  13.295  1.7148 -0.6605  0.7785
10466TIP3   OH252812   5.768   6.503  11.023  0.3160  0.8649 -0.3665
10466TIP3    H152813   5.760   6.580  11.079  0.1054 -0.4807  1.5580
10466TIP3    H252814   5.857   6.471  11.038 -0.9703 -1.8814  2.6345
10467TIP3   OH252815   4.206   6.375   2.528 -0.2785 -0.1095  0.6107
10467TIP3    H152816   4.236   6.290   2.496 -0.1801  0.6868 -1.6302
10467TIP3    H252817   4.193   6.426   2.448 -0.5821  1.8970  1.8899
10468TIP3   OH252818   4.104   3.306   6.043 -0.2871  0.3644 -0.0468
10468TIP3    H152819   4.186   3.356   6.039  0.6294 -0.9022  1.5117
10468TIP3    H252820   4.037   3.372   6.060  0.6522  1.2652  0.2697
10469TIP3   OH252821   6.619   6.442  17.179 -0.4363 -0.5854  0.1297
10469TIP3    H152822   6.661   6.517  17.137 -1.5116  1.4113  2.4156
10469TIP3    H252823   6.684   6.372  17.174  1.9913  1.4819  0.8667
10470TIP3   OH252824   4.292   0.480  12.185  0.4161 -0.2203 -0.2073
10470TIP3    H152825   4.348   0.403  12.177  1.0025  0.0893  0.7223
10470TIP3    H252826   4.234   0.459  12.259  0.4296  0.1296 -0.0959
10471TIP3   OH252827   5.915   5.862  15.283 -0.0489  0.5775  0.0056
10471TIP3    H152828   5.983   5.929  15.274  0.4536  0.0047 -0.5660
10471TIP3    H252829   5.928   5.826  15.371  0.8574 -0.0075 -0.3474
10472TIP3   OH252830   5.655   3.536  16.432  0.3209  0.2554 -0.1258
10472TIP3    H152831   5.580   3.509  16.379  0.2152  1.4586 -0.6228
10472TIP3    H252832   5.672   3.626  16.405  3.0962 -0.5316 -1.3504
10473TIP3   OH252833   3.596   5.094   2.447  0.4305  0.8263  0.2283
10473TIP3    H152834   3.566   5.184   2.450 -1.8013  0.1183  1.9901
10473TIP3    H252835   3.519   5.043   2.420  0.7850 -0.7992  2.0192
10474TIP3   OH252836   3.542   6.572   5.377 -0.1701 -0.0921 -0.4078
10474TIP3    H152837   3.569   6.607   5.462 -0.8641  1.3136 -0.7394
10474TIP3    H252838   3.623   6.536   5.340  0.7089  1.6207 -0.2530
10475TIP3   OH252839   6.743   4.563   5.389  0.3378 -0.1677  0.4616
10475TIP3    H152840   6.685   4.600   5.321 -0.7669 -1.1647  0.8274
10475TIP3    H252841   6.685   4.511   5.444  1.7578 -2.1474  0.1916
10476TIP3   OH252842   3.842   0.173  12.376 -0.0971 -0.2348 -0.3799
10476TIP3    H152843   3.805   0.232  12.442 -0.2985 -1.8775  1.0447
10476TIP3    H252844   3.930   0.153  12.407 -1.4315 -3.9920  1.6038
10477TIP3   OH252845   4.444   5.581  14.992 -0.4805  0.0120 -0.2140
10477TIP3    H152846   4.520   5.639  14.991 -1.0773  0.8049 -0.6523
10477TIP3    H252847   4.393   5.606  14.916 -0.0918 -2.0325 -1.2218
10478TIP3   OH252848   1.828   1.888   4.299  0.2560 -0.4979 -0.1831
10478TIP3    H152849   1.872   1.962   4.259 -1.7450  0.5293 -0.6223
10478TIP3    H252850   1.763   1.860   4.234 -0.6224 -1.1024  0.9034
10479TIP3   OH252851   3.127   4.334   1.560  0.4354 -0.6254 -0.2613
10479TIP3    H152852   3.160   4.424   1.558 -4.3684  1.4733  1.5110
10479TIP3    H252853   3.174   4.293   1.633  0.1446  1.7168  1.3518
10480TIP3   OH252854   4.247   5.405  15.090 -0.0812  0.0755  0.0010
10480TIP3    H152855   4.223   5.467  15.022  0.0075  1.2051  0.9612
10480TIP3    H252856   4.340   5.421  15.106 -0.6547  1.6603  2.1441
10481TIP3   OH252857   5.932   5.625   3.119  0.1457 -0.5443  0.6978
10481TIP3    H152858   5.984   5.605   3.197  1.0659 -1.1303 -0.0417
10481TIP3    H252859   5.903   5.715   3.131 -0.3692 -0.8790  2.0722
10482TIP3   OH252860   3.781   5.578   1.190 -0.2665  0.1606  0.0241
10482TIP3    H152861   3.827   5.539   1.265  0.5853  0.6217 -0.2556
10482TIP3    H252862   3.805   5.522   1.116 -0.0130  0.5068 -0.1555
10483TIP3   OH252863   3.219   4.314  12.505 -0.0729  0.3678 -0.2189
10483TIP3    H152864   3.135   4.354  12.483  0.5507  0.8599 -1.9463
10483TIP3    H252865   3.210   4.222  12.480  0.3634  0.7523 -1.9203
10484TIP3   OH252866   1.220   4.120  16.606  0.0615  0.0296  1.0607
10484TIP3    H152867   1.277   4.116  16.529 -1.2169  1.3438 -0.0078
10484TIP3    H252868   1.280   4.129  16.680  1.2907 -0.4214  0.1442
10485TIP3   OH252869   1.359   1.782  12.128  0.0868  0.5928 -0.1817
10485TIP3    H152870   1.433   1.780  12.188  0.0303  0.4478 -0.1153
10485TIP3    H252871   1.284   1.802  12.183  0.1979  1.5923 -0.3785
10486TIP3   OH252872   4.270   5.494   0.141  0.4907  0.0897 -0.2570
10486TIP3    H152873   4.366   5.488   0.141  0.4597 -1.4955  1.9058
10486TIP3    H252874   4.252   5.584   0.116  2.6814  1.2604  1.9299
10487TIP3   OH252875   3.691   4.579   6.597 -0.4492  0.1840  0.3662
10487TIP3    H152876   3.698   4.639   6.523 -0.9671  0.1733  0.3070
10487TIP3    H252877   3.779   4.542   6.607 -0.4806 -0.1516 -0.5267
10488TIP3   OH252878   2.060   1.006  11.773  0.5372  0.1165 -0.2039
10488TIP3    H152879   1.998   0.989  11.702 -0.8304 -2.4621  1.4557
10488TIP3    H252880   2.091   1.095  11.757 -2.5877  1.0542 -1.8757
10489TIP3   OH252881   6.464   5.490   2.201  0.0872 -0.1189 -0.1037
10489TIP3    H152882   6.536   5.434   2.172  0.2093 -0.5112  0.9032
10489TIP3    H252883   6.385   5.439   2.183  0.0284  0.4059 -1.4179
10490TIP3   OH252884   0.180   5.634   1.858  0.0341  0.0341  0.1236
10490TIP3    H152885   0.128   5.704   1.817  0.2123 -0.4018 -0.8727
10490TIP3    H252886   0.270   5.655   1.834  0.0799 -0.5766 -0.2537
10491TIP3   OH252887   5.632   2.904   0.529  0.4313  0.1104  0.2601
10491TIP3    H152888   5.603   2.828   0.479 -0.3672 -0.5473  1.6688
10491TIP3    H252889   5.551   2.949   0.553  0.7009 -0.1693  1.8155
10492TIP3   OH252890   5.466   1.244  14.765  0.5483  1.0918 -0.0523
10492TIP3    H152891   5.407   1.316  14.785 -0.2144  0.1328  1.3412
10492TIP3    H252892   5.412   1.165  14.771  1.2398  0.3903 -2.0304
10493TIP3   OH252893   4.907   5.007   5.498 -0.4229 -0.1978 -0.5218
10493TIP3    H152894   4.896   4.958   5.580 -0.0257 -0.0215 -0.3595
10493TIP3    H252895   4.831   5.065   5.495  1.0876  2.0804  1.3475
10494TIP3   OH252896   3.518   1.318   2.072 -0.2437  0.4089 -0.2808
10494TIP3    H152897   3.546   1.367   2.149 -1.4441  0.2840  0.2668
10494TIP3    H252898   3.550   1.229   2.087  1.4597  0.8630 -1.0142
10495TIP3   OH252899   4.527   4.951  15.487 -0.0435 -0.3403 -0.3639
10495TIP3    H152900   4.448   4.903  15.462  0.3445 -2.0093  1.3465
10495TIP3    H252901   4.560   4.988  15.406 -2.0064 -0.4754 -1.2804
10496TIP3   OH252902   6.204   6.398  14.280 -0.1491 -0.7023 -0.0661
10496TIP3    H152903   6.196   6.492  14.266 -0.2707 -0.6820  0.1355
10496TIP3    H252904   6.210   6.389  14.375 -2.2186 -1.0603  0.0698
10497TIP3   OH252905   6.668   3.322   5.804  0.4167  0.0246  0.2588
10497TIP3    H152906   6.644   3.410   5.830 -1.5434 -0.1674 -0.6756
10497TIP3    H252907   6.587   3.271   5.814  0.3683 -0.7450 -2.9574
10498TIP3   OH252908   0.210   5.491   6.416  0.0912 -0.0416 -0.0672
10498TIP3    H152909   0.120   5.460   6.430 -0.0461 -0.0274 -0.8387
10498TIP3    H252910   0.215   5.573   6.465  0.2855 -0.9823  1.5436
10499TIP3   OH252911   3.987   0.618  13.434  0.1502  0.0293  0.4601
10499TIP3    H152912   3.952   0.529  13.428  1.9881 -0.6760 -0.3553
10499TIP3    H252913   3.923   0.665  13.489 -1.4391 -1.4619 -0.0166
10500TIP3   OH252914   2.053   0.327   1.621 -1.0516 -0.4939  0.0822
10500TIP3    H152915   1.998   0.329   1.700 -2.2739 -0.0910 -0.7460
10500TIP3    H252916   1.990   0.316   1.549  0.0018 -0.3938 -0.8716
10501TIP3   OH252917   6.086   3.119   1.675  0.4682  0.2088  0.2929
10501TIP3    H152918   6.119   3.043   1.627 -0.3888  0.4013 -0.6341
10501TIP3    H252919   6.048   3.175   1.608 -0.6936  0.5325  1.1910
10502TIP3   OH252920   1.549   3.723   2.244  0.2888 -0.6494  0.2293
10502TIP3    H152921   1.598   3.699   2.165  0.0743 -1.3127  0.2896
10502TIP3    H252922   1.460   3.692   2.227  0.4605 -1.6860  1.1190
10503TIP3   OH252923   4.753   5.886  13.864 -0.5492 -0.2678 -0.0454
10503TIP3    H152924   4.668   5.874  13.906 -0.2472 -0.4032  0.5406
10503TIP3    H252925   4.787   5.797  13.855 -1.0398 -0.3371 -1.5126
10504TIP3   OH252926   5.703   2.093   5.396  0.4497  0.0390  0.0815
10504TIP3    H152927   5.640   2.126   5.460  0.7494  0.1180  0.3378
10504TIP3    H252928   5.760   2.035   5.447 -0.3638 -1.2696 -0.4492
10505TIP3   OH252929   5.285   5.149   3.918 -0.4464 -0.1771  0.3676
10505TIP3    H152930   5.209   5.150   3.976 -2.0035  1.7555 -1.5504
10505TIP3    H252931   5.328   5.233   3.933 -1.0497  0.4872 -1.4302
10506TIP3   OH252932   5.362   0.976  15.612  0.2626 -0.0712  0.3089
10506TIP3    H152933   5.411   0.935  15.684  0.1595 -0.2646  0.2708
10506TIP3    H252934   5.290   0.915  15.595 -0.8568  0.9054  1.3321
10507TIP3   OH252935   6.399   1.489  12.766  0.0655 -0.3101  0.5235
10507TIP3    H152936   6.442   1.551  12.825  0.3571 -0.9347  0.9766
10507TIP3    H252937   6.334   1.541  12.719  0.0769  0.2673  1.1435
10508TIP3   OH252938   3.664   2.604  14.046 -0.0389 -0.1411 -0.6519
10508TIP3    H152939   3.686   2.687  14.004 -1.0951  1.1514  1.2541
10508TIP3    H252940   3.588   2.572  13.996 -0.3970  0.6597 -0.6398
10509TIP3   OH252941   3.599   4.239   2.994 -0.2875 -0.1468 -0.5083
10509TIP3    H152942   3.650   4.210   3.070  1.3737  0.2959 -1.3987
10509TIP3    H252943   3.596   4.334   3.003 -0.6890 -0.1458 -0.6441
10510TIP3   OH252944   0.796   3.573  13.660  0.0508 -0.0622 -0.0119
10510TIP3    H152945   0.759   3.659  13.639 -0.0012 -0.7286 -3.0726
10510TIP3    H252946   0.720   3.520  13.686 -0.5120 -0.1351 -1.6863
10511TIP3   OH252947   5.833   0.083   4.495 -1.0891  0.0893  0.6913
10511TIP3    H152948   5.863  -0.007   4.498 -0.2822  0.3694  2.1790
10511TIP3    H252949   5.747   0.079   4.454 -1.9590 -1.6220  2.5175
10512TIP3   OH252950   4.555   6.175  13.802 -0.3788  1.0585 -0.2795
10512TIP3    H152951   4.557   6.089  13.844  0.7312  1.1289 -0.1525
10512TIP3    H252952   4.505   6.230  13.863  0.6419  0.9878  0.6517
10513TIP3   OH252953   3.230   3.146   5.705  0.2250 -0.6720 -0.1268
10513TIP3    H152954   3.264   3.186   5.785  0.5091 -1.7896  0.3358
10513TIP3    H252955   3.285   3.069   5.691  0.2579 -0.4236 -1.4756
10514TIP3   OH252956   5.289   0.998  14.478  0.0550  0.6118  0.1178
10514TIP3    H152957   5.285   1.051  14.398  0.9987 -1.2494 -1.2437
10514TIP3    H252958   5.362   0.938  14.464  0.4633  0.4232  2.5454
10515TIP3   OH252959   6.496   1.848  12.777  0.1901  0.1093 -0.1023
10515TIP3    H152960   6.485   1.813  12.688 -0.7654 -2.3313  0.8797
10515TIP3    H252961   6.494   1.943  12.766  0.2700 -0.1189 -2.6951
10516TIP3   OH252962   3.280   5.846   2.388 -0.1105  0.1931  0.1630
10516TIP3    H152963   3.331   5.903   2.331  0.4684 -1.2929 -0.8694
10516TIP3    H252964   3.189   5.873   2.374 -0.0114 -0.3623 -1.7526
10517TIP3   OH252965   4.123   1.177  11.534 -0.2501 -0.0664 -0.4837
10517TIP3    H152966   4.072   1.257  11.539 -0.3108 -0.0564 -1.1973
10517TIP3    H252967   4.059   1.109  11.513 -0.1839 -0.2907  0.0232
10518TIP3   OH252968   2.418   6.684   0.517  0.2081  0.0507 -0.1445
10518TIP3    H152969   2.463   6.600   0.527  0.5543  0.2983  0.4350
10518TIP3    H252970   2.352   6.668   0.449 -1.4327 -1.3987  1.6588
10519TIP3   OH252971   0.496   5.116  12.723  0.0451 -0.1339  0.1605
10519TIP3    H152972   0.567   5.052  12.713  1.2666  1.1730  0.1096
10519TIP3    H252973   0.535   5.199  12.695 -0.7240  1.0879  2.4738
10520TIP3   OH252974   5.644   3.722  14.033 -0.4181  0.2934  0.4985
10520TIP3    H152975   5.602   3.647  14.074  2.1995 -0.9369  1.1700
10520TIP3    H252976   5.660   3.694  13.943 -0.2018  0.3904  0.5080
10521TIP3   OH252977   4.130   1.920  12.687  0.2910  0.1129  0.4523
10521TIP3    H152978   4.076   1.843  12.672 -0.2349  0.3246  1.2304
10521TIP3    H252979   4.116   1.942  12.779  0.2063  1.3111  0.1691
10522TIP3   OH252980   5.370   4.342   2.218  0.0467 -0.0700 -0.4341
10522TIP3    H152981   5.440   4.383   2.269 -0.6688  0.9688 -0.2361
10522TIP3    H252982   5.325   4.285   2.280  0.8820 -0.9533 -0.6351
10523TIP3   OH252983   3.660   2.271  16.582  0.0962 -0.0169  0.5575
10523TIP3    H152984   3.602   2.343  16.607 -0.4095 -0.1936 -0.0887
10523TIP3    H252985   3.744   2.293  16.622  0.1718  1.3340 -0.2813
10524TIP3   OH252986   2.859   1.976  12.972 -0.3407  0.1121  0.5570
10524TIP3    H152987   2.891   1.895  12.932  0.3251  0.2001  0.8923
10524TIP3    H252988   2.776   1.993  12.929 -0.1010 -0.3174 -0.0878
10525TIP3   OH252989   1.880   6.428   4.246 -0.3068 -0.1354 -0.1266
10525TIP3    H152990   1.974   6.429   4.227  0.1502 -0.2167  1.8641
10525TIP3    H252991   1.861   6.337   4.269 -0.5983  0.0950  0.5920
10526TIP3   OH252992   4.761   2.870  16.553 -0.1792 -0.3604 -0.2669
10526TIP3    H152993   4.692   2.813  16.520  0.1956  0.7324 -3.2625
10526TIP3    H252994   4.736   2.957  16.524  1.9462  0.2173 -0.5373
10527TIP3   OH252995   6.550   3.373  15.470  0.1532 -0.6908  0.0730
10527TIP3    H152996   6.556   3.294  15.525 -0.9515 -0.1228  1.0583
10527TIP3    H252997   6.496   3.433  15.521  0.9161  0.6908 -0.6966
10528TIP3   OH252998   1.767   1.530  16.606 -0.2309  0.0329 -0.3724
10528TIP3    H152999   1.860   1.550  16.614 -0.6502  2.4790 -0.7510
10528TIP3    H253000   1.753   1.516  16.512 -0.0632 -1.5527 -0.1827
10529TIP3   OH253001   4.952   6.347  16.782  0.2252  0.6539  0.5828
10529TIP3    H153002   4.860   6.361  16.760 -0.4633 -0.7977  2.3472
10529TIP3    H253003   4.977   6.427  16.828  0.7979  2.3650 -2.4178
10530TIP3   OH253004   1.197   0.651  15.327  0.1845 -0.3510  0.0919
10530TIP3    H153005   1.112   0.614  15.351 -1.6720  2.3072 -1.8397
10530TIP3    H253006   1.197   0.651  15.231  2.4278 -0.3210  0.0358
10531TIP3   OH253007   1.202   0.598  15.063  0.1099  0.1407  0.1822
10531TIP3    H153008   1.280   0.620  15.012  0.1893  2.7309  1.2421
10531TIP3    H253009   1.134   0.583  14.997  0.9844  0.0451 -0.7269
10532TIP3   OH253010   1.165   5.240   1.878 -0.1797 -0.2575  0.3510
10532TIP3    H153011   1.151   5.147   1.858  0.3852 -0.1584 -0.5507
10532TIP3    H253012   1.259   5.254   1.865 -0.4894  0.7729 -1.0098
10533TIP3   OH253013   2.515   5.925   4.388 -0.6718  0.3808  0.1676
10533TIP3    H153014   2.578   5.860   4.419 -1.3335 -0.8946 -1.0529
10533TIP3    H253015   2.444   5.923   4.452 -1.1086 -0.7888 -0.3261
10534TIP3   OH253016   0.537   2.655   3.135  0.1381 -0.2241 -0.1731
10534TIP3    H153017   0.548   2.719   3.206 -1.2427 -0.0557 -0.0937
10534TIP3    H253018   0.444   2.635   3.134  0.1596 -0.3950 -1.7968
10535TIP3   OH253019   4.969   1.022   4.985 -0.0860  0.0235  1.0030
10535TIP3    H153020   5.042   1.084   4.981 -0.3954  0.3287 -0.8805
10535TIP3    H253021   4.892   1.078   4.993 -0.3332 -0.0868 -0.3017
10536TIP3   OH253022   1.554   3.109   3.844  0.4539  0.5288 -0.2658
10536TIP3    H153023   1.585   3.041   3.903  0.2283 -0.1530 -0.9241
10536TIP3    H253024   1.518   3.062   3.769  1.0948  1.3807 -1.1312
10537TIP3   OH253025   0.687   3.830   5.262  0.1200  0.1447 -0.0427
10537TIP3    H153026   0.674   3.741   5.228 -0.8731 -0.0057  0.6679
10537TIP3    H253027   0.669   3.822   5.356 -0.0067  1.0976  0.0224
10538TIP3   OH253028   5.628   5.882   3.903  0.3538 -0.2442 -0.0870
10538TIP3    H153029   5.561   5.942   3.871 -0.4604 -1.4494 -0.7075
10538TIP3    H253030   5.617   5.803   3.849  2.3676 -0.4183 -0.3243
10539TIP3   OH253031   2.428   2.476   0.042  0.1702  0.1393 -0.1758
10539TIP3    H153032   2.420   2.508   0.132 -0.7873  1.1534 -0.5914
10539TIP3    H253033   2.424   2.380   0.050 -1.3002  0.2418  0.7712
10540TIP3   OH253034   4.883   5.422  15.653 -0.3085  0.2472 -0.2373
10540TIP3    H153035   4.788   5.432  15.651 -0.2079  1.1980 -0.3508
10540TIP3    H253036   4.898   5.330  15.629 -1.1714  0.1932 -0.5787
10541TIP3   OH253037   1.402   3.127   5.182  0.0307 -0.6449 -0.3287
10541TIP3    H153038   1.485   3.173   5.183 -1.4266  2.2338 -0.7216
10541TIP3    H253039   1.351   3.167   5.251 -1.3018 -1.8418 -0.5595
10542TIP3   OH253040   2.498   2.537  15.878  1.0752 -0.3550  0.1492
10542TIP3    H153041   2.446   2.605  15.920 -0.5800 -1.0106 -0.7641
10542TIP3    H253042   2.533   2.485  15.951  1.0514  0.5163  0.7945
10543TIP3   OH253043   1.801   6.607  16.024 -0.2311 -0.4936 -0.2364
10543TIP3    H153044   1.810   6.553  16.103  1.1016  1.7344  1.2575
10543TIP3    H253045   1.873   6.580  15.968  0.1889 -0.5583  0.3229
10544TIP3   OH253046   2.183   0.407   4.521  0.1669  0.5253  0.0512
10544TIP3    H153047   2.258   0.432   4.575  1.1983 -1.1015 -0.5328
10544TIP3    H253048   2.173   0.313   4.536 -0.2537  0.2557 -1.6706
10545TIP3   OH253049   5.552   0.323   4.963  0.3441  0.2183  0.7638
10545TIP3    H153050   5.517   0.244   5.004  2.7889 -0.8274  1.0023
10545TIP3    H253051   5.489   0.343   4.893 -0.1763 -2.1547  0.4441
10546TIP3   OH253052   5.576   4.057   4.243  0.6683 -0.9597 -0.2071
10546TIP3    H153053   5.497   4.110   4.238  0.9025 -0.5977 -0.0619
10546TIP3    H253054   5.599   4.056   4.336  1.1463 -0.6045 -0.3184
10547TIP3   OH253055   2.884   1.524  15.412  0.4364  0.2077 -0.1559
10547TIP3    H153056   2.927   1.604  15.444  0.2001 -0.0154  0.7608
10547TIP3    H253057   2.933   1.501  15.334  0.5472  1.2165 -0.4053
10548TIP3   OH253058   5.146   3.083  15.755 -0.2725  0.2010  0.3561
10548TIP3    H153059   5.172   3.037  15.835 -2.3145  0.2801  1.1262
10548TIP3    H253060   5.050   3.082  15.757 -0.4217 -0.6301 -2.5976
10549TIP3   OH253061   0.457   2.665  10.726 -0.0329 -0.3020 -0.0301
10549TIP3    H153062   0.476   2.588  10.778  2.5018  0.6848  0.6642
10549TIP3    H253063   0.537   2.718  10.731 -1.4173  2.0498 -1.0317
10550TIP3   OH253064   5.551   1.042   2.243  0.2636  0.7550  0.7183
10550TIP3    H153065   5.458   1.065   2.242 -0.4605 -1.8052  0.9594
10550TIP3    H253066   5.594   1.112   2.194 -1.8778  1.6209 -0.0425
10551TIP3   OH253067   0.129   2.675  16.398 -0.0318  0.3524  0.1540
10551TIP3    H153068   0.224   2.687  16.404  0.2425 -1.2594 -0.3944
10551TIP3    H253069   0.105   2.714  16.314  0.3241 -0.1720 -0.1950
10552TIP3   OH253070   5.101   6.592  12.669 -0.2488  0.3376 -0.1613
10552TIP3    H153071   5.120   6.676  12.625  0.5063 -0.5137 -1.5534
10552TIP3    H253072   5.049   6.616  12.745 -1.8747  1.9000 -1.6742
10553TIP3   OH253073   6.576   6.727   3.359  0.2425  0.0986  0.1136
10553TIP3    H153074   6.657   6.681   3.342 -1.0955 -1.1884 -3.9212
10553TIP3    H253075   6.577   6.801   3.299 -2.2485 -1.0212 -1.4866
10554TIP3   OH253076   1.915   0.224  13.787 -0.3859 -0.3213 -0.3704
10554TIP3    H153077   1.924   0.268  13.702 -0.8131 -0.1612 -0.3335
10554TIP3    H253078   1.829   0.250  13.819 -1.7284 -3.0685 -1.4307
10555TIP3   OH253079   1.690   4.284   0.762 -0.0243 -0.3579  0.1753
10555TIP3    H153080   1.686   4.337   0.683  1.0021  0.4117  0.6102
10555TIP3    H253081   1.763   4.224   0.747  1.7322  1.3387  1.3996
10556TIP3   OH253082   3.537   5.728   4.385  0.3353  0.3918  0.7899
10556TIP3    H153083   3.599   5.708   4.455 -0.1871 -0.9244  0.9107
10556TIP3    H253084   3.481   5.796   4.421  0.7745  0.5274  1.2277
10557TIP3   OH253085   1.682   4.589   5.996  0.0266 -0.5321  0.2887
10557TIP3    H153086   1.642   4.579   6.082  0.5136 -0.9115  0.4729
10557TIP3    H253087   1.773   4.614   6.014 -0.4297  1.6936 -0.1234
10558TIP3   OH253088   5.769   5.727  11.706 -0.7496  0.0883  0.0179
10558TIP3    H153089   5.723   5.754  11.626 -1.8745  0.1014  0.6679
10558TIP3    H253090   5.852   5.775  11.702 -0.4645 -0.4733 -1.5056
10559TIP3   OH253091   5.442   1.753  17.163  0.0397  0.2349 -0.1265
10559TIP3    H153092   5.515   1.785  17.109 -0.4443 -0.7202 -1.3832
10559TIP3    H253093   5.418   1.669  17.124 -1.8101  0.5723  0.1959
10560TIP3   OH253094   3.339   3.682  14.931  0.4347 -0.3745 -0.4264
10560TIP3    H153095   3.426   3.702  14.965 -0.2209 -0.0636  1.1316
10560TIP3    H253096   3.332   3.735  14.852  2.3645 -1.8527 -1.7063
10561TIP3   OH253097   1.791   2.896   4.876 -0.5487  0.2309 -0.0201
10561TIP3    H153098   1.720   2.942   4.831 -0.4609  0.0872 -0.3105
10561TIP3    H253099   1.870   2.945   4.853 -0.0077 -1.6576 -2.7422
10562TIP3   OH253100   2.156   4.990  13.853  0.0118 -0.8471 -0.0015
10562TIP3    H153101   2.120   5.000  13.941 -0.0219 -1.5120  0.0707
10562TIP3    H253102   2.173   4.896  13.845 -1.2229 -1.0002 -1.1882
10563TIP3   OH253103   2.776   3.738  16.723 -0.3835  0.6021  0.2302
10563TIP3    H153104   2.805   3.705  16.638  1.6418  0.3896  0.9419
10563TIP3    H253105   2.712   3.806  16.702  0.8740  1.3309 -1.5283
10564TIP3   OH253106   0.149   2.882   2.600  0.5623  0.2315 -0.3878
10564TIP3    H153107   0.205   2.830   2.658 -0.1977  0.9393  1.0272
10564TIP3    H253108   0.183   2.971   2.607  1.6550  0.0445 -2.5512
10565TIP3   OH253109   4.547   1.519   1.651 -0.5063 -0.1823  0.0828
10565TIP3    H153110   4.566   1.546   1.742 -3.5848  2.0927  0.2084
10565TIP3    H253111   4.544   1.424   1.655 -0.4376 -0.1665  2.3725
10566TIP3   OH253112   1.935   3.472   2.488 -0.2282  0.4785 -0.1523
10566TIP3    H153113   1.902   3.555   2.453 -0.5766  0.1838 -0.5330
10566TIP3    H253114   2.028   3.486   2.501 -0.4041  1.1596  0.4381
10567TIP3   OH253115   6.769   3.474   2.435 -0.7421 -0.4140 -0.2939
10567TIP3    H153116   6.820   3.490   2.356  1.6575 -0.6365  1.1023
10567TIP3    H253117   6.747   3.561   2.468 -0.7284 -0.2943 -0.6018
10568TIP3   OH253118   2.007   1.699  13.299  0.3500 -0.2217 -0.2754
10568TIP3    H153119   2.006   1.790  13.269 -0.5438  0.0063  0.3964
10568TIP3    H253120   1.921   1.686  13.339  1.7158 -0.2329  2.9670
10569TIP3   OH253121   3.597   6.439   3.220 -0.1802  0.3293  0.0125
10569TIP3    H153122   3.606   6.506   3.288 -1.3433  2.4442 -1.8144
10569TIP3    H253123   3.509   6.404   3.232 -0.9117  1.6685 -1.1593
10570TIP3   OH253124   3.418   5.827   1.409  0.2957 -0.4621 -0.4351
10570TIP3    H153125   3.466   5.908   1.393  1.2144 -1.0622 -0.8101
10570TIP3    H253126   3.369   5.812   1.329 -0.5882  0.1762 -0.0346
10571TIP3   OH253127   1.123   0.250   0.822 -0.1570 -0.3936  0.0440
10571TIP3    H153128   1.208   0.212   0.797 -0.2785  0.1132 -1.1785
10571TIP3    H253129   1.126   0.339   0.789 -0.7849 -0.0479  0.8900
10572TIP3   OH253130   4.178   3.718  13.570 -0.4889 -0.2647 -0.0112
10572TIP3    H153131   4.128   3.799  13.585  2.8827  2.1402 -0.6566
10572TIP3    H253132   4.200   3.719  13.477 -0.6802 -2.1745 -0.1164
10573TIP3   OH253133   3.741   4.647  11.897 -0.2896  0.3445 -0.5239
10573TIP3    H153134   3.750   4.631  11.990  0.1403 -2.0648 -0.9292
10573TIP3    H253135   3.731   4.742  11.890  0.3044  0.6403  1.8912
10574TIP3   OH253136   1.634   1.053  11.598  0.7438  0.4722 -0.6156
10574TIP3    H153137   1.712   0.998  11.594  1.4843  1.2843  1.3898
10574TIP3    H253138   1.665   1.139  11.570  0.5122  0.7205 -0.1255
10575TIP3   OH253139   5.102   6.011   0.505 -0.0370  0.2189  0.0991
10575TIP3    H153140   5.171   6.002   0.439  0.2416 -2.2214  0.6354
10575TIP3    H253141   5.142   5.978   0.586 -0.9852  1.3457  1.0728
10576TIP3   OH253142   3.961   0.008   2.037  0.6950  0.3282  0.6783
10576TIP3    H153143   3.957   0.008   2.133  1.5874 -2.0054  0.7879
10576TIP3    H253144   3.895  -0.057   2.011  2.0811 -0.8202 -0.1182
10577TIP3   OH253145   3.787   6.525  12.286 -0.0420  0.0736  1.0412
10577TIP3    H153146   3.785   6.604  12.232  0.2262 -1.3468 -1.1634
10577TIP3    H253147   3.714   6.535  12.347 -1.6278  0.8605 -0.9194
10578TIP3   OH253148   0.011   2.603   3.620  0.2868 -0.4175 -0.9397
10578TIP3    H153149   0.045   2.692   3.627  1.9303 -0.9747 -1.3670
10578TIP3    H253150  -0.008   2.591   3.526 -2.1344  0.2076 -0.5953
10579TIP3   OH253151   2.624   0.396   5.749  0.0813 -0.4683 -0.3396
10579TIP3    H153152   2.601   0.481   5.789  2.1348 -0.6700  1.4508
10579TIP3    H253153   2.692   0.418   5.685 -0.6307 -0.5878 -1.1516
10580TIP3   OH253154   4.700   1.634  10.663 -0.3748  0.7580  0.1619
10580TIP3    H153155   4.795   1.632  10.652 -0.2502 -0.9397  1.1829
10580TIP3    H253156   4.668   1.681  10.587  1.1552 -0.4852 -1.3319
10581TIP3   OH253157   4.352   4.049  15.515  0.2418 -0.6362  0.3635
10581TIP3    H153158   4.300   4.029  15.593  0.8604  0.2731  1.0344
10581TIP3    H253159   4.317   3.991  15.447 -1.7929  0.0584  0.7344
10582TIP3   OH253160   1.903   6.037  14.139 -0.8578 -0.1543 -0.2545
10582TIP3    H153161   1.982   6.007  14.183 -1.1776 -1.9768 -0.8338
10582TIP3    H253162   1.848   6.073  14.208  0.5976  1.5431  0.1023
10583TIP3   OH253163   5.161   5.373   5.345 -0.0552 -0.3264  0.2952
10583TIP3    H153164   5.163   5.465   5.318  0.1422 -0.4875 -0.2311
10583TIP3    H253165   5.240   5.335   5.307 -0.8950 -1.0708 -0.7415
10584TIP3   OH253166   1.000   6.237  12.606 -0.3130 -0.3417 -0.1041
10584TIP3    H153167   1.029   6.324  12.634 -1.9116  0.7254 -1.5225
10584TIP3    H253168   0.972   6.194  12.686 -1.9245  1.4615  0.3668
10585TIP3   OH253169   5.095   1.663   1.256 -0.3626  0.1454 -0.0519
10585TIP3    H153170   5.155   1.691   1.188 -1.1790  0.6088 -0.6068
10585TIP3    H253171   5.077   1.571   1.237 -1.6767  0.6319 -1.3327
10586TIP3   OH253172   3.568   0.839  15.963  0.3272 -0.6144 -0.0891
10586TIP3    H153173   3.487   0.794  15.938  0.5483 -1.1635  0.1699
10586TIP3    H253174   3.594   0.798  16.046  0.6995 -0.2213 -0.0059
10587TIP3   OH253175   6.149   3.444  14.314 -0.5818  0.0530 -0.1935
10587TIP3    H153176   6.243   3.428  14.325 -0.4122  0.5282 -0.8845
10587TIP3    H253177   6.108   3.398  14.387  0.1320 -0.8010 -0.3157
10588TIP3   OH253178   1.973   6.053  12.972  0.1890  0.2273 -0.0005
10588TIP3    H153179   1.885   6.088  12.963 -0.3524 -1.1353 -0.1764
10588TIP3    H253180   1.989   6.051  13.066 -0.3348 -0.3975  0.0761
10589TIP3   OH253181   0.847   3.231  14.379  0.5239  0.2484  0.0348
10589TIP3    H153182   0.912   3.278  14.327  0.2388  0.3097 -0.2685
10589TIP3    H253183   0.894   3.155  14.413  0.2679 -0.7510 -1.7512
10590TIP3   OH253184   3.063   0.497  15.527  0.2502  0.2652 -0.5008
10590TIP3    H153185   3.094   0.434  15.592  0.7848 -2.2227 -2.9651
10590TIP3    H253186   3.117   0.575  15.541  0.3371 -0.1718  1.9700
10591TIP3   OH253187   0.252   0.227   1.825 -0.2368 -0.5502 -0.4056
10591TIP3    H153188   0.261   0.166   1.899 -2.9385  0.7896  1.2164
10591TIP3    H253189   0.167   0.268   1.840  0.8795  2.6593 -2.1251
10592TIP3   OH253190   3.633   0.852  11.130 -0.1944  0.0038  0.2903
10592TIP3    H153191   3.684   0.839  11.050 -0.4860 -1.1177  0.2790
10592TIP3    H253192   3.682   0.919  11.178  0.3736  0.1696 -0.4830
10593TIP3   OH253193   6.738   2.485   2.849  0.0527  0.4773  0.0110
10593TIP3    H153194   6.707   2.541   2.778 -0.2414  1.2967  0.7724
10593TIP3    H253195   6.832   2.476   2.833  0.1290  1.3202 -0.0294
10594TIP3   OH253196   0.025   5.780  15.619  0.4034 -0.0536  0.3927
10594TIP3    H153197   0.029   5.865  15.661  0.6575  0.0650  0.1343
10594TIP3    H253198   0.010   5.718  15.690  1.4909  0.0699  0.7412
10595TIP3   OH253199   4.802   1.796   5.576 -0.0281 -0.3103 -0.0473
10595TIP3    H153200   4.856   1.778   5.499 -1.6323  1.1686 -1.5955
10595TIP3    H253201   4.846   1.869   5.620 -0.1250  0.0999 -0.6281
10596TIP3   OH253202   2.018   4.726  16.900  0.1394 -0.4887 -0.0043
10596TIP3    H153203   2.011   4.816  16.932 -0.8940 -0.4081 -0.4215
10596TIP3    H253204   2.065   4.680  16.970 -0.0887  0.1821  0.6128
10597TIP3   OH253205   3.906   0.221   3.741  0.2560  0.5715 -0.2530
10597TIP3    H153206   3.967   0.291   3.719 -0.0468  0.4452 -1.5652
10597TIP3    H253207   3.928   0.150   3.680 -0.4213  0.0791  0.0581
10598TIP3   OH253208   1.320   6.356  12.564 -0.4502  0.1255  0.1024
10598TIP3    H153209   1.355   6.445  12.562 -2.4233  0.9586 -0.1456
10598TIP3    H253210   1.245   6.361  12.624 -0.3336 -1.4839  0.4279
10599TIP3   OH253211   2.590   0.204  15.840  0.4077  0.3626  0.4864
10599TIP3    H153212   2.597   0.285  15.890 -1.8332  1.6705 -1.1520
10599TIP3    H253213   2.631   0.223  15.756  1.1953 -0.7377  0.5884
10600TIP3   OH253214   3.119   2.005   4.712  0.0450 -0.3336  0.0845
10600TIP3    H153215   3.201   1.991   4.665 -0.4540 -1.9184 -0.3665
10600TIP3    H253216   3.057   1.945   4.671 -0.8834 -0.4479  1.5767
10601TIP3   OH253217   2.545   0.527   2.346  0.8402 -0.5657 -0.1152
10601TIP3    H153218   2.536   0.555   2.437 -0.5865 -1.1419 -0.0569
10601TIP3    H253219   2.502   0.596   2.295  0.2522 -1.0022 -0.2193
10602TIP3   OH253220   5.373   0.958  12.209  0.4535  0.2169  0.2716
10602TIP3    H153221   5.421   0.916  12.280  3.4679  2.6210 -0.1414
10602TIP3    H253222   5.414   0.926  12.129  0.6589  1.4481 -0.1432
10603TIP3   OH253223   4.808   0.158   2.526 -0.2290  0.4434  0.3422
10603TIP3    H153224   4.873   0.226   2.510 -0.3117  0.0393 -2.0588
10603TIP3    H253225   4.790   0.163   2.620  2.8248  0.9615  1.0109
10604TIP3   OH253226   2.714   5.218  16.677 -0.0590 -0.2825  0.0989
10604TIP3    H153227   2.768   5.276  16.731 -0.6947  1.5386 -1.1301
10604TIP3    H253228   2.627   5.222  16.716  0.4093 -2.5457  1.5657
10605TIP3   OH253229   0.179   5.928  13.341 -0.0046  0.0924 -0.5132
10605TIP3    H153230   0.212   6.018  13.346  0.1942  0.1178 -1.8225
10605TIP3    H253231   0.211   5.887  13.421  2.0796  0.5119 -1.0625
10606TIP3   OH253232   4.898   6.467  11.219 -0.4391  0.1336  0.1631
10606TIP3    H153233   4.955   6.534  11.182 -0.8036  0.5552  0.3602
10606TIP3    H253234   4.948   6.431  11.292  0.4674 -1.0124 -0.9757
10607TIP3   OH253235   2.522   5.766   3.850 -0.0968 -0.6232 -0.1387
10607TIP3    H153236   2.571   5.721   3.919  0.9407  0.7328  0.0344
10607TIP3    H253237   2.587   5.790   3.785 -1.0399 -1.7235 -1.5593
10608TIP3   OH253238   4.094   3.786   2.168  0.1844  0.1909  0.3904
10608TIP3    H153239   4.135   3.699   2.172 -0.6778 -0.2308  0.2249
10608TIP3    H253240   4.127   3.832   2.245  1.0518 -0.1012  0.2056
10609TIP3   OH253241   0.210   5.795  12.650 -0.2071  0.4292  0.4830
10609TIP3    H153242   0.174   5.844  12.576 -0.9995  1.5422  1.5662
10609TIP3    H253243   0.147   5.724  12.665  0.0452  0.0973 -0.0043
10610TIP3   OH253244   1.062   0.894  11.758 -0.4395 -0.1424 -0.3501
10610TIP3    H153245   1.089   0.805  11.733  1.0147 -0.3821  1.7627
10610TIP3    H253246   0.988   0.880  11.817  0.8601 -0.1444  1.3704
10611TIP3   OH253247   3.828   5.694  17.148  0.4565 -0.0570  0.3148
10611TIP3    H153248   3.836   5.600  17.130  0.4935 -0.0689  0.3949
10611TIP3    H253249   3.892   5.711  17.217 -0.5034 -0.2407  1.2899
10612TIP3   OH253250   5.436   5.921  16.461  0.2842 -0.3753 -0.4464
10612TIP3    H153251   5.410   5.854  16.397 -2.2866 -2.7854  2.7831
10612TIP3    H253252   5.510   5.882  16.507 -0.3864 -0.4497  0.5875
10613TIP3   OH253253   5.012   3.716  12.999 -0.1977 -0.1461 -0.5264
10613TIP3    H153254   4.929   3.670  12.991 -1.3149  1.5713  0.6420
10613TIP3    H253255   5.012   3.751  13.088  1.4226  0.5678 -0.7773
10614TIP3   OH253256   6.136   4.468  14.432  0.0553 -0.0041 -0.6572
10614TIP3    H153257   6.166   4.555  14.458 -0.5781 -0.1327  0.5819
10614TIP3    H253258   6.129   4.419  14.515 -3.2912 -0.0547 -0.8398
10615TIP3   OH253259   4.925   3.229   1.163 -0.0883 -0.1184  0.3430
10615TIP3    H153260   4.940   3.301   1.224 -1.4046  0.4794 -0.0281
10615TIP3    H253261   4.846   3.253   1.115  0.8998 -0.5852 -1.6120
10616TIP3   OH253262   5.273   5.342   0.041 -0.6207  0.2103  0.1209
10616TIP3    H153263   5.246   5.261  -0.003  1.1216  0.0355 -0.7431
10616TIP3    H253264   5.199   5.401   0.031 -0.1312  0.4581 -3.8614
10617TIP3   OH253265   4.085   5.551  12.716  0.4275  0.4224 -0.2459
10617TIP3    H153266   4.101   5.462  12.747 -0.5660 -0.1803 -1.3510
10617TIP3    H253267   4.045   5.595  12.791  0.5040 -0.1999  0.1726
10618TIP3   OH253268   5.281   3.183   1.324 -0.2888 -0.3327 -0.7948
10618TIP3    H153269   5.215   3.154   1.387  1.2266 -0.9900  0.5539
10618TIP3    H253270   5.314   3.102   1.285  0.5846 -0.1089 -0.5398
10619TIP3   OH253271   4.977   0.147   3.588 -0.5662  0.2043 -0.1652
10619TIP3    H153272   4.966   0.240   3.572  0.9195  0.5269  0.5197
10619TIP3    H253273   5.071   0.135   3.598 -0.4263 -1.7972 -2.7237
10620TIP3   OH253274   4.833   5.078  15.066  0.2254 -0.2594 -0.5623
10620TIP3    H153275   4.847   5.045  14.977 -3.1749  2.9433 -2.5736
10620TIP3    H253276   4.862   5.170  15.062 -1.6733  0.4795  1.0510
10621TIP3   OH253277   2.184   4.655  13.732 -0.4828  0.4593  0.3132
10621TIP3    H153278   2.095   4.664  13.699 -0.0522  0.8082 -0.7975
10621TIP3    H253279   2.238   4.701  13.667  0.7295 -1.4827 -0.1171
10622TIP3   OH253280   6.171   1.667   2.241 -0.1535 -0.9319 -0.7542
10622TIP3    H153281   6.190   1.713   2.323 -1.2900  1.2540 -1.6296
10622TIP3    H253282   6.157   1.576   2.267  0.6954 -0.5319  1.2929
10623TIP3   OH253283   0.457   5.832   2.863 -0.8512  0.1391  0.4273
10623TIP3    H153284   0.488   5.814   2.774  1.7896  1.5247  0.9779
10623TIP3    H253285   0.534   5.820   2.918 -1.5358  2.6645  2.0974
10624TIP3   OH253286   6.416   5.650  13.570 -0.0722 -0.3153  0.4035
10624TIP3    H153287   6.344   5.592  13.546  0.7973 -0.2389 -2.7994
10624TIP3    H253288   6.394   5.734  13.531  1.2213  0.0062  0.3189
10625TIP3   OH253289   6.361   6.170   5.593 -0.1842 -0.2407  0.0260
10625TIP3    H153290   6.436   6.186   5.536  0.0956 -0.3760  0.3480
10625TIP3    H253291   6.392   6.194   5.681  0.2813 -2.5209  0.5451
10626TIP3   OH253292   1.733   0.593   6.654  0.1031 -0.0108 -1.1310
10626TIP3    H153293   1.748   0.688   6.655 -0.1634  0.0322 -0.5794
10626TIP3    H253294   1.694   0.574   6.740  0.1875 -0.6255 -1.2217
10627TIP3   OH253295   1.580   4.052  14.802  0.1180 -0.5245  0.3038
10627TIP3    H153296   1.505   4.045  14.742  0.3607  0.4850 -0.1380
10627TIP3    H253297   1.653   4.076  14.747  1.0501 -2.5153  0.5741
10628TIP3   OH253298   6.580   5.620   0.188  0.2105  0.1534 -0.4931
10628TIP3    H153299   6.610   5.705   0.219  1.3300 -0.2841 -0.3200
10628TIP3    H253300   6.599   5.620   0.094 -1.8670  0.9295 -0.9701
10629TIP3   OH253301   1.276   3.508  16.684 -0.4672 -0.3375 -0.2097
10629TIP3    H153302   1.342   3.506  16.754 -1.2105 -1.3850  0.5033
10629TIP3    H253303   1.273   3.599  16.655  1.4662 -0.3025 -0.4424
10630TIP3   OH253304   0.811   3.422   4.484  0.0858 -0.2726  0.6586
10630TIP3    H153305   0.789   3.471   4.404 -0.6722  1.4966  1.9011
10630TIP3    H253306   0.739   3.360   4.494  0.0807 -0.3693  0.0966
10631TIP3   OH253307   4.094   4.695   4.898 -0.3659 -0.4322 -0.5015
10631TIP3    H153308   3.999   4.697   4.906 -0.5223 -0.3497 -2.0629
10631TIP3    H253309   4.115   4.767   4.838  0.7491  0.0061  0.3701
10632TIP3   OH253310   6.299   3.928   0.938  0.1084 -0.4060 -0.7059
10632TIP3    H153311   6.289   4.017   0.907  0.4045 -0.1527 -0.0934
10632TIP3    H253312   6.356   3.886   0.874 -0.0303 -0.1565 -0.9933
10633TIP3   OH253313   3.870   1.798  13.505 -0.7078 -0.3081  0.2994
10633TIP3    H153314   3.844   1.818  13.415  0.6764  1.5087  0.2507
10633TIP3    H253315   3.874   1.703  13.508  0.3988 -0.4001 -1.9435
10634TIP3   OH253316   1.178   2.452   5.430 -0.2078  0.5168  0.3754
10634TIP3    H153317   1.226   2.370   5.422 -1.1171  0.0968 -1.2965
10634TIP3    H253318   1.101   2.430   5.482 -0.8537  0.1011 -0.7373
10635TIP3   OH253319   6.072   3.068   0.334 -0.1783  0.3256 -0.6957
10635TIP3    H153320   6.151   3.039   0.288  0.4371 -0.5190  0.7845
10635TIP3    H253321   6.017   2.990   0.339 -0.3147  0.4464 -0.2016
10636TIP3   OH253322   4.718   4.878   5.010  0.1352  0.2069 -0.7744
10636TIP3    H153323   4.669   4.912   5.085 -1.2151  0.1754 -1.6131
10636TIP3    H253324   4.677   4.794   4.991  1.0372 -0.1852 -1.0230
10637TIP3   OH253325   5.252   1.187   5.497 -0.1613 -0.0790  0.2870
10637TIP3    H153326   5.247   1.261   5.557  1.0788 -0.5384  0.9972
10637TIP3    H253327   5.308   1.217   5.426 -0.5338  0.0069  0.0225
10638TIP3   OH253328   2.243   3.963  16.333  0.2624  0.6823  0.0037
10638TIP3    H153329   2.230   3.982  16.426  0.0077 -0.4021  0.1950
10638TIP3    H253330   2.331   3.996  16.314  0.0998  1.4193  0.4864
10639TIP3   OH253331   2.818   5.934  16.018 -0.6339 -0.3383 -0.2237
10639TIP3    H153332   2.782   5.927  16.106 -0.8792 -3.3245 -0.4594
10639TIP3    H253333   2.746   5.968  15.964 -1.3473 -0.9871  0.2974
10640TIP3   OH253334   3.467   2.684   2.426 -0.5563  0.1179 -0.1795
10640TIP3    H153335   3.456   2.776   2.402  2.0970 -0.0991 -2.7354
10640TIP3    H253336   3.548   2.682   2.476 -0.6424 -0.8449 -0.0628
10641TIP3   OH253337   6.218   6.220  16.484 -0.2571 -0.2907 -0.1300
10641TIP3    H153338   6.147   6.195  16.425  0.5046 -0.3931 -1.0338
10641TIP3    H253339   6.213   6.158  16.557  0.9294 -2.4451 -1.7861
10642TIP3   OH253340   2.596   4.101   3.147 -0.1754  0.2440  0.2949
10642TIP3    H153341   2.621   4.180   3.099 -0.5813 -0.2899 -0.8177
10642TIP3    H253342   2.628   4.117   3.236 -0.1741  1.6254  0.0780
10643TIP3   OH253343   5.617   3.465  15.183 -1.1228  0.2225  0.0207
10643TIP3    H153344   5.682   3.486  15.251  1.7922 -2.1044 -1.7798
10643TIP3    H253345   5.579   3.382  15.211 -1.3617  0.2463 -0.2359
10644TIP3   OH253346   6.080   6.116  14.709 -0.1848  0.2937  0.2681
10644TIP3    H153347   6.007   6.147  14.764  0.8887  4.8461 -0.4373
10644TIP3    H253348   6.038   6.077  14.633 -1.9000  1.0246  0.7824
10645TIP3   OH253349   1.268   4.269   2.309 -0.0311  0.5964 -0.5027
10645TIP3    H153350   1.233   4.344   2.357 -0.0677  0.8836 -0.9650
10645TIP3    H253351   1.298   4.208   2.376 -0.6275  0.7278 -0.1144
10646TIP3   OH253352   6.457   0.068  11.553  0.0445 -0.1321 -0.6416
10646TIP3    H153353   6.493   0.154  11.530  0.0853  0.3575  1.1116
10646TIP3    H253354   6.527   0.025  11.603 -0.9952 -0.0293  0.9484
10647TIP3   OH253355   4.817   3.208   3.631 -0.2206 -0.3246  0.0887
10647TIP3    H153356   4.765   3.228   3.708  1.0093 -1.1506  1.2026
10647TIP3    H253357   4.856   3.291   3.605 -1.8890  0.2569 -0.6402
10648TIP3   OH253358   5.705   1.914  12.020  0.3214  0.2794 -0.1350
10648TIP3    H153359   5.640   1.929  12.089  1.0237 -0.5068  0.7330
10648TIP3    H253360   5.711   1.819  12.014 -0.4117  0.2987 -1.9827
10649TIP3   OH253361   1.110   3.902  14.030 -0.3098  0.4030  0.1963
10649TIP3    H153362   1.104   3.836  14.099  1.5066  0.7593  0.7387
10649TIP3    H253363   1.148   3.979  14.073  1.9824  0.2708 -1.3836
10650TIP3   OH253364   3.326   1.548  16.972  0.3045  0.0436 -0.1598
10650TIP3    H153365   3.371   1.621  17.015 -0.5271  0.3156  0.2603
10650TIP3    H253366   3.312   1.484  17.041  2.4055 -1.2334 -0.8229
10651TIP3   OH253367   5.474   0.844   0.877 -0.4548 -0.3396  0.6820
10651TIP3    H153368   5.463   0.865   0.970 -1.9565  2.7518 -0.0773
10651TIP3    H253369   5.392   0.800   0.853  0.1547 -1.6376  0.8749
10652TIP3   OH253370   0.156   2.825  13.503  0.2450 -0.1226 -0.1539
10652TIP3    H153371   0.064   2.831  13.531  0.2783  0.5126 -0.1701
10652TIP3    H253372   0.206   2.835  13.584  0.2904 -2.0128  0.0894
10653TIP3   OH253373   6.305   6.413  12.902 -0.5089 -0.3278  0.0688
10653TIP3    H153374   6.367   6.364  12.956 -1.0229  1.0691  2.0269
10653TIP3    H253375   6.222   6.407  12.949 -0.7306  1.8268  0.0464
10654TIP3   OH253376   5.543   3.264   4.150 -0.3835  0.4979  0.1792
10654TIP3    H153377   5.599   3.329   4.193  1.2046 -0.3865 -0.4891
10654TIP3    H253378   5.458   3.307   4.142 -0.0635  1.5826  1.9735
10655TIP3   OH253379   0.456   1.947   3.624  0.3854 -0.2378 -0.2140
10655TIP3    H153380   0.407   1.882   3.574  2.0626 -1.7651 -0.0267
10655TIP3    H253381   0.513   1.989   3.560  0.8963 -0.5703  0.0110
10656TIP3   OH253382   5.880   3.786  13.243  0.2490  0.4794 -0.4825
10656TIP3    H153383   5.948   3.774  13.177  0.3031  0.8575 -0.4979
10656TIP3    H253384   5.875   3.881  13.254 -1.2619  0.5617 -1.5302
10657TIP3   OH253385   0.437   1.736  17.089 -0.3311  0.0816  0.3759
10657TIP3    H153386   0.387   1.664  17.127 -1.7650  1.2344  0.7766
10657TIP3    H253387   0.462   1.790  17.165 -3.0778  2.3200 -0.1503
10658TIP3   OH253388   5.431   0.038  13.440 -0.0811  0.8738 -0.6699
10658TIP3    H153389   5.432   0.118  13.388  0.2453  0.4506 -1.3336
10658TIP3    H253390   5.507   0.046  13.498  1.1769  0.1763 -2.1322
10659TIP3   OH253391   5.163   5.954  13.903  0.0930  0.2612  0.3879
10659TIP3    H153392   5.168   5.949  13.807  0.1520  1.3370  0.3244
10659TIP3    H253393   5.071   5.973  13.921 -0.1324 -0.9468  0.6130
10660TIP3   OH253394   6.417   3.173  11.283  0.6329  0.5113 -0.0112
10660TIP3    H153395   6.357   3.101  11.305  0.4274  0.2653 -1.2771
10660TIP3    H253396   6.409   3.182  11.188  2.5116  0.5604 -0.1994
10661TIP3   OH253397   4.491   5.820   1.109 -0.0278 -0.5344 -0.0991
10661TIP3    H153398   4.424   5.771   1.156 -0.5083 -0.4646 -0.6856
10661TIP3    H253399   4.472   5.803   1.016  2.0577 -2.2361 -0.2684
10662TIP3   OH253400   0.115   2.849  16.180  0.3903 -0.5529  0.0901
10662TIP3    H153401   0.051   2.884  16.119  0.6432  0.0591  0.1723
10662TIP3    H253402   0.142   2.924  16.233 -0.0491 -1.1283  1.1627
10663TIP3   OH253403   0.897   5.498  17.012 -0.0764 -0.1116 -0.5644
10663TIP3    H153404   0.916   5.543  16.929 -0.7788  1.4351  0.0855
10663TIP3    H253405   0.877   5.568  17.074 -0.4403 -1.2911  0.7013
10664TIP3   OH253406   5.999   1.109   0.804 -0.2658  0.4366  0.0891
10664TIP3    H153407   6.071   1.047   0.816  0.0755  1.1041  1.6739
10664TIP3    H253408   5.923   1.064   0.840 -0.2514  0.4763  0.1695
10665TIP3   OH253409   0.903   4.561   1.147 -0.0556  0.3805 -0.3187
10665TIP3    H153410   0.890   4.656   1.151 -1.1250  0.2188  0.7849
10665TIP3    H253411   0.839   4.526   1.210 -0.4575 -1.1418 -1.5222
10666TIP3   OH253412   0.176   0.193   0.658 -0.3761  0.0088 -0.0124
10666TIP3    H153413   0.202   0.112   0.614  1.7392  0.2670  0.6490
10666TIP3    H253414   0.215   0.186   0.746  0.4764  2.0128 -0.1714
10667TIP3   OH253415   2.008   1.767  15.562 -0.0674  0.1408 -0.2055
10667TIP3    H153416   1.992   1.679  15.595 -0.3800  0.0996 -0.4583
10667TIP3    H253417   2.021   1.820  15.641  0.0504 -0.1152 -0.0512
10668TIP3   OH253418   4.977   0.483   1.454  0.2167  0.2050 -0.0722
10668TIP3    H153419   5.042   0.413   1.450 -2.3396 -2.3055 -1.6557
10668TIP3    H253420   4.957   0.492   1.548  0.9090 -0.8839  0.1969
10669TIP3   OH253421   5.098   0.058   4.866 -0.0674  0.1630 -0.0427
10669TIP3    H153422   5.100   0.150   4.842  0.6201  0.2499  0.3206
10669TIP3    H253423   5.031   0.020   4.810 -0.8032  1.0030  0.2501
10670TIP3   OH253424   6.444   0.295   0.091  0.2848  0.6591 -0.6977
10670TIP3    H153425   6.441   0.373   0.147 -2.8405  0.2588 -0.1498
10670TIP3    H253426   6.448   0.222   0.152  1.5029  0.2942 -1.1785
10671TIP3   OH253427   3.729   3.423  13.853 -0.5345  0.1011  0.3480
10671TIP3    H153428   3.811   3.441  13.808  0.6600  2.2420  3.1102
10671TIP3    H253429   3.661   3.451  13.791  0.8749  0.3705 -1.1492
10672TIP3   OH253430   0.521   6.131   5.562 -1.1644 -0.1078 -0.4405
10672TIP3    H153431   0.526   6.206   5.503 -0.0168  1.2388  1.2631
10672TIP3    H253432   0.605   6.132   5.609 -2.6097 -0.0732  2.3495
10673TIP3   OH253433   4.200   4.899  16.147 -0.4566 -0.1896  0.2512
10673TIP3    H153434   4.272   4.962  16.143  0.7361 -1.5581 -0.5792
10673TIP3    H253435   4.167   4.894  16.057  0.6608 -2.0574 -0.0905
10674TIP3   OH253436   2.578   6.596  16.492  0.1890 -0.1868  0.2413
10674TIP3    H153437   2.543   6.552  16.570 -0.1610  0.4772  0.4675
10674TIP3    H253438   2.500   6.620  16.441  0.4377 -1.2409 -0.6755
10675TIP3   OH253439   0.789   4.562   0.183 -0.3478 -0.0184  0.6038
10675TIP3    H153440   0.706   4.574   0.229 -0.7452 -0.9053  0.1437
10675TIP3    H253441   0.836   4.496   0.234  0.5954  1.3013  1.5150
10676TIP3   OH253442   0.489   5.060   4.725  0.5448 -0.4969 -0.4342
10676TIP3    H153443   0.506   5.055   4.819  0.7140  1.0216 -0.3653
10676TIP3    H253444   0.423   4.992   4.709  0.7625 -1.0049  0.7036
10677TIP3   OH253445   0.491   3.534   0.518  0.1366 -0.2395  0.2356
10677TIP3    H153446   0.586   3.541   0.509  0.0487  0.9821  0.0833
10677TIP3    H253447   0.461   3.624   0.521 -1.0525 -0.6134 -0.0009
10678TIP3   OH253448   2.009   2.088  14.739  0.1496  0.2022 -0.6001
10678TIP3    H153449   2.040   2.026  14.805  0.7238  0.9867 -0.1171
10678TIP3    H253450   2.085   2.144  14.722 -0.7033  1.5332 -0.1434
10679TIP3   OH253451   5.832   1.750   1.770 -0.2339 -0.4202  0.0774
10679TIP3    H153452   5.750   1.712   1.801 -0.1394  0.5308  1.5918
10679TIP3    H253453   5.892   1.744   1.844  1.2338 -1.4391 -1.1208
10680TIP3   OH253454   1.174   5.310  16.835  0.0184  0.0083  0.4216
10680TIP3    H153455   1.121   5.237  16.867 -1.5814  0.7867 -0.3362
10680TIP3    H253456   1.222   5.340  16.912 -2.0058  0.3923  1.6161
10681TIP3   OH253457   0.174   2.887  14.833  0.1218 -0.5646 -0.1921
10681TIP3    H153458   0.268   2.874  14.845  0.3703  0.8840 -0.4010
10681TIP3    H253459   0.163   2.903  14.739 -0.1897  0.1722 -0.0424
10682TIP3   OH253460   5.594   5.685  10.353  0.0894 -0.2991  0.2957
10682TIP3    H153461   5.688   5.678  10.340 -0.0034 -1.2022  0.0620
10682TIP3    H253462   5.559   5.702  10.266 -0.2156 -2.9614 -0.1923
10683TIP3   OH253463   2.474   1.985   3.724 -0.1924  0.0456 -0.8235
10683TIP3    H153464   2.409   1.946   3.782  0.0033  0.0788 -0.5778
10683TIP3    H253465   2.493   2.071   3.763  1.3013 -0.6719  0.1173
10684TIP3   OH253466   5.564   4.370   1.405 -0.4036 -0.0546  0.2298
10684TIP3    H153467   5.657   4.386   1.419 -0.0642 -1.2388 -0.5447
10684TIP3    H253468   5.532   4.449   1.361  0.1806  0.4432  0.6916
10685TIP3   OH253469   0.413   5.977   3.836 -0.0939 -0.2293 -0.5033
10685TIP3    H153470   0.334   6.010   3.879 -0.2340 -2.7803  1.4424
10685TIP3    H253471   0.464   6.055   3.815 -1.2843  1.2899  1.8782
10686TIP3   OH253472   4.914   5.442   4.072  0.4131 -0.1315  0.3377
10686TIP3    H153473   4.998   5.484   4.054 -0.0580  0.9347  0.5537
10686TIP3    H253474   4.936   5.350   4.086  1.6775  0.2933  1.3412
10687TIP3   OH253475   5.522   4.939   0.302 -0.3165  0.3000 -0.4552
10687TIP3    H153476   5.599   4.968   0.351 -0.5727  0.1865  0.0147
10687TIP3    H253477   5.450   4.940   0.365 -0.8547  1.0521 -1.0524
10688TIP3   OH253478   1.988   2.476  11.721  0.5929  0.8575 -0.1693
10688TIP3    H153479   1.907   2.486  11.772 -0.9301  1.4050 -2.5294
10688TIP3    H253480   2.036   2.406  11.766 -1.2736  0.3831  1.2250
10689TIP3   OH253481   4.317   0.348  15.169 -0.4410  0.8900  0.7747
10689TIP3    H153482   4.267   0.298  15.105 -0.3934  2.3747 -0.4803
10689TIP3    H253483   4.305   0.439  15.143 -0.0757  1.5228  2.6521
10690TIP3   OH253484   5.949   0.495   3.971  0.2671 -0.1857 -0.6834
10690TIP3    H153485   5.876   0.508   4.031 -1.3615 -2.4722 -2.0042
10690TIP3    H253486   6.004   0.430   4.014  0.3950 -0.0153 -0.5916
10691TIP3   OH253487   5.522   2.258   6.456 -0.5890  0.7769  0.7178
10691TIP3    H153488   5.549   2.217   6.374  1.2474  0.0931  1.5949
10691TIP3    H253489   5.554   2.198   6.524  0.4701  2.6909  2.0077
10692TIP3   OH253490   6.207   5.653   2.709  0.2320 -0.7331  0.2666
10692TIP3    H153491   6.179   5.715   2.642  4.0368  3.0388  1.7438
10692TIP3    H253492   6.197   5.567   2.668 -4.0706  0.7386 -2.4511
10693TIP3   OH253493   1.184   5.632  11.882 -0.2077  0.4516 -0.0089
10693TIP3    H153494   1.171   5.548  11.926  1.0507  0.6098  0.6888
10693TIP3    H253495   1.221   5.609  11.797 -0.7290  0.2586 -0.1870
10694TIP3   OH253496   0.929   5.652   3.348 -0.3154 -0.4478  0.0585
10694TIP3    H153497   0.961   5.569   3.384  1.4819  0.5464  0.8774
10694TIP3    H253498   0.864   5.626   3.283 -0.8356 -2.4494  1.2690
10695TIP3   OH253499   3.083   0.113  11.377  0.1094  0.7390  0.1418
10695TIP3    H153500   3.177   0.099  11.383  0.1420  1.1726  0.8385
10695TIP3    H253501   3.057   0.070  11.296  1.1518  1.9151 -0.8533
10696TIP3   OH253502   4.974   3.296  12.330  0.1508  0.2323 -0.9558
10696TIP3    H153503   5.041   3.250  12.280 -1.1087 -2.2393 -0.5346
10696TIP3    H253504   4.892   3.272  12.288 -1.0678 -2.7357  2.5981
10697TIP3   OH253505   5.765   1.123   6.137 -0.1081 -0.1861  0.1764
10697TIP3    H153506   5.735   1.202   6.092 -0.6316 -0.0094  0.8045
10697TIP3    H253507   5.707   1.054   6.105 -0.3439 -0.1000  0.4025
10698TIP3   OH253508   2.087   2.507   5.988  0.4998  0.3993 -0.1471
10698TIP3    H153509   2.052   2.465   6.067 -2.6412  1.2609 -0.9423
10698TIP3    H253510   2.159   2.562   6.020  1.1008 -1.3430  1.6724
10699TIP3   OH253511   2.991   1.459   0.838 -0.3341 -0.0485 -0.0384
10699TIP3    H153512   3.005   1.548   0.807 -1.4403  0.2823  0.3692
10699TIP3    H253513   2.976   1.467   0.932 -0.9023 -0.6019 -0.0693
10700TIP3   OH253514   6.161   5.186   1.894  0.5226  0.1597 -0.0558
10700TIP3    H153515   6.079   5.174   1.847  0.5358 -0.2748  0.0270
10700TIP3    H253516   6.184   5.098   1.924 -0.0520  0.5613  1.6973
10701TIP3   OH253517   3.883   5.954  12.543  0.5584  0.4134  0.1835
10701TIP3    H153518   3.959   5.907  12.509  0.2295 -0.7788  1.0299
10701TIP3    H253519   3.906   6.047  12.535  1.0146  0.1637 -2.0136
10702TIP3   OH253520   1.623   5.086  14.595 -0.2534  0.3036 -0.4373
10702TIP3    H153521   1.695   5.025  14.613 -0.4656  0.2054  0.1093
10702TIP3    H253522   1.612   5.083  14.500 -2.4878 -3.1387 -0.2437
10703TIP3   OH253523   3.293   2.498  12.700 -0.7404 -0.0189  0.2562
10703TIP3    H153524   3.206   2.535  12.691 -0.3565  0.8830  0.1560
10703TIP3    H253525   3.288   2.443  12.779 -1.0727  1.0179  0.9813
10704TIP3   OH253526   1.322   4.543  13.487 -0.2313  0.0004 -0.5422
10704TIP3    H153527   1.324   4.533  13.582  1.0189 -1.0481 -0.6494
10704TIP3    H253528   1.265   4.473  13.456  0.1453 -0.2838 -0.6105
10705TIP3   OH253529   1.826   5.769   5.156  0.0523  0.2582  0.1459
10705TIP3    H153530   1.743   5.723   5.162 -0.6068  1.5748  1.9555
10705TIP3    H253531   1.885   5.708   5.111 -2.2955 -0.0428 -2.8024
10706TIP3   OH253532   5.740   1.661  16.522 -0.2678  0.4411 -0.1099
10706TIP3    H153533   5.687   1.591  16.560 -0.1436  0.8188  0.7989
10706TIP3    H253534   5.676   1.724  16.489 -0.3790 -0.0390 -0.8210
10707TIP3   OH253535   2.176   2.285   3.937 -0.2986  0.3721 -0.4810
10707TIP3    H153536   2.148   2.257   3.850  0.3597  2.3455 -1.4001
10707TIP3    H253537   2.144   2.375   3.944  2.6808  1.5037 -0.1619
10708TIP3   OH253538   4.855   5.974  15.102  0.1456  0.2530 -0.0727
10708TIP3    H153539   4.866   6.040  15.170 -0.3899  1.2756 -0.9356
10708TIP3    H253540   4.798   5.908  15.140  0.3546  0.4979  0.6674
10709TIP3   OH253541   1.392   2.291   3.183 -0.1619 -0.2432 -0.0953
10709TIP3    H153542   1.297   2.299   3.198 -0.4950 -1.1202 -1.5068
10709TIP3    H253543   1.415   2.370   3.134 -0.2638 -0.2706 -0.1886
10710TIP3   OH253544   5.964   3.758   2.874  0.0710 -0.2504  0.1917
10710TIP3    H153545   6.056   3.738   2.890 -0.0217  0.3211  1.5822
10710TIP3    H253546   5.942   3.825   2.939 -0.4076  2.2079 -2.3158
10711TIP3   OH253547   1.032   5.743   1.110  0.3929 -0.4476  0.3854
10711TIP3    H153548   0.978   5.691   1.169  0.7274  0.6025  1.6552
10711TIP3    H253549   1.111   5.762   1.159  1.2022 -0.5216 -0.8356
10712TIP3   OH253550   5.190   1.568   4.182  0.3577 -0.4345  0.7761
10712TIP3    H153551   5.155   1.656   4.165  1.4585 -0.1702 -0.2875
10712TIP3    H253552   5.247   1.579   4.258  1.6690  0.1257 -0.2509
10713TIP3   OH253553   3.288   5.080   4.529  0.3585  0.0703 -0.2868
10713TIP3    H153554   3.240   5.012   4.480 -0.6944 -0.1156  0.9690
10713TIP3    H253555   3.350   5.031   4.583 -1.1402 -0.0276  1.4376
10714TIP3   OH253556   5.238   3.937   1.568  0.3803  0.4313 -0.2794
10714TIP3    H153557   5.256   3.916   1.476  0.1277  0.7358 -0.3989
10714TIP3    H253558   5.305   4.001   1.591  0.3411  0.4781 -0.2974
10715TIP3   OH253559   0.320   5.652   2.220 -0.7322  0.4955  0.1751
10715TIP3    H153560   0.321   5.702   2.301 -0.2550  0.7270  0.0294
10715TIP3    H253561   0.231   5.661   2.187 -0.5132  1.7282 -0.1368
10716TIP3   OH253562   5.352   6.658  15.308 -0.2741 -0.0835  0.0051
10716TIP3    H153563   5.368   6.569  15.338 -1.9461 -0.4709 -0.1705
10716TIP3    H253564   5.393   6.662  15.222 -1.8764 -1.3565 -0.8708
10717TIP3   OH253565   5.397   4.156   1.425  0.7682 -0.0063  0.0806
10717TIP3    H153566   5.338   4.157   1.350  0.3984 -1.3555  0.3243
10717TIP3    H253567   5.451   4.235   1.414 -0.7002  0.9789 -0.4279
10718TIP3   OH253568   3.932   5.249  12.592  0.7137  0.5189 -0.8294
10718TIP3    H153569   3.923   5.330  12.542 -0.9755  0.7772 -0.1771
10718TIP3    H253570   3.986   5.274  12.667  0.5408  0.9429 -0.8417
10719TIP3   OH253571   5.579   0.481   5.507  0.3055  0.1711 -0.5586
10719TIP3    H153572   5.556   0.541   5.437  1.5824 -0.6361 -1.7438
10719TIP3    H253573   5.672   0.461   5.491 -0.2565 -2.7318 -0.7705
10720TIP3   OH253574   6.111   5.686  11.942  0.0587  0.1389  0.0733
10720TIP3    H153575   6.108   5.719  11.852 -0.2587 -2.9708 -1.1880
10720TIP3    H253576   6.020   5.670  11.964  0.1913  0.2135  0.6760
10721TIP3   OH253577   1.957   3.336  16.110 -0.1475 -0.0506  0.6871
10721TIP3    H153578   1.897   3.263  16.127 -0.2657  0.0356  0.6434
10721TIP3    H253579   2.044   3.298  16.121 -0.2178  0.0009  1.4837
10722TIP3   OH253580   0.876   0.534   2.231  0.3204 -0.2020 -0.6574
10722TIP3    H153581   0.845   0.471   2.166  1.0673  0.9415 -2.1965
10722TIP3    H253582   0.904   0.480   2.305  2.3162 -1.8685 -2.4703
10723TIP3   OH253583   0.601   5.888  12.516 -0.3263 -0.1991 -0.0861
10723TIP3    H153584   0.526   5.881  12.457 -0.8436 -1.2263  0.6682
10723TIP3    H253585   0.562   5.891  12.604  0.5182 -1.2699  0.3460
10724TIP3   OH253586   5.154   0.214   4.002 -0.4596 -0.2684 -0.1439
10724TIP3    H153587   5.219   0.151   3.972  0.5626 -0.0079  1.4025
10724TIP3    H253588   5.100   0.166   4.064 -2.7788 -0.9041 -2.4798
10725TIP3   OH253589   2.256   3.445   4.241 -0.2836  0.6301  0.2907
10725TIP3    H153590   2.286   3.530   4.208  0.1854 -0.0779 -1.1499
10725TIP3    H253591   2.335   3.403   4.275  0.2053 -0.6863 -2.2938
10726TIP3   OH253592   3.342   4.533   0.643  0.1344  0.4009 -0.2563
10726TIP3    H153593   3.359   4.444   0.675  1.3286  0.7080  0.0114
10726TIP3    H253594   3.259   4.557   0.683 -0.4795 -0.7970 -0.7770
10727TIP3   OH253595   6.202   6.500   3.045 -0.0865  0.5652 -0.0855
10727TIP3    H153596   6.140   6.437   3.083 -0.2963  0.3307 -0.7982
10727TIP3    H253597   6.285   6.480   3.088 -0.5772  1.1924  1.2380
10728TIP3   OH253598   6.467   5.614   1.624  0.0702  0.3164 -0.0978
10728TIP3    H153599   6.504   5.703   1.618 -0.0446  0.5074  1.4330
10728TIP3    H253600   6.477   5.591   1.717 -2.1522 -0.2841  0.0427
10729TIP3   OH253601   2.421   1.611   4.026  0.3594 -0.1006 -0.2048
10729TIP3    H153602   2.362   1.570   4.089  1.7076 -0.1937  1.0675
10729TIP3    H253603   2.496   1.639   4.079  0.8455  1.2271 -1.5478
10730TIP3   OH253604   4.025   5.409   3.103 -0.0126 -0.0052  0.0828
10730TIP3    H153605   4.048   5.398   3.011  0.5563  1.9765 -0.0630
10730TIP3    H253606   3.934   5.378   3.109 -0.1604  0.1196 -1.2176
10731TIP3   OH253607   6.143   1.695  15.786 -0.0954 -0.1008  0.3138
10731TIP3    H153608   6.166   1.606  15.761  0.0389 -0.5894  2.0913
10731TIP3    H253609   6.063   1.686  15.837 -1.4652  1.0753 -1.4947
10732TIP3   OH253610   3.296   3.127   3.210 -0.1030 -0.2391 -0.2263
10732TIP3    H153611   3.274   3.139   3.302 -0.1577 -1.7794 -0.0158
10732TIP3    H253612   3.391   3.115   3.209 -0.1982 -1.0023 -0.2770
10733TIP3   OH253613   2.864   3.361  12.899 -0.1546  0.1355 -0.3355
10733TIP3    H153614   2.852   3.272  12.931 -0.5786  0.9859  2.1592
10733TIP3    H253615   2.776   3.389  12.874 -0.7587  0.9409  2.3063
10734TIP3   OH253616   5.848   6.318  16.323  0.0344  0.0666  0.5184
10734TIP3    H153617   5.836   6.384  16.392 -0.1218  1.1091 -0.4773
10734TIP3    H253618   5.829   6.234  16.366 -0.9709  0.7768  1.5083
10735TIP3   OH253619   2.120   6.055  15.145 -0.0861 -0.0475 -0.3205
10735TIP3    H153620   2.197   6.109  15.166  0.8158 -1.8025  1.1913
10735TIP3    H253621   2.084   6.031  15.230 -1.4949 -0.3891 -0.9924
10736TIP3   OH253622   0.384   4.735   4.515  0.0911 -0.1842  0.0445
10736TIP3    H153623   0.316   4.684   4.471 -0.0992  1.0752 -1.2005
10736TIP3    H253624   0.349   4.751   4.603 -0.5703 -0.7806 -0.1020
10737TIP3   OH253625   6.143   5.405  12.622 -0.0225 -0.3033 -0.3460
10737TIP3    H153626   6.189   5.425  12.540 -2.0573  2.0602 -1.0178
10737TIP3    H253627   6.097   5.486  12.644 -1.8456 -1.7726  1.6225
10738TIP3   OH253628   0.997   3.299   5.097  0.3332 -0.5562  0.2122
10738TIP3    H153629   1.070   3.251   5.058  1.7498  0.9093  0.9659
10738TIP3    H253630   0.959   3.239   5.161 -0.0480 -1.8386 -1.1614
10739TIP3   OH253631   3.947   5.246   3.438  0.3777 -0.0373  0.8744
10739TIP3    H153632   4.003   5.303   3.491  0.9816 -0.3368  0.5718
10739TIP3    H253633   3.936   5.293   3.355 -1.1571  0.7623  1.4946
10740TIP3   OH253634   6.696   4.615   4.386  0.2916  0.1177 -0.1587
10740TIP3    H153635   6.688   4.656   4.472 -1.1513 -0.2565 -0.0979
10740TIP3    H253636   6.731   4.528   4.404  3.2576  1.1625 -0.2783
10741TIP3   OH253637   2.803   5.395   1.106 -0.0015  0.2096  0.2841
10741TIP3    H153638   2.822   5.472   1.052 -1.9290  0.7801  0.3489
10741TIP3    H253639   2.864   5.401   1.179  0.9841  0.7638 -0.5511
10742TIP3   OH253640   4.237   4.321   3.370 -0.1288  0.1767 -0.4656
10742TIP3    H153641   4.294   4.386   3.329 -2.5114  0.8825 -2.8898
10742TIP3    H253642   4.213   4.360   3.454  1.4137  0.6809 -0.2277
10743TIP3   OH253643   5.273   1.389   4.849 -0.5279  0.5545  0.6002
10743TIP3    H153644   5.233   1.447   4.914 -1.7893  0.1296  0.2509
10743TIP3    H253645   5.248   1.301   4.877  2.0446  0.0477  1.5851
10744TIP3   OH253646   5.586   6.099   5.291  0.2074  0.6820  0.0507
10744TIP3    H153647   5.505   6.120   5.245  0.1469 -1.7021 -1.0678
10744TIP3    H253648   5.651   6.091   5.221  1.1501  1.3547  0.8268
10745TIP3   OH253649   4.489   0.803   3.351  0.1418 -0.1933  0.4285
10745TIP3    H153650   4.485   0.743   3.276  2.8406 -0.6336  0.5091
10745TIP3    H253651   4.420   0.772   3.410 -0.6569 -1.1616 -0.9516
10746TIP3   OH253652   5.549   6.463  10.853  0.1282  0.3971 -0.3258
10746TIP3    H153653   5.618   6.463  10.918 -0.5701  0.1897  0.4346
10746TIP3    H253654   5.495   6.539  10.873 -1.4555 -0.9482  0.8766
10747TIP3   OH253655   3.411   0.983  14.166 -0.1138 -0.2000 -0.3982
10747TIP3    H153656   3.421   1.031  14.084 -0.4291 -0.3871 -0.5460
10747TIP3    H253657   3.378   0.897  14.140  0.7875 -0.6312 -0.1665
10748TIP3   OH253658   4.426   4.335  17.006  0.1924 -0.5579 -0.1908
10748TIP3    H153659   4.372   4.415  17.005 -0.8825 -1.2031  1.7156
10748TIP3    H253660   4.366   4.266  16.977  1.2140 -0.6949 -2.1697
10749TIP3   OH253661   1.930   1.638   5.944  0.3581  0.2020 -0.9153
10749TIP3    H153662   2.000   1.695   5.976  0.5550 -0.2581 -0.5123
10749TIP3    H253663   1.851   1.668   5.991  0.5418 -0.1199 -0.3896
10750TIP3   OH253664   1.415   1.582   5.106 -0.6772  0.1947 -0.0226
10750TIP3    H153665   1.433   1.671   5.075 -0.1052  0.1860  0.2705
10750TIP3    H253666   1.327   1.587   5.145 -0.4777  0.7338  0.3718
10751TIP3   OH253667   0.664   2.466  13.134  0.0352  0.0950 -0.2015
10751TIP3    H153668   0.635   2.438  13.047  0.3423 -1.1154  0.0638
10751TIP3    H253669   0.754   2.434  13.140 -0.6874 -1.8393  1.3948
10752TIP3   OH253670   3.619   3.466   5.711  0.1286  0.0222  0.7270
10752TIP3    H153671   3.590   3.401   5.647 -2.3453 -2.2889  3.8530
10752TIP3    H253672   3.684   3.419   5.764  3.3709  2.3837 -0.8200
10753TIP3   OH253673   0.237   3.085  16.957 -0.0833  0.5791 -0.3020
10753TIP3    H153674   0.251   3.016  17.022 -0.7208 -0.0669 -0.8401
10753TIP3    H253675   0.207   3.039  16.879  1.6636  1.2270 -1.4148
10754TIP3   OH253676   0.976   6.092   0.963  0.2149 -0.1391  0.4348
10754TIP3    H153677   1.063   6.131   0.967 -0.2065  0.7742  0.9112
10754TIP3    H253678   0.916   6.164   0.981 -0.6448 -0.7636  0.1505
10755TIP3   OH253679   4.745   0.100   0.700 -0.4272  0.6153 -0.0081
10755TIP3    H153680   4.748   0.193   0.677  0.4612  0.9916  1.4810
10755TIP3    H253681   4.783   0.055   0.624  1.3042  1.6835  0.1652
10756TIP3   OH253682   5.465   0.060  16.486 -1.0003  0.3097  0.0489
10756TIP3    H153683   5.480   0.048  16.392  2.9042  2.1349  0.2846
10756TIP3    H253684   5.397   0.127  16.491 -2.1375 -0.6680 -1.3944
10757TIP3   OH253685   2.052   3.990  13.499  0.1949  0.5541 -0.0315
10757TIP3    H153686   2.114   4.004  13.571 -0.4536 -1.1889  0.9166
10757TIP3    H253687   1.975   4.041  13.525 -0.1114 -0.2284  0.6293
10758TIP3   OH253688   1.797   5.205   5.495 -0.5328 -0.1108 -0.1694
10758TIP3    H153689   1.736   5.226   5.425 -0.7939  0.5071  0.2346
10758TIP3    H253690   1.837   5.289   5.518  1.1199 -0.6287 -1.0134
10759TIP3   OH253691   0.672   3.785   4.099 -0.2856 -0.3373  0.2892
10759TIP3    H153692   0.669   3.825   4.186  1.1170 -1.1186  0.7199
10759TIP3    H253693   0.625   3.847   4.043 -0.3374  0.6736  1.4049
10760TIP3   OH253694   6.068   6.065  11.793  0.0286 -0.5607 -0.5607
10760TIP3    H153695   6.017   6.101  11.721  0.6847 -0.4816 -0.9888
10760TIP3    H253696   6.008   6.069  11.868 -0.1785  0.6970 -0.7690
10761TIP3   OH253697   2.450   3.919   0.016 -0.2660  0.3424 -0.2108
10761TIP3    H153698   2.428   3.995   0.069 -0.2652  0.7605 -0.7996
10761TIP3    H253699   2.496   3.955  -0.060 -0.4995 -0.2125 -0.6251
10762TIP3   OH253700   0.154   3.080  16.332 -0.0991 -0.1185 -0.5179
10762TIP3    H153701   0.156   3.173  16.313  1.0973 -0.0802 -0.2568
10762TIP3    H253702   0.168   3.074  16.427 -2.1511 -0.4896 -0.1804
10763TIP3   OH253703   1.810   5.206  16.879  0.6409 -0.3713 -0.0823
10763TIP3    H153704   1.822   5.171  16.790  0.1818 -1.8458  0.4026
10763TIP3    H253705   1.720   5.182  16.902  0.8020 -0.1361  0.8283
10764TIP3   OH253706   4.909   1.511  11.394  0.1704  0.6431 -0.0225
10764TIP3    H153707   4.834   1.522  11.335 -0.3889 -3.8731 -0.5298
10764TIP3    H253708   4.978   1.476  11.339  0.6723 -0.7376  1.4016
10765TIP3   OH253709   0.889   1.116  15.870 -0.2757  0.1217 -0.3593
10765TIP3    H153710   0.919   1.124  15.961 -2.9395  0.3709  0.5804
10765TIP3    H253711   0.838   1.195  15.854 -0.2298 -0.1324 -1.9525
10766TIP3   OH253712   5.701   0.451  16.055  0.0542 -0.5019  0.0132
10766TIP3    H153713   5.775   0.509  16.038  0.1366 -1.1260 -1.9836
10766TIP3    H253714   5.651   0.495  16.124 -0.1596  2.1795 -1.7215
10767TIP3   OH253715   4.817   6.740   0.111 -0.6438 -0.1320  0.4643
10767TIP3    H153716   4.732   6.778   0.092 -1.1332  0.5700  3.5984
10767TIP3    H253717   4.876   6.777   0.045 -1.8685  3.0346  1.0176
10768TIP3   OH253718   2.863   1.096  12.825  0.0242 -0.2924  0.2184
10768TIP3    H153719   2.824   1.060  12.746  0.4050 -1.3978  0.5036
10768TIP3    H253720   2.790   1.137  12.871 -0.1576  0.5457 -0.7921
10769TIP3   OH253721   2.650   5.466  11.989 -0.0260  0.0874  0.0076
10769TIP3    H153722   2.612   5.545  11.952  0.5730  0.8064  0.8819
10769TIP3    H253723   2.725   5.447  11.931 -0.7370 -0.4091 -0.7671
10770TIP3   OH253724   0.296   1.855  16.655  0.0067 -0.1029 -0.2203
10770TIP3    H153725   0.317   1.867  16.563 -0.7983  0.3941 -0.3418
10770TIP3    H253726   0.325   1.765  16.675  3.0821  0.7968 -0.1250
10771TIP3   OH253727   3.678   6.639  14.215 -0.2483 -0.1656 -0.2243
10771TIP3    H153728   3.616   6.659  14.284  0.5306 -2.4802  1.2448
10771TIP3    H253729   3.636   6.572  14.162 -0.0196  0.1357 -0.8065
10772TIP3   OH253730   1.280   3.104   5.686 -0.2933 -0.0664  0.1285
10772TIP3    H153731   1.338   3.034   5.717 -0.5263 -0.3427 -0.0532
10772TIP3    H253732   1.221   3.120   5.759  0.5280  0.7998  0.6321
10773TIP3   OH253733   4.138   1.789   5.729  0.4489 -0.2917 -0.0880
10773TIP3    H153734   4.081   1.730   5.778  1.5819 -0.7701  0.7214
10773TIP3    H253735   4.179   1.844   5.795  1.1812 -0.1984 -0.5992
10774TIP3   OH253736   1.679   0.047  11.761  0.2395  0.1660  0.5894
10774TIP3    H153737   1.726   0.058  11.678 -0.8247 -2.1671 -0.4054
10774TIP3    H253738   1.688  -0.046  11.782 -1.7980  0.1561  1.6560
10775TIP3   OH253739   1.181   6.499  15.196  0.3428 -0.2387  0.0512
10775TIP3    H153740   1.190   6.478  15.104 -0.8688 -0.8069  0.0437
10775TIP3    H253741   1.166   6.594  15.198  0.9911 -0.1248 -0.2738
10776TIP3   OH253742   4.627   1.208   4.105  0.0098  0.4285  0.1236
10776TIP3    H153743   4.618   1.148   4.179 -0.6102 -0.8143 -0.8943
10776TIP3    H253744   4.621   1.151   4.028  3.2501  1.2959 -0.9213
10777TIP3   OH253745   3.855   1.626   0.809  0.1192  0.0021 -0.6603
10777TIP3    H153746   3.843   1.578   0.890  0.2559  0.8522 -0.1187
10777TIP3    H253747   3.843   1.561   0.740  2.0568 -1.2068  0.0505
10778TIP3   OH253748   3.937   6.058  16.636 -0.8077  0.0400  0.1079
10778TIP3    H153749   3.877   6.132  16.647  0.1249  0.8061  0.1382
10778TIP3    H253750   3.943   6.018  16.723 -1.2350 -0.0181  0.1147
10779TIP3   OH253751   6.144   2.913  11.559 -0.0372  0.3248  0.2781
10779TIP3    H153752   6.168   2.891  11.469 -2.0204 -1.5613  0.1043
10779TIP3    H253753   6.054   2.880  11.568 -0.4592  1.8660  2.4881
10780TIP3   OH253754   5.040   0.022   1.608 -0.2909 -0.2914  0.1571
10780TIP3    H153755   5.093   0.096   1.577  0.4824  0.6348  3.3680
10780TIP3    H253756   4.949   0.052   1.598 -0.0011  0.8839  0.8735
10781TIP3   OH253757   0.119   3.944   3.367 -0.3880  0.2639  0.5179
10781TIP3    H153758   0.144   3.882   3.298 -0.1972 -1.8726  2.4062
10781TIP3    H253759   0.075   4.015   3.320 -0.7507 -1.3501 -1.7517
10782TIP3   OH253760   4.047   0.093   4.769  0.1028 -0.1699 -0.1144
10782TIP3    H153761   4.084   0.056   4.689  0.6023  0.1022 -0.0125
10782TIP3    H253762   3.955   0.110   4.747 -0.0462 -1.1243 -0.2782
10783TIP3   OH253763   3.403   1.500   1.912 -0.5080  0.5635 -0.1748
10783TIP3    H153764   3.454   1.580   1.908 -0.0578  0.3430  0.7810
10783TIP3    H253765   3.463   1.436   1.952 -0.9189 -0.2004 -0.7473
10784TIP3   OH253766   3.416   0.208   2.221  0.0541 -0.1497 -0.1891
10784TIP3    H153767   3.470   0.238   2.148  1.1080 -1.6553 -0.0972
10784TIP3    H253768   3.438   0.115   2.229 -0.8461 -0.2560  1.3507
10785TIP3   OH253769   3.696   1.666   4.214  0.7468  0.1442  0.0094
10785TIP3    H153770   3.775   1.638   4.260  2.1001 -2.8420 -3.5919
10785TIP3    H253771   3.726   1.736   4.156  0.0088  1.0855  0.7459
10786TIP3   OH253772   1.358   2.860   2.773 -0.3936  0.7391  0.0130
10786TIP3    H153773   1.386   2.907   2.695 -0.4862  2.3930  0.9264
10786TIP3    H253774   1.271   2.827   2.752  0.8446 -1.7264 -1.7212
10787TIP3   OH253775   4.701   6.484  16.686  0.1655 -0.2081  0.1861
10787TIP3    H153776   4.712   6.576  16.712  0.3099  0.0341 -0.6934
10787TIP3    H253777   4.626   6.486  16.625  0.7558 -0.5219 -0.5598
10788TIP3   OH253778   2.338   4.291   0.686 -0.2222 -0.0496  0.3074
10788TIP3    H153779   2.296   4.205   0.676 -0.7391  0.1742  0.5020
10788TIP3    H253780   2.337   4.328   0.597 -2.6873  0.9644  0.6773
10789TIP3   OH253781   1.177   2.027   1.926  0.0771 -0.4537  0.0683
10789TIP3    H153782   1.134   2.034   1.841  0.5039  0.6966 -0.0692
10789TIP3    H253783   1.155   1.939   1.957 -0.0163 -0.9126 -1.2570
10790TIP3   OH253784   2.543   3.502  14.406  0.2062  0.0482 -0.2568
10790TIP3    H153785   2.518   3.410  14.410 -0.1763  0.1876  0.9581
10790TIP3    H253786   2.568   3.517  14.315  0.3928 -1.2839 -0.4334
10791TIP3   OH253787   0.939   1.560  16.245  0.2699 -0.0552 -0.8342
10791TIP3    H153788   0.846   1.572  16.229  0.3767  0.4895 -1.0718
10791TIP3    H253789   0.944   1.525  16.334 -0.2433 -1.7040 -1.4165
10792TIP3   OH253790   5.389   3.689  11.990 -0.2903  0.0212 -0.2233
10792TIP3    H153791   5.478   3.658  11.970 -0.2979  0.4954 -1.0263
10792TIP3    H253792   5.380   3.675  12.084  0.3058 -0.8825 -0.2817
10793TIP3   OH253793   1.144   1.291   2.022 -0.0769  0.0121 -0.7016
10793TIP3    H153794   1.069   1.232   2.019  0.8859 -1.2726 -0.2851
10793TIP3    H253795   1.177   1.294   1.932 -0.4967  0.4339 -0.8475
10794TIP3   OH253796   2.745   1.369   6.144 -1.2779 -0.5129  0.0595
10794TIP3    H153797   2.763   1.275   6.151 -3.0545 -0.7689  2.7785
10794TIP3    H253798   2.827   1.406   6.111  0.2413 -2.7722  0.9820
10795TIP3   OH253799   3.650   5.638   3.592 -0.1296  0.1525  0.1916
10795TIP3    H153800   3.670   5.716   3.540  0.8402 -0.1370  0.1025
10795TIP3    H253801   3.595   5.584   3.535  1.0169 -0.2147 -0.6030
10796TIP3   OH253802   0.111   2.409  14.787  0.0766  0.4997 -0.3688
10796TIP3    H153803   0.196   2.451  14.806  0.2071  0.5106 -0.9681
10796TIP3    H253804   0.084   2.372  14.871  1.8788 -1.7143 -0.6650
10797TIP3   OH253805   4.519   2.379  16.594 -0.0673 -0.0301  0.1716
10797TIP3    H153806   4.516   2.403  16.687 -1.7550  0.2916  0.0642
10797TIP3    H253807   4.428   2.360  16.571  0.5378 -1.7583 -1.0107
10798TIP3   OH253808   4.590   1.021   1.644 -0.1025  0.1013 -0.1559
10798TIP3    H153809   4.654   0.955   1.670 -0.2253 -1.5501 -3.5091
10798TIP3    H253810   4.505   0.984   1.667 -0.0691 -0.0333 -0.2480
10799TIP3   OH253811   6.746   0.938  15.155 -0.4998  0.2487  0.5757
10799TIP3    H153812   6.820   0.978  15.200 -0.7516  0.9681  0.3620
10799TIP3    H253813   6.714   0.871  15.216 -0.9304  1.3111  1.5430
10800TIP3   OH253814   1.415   1.696   0.023  0.2519 -0.3234 -0.0165
10800TIP3    H153815   1.366   1.650   0.091 -0.2886  1.8174  1.1335
10800TIP3    H253816   1.469   1.760   0.070  0.1140  0.9982 -1.5357
10801TIP3   OH253817   5.403   3.301   4.892  0.5320 -0.3480  0.4015
10801TIP3    H153818   5.479   3.355   4.912  1.6549 -1.4253 -0.8164
10801TIP3    H253819   5.344   3.316   4.966  1.1697  1.8080  0.5449
10802TIP3   OH253820   6.722   1.438   4.068 -0.7622 -0.0858  0.7377
10802TIP3    H153821   6.696   1.450   3.977  1.4762  0.0283  0.0320
10802TIP3    H253822   6.790   1.369   4.065 -1.2229 -0.6820  2.4389
10803TIP3   OH253823   0.548   2.983   3.174 -0.0762 -0.2146  0.2299
10803TIP3    H153824   0.608   2.912   3.195 -0.9055 -0.5753  1.5166
10803TIP3    H253825   0.514   2.962   3.088  0.8744 -0.5229 -0.0848
10804TIP3   OH253826   4.254   5.141   4.969 -0.5917 -0.3034  0.7051
10804TIP3    H153827   4.308   5.068   4.938 -0.7126 -0.3467  0.5916
10804TIP3    H253828   4.185   5.149   4.902 -0.1641  0.3825  0.3369
10805TIP3   OH253829   5.084   1.781   1.517  0.2232  0.2409  0.1711
10805TIP3    H153830   5.106   1.734   1.437  0.3665 -1.0737  0.9589
10805TIP3    H253831   5.117   1.870   1.502 -0.4812  0.2567 -1.5328
10806TIP3   OH253832   6.292   5.912  13.514 -0.5206  0.2944 -0.1023
10806TIP3    H153833   6.231   5.893  13.585 -0.2020 -1.2659 -0.2202
10806TIP3    H253834   6.238   5.913  13.436 -0.4591 -0.8502 -0.1762
10807TIP3   OH253835   5.229   3.684   0.859  0.2660  1.0864  0.5834
10807TIP3    H153836   5.278   3.766   0.863 -0.9088  1.7575  2.3565
10807TIP3    H253837   5.268   3.637   0.786  3.0427  1.8737  1.4363
10808TIP3   OH253838   1.370   2.746  16.102  0.0457 -0.0262 -0.1034
10808TIP3    H153839   1.309   2.816  16.078  1.4901  0.8562 -1.3383
10808TIP3    H253840   1.346   2.673  16.045 -0.7028 -0.1639  0.3666
10809TIP3   OH253841   2.583   2.902   2.076 -0.4176  0.0957  0.2518
10809TIP3    H153842   2.627   2.916   2.160 -0.4934  1.5990  0.0748
10809TIP3    H253843   2.495   2.871   2.100 -0.2849  0.0770  0.7162
10810TIP3   OH253844   0.886   3.820   3.209  0.2440  0.2568 -0.3574
10810TIP3    H153845   0.905   3.894   3.151  1.9112 -0.4541 -0.7810
10810TIP3    H253846   0.972   3.794   3.244 -0.4123 -0.9520  0.4196
10811TIP3   OH253847   6.101   5.015   2.948  0.4600 -0.0890 -0.2716
10811TIP3    H153848   6.067   5.049   3.031  0.1652  0.2828 -0.5379
10811TIP3    H253849   6.194   4.999   2.965  0.1755 -1.0619  0.4503
10812TIP3   OH253850   2.938   3.484  15.910  0.1718  0.4389 -0.4148
10812TIP3    H153851   3.001   3.471  15.981  0.8985  1.3795 -0.8459
10812TIP3    H253852   2.990   3.474  15.830 -0.5993 -0.4447 -0.8128
10813TIP3   OH253853   0.973   2.325  13.974  0.9199  0.9478  0.4565
10813TIP3    H153854   0.901   2.266  13.949  1.8653  0.9827 -2.7620
10813TIP3    H253855   1.016   2.281  14.047 -1.5005  0.2813  1.5977
10814TIP3   OH253856   4.974   1.606  14.398 -0.2110 -0.0300 -0.3733
10814TIP3    H153857   5.033   1.605  14.474 -0.8549  0.2287  0.1352
10814TIP3    H253858   5.028   1.642  14.328  0.4952 -0.5848 -0.1332
10815TIP3   OH253859   0.078   4.652  15.063 -0.2042 -0.4773 -0.5161
10815TIP3    H153860  -0.005   4.605  15.074 -0.0709 -0.5667  0.1736
10815TIP3    H253861   0.130   4.627  15.139 -0.2013  0.9243 -0.0200
10816TIP3   OH253862   5.365   4.065  15.467 -0.2451  0.3660 -0.4908
10816TIP3    H153863   5.379   4.111  15.550 -1.6488 -1.2089  0.6983
10816TIP3    H253864   5.426   3.991  15.471 -0.3145  0.2873 -0.8923
10817TIP3   OH253865   0.257   5.740  13.540  0.4691  0.0556 -0.0963
10817TIP3    H153866   0.297   5.763  13.624 -0.5438  0.6271  0.2513
10817TIP3    H253867   0.199   5.667  13.561 -0.2203  0.5695 -0.1757
10818TIP3   OH253868   5.188   5.607   5.870  0.3575  0.0292  0.3781
10818TIP3    H153869   5.242   5.541   5.914  0.7506 -0.2905 -0.5494
10818TIP3    H253870   5.107   5.610   5.921  0.3787 -1.0933  0.4957
10819TIP3   OH253871   6.244   4.980  11.215  0.0790  0.2017 -0.1930
10819TIP3    H153872   6.290   4.922  11.154  0.9055 -1.2020  1.6569
10819TIP3    H253873   6.159   4.937  11.228  1.5971 -2.2728  3.1522
10820TIP3   OH253874   4.054   1.300  12.055 -0.2966  0.0629  0.0414
10820TIP3    H153875   4.065   1.250  11.974 -2.0513  1.5354 -1.1858
10820TIP3    H253876   3.989   1.367  12.034 -1.4691  0.0033  2.9019
10821TIP3   OH253877   6.423   1.696  11.810  0.2803  0.3549 -0.2498
10821TIP3    H153878   6.384   1.648  11.883 -1.9836  2.7809  0.3027
10821TIP3    H253879   6.515   1.707  11.835 -0.4316  1.1768  2.3407
10822TIP3   OH253880   3.395   4.169  16.663  0.3019 -0.3059  0.9001
10822TIP3    H153881   3.433   4.254  16.641 -0.9663  0.3371  1.0908
10822TIP3    H253882   3.378   4.129  16.577  0.9678 -0.4089  0.8098
10823TIP3   OH253883   2.994   3.921  14.204 -0.0939  0.6210  0.3380
10823TIP3    H153884   2.990   4.011  14.174 -0.7531  0.8101  0.9748
10823TIP3    H253885   3.066   3.919  14.266  0.6857  0.4307 -0.5443
10824TIP3   OH253886   0.990   3.680   5.602  0.3313 -0.2950 -0.8130
10824TIP3    H153887   1.062   3.708   5.546  1.0400  1.4000  0.8272
10824TIP3    H253888   0.958   3.761   5.642 -0.2152 -1.4091  1.1234
10825TIP3   OH253889   3.588   0.222  13.024 -0.0064 -0.0416 -0.0031
10825TIP3    H153890   3.670   0.266  13.003  0.0805  0.2083  0.8104
10825TIP3    H253891   3.526   0.294  13.039  0.1797 -0.1698  1.5113
10826TIP3   OH253892   4.677   3.525   5.818 -0.3561 -0.3572 -0.9088
10826TIP3    H153893   4.736   3.586   5.863 -1.0404 -0.4626  0.1693
10826TIP3    H253894   4.590   3.563   5.830 -0.7546 -1.3599 -0.5391
10827TIP3   OH253895   0.929   4.542  10.267 -0.4547 -0.1991 -0.7278
10827TIP3    H153896   0.968   4.455  10.278 -0.9588 -0.6251 -2.0656
10827TIP3    H253897   0.837   4.524  10.250 -0.5499  0.5986 -1.0672
10828TIP3   OH253898   2.088   0.995   2.163 -0.4479 -0.3386 -0.2981
10828TIP3    H153899   2.108   0.932   2.095  1.5774  0.2331 -0.3172
10828TIP3    H253900   2.016   1.047   2.128 -1.6977 -2.1585 -0.5503
10829TIP3   OH253901   2.513   3.220  11.310  0.6750  0.5283 -0.8774
10829TIP3    H153902   2.539   3.309  11.289  0.2850  0.1642 -3.1416
10829TIP3    H253903   2.558   3.200  11.392  0.4397  2.9222 -0.1036
10830TIP3   OH253904   0.860   3.522   2.217  0.4564 -0.6402 -0.5159
10830TIP3    H153905   0.769   3.519   2.247  0.9797 -0.5955  1.1918
10830TIP3    H253906   0.863   3.596   2.156 -0.7807 -1.0710 -1.1357
10831TIP3   OH253907   6.368   3.583   2.420 -0.1551 -0.0720 -0.1378
10831TIP3    H153908   6.355   3.661   2.365 -1.1093  0.5392  0.8933
10831TIP3    H253909   6.287   3.534   2.411 -0.1107 -0.2303  0.3053
10832TIP3   OH253910   2.786   4.130  12.823  0.0731 -0.2613 -0.2989
10832TIP3    H153911   2.725   4.056  12.825 -0.4963  0.1406  2.8556
10832TIP3    H253912   2.745   4.196  12.879  0.8237  2.2919 -2.5696
10833TIP3   OH253913   4.183   0.816  16.900 -0.0850 -0.0072 -0.1785
10833TIP3    H153914   4.238   0.894  16.889 -1.8450  1.3782  0.5094
10833TIP3    H253915   4.246   0.746  16.919  1.5722  1.1374 -1.1582
10834TIP3   OH253916   6.362   0.792   5.271  0.1803  0.0568 -0.2828
10834TIP3    H153917   6.356   0.831   5.359  0.9335  0.1071 -0.2473
10834TIP3    H253918   6.437   0.733   5.276  0.2893  0.1354 -0.9252
10835TIP3   OH253919   5.513   2.147   1.105  0.2007 -0.4592 -0.1820
10835TIP3    H153920   5.514   2.228   1.053  1.0177 -0.2033  0.2059
10835TIP3    H253921   5.434   2.154   1.158  0.3213  0.1516 -0.0663
10836TIP3   OH253922   3.313   5.930  11.090 -0.1999 -0.3467 -0.5089
10836TIP3    H153923   3.239   5.934  11.030  1.2282 -3.0569 -2.7402
10836TIP3    H253924   3.295   5.853  11.145 -0.0318  0.2678  0.4225
10837TIP3   OH253925   5.720   2.764   2.878  0.1612 -0.9741  1.3595
10837TIP3    H153926   5.675   2.703   2.935  1.2075 -1.3106  1.8530
10837TIP3    H253927   5.747   2.836   2.935 -0.7222 -0.2159  0.8576
10838TIP3   OH253928   0.389   5.826  16.517 -0.1406  0.2111  0.0811
10838TIP3    H153929   0.389   5.813  16.423  0.3507  0.8203 -0.0146
10838TIP3    H253930   0.482   5.833  16.540 -0.2272 -0.5829  0.7115
10839TIP3   OH253931   2.719   5.745   5.256  1.4211 -0.3026 -0.0129
10839TIP3    H153932   2.789   5.804   5.284  1.2644 -0.3344  0.4507
10839TIP3    H253933   2.761   5.687   5.192  1.3149  0.9932 -1.2890
10840TIP3   OH253934   2.603   4.563   2.262  0.0592 -0.1767  0.1911
10840TIP3    H153935   2.563   4.622   2.198  0.5210 -0.9841 -0.8780
10840TIP3    H253936   2.697   4.565   2.241  0.6746  1.6441  2.6105
10841TIP3   OH253937   0.217   5.482   5.778  0.0127  0.3933  0.5292
10841TIP3    H153938   0.199   5.396   5.818 -1.6870  0.5730  0.2079
10841TIP3    H253939   0.156   5.542   5.821 -0.9233  0.8522 -1.3120
10842TIP3   OH253940   0.408   3.962  14.812  0.4207  0.3337 -0.3599
10842TIP3    H153941   0.488   3.971  14.863  0.9416  1.9069 -1.3997
10842TIP3    H253942   0.361   4.044  14.826 -1.5205 -0.9108  0.9804
10843TIP3   OH253943   4.964   6.311  14.607  0.3555  0.2013 -0.4018
10843TIP3    H153944   4.953   6.224  14.644  0.0301  0.7282  0.7986
10843TIP3    H253945   4.951   6.299  14.513  0.7247 -1.1058 -0.3044
10844TIP3   OH253946   5.335   2.440  12.301 -0.2409 -0.1711 -0.2113
10844TIP3    H153947   5.306   2.358  12.262  1.2399 -0.5212 -0.6111
10844TIP3    H253948   5.255   2.479  12.336 -1.3127 -0.7439 -1.9172
10845TIP3   OH253949   2.150   5.953   2.935 -0.0560 -0.4082 -0.0701
10845TIP3    H153950   2.234   5.910   2.949  0.6691  0.4760 -1.4861
10845TIP3    H253951   2.119   5.919   2.851 -1.2735 -0.9288  0.5580
10846TIP3   OH253952   5.245   3.932   6.235 -0.0342 -0.4224  0.3690
10846TIP3    H153953   5.315   3.966   6.290 -0.7085  0.2540  0.8280
10846TIP3    H253954   5.225   3.846   6.273  0.6151 -0.6649  0.1684
10847TIP3   OH253955   4.123   5.350   3.672  0.3217 -0.1014 -0.5713
10847TIP3    H153956   4.204   5.323   3.630 -0.2618 -1.4695 -0.8745
10847TIP3    H253957   4.142   5.436   3.709  1.5325  0.1293 -1.6766
10848TIP3   OH253958   2.215   3.911   5.558  0.1917 -0.0151  0.0060
10848TIP3    H153959   2.283   3.844   5.567  1.0800  0.5323 -2.0092
10848TIP3    H253960   2.182   3.900   5.469 -0.6737  1.2686  0.1428
10849TIP3   OH253961   1.408   6.047   0.775  0.1895 -0.0446  0.9396
10849TIP3    H153962   1.393   6.137   0.803 -0.3257  0.0473  0.3808
10849TIP3    H253963   1.392   5.994   0.853 -0.0550  0.2990  1.1219
10850TIP3   OH253964   6.235   2.742  14.566 -0.0408 -0.1997 -0.4795
10850TIP3    H153965   6.323   2.776  14.583 -0.7590  1.1411  0.8350
10850TIP3    H253966   6.207   2.788  14.487 -0.4914  1.3687  0.5359
10851TIP3   OH253967   5.450   3.592  14.668  0.2023 -0.3378  0.1850
10851TIP3    H153968   5.487   3.518  14.619  0.1889  0.2206 -0.6772
10851TIP3    H253969   5.403   3.644  14.603  1.0456  0.9743  0.5898
10852TIP3   OH253970   1.921   4.348  12.321  0.2555 -0.1675 -0.0366
10852TIP3    H153971   1.918   4.307  12.235 -1.5774  1.3340 -0.7519
10852TIP3    H253972   1.866   4.426  12.313 -0.4842 -0.2946  2.6416
10853TIP3   OH253973   3.874   4.805  14.342 -0.3550  0.2334 -0.2139
10853TIP3    H153974   3.875   4.868  14.270 -2.5801 -0.4995 -0.9956
10853TIP3    H253975   3.848   4.857  14.418  1.4267  0.9048 -0.0314
10854TIP3   OH253976   4.290   0.171  15.362  0.3008  0.2533  0.1719
10854TIP3    H153977   4.321   0.230  15.293 -1.3923 -0.4992 -1.3118
10854TIP3    H253978   4.230   0.224  15.414  1.0901  0.6466  0.6986
10855TIP3   OH253979   4.202   5.823  13.595  0.4634 -0.2011  0.2933
10855TIP3    H153980   4.136   5.769  13.552  0.3953  0.1034  0.0145
10855TIP3    H253981   4.278   5.819  13.537  0.0101  1.0920 -0.4202
10856TIP3   OH253982   1.783   6.283   5.806 -0.3978  0.2266  0.6046
10856TIP3    H153983   1.818   6.295   5.894  1.6406 -0.2732 -0.0716
10856TIP3    H253984   1.817   6.358   5.756  1.5197 -1.3095 -0.5488
10857TIP3   OH253985   6.451   2.716  11.677 -0.0184  0.1146 -0.4478
10857TIP3    H153986   6.538   2.684  11.705  0.1900  0.8643 -0.2199
10857TIP3    H253987   6.463   2.810  11.666 -0.2795 -0.0517 -2.4433
10858TIP3   OH253988   1.119   4.471   2.434 -0.0672  0.0787 -0.3998
10858TIP3    H153989   1.154   4.464   2.523 -0.6987 -0.6654 -0.2065
10858TIP3    H253990   1.024   4.474   2.445 -0.2984 -2.3403 -1.1491
10859TIP3   OH253991   4.168   6.230   3.224  0.4617 -0.0471  0.2439
10859TIP3    H153992   4.226   6.194   3.291 -0.8287 -0.0656  1.4161
10859TIP3    H253993   4.174   6.325   3.234  2.2175  0.0636 -1.3905
10860TIP3   OH253994   4.985   6.730  15.857 -0.1592  0.3634  0.1130
10860TIP3    H153995   5.023   6.814  15.833  0.0906 -0.1600 -1.4392
10860TIP3    H253996   4.892   6.739  15.839 -0.1061  0.2598 -0.2227
10861TIP3   OH253997   2.829   4.143  13.282  0.0100  0.3596  0.1462
10861TIP3    H153998   2.764   4.101  13.338  1.3418  1.2895  2.5520
10861TIP3    H253999   2.777   4.193  13.218 -1.5673 -1.4282 -0.0506
10862TIP3   OH254000   5.695   0.639   2.758  0.1577  0.0187 -0.7164
10862TIP3    H154001   5.715   0.576   2.828 -2.1275  1.5376  1.4869
10862TIP3    H254002   5.606   0.667   2.776 -0.3125  1.0158 -3.9492
10863TIP3   OH254003   1.293   2.599   1.753  0.0184 -0.0671  0.1348
10863TIP3    H154004   1.247   2.681   1.734  2.4345  1.2954 -0.3156
10863TIP3    H254005   1.381   2.627   1.780  0.5168 -2.4895  1.2340
10864TIP3   OH254006   4.348   2.243   5.322  0.2297 -0.1043 -0.1709
10864TIP3    H154007   4.299   2.165   5.348 -0.8121  0.5159 -0.1937
10864TIP3    H254008   4.303   2.274   5.243 -0.2645  1.2856  0.6247
10865TIP3   OH254009   4.439   5.280   1.385  0.1323  0.1654  0.2210
10865TIP3    H154010   4.370   5.244   1.329 -0.2714 -0.7414  1.2604
10865TIP3    H254011   4.394   5.309   1.464  0.9630 -0.8250  1.0947
10866TIP3   OH254012   3.040   5.505  14.204 -0.1516 -0.1836  0.3019
10866TIP3    H154013   3.000   5.529  14.287 -1.0239 -0.8270  0.0882
10866TIP3    H254014   3.061   5.588  14.162  0.5446  0.1509  1.2644
10867TIP3   OH254015   0.585   4.346   0.556 -0.3654 -0.6414 -0.6585
10867TIP3    H154016   0.640   4.316   0.484  0.4118 -0.2719 -0.2398
10867TIP3    H254017   0.497   4.351   0.520  0.3866  2.2108 -2.4393
10868TIP3   OH254018   0.214   5.411   5.242 -0.2309 -0.5624  0.2896
10868TIP3    H154019   0.222   5.430   5.336  0.6535 -0.8587  0.2860
10868TIP3    H254020   0.168   5.328   5.239 -0.9869 -0.1534  0.4300
10869TIP3   OH254021   0.558   3.541  14.414 -0.4114  0.0984 -0.0811
10869TIP3    H154022   0.576   3.626  14.454 -0.1141 -0.0801  0.1636
10869TIP3    H254023   0.561   3.558  14.320 -1.3527  0.5725 -0.0455
10870TIP3   OH254024   2.873   5.764   0.597 -0.2572 -0.0833 -0.1625
10870TIP3    H154025   2.950   5.773   0.540  0.1408 -1.1069  0.1907
10870TIP3    H254026   2.807   5.723   0.541 -0.1310 -0.3491 -0.1184
10871TIP3   OH254027   6.385   5.799  13.189 -0.3625  0.6408  0.3076
10871TIP3    H154028   6.457   5.785  13.250  1.1148  1.2660 -1.2480
10871TIP3    H254029   6.346   5.712  13.178  1.7109 -0.2188 -0.7171
10872TIP3   OH254030   3.609   6.131  11.378  0.6221 -0.6019 -0.6171
10872TIP3    H154031   3.592   6.047  11.335  0.3841 -0.6546 -0.4213
10872TIP3    H254032   3.704   6.139  11.378  0.6479 -0.8955 -0.5940
10873TIP3   OH254033   5.495   1.069  14.071  0.2072 -0.0091 -0.2835
10873TIP3    H154034   5.485   0.997  14.009 -1.9775  1.5273 -1.8724
10873TIP3    H254035   5.572   1.117  14.040  1.9743 -1.8052  1.0723
10874TIP3   OH254036   6.092   3.757   0.993 -0.5056 -0.0102 -0.3788
10874TIP3    H154037   6.165   3.726   1.047  0.7756  0.9754 -1.4441
10874TIP3    H254038   6.045   3.677   0.969 -1.3129 -0.4543  2.3597
10875TIP3   OH254039   3.230   2.286  15.055  0.1739  0.1138 -0.2192
10875TIP3    H154040   3.165   2.350  15.083 -0.1383 -0.3451  0.1107
10875TIP3    H254041   3.314   2.325  15.077 -0.0481 -0.0100  0.8652
10876TIP3   OH254042   4.672   0.081  10.871 -0.0882  0.5082 -0.5955
10876TIP3    H154043   4.723   0.027  10.811 -0.9337  0.6105 -1.4382
10876TIP3    H254044   4.613   0.131  10.814  0.0615  1.6692  0.2242
10877TIP3   OH254045   1.391   5.861   5.543  0.5744 -0.0238 -0.2099
10877TIP3    H154046   1.350   5.819   5.618 -0.5973  0.7308 -0.4122
10877TIP3    H254047   1.484   5.867   5.567  0.2303  0.1549  1.1609
10878TIP3   OH254048   2.106   4.817   2.239 -0.0404  0.0038  0.2708
10878TIP3    H154049   2.148   4.873   2.174  0.6609 -0.8666 -0.0523
10878TIP3    H254050   2.062   4.877   2.299  0.9874  0.9031  0.1382
10879TIP3   OH254051   6.321   2.940  12.245  0.0556 -0.5206 -0.1200
10879TIP3    H154052   6.270   3.020  12.234 -0.6955 -0.9865 -0.0807
10879TIP3    H254053   6.371   2.955  12.325 -0.1263 -0.1119 -0.0814
10880TIP3   OH254054   3.776   3.422   2.997 -0.5930  0.3671  0.1571
10880TIP3    H154055   3.824   3.478   2.937  0.8766  0.9318  1.7967
10880TIP3    H254056   3.694   3.403   2.951 -0.7589  3.0873 -0.8372
10881TIP3   OH254057   2.183   5.189   0.541  0.3817  0.1403  0.3697
10881TIP3    H154058   2.127   5.263   0.565  0.3968  1.3273 -2.7880
10881TIP3    H254059   2.128   5.133   0.486  1.8239  0.6534 -1.7247
10882TIP3   OH254060   4.358   4.030   1.194 -0.2482  0.0575  0.1869
10882TIP3    H154061   4.387   3.940   1.210  1.0140  0.4455  0.2071
10882TIP3    H254062   4.376   4.075   1.276  0.7155  0.7049 -0.3652
10883TIP3   OH254063   1.294   4.543  16.242  0.0492 -0.5078 -0.1962
10883TIP3    H154064   1.338   4.624  16.215  1.8960 -1.5576 -0.4982
10883TIP3    H254065   1.289   4.490  16.162  0.7119 -1.4928  0.3878
10884TIP3   OH254066   4.486   1.271   6.362  0.2391 -0.0025  0.2099
10884TIP3    H154067   4.499   1.187   6.317  0.1206 -0.9044  1.7604
10884TIP3    H254068   4.394   1.268   6.390  1.1607 -1.3109  3.8061
10885TIP3   OH254069   0.528   5.812   5.149 -0.2978 -0.0655 -0.4436
10885TIP3    H154070   0.464   5.842   5.085  0.6736  0.7460 -1.0533
10885TIP3    H254071   0.604   5.787   5.096 -0.3926 -1.8498  0.1913
10886TIP3   OH254072   6.445   3.800  15.545 -0.2347 -0.2010 -0.3802
10886TIP3    H154073   6.456   3.843  15.460 -0.5435  0.0983 -0.2717
10886TIP3    H254074   6.532   3.803  15.584 -0.1767  0.0149 -0.5211
10887TIP3   OH254075   0.391   0.934  15.693 -0.3943 -0.2104  0.3274
10887TIP3    H154076   0.416   0.847  15.726  1.1506  0.3305  0.6429
10887TIP3    H254077   0.328   0.966  15.758 -1.1927 -1.1807  0.0662
10888TIP3   OH254078   5.959   2.225   2.493 -0.2789 -0.0885 -0.2235
10888TIP3    H154079   5.903   2.227   2.570 -2.7638 -0.4196 -1.9254
10888TIP3    H254080   5.982   2.317   2.478  1.1093 -0.1119  1.4300
10889TIP3   OH254081   3.148   4.499  13.735 -0.4951  0.5382 -0.5459
10889TIP3    H154082   3.091   4.459  13.800  2.8325 -2.0935  1.0657
10889TIP3    H254083   3.136   4.446  13.656 -0.5562  0.2441 -0.3387
10890TIP3   OH254084   0.258   6.755  13.762 -0.1971  0.1009 -0.3750
10890TIP3    H154085   0.240   6.661  13.772 -0.0045 -0.3151 -3.1450
10890TIP3    H254086   0.201   6.797  13.825  1.5787 -1.9242  2.9022
10891TIP3   OH254087   6.481   2.203   3.400 -0.5844  0.8064 -0.8964
10891TIP3    H154088   6.556   2.149   3.373 -0.1860 -0.6067  2.5638
10891TIP3    H254089   6.494   2.286   3.354  3.5431  0.8855 -0.0237
10892TIP3   OH254090   1.313   6.316  17.069  0.1707  0.4270  0.4483
10892TIP3    H154091   1.266   6.397  17.048 -0.2887  0.3719  1.2639
10892TIP3    H254092   1.314   6.312  17.164 -0.8809 -1.1445  0.4245
10893TIP3   OH254093   1.453   2.721  13.557  0.5879  0.5184 -0.1727
10893TIP3    H154094   1.483   2.683  13.474 -0.2942  0.0884 -0.2987
10893TIP3    H254095   1.361   2.741  13.543  0.3962  0.3276  0.7533
10894TIP3   OH254096   3.578   6.450   1.103  0.5223 -0.5327 -0.2840
10894TIP3    H154097   3.564   6.384   1.171  2.4253  0.0575  0.7512
10894TIP3    H254098   3.558   6.533   1.145  0.4648 -0.2657 -0.8332
10895TIP3   OH254099   4.088   2.117   1.772  0.2873  0.0063 -0.2080
10895TIP3    H154100   4.130   2.173   1.706  0.2619 -1.1739 -1.2599
10895TIP3    H254101   4.020   2.071   1.724 -0.6516  0.1270  0.9666
10896TIP3   OH254102   6.529   2.219  11.955 -0.1979  0.2792  0.5862
10896TIP3    H154103   6.556   2.251  11.869  1.1600 -0.9006  0.5521
10896TIP3    H254104   6.445   2.176  11.939 -0.4564  0.9506  0.0580
10897TIP3   OH254105   2.779   4.491  15.835 -0.0318  0.2743 -0.4194
10897TIP3    H154106   2.750   4.582  15.838  1.7938  0.9983 -2.0887
10897TIP3    H254107   2.861   4.491  15.885 -1.2039 -1.0488  1.6421
10898TIP3   OH254108   3.297   0.062   4.924  0.3232  0.0976  0.2515
10898TIP3    H154109   3.392   0.060   4.930  0.2390  0.0871  2.2093
10898TIP3    H254110   3.267   0.003   4.993 -1.1101 -0.2346 -0.6107
10899TIP3   OH254111   4.066   2.239   3.732  0.9173  0.3366  0.3544
10899TIP3    H154112   4.059   2.277   3.820  2.3060 -2.5895  1.8992
10899TIP3    H254113   4.002   2.168   3.732 -0.1966  1.2835 -1.6580
10900TIP3   OH254114   3.464   6.229   4.020 -0.6641  0.2515 -0.1103
10900TIP3    H154115   3.462   6.150   4.075 -1.1893  0.0679 -0.3794
10900TIP3    H254116   3.402   6.210   3.950 -1.2670  1.1632  0.1621
10901TIP3   OH254117   2.086   6.615   3.885  0.2539 -0.3386 -0.6741
10901TIP3    H154118   2.152   6.610   3.955  0.9923 -0.5198 -1.3739
10901TIP3    H254119   2.118   6.683   3.826 -1.1351  0.8891 -0.0850
10902TIP3   OH254120   0.862   2.169  13.016  0.2971 -0.1981 -0.3487
10902TIP3    H154121   0.860   2.225  12.938  0.7862 -0.5945 -0.6512
10902TIP3    H254122   0.927   2.101  12.995  1.2008  0.2797  0.8138
10903TIP3   OH254123   0.884   3.386  16.603  0.2186 -0.2869 -0.6713
10903TIP3    H154124   0.799   3.391  16.560 -0.9558  0.1391  1.5212
10903TIP3    H254125   0.874   3.316  16.668  1.4153  0.0259 -0.1117
10904TIP3   OH254126   0.750   3.790  15.027 -0.6098  0.1069  0.8271
10904TIP3    H154127   0.797   3.865  15.064  0.1321  0.6851 -1.1944
10904TIP3    H254128   0.729   3.736  15.103  1.3174  0.9650  2.0545
10905TIP3   OH254129   4.789   5.580   1.496 -0.3661  0.1702  0.0552
10905TIP3    H154130   4.821   5.587   1.406 -0.0898  0.4834  0.1750
10905TIP3    H254131   4.854   5.627   1.548 -1.0854  0.9358  0.2847
10906TIP3   OH254132   3.883   1.454   3.251  0.2598  0.0507 -0.0897
10906TIP3    H154133   3.914   1.416   3.333  1.5079 -0.8585 -0.9498
10906TIP3    H254134   3.818   1.391   3.219 -1.7964  1.4128  1.1643
10907TIP3   OH254135   6.167   2.993   3.557  0.1735  0.2323  0.4183
10907TIP3    H154136   6.189   2.899   3.560  2.6511  0.7785  1.6602
10907TIP3    H254137   6.107   3.005   3.631 -1.2643 -0.5730 -0.5663
10908TIP3   OH254138   2.265   2.848  12.975  0.4559  0.0176 -0.0856
10908TIP3    H154139   2.274   2.757  13.006  2.6707  1.0205  2.6295
10908TIP3    H254140   2.323   2.853  12.899 -1.1211 -1.2403 -1.4375
10909TIP3   OH254141   5.575   6.055   4.475  0.0023 -0.4995  0.2704
10909TIP3    H154142   5.612   6.069   4.562  1.6874 -0.9315 -0.3415
10909TIP3    H254143   5.605   6.130   4.424 -1.6003  0.1539  0.1988
10910TIP3   OH254144   3.452   1.360   4.856 -0.0017 -0.3105 -0.1068
10910TIP3    H154145   3.436   1.422   4.927 -0.5471 -1.3068  0.6688
10910TIP3    H254146   3.365   1.335   4.826  0.0052 -2.9902  1.6757
10911TIP3   OH254147   6.609   1.727   0.743  0.0087 -0.0747 -0.6525
10911TIP3    H154148   6.703   1.714   0.751 -0.1007 -1.2694 -1.1307
10911TIP3    H254149   6.599   1.779   0.662  0.2058 -0.7327 -1.1038
10912TIP3   OH254150   5.261   2.084  15.906  0.1923 -0.0409  0.0143
10912TIP3    H154151   5.166   2.073  15.907  0.2090 -0.2187 -0.3607
10912TIP3    H254152   5.284   2.088  15.813  0.4783  0.6285  0.1097
10913TIP3   OH254153   1.025   6.745   3.044  0.0957 -0.1745 -0.0027
10913TIP3    H154154   1.108   6.721   3.001  0.1401 -1.7064  0.8735
10913TIP3    H254155   0.968   6.670   3.028 -0.2284 -0.3118  1.6770
10914TIP3   OH254156   3.872   5.807  10.318 -0.5996 -0.3840 -0.1533
10914TIP3    H154157   3.852   5.734  10.377  2.0356 -0.4811  0.7770
10914TIP3    H254158   3.950   5.779  10.271  2.1950  2.6913  2.1446
10915TIP3   OH254159   0.812   3.225   5.987  0.1465  0.1929  0.6614
10915TIP3    H154160   0.876   3.263   5.927 -0.3371  0.5487  0.3657
10915TIP3    H254161   0.852   3.236   6.074  0.7279 -0.0822  0.4339
10916TIP3   OH254162   4.832   4.296  12.713 -0.0379  0.1550  0.3724
10916TIP3    H154163   4.859   4.385  12.692  0.2439 -0.3677 -1.7339
10916TIP3    H254164   4.749   4.306  12.759 -0.8810  1.5032 -1.3049
10917TIP3   OH254165   3.808   1.841   3.359 -0.1480  0.3065 -0.4562
10917TIP3    H154166   3.863   1.912   3.390 -0.2784  1.5742 -2.8527
10917TIP3    H254167   3.869   1.773   3.331 -0.0362 -1.0585  2.7308
10918TIP3   OH254168   0.058   0.452  13.448  0.4148  0.2054  0.3376
10918TIP3    H154169  -0.018   0.489  13.493  0.7311  0.8721  0.3289
10918TIP3    H254170   0.109   0.410  13.518  0.3206  0.2424  0.4288
10919TIP3   OH254171   6.188   0.637  14.284 -0.3826  0.5090  0.3208
10919TIP3    H154172   6.094   0.650  14.271 -0.0028  1.5262 -1.8168
10919TIP3    H254173   6.212   0.570  14.220  0.7930  2.2856 -1.1909
10920TIP3   OH254174   0.887   5.669  16.375  0.6734 -0.1477 -0.5118
10920TIP3    H154175   0.981   5.685  16.371  0.6561 -0.2139 -1.3339
10920TIP3    H254176   0.858   5.715  16.454  1.4320 -0.3330 -0.1147
10921TIP3   OH254177   2.779   1.757   0.658  0.2674 -0.6907 -0.6216
10921TIP3    H154178   2.814   1.750   0.746  1.0028  0.2626 -0.8088
10921TIP3    H254179   2.771   1.852   0.644  1.5765 -0.7463 -2.0856
10922TIP3   OH254180   2.821   3.962  11.051 -0.0476 -0.1051  0.5108
10922TIP3    H154181   2.787   3.996  11.134 -0.7032 -0.4340  0.3879
10922TIP3    H254182   2.743   3.939  11.001  0.3496 -0.1590 -0.0927
10923TIP3   OH254183   1.124   4.878   2.508 -0.0292  0.1665  0.7489
10923TIP3    H154184   1.167   4.797   2.537  0.9151  0.4882  0.2736
10923TIP3    H254185   1.031   4.857   2.509  0.2043 -0.9369  0.6157
10924TIP3   OH254186   1.243   1.728   5.789 -0.7344  0.0076 -0.4753
10924TIP3    H154187   1.299   1.757   5.861  1.0000  1.4491 -2.2996
10924TIP3    H254188   1.200   1.807   5.757 -0.5280 -0.3684 -1.7750
10925TIP3   OH254189   6.203   3.547   0.735 -0.2250 -0.0282 -0.6200
10925TIP3    H154190   6.294   3.573   0.727 -0.4859  0.5359 -1.8828
10925TIP3    H254191   6.201   3.492   0.814  1.3570 -0.7468 -1.0391
10926TIP3   OH254192   1.735   5.311   4.455 -0.0442 -0.3586 -0.3195
10926TIP3    H154193   1.727   5.327   4.361 -0.6277  0.1271 -0.1945
10926TIP3    H254194   1.794   5.236   4.462 -0.1881 -0.5477 -1.0830
10927TIP3   OH254195   4.754   3.658  14.873 -0.4983  0.2881  0.0427
10927TIP3    H154196   4.695   3.587  14.849  1.8843 -2.4510  1.6153
10927TIP3    H254197   4.818   3.662  14.802  0.2441 -0.2605  0.6568
10928TIP3   OH254198   6.340   6.524   4.848  0.2449  0.3614 -0.4505
10928TIP3    H154199   6.388   6.454   4.891 -0.7966 -0.6033 -0.8156
10928TIP3    H254200   6.407   6.590   4.827  0.8904  0.5291  1.9134
10929TIP3   OH254201   4.133   3.640  12.846  0.1664 -0.1889  0.2477
10929TIP3    H154202   4.216   3.677  12.816 -1.2254  1.3980 -1.8912
10929TIP3    H254203   4.123   3.560  12.794 -0.8508  1.0275 -1.5206
10930TIP3   OH254204   4.725   4.770  16.180 -0.0966  0.2117  0.2631
10930TIP3    H154205   4.657   4.833  16.205 -1.2296 -0.9460  0.2046
10930TIP3    H254206   4.708   4.694  16.236 -1.0396 -1.4327 -2.0823
10931TIP3   OH254207   2.569   6.440   0.152  0.4111 -0.3228  0.2185
10931TIP3    H154208   2.634   6.370   0.147  1.5800  0.7982 -1.4594
10931TIP3    H254209   2.605   6.502   0.215  2.2096  1.3642 -2.2725
10932TIP3   OH254210   6.328   6.051   0.946 -0.1446 -0.7433 -0.1296
10932TIP3    H154211   6.346   6.077   1.036 -2.2165  0.9419 -0.1346
10932TIP3    H254212   6.411   6.063   0.900  0.9896 -1.7946  1.5407
10933TIP3   OH254213   4.299   5.736   0.350 -0.3810  0.1105  0.1170
10933TIP3    H154214   4.353   5.773   0.280  0.9159 -1.5840  0.1641
10933TIP3    H254215   4.266   5.654   0.314 -2.3316  0.7169  0.3957
10934TIP3   OH254216   5.826   5.447   1.438  0.0714  0.1682 -0.5065
10934TIP3    H154217   5.857   5.372   1.386 -0.0750  0.8199 -1.5730
10934TIP3    H254218   5.905   5.500   1.451  0.5279 -0.9602  1.6912
10935TIP3   OH254219   0.336   4.265  15.588 -0.5704 -0.5591 -0.2576
10935TIP3    H154220   0.304   4.289  15.674 -0.9943 -1.5424 -0.1208
10935TIP3    H254221   0.257   4.247  15.537 -0.3127 -0.4416 -0.7080
10936TIP3   OH254222   4.392   3.039  12.357 -0.2396  0.8187 -0.1730
10936TIP3    H154223   4.387   2.992  12.441  1.6419  1.2757  0.2544
10936TIP3    H254224   4.334   3.114  12.367 -3.9036 -1.6379 -1.1293
10937TIP3   OH254225   6.540   0.690   0.630 -0.1282 -0.5040 -0.1861
10937TIP3    H154226   6.629   0.708   0.598 -0.4208  0.7188 -0.3727
10937TIP3    H254227   6.483   0.708   0.555 -0.5812 -0.7005  0.1048
10938TIP3   OH254228   5.586   4.338   5.051  0.0126  0.3706 -0.4287
10938TIP3    H154229   5.603   4.246   5.032  1.4151  1.1054 -3.4146
10938TIP3    H254230   5.646   4.359   5.123  0.6100 -0.7489 -0.5739
10939TIP3   OH254231   4.341   1.842  13.756 -0.0861  0.4104  0.1877
10939TIP3    H154232   4.432   1.840  13.727 -0.1958 -0.9233 -0.1167
10939TIP3    H254233   4.290   1.831  13.676 -0.5763  2.2576  0.2026
10940TIP3   OH254234   0.857   6.507  14.520  0.1030 -0.3249 -0.2851
10940TIP3    H154235   0.902   6.582  14.481 -0.7277 -0.1000 -0.8298
10940TIP3    H254236   0.898   6.431  14.478  1.4801 -0.2411  0.8261
10941TIP3   OH254237   1.157   2.405   5.082  0.4138  0.3057 -0.2513
10941TIP3    H154238   1.163   2.487   5.130  1.4858 -0.5742  1.2310
10941TIP3    H254239   1.248   2.381   5.065  0.0667  0.7019 -3.0219
10942TIP3   OH254240   3.503   1.780  17.018  0.3055  0.1471  0.6334
10942TIP3    H154241   3.578   1.838  17.005  2.3961 -1.3523  4.4405
10942TIP3    H254242   3.472   1.799  17.106 -2.3078 -0.9937  0.0646
10943TIP3   OH254243   3.073   1.590  11.760 -0.5595  0.1330  0.0048
10943TIP3    H154244   3.019   1.663  11.789 -0.4805  0.9826 -1.8682
10943TIP3    H254245   3.013   1.532  11.713  0.0756  1.0572 -2.0380
10944TIP3   OH254246   3.356   2.908  12.490 -0.3048  0.4846 -0.0905
10944TIP3    H154247   3.375   2.996  12.523  0.8951  0.3528 -0.3627
10944TIP3    H254248   3.301   2.922  12.413 -0.6430  0.9530  0.2306
10945TIP3   OH254249   6.223   4.571   5.657  0.2543  0.6124  0.1294
10945TIP3    H154250   6.245   4.659   5.626 -1.1141  0.6502 -0.8289
10945TIP3    H254251   6.202   4.583   5.750  1.7041  0.9821  0.4361
10946TIP3   OH254252   1.091   5.011  16.872 -0.2586  0.1566 -0.1547
10946TIP3    H154253   1.090   4.918  16.892 -0.5596 -0.1543 -1.5195
10946TIP3    H254254   1.109   5.016  16.778  0.4713  1.5049  0.0158
10947TIP3   OH254255   4.619   4.367  15.808 -0.9372 -0.2404  0.0587
10947TIP3    H154256   4.661   4.403  15.886 -0.3113  0.2785 -0.4997
10947TIP3    H254257   4.570   4.440  15.770  1.1271  0.3935 -1.6168
10948TIP3   OH254258   3.887   3.986  13.268 -0.0769  0.1844  0.2631
10948TIP3    H154259   3.891   3.906  13.215 -0.4066 -1.2517  2.2865
10948TIP3    H254260   3.856   3.957  13.353  0.8423  2.3334  1.4123
10949TIP3   OH254261   5.295   5.900  16.020  0.0694  0.1878  0.1823
10949TIP3    H154262   5.250   5.889  15.936  0.6932 -0.1810 -0.1157
10949TIP3    H254263   5.259   5.831  16.076 -0.6025  0.6540  0.3391
10950TIP3   OH254264   0.907   3.795   4.438 -0.3574 -0.3582 -0.2999
10950TIP3    H154265   0.929   3.818   4.348  0.1445 -0.2692 -0.1540
10950TIP3    H254266   0.954   3.714   4.455  0.9036  0.4857  0.4226
10951TIP3   OH254267   5.149   1.069   3.023  0.7863  0.1720 -0.4832
10951TIP3    H154268   5.069   1.102   2.983  0.3668 -0.6691 -0.3539
10951TIP3    H254269   5.167   1.129   3.095  1.8971  2.0887 -2.2422
10952TIP3   OH254270   5.454   1.521   2.147  0.0019  0.4934 -0.4053
10952TIP3    H154271   5.517   1.577   2.103  1.3208  0.8250  1.7458
10952TIP3    H254272   5.385   1.506   2.082  2.2795  0.0402 -2.9054
10953TIP3   OH254273   2.010   0.064  15.357  1.1614 -0.4508 -0.3638
10953TIP3    H154274   1.983  -0.025  15.380 -2.6147  0.3584 -1.0066
10953TIP3    H254275   2.037   0.103  15.440 -1.0175 -1.0722  0.7198
10954TIP3   OH254276   1.900   0.448  16.063  0.0317 -0.1633  0.0697
10954TIP3    H154277   1.842   0.438  16.138 -0.7050  1.0331 -0.3202
10954TIP3    H254278   1.988   0.452  16.101 -0.1851 -1.1355  0.7224
10955TIP3   OH254279   5.365   4.517  13.806  0.2119 -0.7883  0.5774
10955TIP3    H154280   5.452   4.478  13.819  0.9390  0.0057 -1.3730
10955TIP3    H254281   5.380   4.612  13.813 -0.2580 -0.5882 -0.7797
10956TIP3   OH254282   3.142   2.192  12.512 -0.8652 -0.2280 -0.2171
10956TIP3    H154283   3.190   2.266  12.476  1.1226 -0.5464  1.5546
10956TIP3    H254284   3.101   2.226  12.591 -1.3724 -0.5918 -0.3229
10957TIP3   OH254285   0.613   1.988  15.225 -0.6216  0.0129  0.3902
10957TIP3    H154286   0.594   1.983  15.318  1.5397 -0.3617  0.8528
10957TIP3    H254287   0.631   1.898  15.199 -0.2366  0.2408 -0.1594
10958TIP3   OH254288   6.239   6.160  12.737 -0.2012 -0.3926 -0.3780
10958TIP3    H154289   6.305   6.097  12.767 -2.4042 -2.2145  1.0315
10958TIP3    H254290   6.237   6.227  12.804  0.4369 -0.1486 -0.5992
10959TIP3   OH254291   1.871   1.423   1.149  0.5880  0.7330  0.1660
10959TIP3    H154292   1.849   1.438   1.058  0.2896  1.7329  0.3947
10959TIP3    H254293   1.915   1.338   1.149  1.2136  1.0411 -0.9983
10960TIP3   OH254294   2.327   6.464   1.082  0.1772 -0.6319  0.4125
10960TIP3    H154295   2.252   6.523   1.094  0.0012 -0.7849  0.0824
10960TIP3    H254296   2.289   6.384   1.045  0.5190 -0.6618  0.1182
10961TIP3   OH254297   6.157   5.391  10.625  0.3807 -0.1457  0.4567
10961TIP3    H154298   6.153   5.311  10.572  0.1743  0.0976  0.0968
10961TIP3    H254299   6.066   5.408  10.649  0.1929  0.9147 -0.9004
10962TIP3   OH254300   4.365   0.736  12.148 -0.1245 -0.0845  0.8997
10962TIP3    H154301   4.455   0.728  12.116  0.1364  0.4287  1.4845
10962TIP3    H254302   4.343   0.649  12.180  0.1724 -0.2108  0.7624
10963TIP3   OH254303   0.064   4.189   4.089 -0.1307 -0.1195  0.7753
10963TIP3    H154304   0.052   4.283   4.097 -1.3935 -0.2342  0.4454
10963TIP3    H254305   0.016   4.165   4.009  2.8254 -0.5947 -1.0007
10964TIP3   OH254306   2.938   0.799   3.587 -0.0998 -0.3356  0.6597
10964TIP3    H154307   2.867   0.764   3.641 -0.7506  0.5725  0.4036
10964TIP3    H254308   2.933   0.749   3.505 -2.1888  1.4991 -0.4273
10965TIP3   OH254309   0.147   5.324  11.889  0.1361 -0.0556  0.1622
10965TIP3    H154310   0.096   5.387  11.939  0.8341 -0.0668  0.8972
10965TIP3    H254311   0.221   5.301  11.945 -0.2243 -1.7221  0.0157
10966TIP3   OH254312   5.836   3.002  12.402 -0.0300  0.3903  0.3759
10966TIP3    H154313   5.798   2.934  12.346  0.3768  0.7286 -0.3219
10966TIP3    H254314   5.761   3.053  12.432 -0.3957 -0.6503  1.3185
10967TIP3   OH254315   0.334   5.049   4.359  0.0003 -1.2815 -0.2155
10967TIP3    H154316   0.247   5.015   4.381 -0.8167 -0.0806 -1.4662
10967TIP3    H254317   0.345   5.125   4.418  0.9682 -2.4301  1.1526
10968TIP3   OH254318   3.053   4.354   0.309  0.5668 -0.9947  0.4549
10968TIP3    H154319   3.028   4.302   0.233  2.4231 -1.1328 -0.1026
10968TIP3    H254320   3.126   4.306   0.348  0.9220  0.0893  1.1833
10969TIP3   OH254321   2.810   1.723   3.804  0.1829 -0.2189 -0.0977
10969TIP3    H154322   2.740   1.747   3.743 -0.6052 -0.5036  0.6771
10969TIP3    H254323   2.852   1.647   3.764 -0.7268 -0.7866 -0.0082
10970TIP3   OH254324   0.334   2.922  15.908  0.4792  0.2407  0.0503
10970TIP3    H154325   0.390   2.949  15.836  1.4597 -3.0582 -0.5902
10970TIP3    H254326   0.252   2.896  15.866  0.0833  0.8046  0.4618
10971TIP3   OH254327   6.520   4.527   0.653  0.4216  0.0787 -0.2374
10971TIP3    H154328   6.534   4.592   0.723 -0.6047  0.2007 -0.1316
10971TIP3    H254329   6.521   4.443   0.698  2.6074 -0.0870 -0.4877
10972TIP3   OH254330   3.845   3.949   3.636  0.0793  0.5003  0.5395
10972TIP3    H154331   3.777   3.940   3.569  1.5784 -1.3286 -0.8636
10972TIP3    H254332   3.927   3.944   3.587  1.2391 -0.7606  2.4710
10973TIP3   OH254333   3.725   2.868  13.970 -0.0873  0.1888  0.2020
10973TIP3    H154334   3.675   2.931  13.918  0.5239  0.4947 -0.0267
10973TIP3    H254335   3.813   2.907  13.977  0.6298 -1.1388 -0.8828
10974TIP3   OH254336   4.836   6.516  16.090  0.3292 -0.0409  0.3974
10974TIP3    H154337   4.769   6.471  16.038  0.0901 -1.1929  1.6511
10974TIP3    H254338   4.816   6.609  16.078 -1.3373 -0.3481  0.5228
10975TIP3   OH254339   3.638   3.596   5.321  0.3428 -0.3600  0.1543
10975TIP3    H154340   3.606   3.671   5.371  0.1082 -0.2970 -0.0853
10975TIP3    H254341   3.656   3.632   5.234 -1.2353 -0.8745 -0.4294
10976TIP3   OH254342   4.429   1.954  17.174  0.4634  0.1082  0.0117
10976TIP3    H154343   4.391   1.887  17.118  0.1690  1.0898 -1.0071
10976TIP3    H254344   4.354   1.993  17.219  0.6316 -0.2180  0.5863
10977TIP3   OH254345   1.421   3.638   4.648 -0.6009  0.1179  0.3837
10977TIP3    H154346   1.471   3.556   4.654  0.1284  0.5127 -0.1033
10977TIP3    H254347   1.464   3.687   4.577  0.2189  1.7568  1.9318
10978TIP3   OH254348   6.715   4.518  13.052  0.1302 -0.0589 -0.4973
10978TIP3    H154349   6.690   4.426  13.040 -0.1619 -0.1022  0.3427
10978TIP3    H254350   6.808   4.520  13.028  0.6474 -0.9862  1.1948
10979TIP3   OH254351   0.090   5.078  13.236 -0.4208 -0.1299  0.0047
10979TIP3    H154352   0.070   5.070  13.143 -2.3655 -0.7026  0.4368
10979TIP3    H254353   0.055   5.163  13.261  2.8438  1.4779 -0.3712
10980TIP3   OH254354   5.647   0.892  10.972  0.0606 -0.5696 -0.3755
10980TIP3    H154355   5.580   0.834  11.009 -0.0209  0.1049  0.5864
10980TIP3    H254356   5.721   0.884  11.032  0.3069 -0.2129 -0.6279
10981TIP3   OH254357   5.742   1.819  10.914 -0.0842 -0.0076 -0.0752
10981TIP3    H154358   5.825   1.861  10.893 -0.1470 -0.9475 -2.5491
10981TIP3    H254359   5.676   1.878  10.879 -0.5031  0.5451  1.5348
10982TIP3   OH254360   4.524   3.552  14.608  0.4033 -0.7245 -0.4310
10982TIP3    H154361   4.585   3.567  14.535  1.1282 -0.2367  0.2593
10982TIP3    H254362   4.447   3.514  14.567  0.6743 -0.1546 -1.5085
10983TIP3   OH254363   4.591   5.367  13.462 -0.1546  0.0830 -0.3519
10983TIP3    H154364   4.655   5.313  13.417 -1.9816 -0.9752 -1.8311
10983TIP3    H254365   4.623   5.373  13.552  1.6120 -0.9962 -0.8678
10984TIP3   OH254366   3.662   6.430   1.798  0.3108 -0.4550  0.1185
10984TIP3    H154367   3.665   6.426   1.703  1.6490  0.4658  0.0849
10984TIP3    H254368   3.570   6.447   1.819  0.5396  3.7486 -1.2988
10985TIP3   OH254369   2.034   3.715  15.319 -0.2389  0.0789  0.2502
10985TIP3    H154370   2.108   3.765  15.352  0.3517 -0.1991 -0.6158
10985TIP3    H254371   2.045   3.715  15.224  0.1722 -2.2486  0.2373
10986TIP3   OH254372   4.456   3.709  13.903  1.1238  0.0620  0.2752
10986TIP3    H154373   4.474   3.800  13.928 -0.8517  0.3582  0.8146
10986TIP3    H254374   4.420   3.716  13.814 -3.4903  0.5010  1.8834
10987TIP3   OH254375   4.209   6.320  13.674 -0.3271  0.7551 -0.1076
10987TIP3    H154376   4.277   6.266  13.635  0.8544  1.5892  0.7436
10987TIP3    H254377   4.127   6.282  13.643  0.5092 -0.5688 -0.7464
10988TIP3   OH254378   5.075   2.839   2.647  0.2735  0.1893  1.0330
10988TIP3    H154379   5.026   2.838   2.564  0.1928 -2.1218  1.0448
10988TIP3    H254380   5.076   2.931   2.673 -2.2938  0.6089 -0.0254
10989TIP3   OH254381   2.571   2.787   4.255 -0.2305 -0.4532 -0.3343
10989TIP3    H154382   2.598   2.839   4.330 -1.1032 -1.8128  0.9742
10989TIP3    H254383   2.506   2.842   4.210 -0.8400 -0.2244  0.7912
10990TIP3   OH254384   4.569   5.941   1.711  0.5241 -0.2957 -0.2820
10990TIP3    H154385   4.558   6.022   1.660 -3.2897  1.4180  2.6907
10990TIP3    H254386   4.569   5.871   1.646 -0.8808  1.8615 -2.7894
10991TIP3   OH254387   5.771   0.644  11.819 -0.0158  0.8331  0.1509
10991TIP3    H154388   5.676   0.653  11.821 -0.2690 -1.3798  0.5075
10991TIP3    H254389   5.798   0.653  11.911  0.0864  1.0311  0.1026
10992TIP3   OH254390   4.546   1.825   4.167 -0.1684  0.1741  0.1650
10992TIP3    H154391   4.462   1.781   4.155  1.2616 -2.7631  0.1492
10992TIP3    H254392   4.525   1.904   4.217 -3.1962  0.7849 -1.7984
10993TIP3   OH254393   0.740   6.720  14.203 -0.0274  0.3545 -0.0173
10993TIP3    H154394   0.714   6.753  14.289  1.3160 -0.0715  0.5783
10993TIP3    H254395   0.688   6.641  14.191  1.9714 -1.4006  1.8830
10994TIP3   OH254396   3.658   6.089   5.435 -0.2634  0.1225 -0.8113
10994TIP3    H154397   3.697   6.174   5.454  1.6418 -0.8714 -0.0698
10994TIP3    H254398   3.572   6.110   5.399  0.0387  2.3416 -0.3670
10995TIP3   OH254399   2.598   0.784  17.110 -0.1659 -0.0330  0.3900
10995TIP3    H154400   2.516   0.761  17.066 -0.8405  0.1651  1.4921
10995TIP3    H254401   2.662   0.793  17.039 -1.4924  1.5872 -0.6728
10996TIP3   OH254402   2.670   2.457   0.400 -0.1219  0.9256 -0.2209
10996TIP3    H154403   2.674   2.521   0.330 -0.1858  0.9239 -0.2261
10996TIP3    H254404   2.584   2.416   0.391 -0.6730  1.8353  0.6611
10997TIP3   OH254405   2.922   0.700  10.548 -0.0376  0.5184 -0.4700
10997TIP3    H154406   2.874   0.628  10.588 -0.2029 -0.0286 -1.6116
10997TIP3    H254407   3.003   0.706  10.598 -0.1399 -0.2835 -0.1953
10998TIP3   OH254408   5.500   6.172  10.845 -0.0492  0.0461 -0.2839
10998TIP3    H154409   5.413   6.131  10.849 -0.4214  0.8708  0.4746
10998TIP3    H254410   5.503   6.213  10.758  0.1599 -1.1931 -0.8762
10999TIP3   OH254411   6.388   2.670   0.519  0.2053 -0.4461 -0.5789
10999TIP3    H154412   6.368   2.600   0.581  2.5951 -0.6531  0.0363
10999TIP3    H254413   6.355   2.749   0.560  1.2072 -0.6645  0.6946
11000TIP3   OH254414   3.468   6.641  15.236 -0.2385 -0.2039 -0.4324
11000TIP3    H154415   3.473   6.579  15.164  2.0317 -1.4604  0.6817
11000TIP3    H254416   3.498   6.724  15.198  1.1714 -0.9027 -0.9164
11001TIP3   OH254417   5.265   3.104   5.590 -0.1284  0.3327  0.1253
11001TIP3    H154418   5.339   3.147   5.547 -2.0527  2.1026 -1.6085
11001TIP3    H254419   5.270   3.133   5.681  0.9604  0.9090 -0.0998
11002TIP3   OH254420   3.393   3.008  12.811  0.0332  0.1733  0.2103
11002TIP3    H154421   3.389   2.991  12.717 -0.8261  0.0945  0.2528
11002TIP3    H254422   3.477   3.052  12.824  1.4728 -2.2464 -0.2012
11003TIP3   OH254423   1.538   0.758  14.733 -0.3200  0.0026 -0.6299
11003TIP3    H154424   1.480   0.732  14.661  0.7707 -0.5015 -1.3593
11003TIP3    H254425   1.624   0.766  14.692  0.1121  0.8401  0.4068
11004TIP3   OH254426   6.747   5.715  16.447 -0.2429  0.1412  0.3907
11004TIP3    H154427   6.762   5.625  16.416 -2.6741 -0.0604 -0.4516
11004TIP3    H254428   6.796   5.721  16.529  0.3130 -1.8251  0.2535
11005TIP3   OH254429   1.075   1.590  12.907 -0.3856  0.0465 -0.2212
11005TIP3    H154430   1.049   1.538  12.983  1.9801 -0.1351  0.5590
11005TIP3    H254431   1.139   1.652  12.941 -0.5443  1.1262 -1.7798
11006TIP3   OH254432   6.158   4.438   0.765  0.3562  0.4168  0.5757
11006TIP3    H154433   6.137   4.493   0.689 -0.9481 -1.5494 -0.5967
11006TIP3    H254434   6.206   4.364   0.729 -0.0024 -0.4036  1.7075
11007TIP3   OH254435   4.374   5.682  12.820  0.1170  0.0473 -1.2521
11007TIP3    H154436   4.306   5.660  12.883 -0.3129 -0.0061 -1.7286
11007TIP3    H254437   4.428   5.603  12.814  0.6590  0.3323 -0.3349
11008TIP3   OH254438   2.120   5.297   2.980 -0.1149  0.0887  0.3436
11008TIP3    H154439   2.142   5.222   3.035 -1.0572  0.3528  1.0944
11008TIP3    H254440   2.056   5.346   3.031 -1.6280 -0.0781 -1.3025
11009TIP3   OH254441   4.520   1.506  17.112  0.3322  0.5226 -0.0412
11009TIP3    H154442   4.472   1.440  17.062 -1.3774  0.2636  1.8396
11009TIP3    H254443   4.495   1.589  17.071 -0.2262  0.2423 -0.2853
11010TIP3   OH254444   5.995   3.398   0.070 -0.4330 -0.1815 -0.3845
11010TIP3    H154445   5.992   3.393   0.165  3.3609 -1.3415 -0.1838
11010TIP3    H254446   5.938   3.472   0.049 -2.1997 -0.5078  2.6306
11011TIP3   OH254447   2.746   5.499   2.100  0.1476  0.6349  0.1889
11011TIP3    H154448   2.690   5.455   2.036  0.8434  1.5403 -1.0988
11011TIP3    H254449   2.828   5.451   2.098 -0.7323 -1.1904  2.6628
11012TIP3   OH254450   3.955   0.703  12.026  0.1395 -0.2446 -0.8838
11012TIP3    H154451   3.923   0.613  12.029 -0.6820  0.0416 -0.7007
11012TIP3    H254452   3.908   0.742  11.951 -2.4696  1.0846  1.2683
11013TIP3   OH254453   1.998   6.268   3.604 -0.0724  0.1290 -0.6084
11013TIP3    H154454   1.963   6.284   3.517 -1.6885 -1.6242 -0.3487
11013TIP3    H254455   2.062   6.198   3.591 -1.4363 -1.2471 -0.2471
11014TIP3   OH254456   1.471   1.092  13.850 -0.2336  0.1364 -0.0565
11014TIP3    H154457   1.538   1.038  13.892 -0.0638  0.4491  0.0799
11014TIP3    H254458   1.396   1.088  13.910 -0.0688  0.4049  0.1648
11015TIP3   OH254459   1.130   5.373   2.354 -0.2802 -0.2143 -0.2024
11015TIP3    H154460   1.113   5.300   2.295 -1.2071  1.9144 -2.7903
11015TIP3    H254461   1.058   5.371   2.417 -0.5959 -1.2105 -0.5784
11016TIP3   OH254462   4.369   0.444   5.448  0.3648  0.2550 -0.0338
11016TIP3    H154463   4.409   0.394   5.519 -3.8242 -1.6235  1.3153
11016TIP3    H254464   4.327   0.518   5.492 -2.2650 -0.9182 -0.4176
11017TIP3   OH254465   5.997   5.100   4.952 -0.0777  0.0607  0.1025
11017TIP3    H154466   5.915   5.098   5.001  0.8947 -1.1034  1.7892
11017TIP3    H254467   6.058   5.145   5.010  1.1118 -1.3441 -0.0052
11018TIP3   OH254468   3.065   2.056  14.598 -0.6633 -0.0163  0.0869
11018TIP3    H154469   3.126   2.046  14.524 -1.5968  0.0522 -0.7071
11018TIP3    H254470   3.105   2.124  14.653  1.8498 -2.4082  1.5294
11019TIP3   OH254471   0.753   1.029   1.004  0.7926  0.0443 -0.0055
11019TIP3    H154472   0.686   1.004   1.067 -0.0549 -1.0137 -1.2815
11019TIP3    H254473   0.705   1.079   0.937  1.6880  1.2334  0.2028
11020TIP3   OH254474   4.624   1.482  13.016 -0.3305  0.3499 -0.2882
11020TIP3    H154475   4.624   1.469  12.922  1.8628  1.2126 -0.4766
11020TIP3    H254476   4.716   1.472  13.042 -1.0554 -1.2860  1.9982
11021TIP3   OH254477   2.172   1.931   3.589  0.1816 -0.4612  0.0226
11021TIP3    H154478   2.206   1.970   3.508 -1.9891 -1.0896 -1.2804
11021TIP3    H254479   2.198   1.839   3.583  0.9174 -0.2980  0.5829
11022TIP3   OH254480   3.564   5.536   1.509  0.3699 -1.1602 -0.0338
11022TIP3    H154481   3.471   5.558   1.502  0.9184  1.0473 -1.7893
11022TIP3    H254482   3.585   5.498   1.424  1.7085  1.5272 -1.0173
11023TIP3   OH254483   2.721   5.057  15.843 -0.8088 -0.4413  0.3190
11023TIP3    H154484   2.733   5.120  15.772  0.0553 -1.2682 -0.2969
11023TIP3    H254485   2.640   5.011  15.821 -0.0867 -1.3082 -0.6495
11024TIP3   OH254486   2.569   1.327  15.940 -0.3476 -0.0862 -0.3705
11024TIP3    H154487   2.631   1.305  15.871  1.9709 -2.3856  2.2148
11024TIP3    H254488   2.518   1.247  15.954  0.5219 -0.3507  1.7217
11025TIP3   OH254489   3.783   3.272  11.167  0.4254  0.2288 -0.7927
11025TIP3    H154490   3.841   3.233  11.102 -0.3242  2.9122 -3.2489
11025TIP3    H254491   3.768   3.361  11.136 -1.2533  1.1559  2.2770
11026TIP3   OH254492   5.913   5.198  15.662 -0.1328 -0.3856  0.6001
11026TIP3    H154493   5.955   5.204  15.748  1.8749 -1.0187 -0.2862
11026TIP3    H254494   5.982   5.169  15.603 -1.4043  0.2453 -1.2952
11027TIP3   OH254495   6.012   0.738   4.445 -0.1411 -0.2141 -0.7008
11027TIP3    H154496   6.063   0.806   4.489  0.4293 -0.6671 -0.6599
11027TIP3    H254497   6.068   0.709   4.373 -1.0061  0.4239 -1.6693
11028TIP3   OH254498   4.631   0.503   2.959 -0.3910 -0.5923  0.0926
11028TIP3    H154499   4.579   0.424   2.973 -0.4334 -0.6400 -0.3117
11028TIP3    H254500   4.694   0.503   3.031 -0.4211 -0.9715  0.1221
11029TIP3   OH254501   2.086   0.254   5.753 -0.1121 -0.4399 -1.0940
11029TIP3    H154502   2.171   0.298   5.749 -0.8332  1.0580 -0.6967
11029TIP3    H254503   2.086   0.195   5.678  0.0336  1.8872 -3.0376
11030TIP3   OH254504   6.035   2.364  16.517 -0.3081  0.8423  0.4927
11030TIP3    H154505   6.071   2.317  16.442  0.0510 -0.4312  1.4329
11030TIP3    H254506   6.082   2.448  16.517 -1.7573  1.7671 -1.8703
11031TIP3   OH254507   1.176   6.747   1.089  0.5417  0.8148 -0.0261
11031TIP3    H154508   1.139   6.795   1.015 -0.0579 -0.4641 -0.5721
11031TIP3    H254509   1.114   6.760   1.161 -0.3196 -0.2162 -0.5573
11032TIP3   OH254510   5.502   4.230   5.516  0.3416 -0.3007  0.5022
11032TIP3    H154511   5.472   4.313   5.553 -0.3837 -0.5894  0.5942
11032TIP3    H254512   5.433   4.167   5.541  1.0224 -0.9889  0.6876
11033TIP3   OH254513   2.501   5.259  14.996 -0.4001 -0.3897  1.3332
11033TIP3    H154514   2.487   5.169  14.967 -0.4678  0.2367 -0.7071
11033TIP3    H254515   2.590   5.259  15.030 -0.0936 -1.0611  0.5668
11034TIP3   OH254516   0.862   2.450  15.413 -0.1604 -0.0129 -0.1310
11034TIP3    H154517   0.808   2.443  15.492 -0.7442  0.0071 -0.5258
11034TIP3    H254518   0.930   2.384  15.425 -0.7479 -0.6068 -0.0026
11035TIP3   OH254519   6.479   4.609   1.246 -0.0270  0.2848 -0.3990
11035TIP3    H154520   6.540   4.574   1.182  0.6016 -0.1086  0.4063
11035TIP3    H254521   6.442   4.533   1.290  0.9917  0.5754  1.0307
11036TIP3   OH254522   4.780   0.787   1.685 -0.0205 -0.8251 -0.9514
11036TIP3    H154523   4.808   0.751   1.769 -1.2407 -1.0056 -0.5987
11036TIP3    H254524   4.746   0.711   1.637 -2.9686 -0.1888 -0.0555
11037TIP3   OH254525   2.703   0.763  14.142  0.4137 -0.4020  0.3712
11037TIP3    H154526   2.783   0.719  14.168 -0.3832 -1.3956  1.2543
11037TIP3    H254527   2.723   0.856  14.146  1.0478 -0.5901  2.1945
11038TIP3   OH254528   0.988   4.950   4.094  0.5896 -0.1613 -0.1873
11038TIP3    H154529   0.967   4.884   4.160 -0.2922 -0.9962 -1.2472
11038TIP3    H254530   0.946   4.917   4.014 -0.0534  1.7961 -0.7134
11039TIP3   OH254531   5.451   0.719  11.080  0.2569 -0.5342 -0.0557
11039TIP3    H154532   5.358   0.711  11.103 -0.1366  1.4108 -0.7577
11039TIP3    H254533   5.497   0.712  11.164 -0.6166 -0.4094  0.4386
11040TIP3   OH254534   0.087   6.558   1.818 -0.1116  0.3403 -0.0735
11040TIP3    H154535   0.179   6.565   1.843  0.1362  1.9028 -1.2729
11040TIP3    H254536   0.067   6.641   1.775 -1.8612 -0.2893 -0.5761
11041TIP3   OH254537   2.879   5.345  10.564  0.6496  0.0270  0.0353
11041TIP3    H154538   2.856   5.436  10.545  1.0275 -0.2723 -2.1242
11041TIP3    H254539   2.963   5.351  10.609  0.3849  0.7537  0.4587
11042TIP3   OH254540   2.188   5.963  17.027 -0.2896 -0.3964  0.0269
11042TIP3    H154541   2.180   6.050  17.066 -2.4239 -0.6010  0.1778
11042TIP3    H254542   2.239   5.912  17.090  0.8504  0.6755  0.0044
11043TIP3   OH254543   2.678   5.784   0.098 -0.7003 -0.0014 -0.1154
11043TIP3    H154544   2.697   5.702   0.052 -1.1583  0.6725 -1.5929
11043TIP3    H254545   2.601   5.765   0.152 -2.2123 -0.0197 -2.1467
11044TIP3   OH254546   1.044   4.726   3.281  0.3248  0.1844 -0.2891
11044TIP3    H154547   1.123   4.778   3.268  0.8613 -0.5749 -0.1049
11044TIP3    H254548   0.989   4.781   3.338  0.7193  0.7058 -0.3969
11045TIP3   OH254549   1.780   0.876   6.605  0.0687  0.7435 -0.0284
11045TIP3    H154550   1.752   0.963   6.632 -1.2017  0.3267  0.0338
11045TIP3    H254551   1.763   0.873   6.511 -3.4439 -0.6556  0.5001
11046TIP3   OH254552   3.846   6.238   4.505 -0.4419 -0.6615 -0.2902
11046TIP3    H154553   3.807   6.196   4.582  0.0544 -0.4078  0.1048
11046TIP3    H254554   3.772   6.266   4.452 -0.8559  1.1945  1.1735
11047TIP3   OH254555   1.279   3.642  15.988 -0.2486  0.2202  0.5717
11047TIP3    H154556   1.370   3.645  16.018 -0.0837 -0.2674  0.1235
11047TIP3    H254557   1.233   3.594  16.057  0.4820 -2.6235 -0.7730
11048TIP3   OH254558   3.147   4.206  11.185  0.5812 -0.9151 -0.0641
11048TIP3    H154559   3.189   4.135  11.137 -0.1700 -0.3269 -1.6424
11048TIP3    H254560   3.177   4.286  11.143 -0.2241 -0.3872  0.3291
11049TIP3   OH254561   5.256   4.164   0.393  0.1709 -0.2665  0.3228
11049TIP3    H154562   5.285   4.252   0.372 -1.7738  0.1752 -0.7321
11049TIP3    H254563   5.215   4.172   0.479  2.6210 -0.8171  1.6403
11050TIP3   OH254564   6.477   1.445   1.609  0.4915 -0.1123 -0.0073
11050TIP3    H154565   6.459   1.354   1.585 -1.7920  0.5430 -1.1454
11050TIP3    H254566   6.468   1.494   1.527 -1.4755  1.4722  1.0316
11051TIP3   OH254567   1.841   2.886  14.603 -0.5301 -0.3384 -0.4667
11051TIP3    H154568   1.930   2.917  14.586 -2.0304  4.8312 -0.3416
11051TIP3    H254569   1.824   2.909  14.694 -2.5220  0.4146 -0.9744
11052TIP3   OH254570   0.292   6.361  17.059 -0.3394  0.2706  0.1806
11052TIP3    H154571   0.384   6.354  17.036  1.0165 -0.8231  4.7936
11052TIP3    H254572   0.287   6.437  17.116 -1.8872 -0.6386  1.3431
11053TIP3   OH254573   0.098   0.022  13.954 -0.5147 -0.1364 -0.2317
11053TIP3    H154574   0.060   0.108  13.969 -0.3355  0.1416 -1.3007
11053TIP3    H254575   0.085  -0.025  14.036  0.0255  1.1497  0.6201
11054TIP3   OH254576   6.587   5.060  15.737 -0.3943 -0.3786 -0.4793
11054TIP3    H154577   6.678   5.087  15.721 -0.2376 -1.5632 -1.8590
11054TIP3    H254578   6.594   4.967  15.758 -1.3469 -0.7284 -1.6042
11055TIP3   OH254579   4.950   1.081   4.710 -0.7632 -0.0183  0.6322
11055TIP3    H154580   4.960   1.172   4.738 -1.6502  0.7373 -1.3060
11055TIP3    H254581   4.952   1.030   4.791  3.2455  1.3242  1.5825
11056TIP3   OH254582   0.229   3.125  13.423 -0.2859 -0.4067  0.1953
11056TIP3    H154583   0.305   3.067  13.426  0.3580  0.4553  1.3830
11056TIP3    H254584   0.163   3.081  13.477 -0.8384 -1.3601 -1.1696
11057TIP3   OH254585   5.365   4.459  10.760  0.1526  0.0618 -0.4272
11057TIP3    H154586   5.361   4.554  10.775 -1.5448 -0.1927  1.1632
11057TIP3    H254587   5.296   4.423  10.816  2.8602 -2.4418  1.6174
11058TIP3   OH254588   6.633   3.549   5.086 -0.2734 -0.5539  0.2531
11058TIP3    H154589   6.678   3.468   5.061  0.5523  0.4700 -1.7276
11058TIP3    H254590   6.557   3.554   5.028  0.0310  0.4083 -0.0750
11059TIP3   OH254591   5.685   5.513  15.033  0.4285 -0.0205 -0.4245
11059TIP3    H154592   5.614   5.496  15.094  1.3694 -0.1842  0.6621
11059TIP3    H254593   5.702   5.607  15.042  0.3243  0.0266 -0.7147
11060TIP3   OH254594   3.288   6.541  12.353  0.3196  0.0528  0.0812
11060TIP3    H154595   3.220   6.556  12.418 -0.0183  0.6677 -0.3980
11060TIP3    H254596   3.265   6.600  12.281 -0.1387 -1.6383 -1.2230
11061TIP3   OH254597   5.485   2.209  12.363  0.4700 -0.0807 -0.0269
11061TIP3    H154598   5.415   2.175  12.418  1.5423  0.6480  1.9004
11061TIP3    H254599   5.441   2.265  12.299 -0.8103 -0.7818  0.2182
11062TIP3   OH254600   0.593   3.101  12.053 -0.5446  0.2927  0.0692
11062TIP3    H154601   0.521   3.042  12.030  1.5675 -2.8320  0.8022
11062TIP3    H254602   0.560   3.152  12.126 -2.3703 -0.2278 -0.3428
11063TIP3   OH254603   2.539   5.464   5.468 -0.5624  0.8681 -0.2167
11063TIP3    H154604   2.533   5.518   5.546 -1.0365  0.4162  0.0609
11063TIP3    H254605   2.633   5.452   5.455 -0.4643  1.4492 -0.0702
11064TIP3   OH254606   3.795   2.345   5.651  0.2193  0.7619 -0.4236
11064TIP3    H154607   3.854   2.420   5.640 -1.1146  2.3185  2.0601
11064TIP3    H254608   3.853   2.270   5.658  1.8006  1.9563 -0.0072
11065TIP3   OH254609   3.083   2.002   0.539  0.8621 -0.2726 -0.2906
11065TIP3    H154610   2.998   1.978   0.578  1.6057 -0.9299  0.9894
11065TIP3    H254611   3.064   2.079   0.485 -0.3671  0.2016  0.7713
11066TIP3   OH254612   6.725   2.704   6.112  0.4248 -0.2634 -0.2852
11066TIP3    H154613   6.777   2.631   6.080  0.5802 -0.4690  0.4230
11066TIP3    H254614   6.697   2.678   6.200 -0.2071  0.1810 -0.3410
11067TIP3   OH254615   1.587   2.690   2.111 -0.1178 -0.2112  0.0376
11067TIP3    H154616   1.642   2.612   2.123  1.2361  0.6825 -0.0666
11067TIP3    H254617   1.604   2.717   2.020 -1.7353 -0.6380 -0.4109
11068TIP3   OH254618   2.297   1.411   2.477 -0.0317 -0.5530 -0.3932
11068TIP3    H154619   2.354   1.395   2.402 -0.7676  1.7399 -1.5308
11068TIP3    H254620   2.213   1.373   2.452  0.4723 -2.4668  0.6021
11069TIP3   OH254621   2.684   6.456  15.306 -0.3491  0.2749  0.0406
11069TIP3    H154622   2.663   6.415  15.223 -1.7085  2.1653 -0.6290
11069TIP3    H254623   2.779   6.470  15.303 -0.2200 -0.6774 -0.6844
11070TIP3   OH254624   1.278   1.789  13.019 -0.3542  0.5023 -0.2456
11070TIP3    H154625   1.257   1.830  13.103 -0.6284 -0.2875  0.0790
11070TIP3    H254626   1.360   1.830  12.992 -0.7650  1.4741 -0.0784
11071TIP3   OH254627   3.431   3.529  11.229 -0.3077 -0.4718 -0.5896
11071TIP3    H154628   3.459   3.440  11.209  0.2866 -0.2195 -0.8914
11071TIP3    H254629   3.360   3.518  11.293 -0.1424 -1.1516 -0.5177
11072TIP3   OH254630   1.225   0.355  11.292 -0.7231 -0.0733  0.2828
11072TIP3    H154631   1.162   0.409  11.244  1.3987  1.8907 -0.4956
11072TIP3    H254632   1.307   0.403  11.285  0.9558 -2.6354  1.0135
11073TIP3   OH254633   4.510   2.766  16.518 -0.1586 -0.2207 -0.2086
11073TIP3    H154634   4.447   2.836  16.501 -1.2989 -1.6911 -2.5747
11073TIP3    H254635   4.477   2.722  16.596 -0.4041  0.7491  0.2559
11074TIP3   OH254636   2.950   0.374   3.096  0.0864 -0.2107  0.9430
11074TIP3    H154637   2.887   0.441   3.069 -1.2494 -2.2232 -1.3737
11074TIP3    H254638   3.032   0.400   3.054 -0.4713 -0.0840 -0.1085
11075TIP3   OH254639   2.558   3.865   5.556  0.2782 -0.7073  0.1678
11075TIP3    H154640   2.641   3.851   5.512 -0.3868 -3.3625 -0.4351
11075TIP3    H254641   2.521   3.777   5.567 -1.7850  0.2529  1.7249
11076TIP3   OH254642   6.143   3.640   6.855  0.5317  0.5203 -0.4503
11076TIP3    H154643   6.214   3.695   6.824 -0.6078  1.1476 -2.0872
11076TIP3    H254644   6.176   3.551   6.850  1.5315  0.8736 -0.2202
11077TIP3   OH254645   3.820   3.502  15.546  0.5832 -0.1888 -0.3480
11077TIP3    H154646   3.838   3.522  15.637 -0.0665  1.1776 -0.5010
11077TIP3    H254647   3.777   3.416  15.548  0.7210 -0.2400  0.6023
11078TIP3   OH254648   5.810   5.924   4.773  0.0225 -0.1495 -0.7651
11078TIP3    H154649   5.895   5.880   4.780 -0.0662 -0.4630 -1.5933
11078TIP3    H254650   5.828   6.014   4.802  0.5516 -0.3071 -0.5820
11079TIP3   OH254651   1.791   2.452  11.886  0.1535  0.0721 -0.1146
11079TIP3    H154652   1.806   2.476  11.977  0.6175 -1.1727  0.1599
11079TIP3    H254653   1.701   2.479  11.869 -0.2810 -0.5796  1.0294
11080TIP3   OH254654   6.531   6.303  13.040  0.8418  0.1374 -0.3528
11080TIP3    H154655   6.541   6.382  13.094  0.2507 -0.7843  1.1723
11080TIP3    H254656   6.620   6.267  13.035  0.9381  0.3478 -0.1957
11081TIP3   OH254657   2.463   3.615   4.863 -0.1446 -0.2695 -0.2744
11081TIP3    H154658   2.385   3.659   4.896 -1.2783 -0.8806 -1.9888
11081TIP3    H254659   2.467   3.533   4.912 -1.4494 -0.8905 -1.1473
11082TIP3   OH254660   6.370   3.510   4.212 -0.6821 -0.2890 -0.1219
11082TIP3    H154661   6.291   3.548   4.173 -0.0074  1.4850  0.1473
11082TIP3    H254662   6.419   3.475   4.138 -1.4852 -0.9888 -0.3411
11083TIP3   OH254663   1.058   2.078   6.371  0.0717 -0.2778  0.1529
11083TIP3    H154664   1.071   1.994   6.415  0.5004  0.4618  1.5322
11083TIP3    H254665   1.007   2.057   6.293  2.3909 -2.1903 -1.0081
11084TIP3   OH254666   3.453   6.184  16.940  0.4104  0.1909  0.6529
11084TIP3    H154667   3.400   6.105  16.950 -0.9258  0.5216 -2.7026
11084TIP3    H254668   3.529   6.155  16.888 -0.2915  1.1162 -0.9478
11085TIP3   OH254669   2.723   0.122   3.491 -0.0686 -0.4585  0.4016
11085TIP3    H154670   2.629   0.116   3.507 -0.5415  0.6867 -1.5562
11085TIP3    H254671   2.742   0.046   3.435  0.0697 -0.4171  0.3925
11086TIP3   OH254672   0.229   2.635   4.395 -0.3191  0.2049  0.0667
11086TIP3    H154673   0.177   2.682   4.460 -0.1692  1.5572 -0.7442
11086TIP3    H254674   0.221   2.543   4.419 -0.4528  0.6462  1.8472
11087TIP3   OH254675   4.163   0.388  13.329 -0.3393 -0.5421 -0.6863
11087TIP3    H154676   4.238   0.332  13.351 -0.8060 -1.0044 -0.2515
11087TIP3    H254677   4.139   0.360  13.241  0.9260  0.6449 -1.4398
11088TIP3   OH254678   6.781   4.408   3.238  0.4622 -0.1210 -0.6045
11088TIP3    H154679   6.713   4.357   3.194  0.0199  2.6367 -3.4371
11088TIP3    H254680   6.736   4.483   3.275  1.6270  0.3559 -0.0901
11089TIP3   OH254681   1.015   2.269   2.571  0.0442 -0.0286 -0.0008
11089TIP3    H154682   0.964   2.338   2.529  0.4405  1.4390  1.7748
11089TIP3    H254683   0.952   2.221   2.624  0.1401  0.4349  0.5393
11090TIP3   OH254684   1.554   3.541  16.576 -0.2384  0.0630  0.3828
11090TIP3    H154685   1.628   3.594  16.546  0.5185 -1.6948 -1.0237
11090TIP3    H254686   1.478   3.597  16.563  0.5407  0.8753 -0.9291
11091TIP3   OH254687   3.778   4.467   4.196  0.1982  0.6913 -0.5180
11091TIP3    H154688   3.856   4.491   4.146  0.9957 -0.7496 -0.0326
11091TIP3    H254689   3.750   4.384   4.159  0.4935 -0.1525  1.0380
11092TIP3   OH254690   2.665   2.619   0.182 -0.3095  0.3404 -0.2587
11092TIP3    H154691   2.601   2.675   0.137 -0.4804  0.0712 -0.3557
11092TIP3    H254692   2.736   2.609   0.119 -1.8428 -2.4981 -1.7728
11093TIP3   OH254693   0.169   5.007  12.275  0.2856  0.0921  0.3459
11093TIP3    H154694   0.076   5.024  12.293  0.3842 -0.5230  1.6253
11093TIP3    H254695   0.215   5.081  12.313  0.3349  0.2698 -0.0594
11094TIP3   OH254696   6.156   0.399  16.006  0.5066 -0.6593  0.3907
11094TIP3    H154697   6.088   0.466  16.013  0.9027  0.0779 -1.9653
11094TIP3    H254698   6.151   0.351  16.089 -1.6887  0.4733  0.9908
11095TIP3   OH254699   5.711   2.657  13.551 -0.2183 -0.0581  0.1167
11095TIP3    H154700   5.700   2.716  13.626  0.0923 -0.5775  0.5798
11095TIP3    H254701   5.705   2.714  13.475 -0.4217  0.4983  0.5420
11096TIP3   OH254702   0.657   2.404  12.866 -0.5781  0.6075 -0.0532
11096TIP3    H154703   0.571   2.362  12.865  0.3664 -1.5007  0.9954
11096TIP3    H254704   0.708   2.354  12.802  0.5353  0.2283  1.1001
11097TIP3   OH254705   0.483   3.465   1.204  0.3722  0.1093  0.1388
11097TIP3    H154706   0.412   3.529   1.201 -1.5507 -1.8881  0.1036
11097TIP3    H254707   0.534   3.482   1.124 -0.5769  1.0526 -0.2958
11098TIP3   OH254708   4.659   1.010  14.411 -0.0968 -0.4600 -0.7234
11098TIP3    H154709   4.748   0.997  14.378  0.8632  1.0770  1.0814
11098TIP3    H254710   4.671   1.055  14.494 -2.6365  1.0681 -1.1028
11099TIP3   OH254711   3.284   6.261  12.528  0.4428  0.5731 -0.3953
11099TIP3    H154712   3.266   6.263  12.433  2.9665 -1.0434 -0.9766
11099TIP3    H254713   3.220   6.199  12.563  1.7633 -1.5944 -1.6601
11100TIP3   OH254714   2.255   3.644  15.921  0.1992 -0.8114  0.3977
11100TIP3    H154715   2.278   3.722  15.971  0.8567 -0.5365 -0.3033
11100TIP3    H254716   2.219   3.678  15.839  1.0923 -1.2223 -0.1863
11101TIP3   OH254717   0.693   1.712   0.214 -0.2402 -0.1537  0.5240
11101TIP3    H154718   0.678   1.806   0.218  1.5859  0.1600  1.7606
11101TIP3    H254719   0.611   1.672   0.245 -1.6752  0.8977 -1.7257
11102TIP3   OH254720   5.483   0.757   4.531 -0.5925 -0.4960 -0.1562
11102TIP3    H154721   5.459   0.707   4.609 -0.1964  1.4718  1.3110
11102TIP3    H254722   5.578   0.769   4.538 -0.7216  0.7147 -0.2942
11103TIP3   OH254723   6.506   6.157   0.021 -0.4271 -0.4251  0.0713
11103TIP3    H154724   6.500   6.147  -0.074  0.6401  0.3944 -0.1018
11103TIP3    H254725   6.416   6.156   0.051 -0.7432 -1.7845 -0.8263
11104TIP3   OH254726   6.627   1.545   2.742  0.0246 -0.5872 -0.5081
11104TIP3    H154727   6.594   1.455   2.734  1.3296 -1.2987  1.3232
11104TIP3    H254728   6.574   1.596   2.681  0.0760 -2.8072 -2.5587
11105TIP3   OH254729   3.728   2.296   1.338 -0.3718  1.4001  0.0200
11105TIP3    H154730   3.713   2.364   1.272 -1.7746  0.6050 -0.5268
11105TIP3    H254731   3.782   2.339   1.405  0.0715  2.5788 -1.0509
11106TIP3   OH254732   0.066   0.141  10.930 -0.4481  0.1053  0.3639
11106TIP3    H154733  -0.022   0.104  10.933 -0.2263 -0.3927  1.1571
11106TIP3    H254734   0.085   0.150  10.837 -1.2013 -0.1130  0.1813
11107TIP3   OH254735   5.317   4.814   0.518 -0.1353 -0.3200  0.3591
11107TIP3    H154736   5.234   4.852   0.547  0.8263 -0.2931  3.2977
11107TIP3    H254737   5.330   4.738   0.574  1.1155 -1.2422 -1.1051
11108TIP3   OH254738   5.083   2.193   5.959 -0.3619 -0.0168  0.1043
11108TIP3    H154739   5.026   2.162   5.888  1.2037 -1.4692 -0.5974
11108TIP3    H254740   5.113   2.279   5.930  0.1348 -0.5237 -0.9653
11109TIP3   OH254741   3.840   2.398  17.099 -0.8655 -0.1910 -0.1228
11109TIP3    H154742   3.863   2.473  17.045 -0.4097 -0.4457 -0.2927
11109TIP3    H254743   3.896   2.404  17.176  1.6060 -2.1078 -1.6319
11110TIP3   OH254744   3.385   4.219  17.111  0.0584 -0.2933 -0.5808
11110TIP3    H154745   3.480   4.210  17.118  0.0401  0.0392  0.3145
11110TIP3    H254746   3.354   4.133  17.084  0.4623 -0.9420  0.9161
11111TIP3   OH254747   4.200   3.155   5.246  0.2816 -0.6938 -0.2813
11111TIP3    H154748   4.184   3.248   5.261 -0.0315 -0.2100 -2.9957
11111TIP3    H254749   4.225   3.120   5.331 -0.4846  1.6753  0.9991
11112TIP3   OH254750   1.805   3.210   5.237  0.1135 -0.4385 -0.7026
11112TIP3    H154751   1.848   3.287   5.275 -0.6043  0.1880 -1.1275
11112TIP3    H254752   1.868   3.174   5.175  0.0560  0.4522 -1.2978
11113TIP3   OH254753   2.565   3.193   0.428  0.1496 -0.1399  0.2727
11113TIP3    H154754   2.618   3.119   0.456  0.5095 -1.5620 -3.5174
11113TIP3    H254755   2.481   3.153   0.402 -0.3040  1.0623 -0.1539
11114TIP3   OH254756   4.974   2.244   0.215  0.4944 -0.0977  0.1276
11114TIP3    H154757   5.041   2.294   0.261 -0.1313 -0.6561  1.7111
11114TIP3    H254758   4.893   2.293   0.230  0.2350 -0.4273 -0.1604
11115TIP3   OH254759   6.076   4.847   3.603 -0.0683  0.3414  0.2099
11115TIP3    H154760   6.028   4.914   3.555  0.5978  0.0305 -0.9207
11115TIP3    H254761   6.153   4.893   3.636 -0.3017  0.4494  0.6081
11116TIP3   OH254762   3.296   3.915  10.814 -0.0238  0.0515  0.0399
11116TIP3    H154763   3.263   3.838  10.767 -0.5999 -0.0720  0.6354
11116TIP3    H254764   3.341   3.966  10.747 -0.8082 -0.1390 -0.6550
11117TIP3   OH254765   1.201   2.038   5.081 -0.0156  0.0986 -0.2175
11117TIP3    H154766   1.236   1.972   5.141 -1.3711 -1.3837 -0.9941
11117TIP3    H254767   1.139   2.088   5.134 -0.6354 -0.7072 -0.1656
11118TIP3   OH254768   5.238   4.349  15.363 -0.3878  0.3257  0.7756
11118TIP3    H154769   5.199   4.366  15.449 -1.9098 -0.2865  0.2316
11118TIP3    H254770   5.245   4.435  15.322  0.6978  0.6738  1.6263
11119TIP3   OH254771   2.473   1.773   1.560  0.1740 -0.2740 -0.8196
11119TIP3    H154772   2.546   1.823   1.523  1.8063 -0.2205  2.1029
11119TIP3    H254773   2.499   1.682   1.548 -0.5345 -0.3375 -1.9893
11120TIP3   OH254774   0.567   3.004  13.843  0.2136  0.7039 -0.2340
11120TIP3    H154775   0.492   2.950  13.818 -0.1778  0.8808  0.5404
11120TIP3    H254776   0.619   2.948  13.900 -1.0515  1.6445  1.9510
11121TIP3   OH254777   0.422   5.052  17.058 -0.7048  0.1983  0.1876
11121TIP3    H154778   0.391   4.975  17.010 -0.4184  0.1698  0.0496
11121TIP3    H254779   0.384   5.127  17.011  0.2251  0.2113 -0.5734
11122TIP3   OH254780   4.148   5.811   3.471  0.2883  0.1673 -0.3803
11122TIP3    H154781   4.192   5.733   3.435 -0.8593 -0.3928 -0.6202
11122TIP3    H254782   4.079   5.830   3.408 -0.4988  0.3784  0.5278
11123TIP3   OH254783   0.375   1.413  15.062 -0.3319 -0.0344 -0.5475
11123TIP3    H154784   0.407   1.361  14.989 -1.1653 -0.6625 -0.4671
11123TIP3    H254785   0.385   1.357  15.139 -0.4279  0.2381 -0.3313
11124TIP3   OH254786   1.130   5.046  15.568  0.1075 -0.2041  0.0096
11124TIP3    H154787   1.069   5.119  15.562  0.0639 -0.1672  0.8160
11124TIP3    H254788   1.079   4.970  15.539 -0.7716 -0.4139  1.9566
11125TIP3   OH254789   1.427   3.340   4.675  0.6005 -0.2630 -0.2079
11125TIP3    H154790   1.372   3.283   4.728  0.8229  0.1038  0.4433
11125TIP3    H254791   1.400   3.325   4.585 -0.8343  0.1997  0.1264
11126TIP3   OH254792   0.335   0.195  11.091  0.0106  0.3933 -0.2169
11126TIP3    H154793   0.260   0.148  11.053 -0.3135  1.6307 -1.1688
11126TIP3    H254794   0.307   0.218  11.179 -0.5219  0.3752 -0.3780
11127TIP3   OH254795   5.992   1.192   3.305  0.1277  0.0124  0.2815
11127TIP3    H154796   5.979   1.247   3.382 -1.0483  0.1564  0.0122
11127TIP3    H254797   6.042   1.246   3.244 -0.2342  0.4494  0.3710
11128TIP3   OH254798   4.228   4.651  15.220 -0.5495 -0.5046 -0.0494
11128TIP3    H154799   4.239   4.620  15.130 -0.4881 -0.6297  0.0020
11128TIP3    H254800   4.206   4.744  15.210  0.1280 -0.3497 -0.1776
11129TIP3   OH254801   4.107   2.731   2.119 -0.0115 -0.0479 -1.0989
11129TIP3    H154802   4.052   2.750   2.195 -0.0893  0.2474 -1.2254
11129TIP3    H254803   4.123   2.637   2.124 -0.9896 -0.2388 -1.3660
11130TIP3   OH254804   5.571   4.741  16.644 -0.6768 -0.3124 -0.6073
11130TIP3    H154805   5.571   4.676  16.574  3.1355  0.4979 -1.5438
11130TIP3    H254806   5.627   4.703  16.712 -0.1386  1.0604 -0.2464
11131TIP3   OH254807   3.758   3.870   0.148  0.5539 -0.3577  0.2346
11131TIP3    H154808   3.712   3.851   0.067  0.5277  1.0359 -0.1073
11131TIP3    H254809   3.846   3.894   0.121  0.5012  0.2725  0.5969
11132TIP3   OH254810   4.616   4.479  14.011 -0.2432  0.1832  0.0910
11132TIP3    H154811   4.689   4.494  14.070  0.5638 -0.4584 -0.7148
11132TIP3    H254812   4.595   4.566  13.977  0.7721  0.2596 -0.3752
11133TIP3   OH254813   3.917   6.484  13.433  0.1418 -0.2945 -0.0750
11133TIP3    H154814   3.941   6.518  13.520 -0.7108 -0.2579  0.1534
11133TIP3    H254815   3.852   6.546  13.400  1.0650  0.1568 -1.1122
11134TIP3   OH254816   1.791   6.461   2.221 -0.1640  0.4694 -0.0678
11134TIP3    H154817   1.833   6.547   2.228  0.2578  0.3055 -0.5393
11134TIP3    H254818   1.851   6.409   2.168 -1.5425  0.6367 -1.9108
11135TIP3   OH254819   5.255   6.742  17.131  0.3714  0.3977  0.3805
11135TIP3    H154820   5.195   6.699  17.192  0.6361  1.1325  1.1864
11135TIP3    H254821   5.267   6.830  17.167  0.3246  0.9467 -0.8932
11136TIP3   OH254822   3.128   0.995  11.435 -0.2795  0.4096 -0.2967
11136TIP3    H154823   3.212   1.036  11.456 -0.5581  1.3044 -0.8918
11136TIP3    H254824   3.101   1.035  11.352 -0.2375 -1.4728 -1.2801
11137TIP3   OH254825   2.198   5.117   3.808  0.2720  0.2452 -0.6024
11137TIP3    H154826   2.226   5.167   3.731  3.1140 -0.6421 -0.2488
11137TIP3    H254827   2.228   5.170   3.882  0.2783 -0.3617 -0.1662
11138TIP3   OH254828   5.470   3.487  13.833  0.2199 -0.0106  0.1970
11138TIP3    H154829   5.452   3.397  13.805  2.2839 -1.0553  1.8532
11138TIP3    H254830   5.395   3.538  13.804 -3.1746 -3.0276  2.8476
11139TIP3   OH254831   2.936   0.957  11.619  0.2629  0.7945  0.2693
11139TIP3    H154832   2.991   0.933  11.544 -0.5257  1.4002 -0.5250
11139TIP3    H254833   2.856   0.907  11.605  0.4344  0.2427  1.1925
11140TIP3   OH254834   5.695   4.112   3.040  0.3741  0.1212 -0.6264
11140TIP3    H154835   5.606   4.078   3.050  0.9982 -1.9877 -1.7937
11140TIP3    H254836   5.709   4.166   3.118 -1.1325 -1.3096  0.6939
11141TIP3   OH254837   0.346   0.070   3.436  1.0133  0.1604  0.0289
11141TIP3    H154838   0.414   0.030   3.382  0.7572  0.1409 -0.2773
11141TIP3    H254839   0.276   0.091   3.375 -0.5151 -2.4515  0.7171
11142TIP3   OH254840   0.542   0.712   2.188  0.1058 -0.1486  0.0717
11142TIP3    H154841   0.458   0.718   2.143 -1.0581 -1.3837  1.9499
11142TIP3    H254842   0.593   0.650   2.136 -0.5331 -0.1787 -0.5269
11143TIP3   OH254843   4.171   1.544  13.184 -0.3810 -0.4803  0.5402
11143TIP3    H154844   4.140   1.468  13.234  0.0200 -1.3490 -0.4860
11143TIP3    H254845   4.266   1.533  13.180 -0.4547 -0.8615 -1.0286
11144TIP3   OH254846   4.723   5.462   3.051 -0.4989 -0.0685 -0.8914
11144TIP3    H154847   4.665   5.420   3.115  1.6855 -1.0035  0.6126
11144TIP3    H254848   4.759   5.538   3.098  1.7431 -1.2120 -0.6102
11145TIP3   OH254849   0.819   4.291   5.672 -0.7539 -1.0747 -0.1225
11145TIP3    H154850   0.771   4.307   5.590 -1.5194  1.9457  0.7586
11145TIP3    H254851   0.911   4.288   5.646 -0.9382  0.4490 -1.0984
11146TIP3   OH254852   3.129   0.994  11.091 -0.8247 -0.5576  0.2531
11146TIP3    H154853   3.068   1.059  11.057  0.9610  0.5414 -1.0328
11146TIP3    H254854   3.216   1.030  11.071  0.3763 -1.0250  3.8428
11147TIP3   OH254855   6.418   2.119  12.840 -0.8983  0.1990  0.4815
11147TIP3    H154856   6.469   2.189  12.882  0.6326 -1.4077  1.4182
11147TIP3    H254857   6.373   2.163  12.767 -0.1813  2.1887  1.1653
11148TIP3   OH254858   1.718   3.323   2.466 -0.7439  0.2770  0.9412
11148TIP3    H154859   1.797   3.374   2.482 -0.1706 -0.9134  2.0754
11148TIP3    H254860   1.671   3.323   2.549 -1.2996 -0.0841  0.6367
11149TIP3   OH254861   3.467   4.919   2.659  0.3536  0.2858  0.6526
11149TIP3    H154862   3.417   4.933   2.579  0.8668  0.6648  0.3876
11149TIP3    H254863   3.452   4.827   2.681 -0.4784  0.4085  0.6008
11150TIP3   OH254864   2.750   4.693  15.380  0.0133  0.3472 -0.4925
11150TIP3    H154865   2.773   4.747  15.455  3.3214  0.3608 -1.3939
11150TIP3    H254866   2.794   4.733  15.306 -0.3476 -1.5997 -1.8372
11151TIP3   OH254867   2.140   6.714  11.915  0.7802  0.0706  0.0151
11151TIP3    H154868   2.130   6.707  11.820  3.4178  2.9754 -0.6157
11151TIP3    H254869   2.156   6.624  11.944 -1.4239 -1.0905 -2.0062
11152TIP3   OH254870   4.428   4.231   5.062  0.0014  0.6804 -0.2539
11152TIP3    H154871   4.371   4.303   5.088 -1.6537 -0.7196  0.2201
11152TIP3    H254872   4.399   4.157   5.115  1.1550 -0.5290 -1.2181
11153TIP3   OH254873   6.417   1.804   0.912  0.3370 -0.5047 -0.0277
11153TIP3    H154874   6.460   1.755   0.842  0.7179 -2.0756  1.2567
11153TIP3    H254875   6.330   1.824   0.877  1.1667  0.4397 -1.6639
11154TIP3   OH254876   2.963   5.919  14.849 -0.3235  0.1380 -0.3891
11154TIP3    H154877   2.980   5.826  14.837 -0.2751  0.1191 -0.1880
11154TIP3    H254878   3.047   5.961  14.831  0.5954 -0.1300  2.6813
11155TIP3   OH254879   6.635   0.526  15.008 -1.0730  0.3565 -0.2694
11155TIP3    H154880   6.638   0.453  15.071  0.1745  0.5696 -0.0741
11155TIP3    H254881   6.621   0.483  14.923 -0.0862 -0.1484 -0.1912
11156TIP3   OH254882   2.872   0.539  12.147  0.1834 -0.2393  0.0782
11156TIP3    H154883   2.838   0.617  12.103  0.6596  0.3957  0.8161
11156TIP3    H254884   2.818   0.468  12.114 -0.1921  0.3865 -0.6886
11157TIP3   OH254885   4.705   3.644   3.086 -0.0989  0.0294  0.9089
11157TIP3    H154886   4.738   3.732   3.102 -1.8908  0.8813  0.2029
11157TIP3    H254887   4.728   3.595   3.165  1.2159  1.0197  1.1727
11158TIP3   OH254888   4.254   5.850  11.580  0.0502 -0.5785 -0.0189
11158TIP3    H154889   4.281   5.779  11.521  1.7390  0.5121 -0.6273
11158TIP3    H254890   4.185   5.811  11.634  1.8610 -3.1500  0.6567
11159TIP3   OH254891   5.094   0.969   1.148  0.1158  0.2826  0.6729
11159TIP3    H154892   5.016   0.958   1.094  0.0442  0.5079  0.7296
11159TIP3    H254893   5.063   0.960   1.238  0.3494 -0.7700  0.6539
11160TIP3   OH254894   3.279   6.442  13.538 -0.6031  0.2006 -0.0022
11160TIP3    H154895   3.184   6.448  13.524 -0.6953  1.3027  0.9642
11160TIP3    H254896   3.304   6.360  13.495 -1.9042  0.1578 -0.7353
11161TIP3   OH254897   3.719   2.355   4.692 -0.0807 -0.3448 -0.1119
11161TIP3    H154898   3.757   2.442   4.686  0.5140 -0.5746  0.2708
11161TIP3    H254899   3.632   2.370   4.731  0.0946  0.0545  0.1302
11162TIP3   OH254900   3.567   6.128  13.018  0.5669  0.3593 -0.2032
11162TIP3    H154901   3.511   6.200  13.047  1.2925  0.5393  0.8103
11162TIP3    H254902   3.649   6.170  12.993  0.2625  0.1051 -1.7194
11163TIP3   OH254903   4.587   6.723  13.627 -0.0080  0.3587  1.1690
11163TIP3    H154904   4.522   6.653  13.623  0.1051  0.3168 -0.3975
11163TIP3    H254905   4.648   6.694  13.695 -0.1608 -0.8961  0.7958
11164TIP3   OH254906   0.227   4.577  15.317 -0.1088 -0.5590 -0.1356
11164TIP3    H154907   0.210   4.571  15.410  3.2986 -0.0735  0.6592
11164TIP3    H254908   0.202   4.491  15.282 -2.8949 -0.2289  0.8241
11165TIP3   OH254909   4.773   2.272  16.393 -0.2874  0.0604 -0.0330
11165TIP3    H154910   4.758   2.208  16.462 -0.0506  0.8722  0.7936
11165TIP3    H254911   4.840   2.331  16.429 -0.6037  0.8538 -0.7144
11166TIP3   OH254912   3.694   5.377  15.689  0.3886  0.2177  0.3984
11166TIP3    H154913   3.618   5.332  15.651  0.8766  0.5933 -1.0721
11166TIP3    H254914   3.675   5.379  15.783 -1.7845  0.9199  0.0193
11167TIP3   OH254915   4.926   1.247   1.747  0.1799 -0.0083  0.3238
11167TIP3    H154916   5.015   1.231   1.713  0.2928 -0.0481  0.6332
11167TIP3    H254917   4.869   1.194   1.691  0.0499  1.8586 -1.4847
11168TIP3   OH254918   2.487   0.250   2.742  0.2548 -0.2115 -0.0322
11168TIP3    H154919   2.452   0.284   2.659 -0.5714  1.8288  1.0712
11168TIP3    H254920   2.581   0.237   2.724 -0.2407 -1.7926 -1.8316
11169TIP3   OH254921   3.442   6.498   2.898 -0.6096 -0.6763  0.3659
11169TIP3    H154922   3.398   6.574   2.936 -1.2550 -1.7012  1.8036
11169TIP3    H254923   3.534   6.508   2.923 -0.3722  0.4325 -0.8707
11170TIP3   OH254924   0.198   4.492   5.593 -0.2109 -0.2353  0.2477
11170TIP3    H154925   0.199   4.443   5.511  1.7052 -1.7435  1.0981
11170TIP3    H254926   0.173   4.428   5.660  0.5542  0.3468  1.1289
11171TIP3   OH254927   3.684   5.592  12.273 -0.5460 -0.3649 -0.1420
11171TIP3    H154928   3.672   5.666  12.332  1.4900 -0.8480  0.9705
11171TIP3    H254929   3.653   5.516  12.321 -1.5206 -0.4140 -0.8217
11172TIP3   OH254930   1.830   2.651  11.324 -0.0827  0.3349 -0.4766
11172TIP3    H154931   1.889   2.691  11.259 -0.4895  0.9705 -0.4662
11172TIP3    H254932   1.771   2.597  11.272  1.0260 -0.9842 -0.4095
11173TIP3   OH254933   6.446   6.542   2.684  0.4055  0.3922  0.3089
11173TIP3    H154934   6.419   6.564   2.595  0.4398 -0.4742  0.0798
11173TIP3    H254935   6.526   6.593   2.698  1.3733 -0.7481 -0.7919
11174TIP3   OH254936   1.127   1.576   5.121 -0.0771  0.6771  0.2228
11174TIP3    H154937   1.051   1.573   5.178 -1.0472  0.1863 -1.0540
11174TIP3    H254938   1.094   1.611   5.038  0.1141 -3.0863 -1.6739
11175TIP3   OH254939   6.097   6.792  14.326  0.3329  0.3194 -0.5527
11175TIP3    H154940   6.183   6.835  14.332 -0.0069  0.8504  0.7615
11175TIP3    H254941   6.034   6.864  14.328 -0.1933 -0.1460  0.1131
11176TIP3   OH254942   2.774   2.538   4.809  0.0434  0.4076 -0.1206
11176TIP3    H154943   2.793   2.525   4.716 -0.1587 -0.7640 -0.0151
11176TIP3    H254944   2.798   2.455   4.850  1.9079  1.5112  1.1815
11177TIP3   OH254945   2.107   2.137  16.674 -0.1254 -0.1269  0.1777
11177TIP3    H154946   2.172   2.067  16.666  0.9162  0.6511  1.4318
11177TIP3    H254947   2.023   2.095  16.656  0.4510 -1.7559  1.1647
11178TIP3   OH254948   1.160   0.130  16.591 -0.5312  0.1329 -0.5534
11178TIP3    H154949   1.086   0.178  16.555  0.1510  0.6039 -1.3494
11178TIP3    H254950   1.222   0.197  16.618 -0.3093 -0.2600 -0.0700
11179TIP3   OH254951   4.919   5.260   0.207  0.8081 -0.1153 -0.5038
11179TIP3    H154952   4.927   5.313   0.128  0.4286 -2.0195 -1.8876
11179TIP3    H254953   4.995   5.283   0.259 -0.8338  4.0339  0.4764
11180TIP3   OH254954   1.734   4.220   1.041 -0.0652  0.7820  0.1841
11180TIP3    H154955   1.753   4.129   1.062  0.3909  0.7431 -0.3705
11180TIP3    H254956   1.763   4.230   0.950 -0.3140  1.4191  0.1704
11181TIP3   OH254957   4.105   2.900  11.868 -0.1717  0.4491  0.3515
11181TIP3    H154958   4.189   2.940  11.847 -0.4022 -0.3122 -2.3852
11181TIP3    H254959   4.049   2.921  11.793 -1.5973 -1.3119  0.8552
11182TIP3   OH254960   3.845   1.629   2.491  0.2499 -0.8953 -0.3760
11182TIP3    H154961   3.759   1.626   2.532  0.8760  0.7504  1.1774
11182TIP3    H254962   3.870   1.537   2.480 -0.6373 -1.3929  1.4852
11183TIP3   OH254963   6.685   5.261  16.990  0.3516  0.2550 -0.4152
11183TIP3    H154964   6.590   5.254  16.979  0.2057  0.6975  0.4828
11183TIP3    H254965   6.711   5.177  17.027  0.0233  0.8246  1.1461
11184TIP3   OH254966   0.551   6.511   1.765  0.1135  0.0935 -0.3831
11184TIP3    H154967   0.593   6.427   1.784  2.6943  2.0825  4.4199
11184TIP3    H254968   0.623   6.569   1.740 -0.7920  1.8674  0.8439
11185TIP3   OH254969   2.740   2.393  15.452  0.4351  0.0273 -0.3450
11185TIP3    H154970   2.741   2.298  15.442 -1.7187 -0.2821  1.4641
11185TIP3    H254971   2.676   2.424  15.388  1.4834  0.3437 -1.2626
11186TIP3   OH254972   6.418   3.558  17.096 -0.3812 -0.1397  0.1051
11186TIP3    H154973   6.417   3.502  17.019 -2.1042 -0.7231  0.4983
11186TIP3    H254974   6.361   3.632  17.074  0.1755  0.3771  0.3545
11187TIP3   OH254975   0.719   5.611  13.371 -0.3006  0.2815  0.0001
11187TIP3    H154976   0.648   5.675  13.378  0.3667  0.9082  1.4151
11187TIP3    H254977   0.675   5.526  13.370 -1.0757  0.6469  1.1500
11188TIP3   OH254978   0.650   0.542  12.035  0.0451  0.1435  0.0404
11188TIP3    H154979   0.560   0.540  12.002  0.1024 -1.1704 -0.1211
11188TIP3    H254980   0.640   0.556  12.129 -0.1636  2.9222 -0.3059
11189TIP3   OH254981   0.152   4.288   5.762  0.2597  0.0713  0.3544
11189TIP3    H154982   0.195   4.217   5.714  0.5907  0.6540 -0.2357
11189TIP3    H254983   0.214   4.312   5.831  0.3165  0.0429  0.3133
11190TIP3   OH254984   4.777   3.540   2.329 -0.0484 -0.1958 -0.8014
11190TIP3    H154985   4.789   3.609   2.394 -1.2206 -0.4629 -0.2766
11190TIP3    H254986   4.746   3.586   2.251 -3.3921 -0.2835  0.3099
11191TIP3   OH254987   1.916   5.994   2.039 -0.2462  0.4012 -0.4436
11191TIP3    H154988   1.987   5.987   2.103  0.5889  1.2312 -1.2469
11191TIP3    H254989   1.938   5.928   1.973 -0.0649  0.8287 -0.8198
11192TIP3   OH254990   6.219   2.721  16.266 -0.1188 -0.7355 -0.0271
11192TIP3    H154991   6.243   2.814  16.261  0.9128 -1.0312 -1.5608
11192TIP3    H254992   6.277   2.685  16.333 -0.5017 -0.2976  0.5534
11193TIP3   OH254993   5.813   4.836  12.872 -0.4027  0.4649 -0.2325
11193TIP3    H154994   5.740   4.783  12.842 -0.5009 -0.5330  1.6622
11193TIP3    H254995   5.804   4.839  12.967  1.8338  0.5799  0.0399
11194TIP3   OH254996   1.773   0.949  12.062 -0.2937 -0.2723  0.3103
11194TIP3    H154997   1.849   0.891  12.054  0.3597  0.7849 -2.3982
11194TIP3    H254998   1.702   0.899  12.023 -0.8131 -0.8697  1.9402
11195TIP3   OH254999   1.353   0.345  16.603 -0.5120  0.3423  0.6463
11195TIP3    H155000   1.361   0.397  16.683 -0.1506  0.4175  0.5618
11195TIP3    H255001   1.409   0.269  16.618  0.0277  0.6512  0.2313
11196TIP3   OH255002   4.063   3.322  14.184  0.2106 -0.5154  0.1260
11196TIP3    H155003   3.991   3.280  14.231  0.8147 -0.4897  1.1089
11196TIP3    H255004   4.140   3.305  14.238  0.8295  0.0502 -0.5506
11197TIP3   OH255005   0.505   6.097   4.792 -0.3325  0.0187 -0.4762
11197TIP3    H155006   0.437   6.034   4.816  0.6804 -0.9163  0.0578
11197TIP3    H255007   0.488   6.173   4.847 -1.1280 -0.0825 -0.5731
11198TIP3   OH255008   5.548   0.960   1.584  0.6281  0.0938  0.0514
11198TIP3    H155009   5.459   0.933   1.559  0.4521 -0.8181  1.5573
11198TIP3    H255010   5.604   0.906   1.528  0.2543  0.1961 -0.4411
11199TIP3   OH255011   3.463   2.805  15.856 -0.0495 -0.0892 -0.0530
11199TIP3    H155012   3.548   2.832  15.822  0.6034 -0.6537  1.0574
11199TIP3    H255013   3.444   2.722  15.811 -0.6402  0.6708 -1.2465
11200TIP3   OH255014   4.708   5.103   2.461 -0.1956 -0.0963  0.0860
11200TIP3    H155015   4.765   5.087   2.536  1.8208  1.4646 -0.9923
11200TIP3    H255016   4.721   5.027   2.404  2.1261  0.9070 -0.8421
11201TIP3   OH255017   6.323   2.662  12.894 -0.1599 -0.8907 -0.1476
11201TIP3    H155018   6.262   2.588  12.893 -1.4556  0.1124 -1.2467
11201TIP3    H255019   6.268   2.738  12.871  1.6728 -0.0643 -2.1456
11202TIP3   OH255020   2.242   3.390  15.674 -0.0919 -0.6600  0.4858
11202TIP3    H155021   2.187   3.466  15.655 -0.2814 -1.1732 -1.2453
11202TIP3    H255022   2.202   3.319  15.623  0.0797 -1.9397  2.0500
11203TIP3   OH255023   5.254   2.318  14.006  0.3823 -0.6103  0.0917
11203TIP3    H155024   5.195   2.305  14.080 -0.1960  0.9621 -0.0612
11203TIP3    H255025   5.200   2.302  13.929 -0.1850  1.7674 -0.0803
11204TIP3   OH255026   3.182   1.736  13.577 -0.0433  0.0340 -0.1120
11204TIP3    H155027   3.204   1.808  13.636 -0.5379  0.2130 -0.1431
11204TIP3    H255028   3.087   1.740  13.568  0.0958  0.8108 -1.8869
11205TIP3   OH255029   5.065   6.369  11.466 -0.0373 -0.2326 -0.1770
11205TIP3    H155030   5.159   6.383  11.457 -0.2994  1.3278 -0.8500
11205TIP3    H255031   5.051   6.279  11.437  1.4065 -0.9763  1.2752
11206TIP3   OH255032   0.248   1.447   0.860  0.4620 -0.0887 -0.1651
11206TIP3    H155033   0.338   1.478   0.872  0.9158 -1.0806 -0.8839
11206TIP3    H255034   0.212   1.446   0.948  0.5934  1.8918 -0.0269
11207TIP3   OH255035   6.401   6.081  12.451  0.1389  0.5454 -0.2434
11207TIP3    H155036   6.443   6.058  12.368  2.1952  0.4529  0.7442
11207TIP3    H255037   6.373   5.998  12.488  0.3355  0.4492 -0.3080
11208TIP3   OH255038   1.081   3.827  15.206  0.5576  0.1780 -0.2723
11208TIP3    H155039   1.173   3.802  15.198  0.8906  0.8541  1.1016
11208TIP3    H255040   1.082   3.922  15.215 -0.1864  0.1058  0.7859
11209TIP3   OH255041   4.510   4.690  16.899  0.6411  0.2055 -0.3176
11209TIP3    H155042   4.591   4.644  16.920 -0.2849 -1.3352  0.0267
11209TIP3    H255043   4.487   4.737  16.979 -0.4391 -1.9266  0.7140
11210TIP3   OH255044   4.774   2.536  16.822 -0.5696  0.1918  0.4156
11210TIP3    H155045   4.774   2.610  16.883 -2.6673  1.1276 -0.6013
11210TIP3    H255046   4.686   2.501  16.826  0.8694 -3.7472  2.4146
11211TIP3   OH255047   1.343   2.930  12.261  0.4772 -0.6012  0.3912
11211TIP3    H155048   1.264   2.901  12.214  0.4255  0.6080 -0.3030
11211TIP3    H255049   1.310   2.965  12.344  0.2995 -0.2990  0.1957
11212TIP3   OH255050   6.119   2.790  15.763 -0.0270  0.0957 -0.3003
11212TIP3    H155051   6.144   2.782  15.855  0.0303 -1.9643 -0.4505
11212TIP3    H255052   6.064   2.714  15.747  1.1902 -0.4003 -2.3645
11213TIP3   OH255053   2.723   1.760   3.099  0.7501 -0.1996  0.6602
11213TIP3    H155054   2.732   1.674   3.139 -1.4438 -1.5175 -1.4081
11213TIP3    H255055   2.779   1.757   3.021  0.4845  0.1280  0.4485
11214TIP3   OH255056   1.725   2.474   2.113  0.8329  0.2510  0.6074
11214TIP3    H155057   1.820   2.490   2.108  0.7007  0.7406 -1.3033
11214TIP3    H255058   1.697   2.471   2.021 -0.8865 -0.6941  1.1254
11215TIP3   OH255059   2.378   1.530   3.778 -0.8172  0.3288 -0.4020
11215TIP3    H155060   2.398   1.436   3.778 -1.1427  0.2089  1.3542
11215TIP3    H255061   2.399   1.558   3.867 -0.8372  1.9056 -0.8704
11216TIP3   OH255062   4.632   2.842  12.996 -0.1824 -0.5774 -0.0014
11216TIP3    H155063   4.656   2.916  12.941  0.9174 -1.5840 -0.9468
11216TIP3    H255064   4.714   2.795  13.010 -0.7325 -1.2540  1.1470
11217TIP3   OH255065   0.433   0.385  12.234 -0.5667 -0.5692  0.0649
11217TIP3    H155066   0.411   0.293  12.242  0.0049 -1.0933 -3.1037
11217TIP3    H255067   0.369   0.420  12.172  1.4421  0.1792 -1.7119
11218TIP3   OH255068   1.049   4.295  14.226  0.1673 -0.3023  0.8420
11218TIP3    H155069   0.995   4.342  14.162  0.1798 -1.5819 -0.1606
11218TIP3    H255070   1.002   4.303  14.309 -2.1786 -2.2091 -0.1677
11219TIP3   OH255071   4.621   0.418  12.589  0.3972  0.1529  0.5091
11219TIP3    H155072   4.578   0.378  12.665 -1.5456  2.8964  0.9738
11219TIP3    H255073   4.640   0.508  12.617  4.3512 -0.1353 -0.5620
11220TIP3   OH255074   3.687   0.754   3.885  0.1393  0.1990  0.6362
11220TIP3    H155075   3.739   0.834   3.879  1.3838 -0.6678 -0.9189
11220TIP3    H255076   3.626   0.760   3.811 -0.5300  0.1936  1.1728
11221TIP3   OH255077   5.083   1.218   3.936  0.0102  0.3927  0.1687
11221TIP3    H155078   5.119   1.286   3.880  0.1502  0.9076  0.8667
11221TIP3    H255079   5.040   1.157   3.876  2.3215 -0.4545 -0.7278
11222TIP3   OH255080   0.516   6.532  13.302  0.3101  0.3709  0.2842
11222TIP3    H155081   0.564   6.520  13.220 -1.5344 -1.7357 -0.5684
11222TIP3    H255082   0.565   6.481  13.366 -0.0292 -0.7114 -0.2912
11223TIP3   OH255083   1.722   4.038  10.865 -0.5956  0.0838  0.0113
11223TIP3    H155084   1.663   4.009  10.934 -1.2412  1.2471 -0.0180
11223TIP3    H255085   1.716   3.969  10.798  1.4465 -1.9976  1.8146
11224TIP3   OH255086   1.493   3.370  15.607  0.2704  0.5892  0.0377
11224TIP3    H155087   1.451   3.429  15.670  1.7615  0.4131  1.2497
11224TIP3    H255088   1.506   3.423  15.529  2.3441  2.2100  1.3703
11225TIP3   OH255089   3.804   3.582  12.356  0.2019 -0.2137 -0.9985
11225TIP3    H155090   3.789   3.566  12.449  0.4776  0.6983 -0.7860
11225TIP3    H255091   3.887   3.538  12.338  1.7405  2.0989 -0.0598
11226TIP3   OH255092   5.084   2.318  12.967  0.0900  0.0328  0.2446
11226TIP3    H155093   5.126   2.248  13.017 -1.8638 -0.9521  0.6037
11226TIP3    H255094   5.044   2.374  13.033 -3.2573 -1.7481 -0.0555
11227TIP3   OH255095   1.316   6.382   0.153 -0.3554 -0.0670 -0.3717
11227TIP3    H155096   1.243   6.384   0.215  2.3848  0.2563  3.1800
11227TIP3    H255097   1.372   6.455   0.180  1.7389 -0.8415 -2.3193
11228TIP3   OH255098   2.407   6.106  16.081 -0.1376  0.0197  0.8032
11228TIP3    H155099   2.312   6.109  16.071 -0.0440  0.8874  0.0449
11228TIP3    H255100   2.422   6.031  16.139 -1.0170 -3.1642 -2.6329
11229TIP3   OH255101   4.241   2.409  16.676 -0.3644  0.3645 -0.1607
11229TIP3    H155102   4.155   2.437  16.643 -0.6339 -0.8749 -0.5473
11229TIP3    H255103   4.221   2.334  16.731  0.2761  1.2936  1.4081
11230TIP3   OH255104   3.808   6.454  13.749  0.2404 -0.0638  0.7058
11230TIP3    H155105   3.875   6.521  13.763  1.7136 -1.6250  1.5041
11230TIP3    H255106   3.775   6.471  13.661  0.1687  2.0046  1.0752
11231TIP3   OH255107   1.557   3.005  15.972 -0.1720  0.1886 -0.0049
11231TIP3    H155108   1.619   3.076  15.993 -0.8337  0.9005 -0.4111
11231TIP3    H255109   1.524   3.027  15.885 -2.2524  0.7590  0.8734
11232TIP3   OH255110   1.389   0.169  12.461 -0.6570 -0.2608  0.0909
11232TIP3    H155111   1.319   0.165  12.526  1.0126  2.5416  2.2183
11232TIP3    H255112   1.367   0.245  12.407 -0.1629 -0.4425 -0.3757
11233TIP3   OH255113   3.754   1.174  15.744 -0.5641 -0.2159  0.5359
11233TIP3    H155114   3.695   1.169  15.819 -0.6006  3.3747  0.9096
11233TIP3    H255115   3.706   1.224  15.678  0.2606 -1.5208 -1.1504
11234TIP3   OH255116   0.465   5.503  13.868 -0.1578  0.3584 -0.2138
11234TIP3    H155117   0.512   5.453  13.801  0.2490  0.3918  0.0448
11234TIP3    H255118   0.526   5.571  13.895  0.8124 -1.3606  2.2332
11235TIP3   OH255119   0.768   5.637   3.852 -0.6395  0.1041  0.4855
11235TIP3    H155120   0.721   5.687   3.785 -0.4037  0.1670  0.3665
11235TIP3    H255121   0.700   5.606   3.911 -0.7950  0.5476  0.5473
11236TIP3   OH255122   1.487   1.051   3.441 -0.7736 -0.3336 -0.1165
11236TIP3    H155123   1.515   1.143   3.442  2.3558 -1.1920  0.1505
11236TIP3    H255124   1.503   1.020   3.530  0.2352 -1.6575 -0.7334
11237TIP3   OH255125   0.665   5.361   4.239 -0.0347 -0.1850 -0.2429
11237TIP3    H155126   0.750   5.403   4.247  1.1840 -2.7470  1.8828
11237TIP3    H255127   0.656   5.310   4.320 -2.0401 -2.6830 -1.8784
11238TIP3   OH255128   4.716   2.123  11.134 -0.4548 -0.3908 -0.5066
11238TIP3    H155129   4.765   2.175  11.199 -1.4621 -0.7399  0.5557
11238TIP3    H255130   4.692   2.043  11.180 -1.7332 -0.3745 -1.1116
11239TIP3   OH255131   5.543   0.004   2.063 -0.4933  0.6261 -0.3237
11239TIP3    H155132   5.485   0.017   1.988  1.0174  0.4919 -1.5636
11239TIP3    H255133   5.620  -0.040   2.026 -0.9911 -2.3589  1.8385
11240TIP3   OH255134   3.973   2.650   2.805  0.5197 -0.3550 -0.0564
11240TIP3    H155135   3.948   2.561   2.779  0.7833 -0.9181  1.4747
11240TIP3    H255136   4.064   2.658   2.778  0.4656 -0.5098 -0.2877
11241TIP3   OH255137   2.163   3.672  13.543 -0.2600  0.1001  0.0005
11241TIP3    H155138   2.100   3.724  13.493 -0.8481  0.1946  0.8253
11241TIP3    H255139   2.248   3.706  13.516 -0.6252  1.5520  0.5510
11242TIP3   OH255140   3.793   5.260   3.180  0.6011 -0.5287  0.2880
11242TIP3    H155141   3.784   5.166   3.195 -0.5274 -0.3179  1.0680
11242TIP3    H255142   3.703   5.291   3.165  1.0628  0.2729 -0.9720
11243TIP3   OH255143   6.515   1.482   3.230 -0.4501 -0.0905  0.1042
11243TIP3    H155144   6.423   1.496   3.208 -0.1849 -0.5467 -1.4787
11243TIP3    H255145   6.549   1.569   3.248 -0.4968  0.5299 -2.4195
11244TIP3   OH255146   0.419   0.933  13.017 -0.2650  0.4676  0.0267
11244TIP3    H155147   0.374   0.935  13.101 -0.4592  0.4683 -0.0774
11244TIP3    H255148   0.375   0.864  12.967  0.6681 -0.4102  0.3844
11245TIP3   OH255149   6.055   6.325  13.289 -0.1328 -0.4842  0.3488
11245TIP3    H155150   6.078   6.345  13.199 -1.8205 -2.9005 -0.7195
11245TIP3    H255151   6.012   6.404  13.321  0.2304  0.3006 -1.0237
11246TIP3   OH255152   4.083   5.345   0.559 -0.1686 -0.2496  1.0220
11246TIP3    H155153   4.166   5.318   0.520 -0.0770  2.2678 -0.8020
11246TIP3    H255154   4.108   5.394   0.637 -0.0090 -0.5100  1.1348
11247TIP3   OH255155   1.106   1.678  15.113  0.4063  0.1048  0.7417
11247TIP3    H155156   1.162   1.664  15.188  1.0544  1.9798  0.6556
11247TIP3    H255157   1.160   1.726  15.051  0.6235 -3.1475 -1.9218
11248TIP3   OH255158   4.978   0.991  13.314  0.7266  0.1425 -0.0004
11248TIP3    H155159   4.959   1.039  13.234  1.7526  0.1199 -0.2739
11248TIP3    H255160   4.910   1.018  13.376 -0.1256  0.0996 -0.8966
11249TIP3   OH255161   3.087   4.924   4.688  0.1269 -0.4900 -0.1030
11249TIP3    H155162   3.145   4.966   4.752 -0.2284  1.4925 -0.9802
11249TIP3    H255163   3.140   4.918   4.608 -0.8422  1.4917 -0.9599
11250TIP3   OH255164   4.842   3.304  14.685  1.2312  1.0088  0.4952
11250TIP3    H155165   4.770   3.341  14.634  0.3131  1.1702  1.8307
11250TIP3    H255166   4.800   3.235  14.737  2.6325 -0.9658 -0.8836
11251TIP3   OH255167   0.891   6.327   1.770 -0.0542 -0.6516  0.3644
11251TIP3    H155168   0.847   6.348   1.852 -0.9925 -0.8420 -0.0751
11251TIP3    H255169   0.821   6.296   1.712  0.5701 -0.4131 -0.5475
11252TIP3   OH255170   1.248   3.751   1.657  0.2457 -0.0386 -0.3604
11252TIP3    H155171   1.342   3.744   1.641  0.3828 -0.7067  0.5945
11252TIP3    H255172   1.217   3.660   1.655 -0.1917  0.0895  0.2836
11253TIP3   OH255173   5.841   4.154   4.872  0.2699 -0.1269 -0.0782
11253TIP3    H155174   5.896   4.093   4.824 -1.3015 -2.0058  0.3593
11253TIP3    H255175   5.869   4.145   4.963 -1.5439 -2.1911  0.3823
11254TIP3   OH255176   0.503   4.593  16.053 -0.1781 -0.3094  0.2833
11254TIP3    H155177   0.428   4.641  16.020 -0.9892 -0.9311  1.1356
11254TIP3    H255178   0.555   4.658  16.100  0.0108  0.1933 -0.6066
11255TIP3   OH255179   3.975   6.601  13.079  0.2611  0.2527 -0.2246
11255TIP3    H155180   3.954   6.620  12.988 -0.2409 -0.4520 -0.2676
11255TIP3    H255181   3.906   6.645  13.129 -0.5825 -0.9421 -0.2962
11256TIP3   OH255182   4.754   1.792  11.617  0.2059  0.8751  0.0460
11256TIP3    H155183   4.680   1.749  11.574  0.5137  1.9560 -1.6548
11256TIP3    H255184   4.759   1.751  11.703 -0.4172 -1.3995 -0.9457
11257TIP3   OH255185   2.176   6.660  15.544 -0.2939 -0.0950  0.1854
11257TIP3    H155186   2.259   6.625  15.576  0.0388 -0.3422 -0.9321
11257TIP3    H255187   2.198   6.748  15.514 -1.3016  1.6241  3.8747
11258TIP3   OH255188   1.791   0.615  15.888 -0.4415  0.4738  0.7418
11258TIP3    H155189   1.834   0.552  15.947 -1.0187 -0.6349 -0.0075
11258TIP3    H255190   1.864   0.665  15.850  0.1516 -0.8340  0.1125
11259TIP3   OH255191   1.594   0.919  12.289  0.0781  1.1779 -0.5104
11259TIP3    H155192   1.643   0.848  12.330 -0.8527  0.5970 -0.3599
11259TIP3    H255193   1.654   0.956  12.225 -0.0092 -1.0280 -2.0049
11260TIP3   OH255194   6.361   0.172   2.974  0.0967 -0.1249 -0.5096
11260TIP3    H155195   6.306   0.108   2.929 -1.1860  1.1992 -0.9044
11260TIP3    H255196   6.430   0.193   2.912 -0.8911  0.6801 -1.3705
11261TIP3   OH255197   4.502   0.559   1.694 -0.1760  0.2275 -0.3900
11261TIP3    H155198   4.528   0.623   1.628  0.3567 -0.7294 -1.1290
11261TIP3    H255199   4.407   0.571   1.701 -0.1015  1.0286 -0.5763
11262TIP3   OH255200   1.570   4.859  12.382 -0.3121 -0.3735 -0.4272
11262TIP3    H155201   1.541   4.770  12.364 -1.6008 -0.6192  2.3871
11262TIP3    H255202   1.489   4.909  12.392  0.3916  0.8533 -0.6929
11263TIP3   OH255203   4.790   2.470   3.972 -0.3989  0.8206  0.1427
11263TIP3    H155204   4.768   2.561   3.994 -0.4786  1.4691 -2.3220
11263TIP3    H255205   4.879   2.475   3.936  0.2857 -0.3925  1.5476
11264TIP3   OH255206   6.322   2.697  15.247  0.1400  0.2091  0.0340
11264TIP3    H155207   6.247   2.641  15.225 -0.1927 -0.4970  2.5999
11264TIP3    H255208   6.369   2.709  15.165 -2.1817 -0.2377 -1.4451
11265TIP3   OH255209   3.066   2.472   4.730 -0.2884  0.2318  0.0500
11265TIP3    H155210   3.153   2.484   4.692 -0.4474 -0.9180 -0.7234
11265TIP3    H255211   3.052   2.551   4.783  1.2793  0.3732  0.3156
11266TIP3   OH255212   1.595   3.098  14.670  0.3418  0.0467 -0.3657
11266TIP3    H155213   1.514   3.120  14.717  0.5897 -0.3635  0.2683
11266TIP3    H255214   1.619   3.179  14.626 -0.5718  0.0977 -0.8100
11267TIP3   OH255215   4.780   6.446  13.934  0.1933 -0.2321  0.4243
11267TIP3    H155216   4.864   6.402  13.945  0.8048  1.3854  3.1111
11267TIP3    H255217   4.801   6.525  13.883  0.0119 -0.5736 -0.1848
11268TIP3   OH255218   4.864   4.584   5.208 -0.4423 -0.1346 -0.5763
11268TIP3    H155219   4.924   4.525   5.162 -1.0255  0.1648 -1.7553
11268TIP3    H255220   4.919   4.659   5.232  0.3937 -1.2567  1.2619
11269TIP3   OH255221   3.852   5.398   0.777 -0.2345 -0.2968  0.0727
11269TIP3    H155222   3.927   5.372   0.830 -0.4211  0.9299  0.9671
11269TIP3    H255223   3.802   5.317   0.765  0.4019 -0.8081  0.8142
11270TIP3   OH255224   6.742   0.471   2.021 -0.3936  0.2316  0.7155
11270TIP3    H155225   6.742   0.483   1.926  0.4791 -1.2928  0.4933
11270TIP3    H255226   6.658   0.507   2.049 -0.7950  0.4461 -0.6677
11271TIP3   OH255227   4.450   1.600   6.275 -0.2213 -0.1809  0.0216
11271TIP3    H155228   4.543   1.611   6.297 -0.5231  2.4974  0.3493
11271TIP3    H255229   4.414   1.550   6.348  0.8313 -0.6451  0.2397
11272TIP3   OH255230   0.920   4.655  14.293  0.2374  0.1694  0.0608
11272TIP3    H155231   0.957   4.715  14.358  0.0892  1.2859 -0.8671
11272TIP3    H255232   0.889   4.711  14.222  0.7501 -1.0401 -1.1753
11273TIP3   OH255233   3.038   2.368   3.589 -0.3242  0.2621 -0.0256
11273TIP3    H155234   3.013   2.354   3.680 -3.3868  0.7110 -0.6985
11273TIP3    H255235   3.047   2.280   3.552 -2.4221  0.0141 -0.0492
11274TIP3   OH255236   2.823   4.877  12.234 -0.0379  0.1239  0.7043
11274TIP3    H155237   2.837   4.964  12.273  0.6815  1.1940 -1.7421
11274TIP3    H255238   2.728   4.871  12.225 -0.0679  0.9622  0.3192
11275TIP3   OH255239   4.369   2.302  14.831 -0.1271  0.7352 -0.2956
11275TIP3    H155240   4.397   2.213  14.852 -1.8363 -0.1581 -1.5597
11275TIP3    H255241   4.382   2.310  14.737 -1.1748  1.3570 -0.4055
11276TIP3   OH255242   2.721   1.342   1.600  0.1826 -0.0005  0.0962
11276TIP3    H155243   2.633   1.365   1.573  0.2596 -0.5930 -0.6971
11276TIP3    H255244   2.711   1.303   1.687 -0.5787 -1.8059 -0.7699
11277TIP3   OH255245   0.253   0.070   0.884 -0.0649 -0.4446 -0.0342
11277TIP3    H155246   0.179   0.009   0.885 -0.5336  0.0298 -1.7991
11277TIP3    H255247   0.270   0.089   0.976 -3.3607  0.8469  0.4363
11278TIP3   OH255248   4.488   1.234  13.739  0.0833 -0.4028 -0.0679
11278TIP3    H155249   4.579   1.225  13.768 -0.4730 -2.6643  1.2001
11278TIP3    H255250   4.475   1.164  13.676 -0.4749  0.6851 -1.2084
11279TIP3   OH255251   2.733   5.407  15.289 -0.5535 -0.1495  0.0086
11279TIP3    H155252   2.813   5.396  15.342 -0.5934  1.6753  0.5044
11279TIP3    H255253   2.763   5.398  15.199 -0.1485 -1.4201  0.2460
11280TIP3   OH255254   1.001   5.605  12.859  0.3964 -0.0847 -0.1119
11280TIP3    H155255   0.955   5.530  12.821  1.6535 -0.5253 -0.8072
11280TIP3    H255256   1.066   5.567  12.918  0.9261  0.4629 -0.3340
11281TIP3   OH255257   4.255   4.671  12.554 -0.2840  0.3757  0.6510
11281TIP3    H155258   4.290   4.756  12.528  1.7175 -0.4193  0.5879
11281TIP3    H255259   4.242   4.624  12.472  0.2044  0.0464  0.7554
11282TIP3   OH255260   5.250   2.734  11.498  0.1564 -0.3035 -0.3260
11282TIP3    H155261   5.309   2.776  11.435 -0.0283 -1.1565 -1.0909
11282TIP3    H255262   5.305   2.671  11.545 -0.1251 -1.1147 -1.0538
11283TIP3   OH255263   6.440   1.020  11.920  0.0534 -0.0378 -0.0311
11283TIP3    H155264   6.371   0.970  11.965 -0.0185  1.2829  1.4183
11283TIP3    H255265   6.497   1.050  11.991  1.5369 -0.2069 -1.1141
11284TIP3   OH255266   2.434   2.668   5.772  0.2253  0.3050  0.8229
11284TIP3    H155267   2.496   2.701   5.706  0.1130  1.2436  1.1728
11284TIP3    H255268   2.348   2.680   5.731  0.1940  0.3045  0.8890
11285TIP3   OH255269   1.054   6.137  15.131  0.3708  0.3858  0.3989
11285TIP3    H155270   1.055   6.225  15.093  1.2077 -0.4524 -1.6949
11285TIP3    H255271   0.972   6.133  15.179  0.6113  2.5085  1.0937
11286TIP3   OH255272   6.278   6.268   2.658  0.2713 -0.3457 -0.9183
11286TIP3    H155273   6.351   6.207   2.670 -0.2384 -1.1756 -1.8713
11286TIP3    H255274   6.303   6.346   2.708  0.6447 -1.5672  0.8781
11287TIP3   OH255275   5.673   0.739  15.796 -0.5436 -0.2295  0.2415
11287TIP3    H155276   5.659   0.747  15.891 -0.3888 -0.3667  0.2767
11287TIP3    H255277   5.674   0.830  15.765 -2.0413 -0.2055  0.1525
11288TIP3   OH255278   1.427   1.521  13.031 -0.3552  0.5744 -0.1248
11288TIP3    H155279   1.519   1.542  13.012  0.2878 -0.0871  2.0176
11288TIP3    H255280   1.377   1.579  12.973  1.4043  1.4218 -0.8662
11289TIP3   OH255281   3.994   5.820   1.501  0.2467 -0.1990 -0.8427
11289TIP3    H155282   4.051   5.767   1.556 -0.6072 -1.0645 -0.7675
11289TIP3    H255283   4.015   5.794   1.412 -0.1577 -0.6481 -0.8066
11290TIP3   OH255284   3.519   2.486  16.689 -0.3588  0.3511  0.5403
11290TIP3    H155285   3.584   2.524  16.749 -0.8868  2.3875 -0.0827
11290TIP3    H255286   3.444   2.466  16.744 -0.0132  0.0872  0.9158
11291TIP3   OH255287   0.358   1.773  11.196  0.1564  0.2477  0.4014
11291TIP3    H155288   0.286   1.820  11.154 -0.1897 -0.1400  0.5514
11291TIP3    H255289   0.423   1.763  11.127 -0.0100  0.4429  0.2140
11292TIP3   OH255290   0.769   4.109   4.515  0.4432  0.0484 -0.4764
11292TIP3    H155291   0.822   4.186   4.538 -0.4528  0.1302  1.6032
11292TIP3    H255292   0.778   4.100   4.421  1.2214  2.2350 -0.6637
11293TIP3   OH255293   3.621   2.186  16.200 -0.3284 -0.4559 -0.2077
11293TIP3    H155294   3.687   2.252  16.221 -0.8847 -0.2308  0.9632
11293TIP3    H255295   3.590   2.155  16.286 -1.9397 -0.3298 -0.6990
11294TIP3   OH255296   3.789   4.858   0.344 -0.2008 -0.4254  0.5955
11294TIP3    H155297   3.772   4.774   0.301  0.2854 -0.5015  0.5413
11294TIP3    H255298   3.804   4.836   0.436 -2.1498 -0.1671  1.0265
11295TIP3   OH255299   0.718   1.855   1.922 -0.4024 -0.4831 -0.2332
11295TIP3    H155300   0.708   1.862   2.017 -1.5061  0.5030 -0.4001
11295TIP3    H255301   0.801   1.899   1.903  0.4328 -1.7345  0.3742
11296TIP3   OH255302   1.847   4.097  11.349 -0.4693 -0.6491 -0.2288
11296TIP3    H155303   1.933   4.130  11.375 -0.2575 -0.8795 -0.6143
11296TIP3    H255304   1.801   4.080  11.431 -0.2170 -0.3382 -0.0247
11297TIP3   OH255305   4.934   5.079  11.803 -0.0784  0.2401 -0.6646
11297TIP3    H155306   4.868   5.146  11.819 -0.2998  0.1500 -1.1648
11297TIP3    H255307   5.017   5.126  11.809 -0.2516  0.7061 -1.6109
11298TIP3   OH255308   5.853   6.198  13.149  0.0316  0.2081  0.4920
11298TIP3    H155309   5.917   6.228  13.214  0.6036 -0.2673  0.1587
11298TIP3    H255310   5.906   6.176  13.072 -0.8873  4.3434 -1.5952
11299TIP3   OH255311   0.257   2.456  15.668  0.4014 -0.2214  0.1133
11299TIP3    H155312   0.269   2.362  15.679  0.2748 -0.3371 -0.6476
11299TIP3    H255313   0.165   2.466  15.646  0.1800  0.1869  1.1789
11300TIP3   OH255314   4.619   1.271  15.570  0.3727 -0.1049 -0.1934
11300TIP3    H155315   4.667   1.315  15.640  0.8381  1.3339 -1.3602
11300TIP3    H255316   4.652   1.182  15.571  0.8641  0.0693  0.9717
11301TIP3   OH255317   3.821   5.109   5.013 -0.5235  0.3738 -0.6084
11301TIP3    H155318   3.729   5.134   5.017  0.0344  2.4933  0.4702
11301TIP3    H255319   3.848   5.101   5.105  0.5384  0.5270 -0.8929
11302TIP3   OH255320   4.819   5.106  11.476 -0.3128 -0.4616 -0.3141
11302TIP3    H155321   4.816   5.136  11.567 -2.2058 -0.3316 -0.3812
11302TIP3    H255322   4.762   5.167  11.429 -0.0776 -1.0709 -1.4210
11303TIP3   OH255323   1.426   5.002  14.105  0.4195 -0.4790  0.3723
11303TIP3    H155324   1.469   5.057  14.040 -0.3302  0.5294  0.6973
11303TIP3    H255325   1.350   4.966  14.060  1.9922 -3.0231 -0.4978
11304TIP3   OH255326   1.906   6.648  12.211  0.1922 -0.8260  0.2326
11304TIP3    H155327   1.975   6.713  12.220  0.4588 -0.8697 -1.2471
11304TIP3    H255328   1.841   6.689  12.154 -0.3620 -1.2900  0.5156
11305TIP3   OH255329   6.563   1.401   0.038 -0.0334 -0.4591 -0.0291
11305TIP3    H155330   6.504   1.463   0.081 -0.4422 -1.2277  0.5249
11305TIP3    H255331   6.510   1.323   0.024  0.5515 -0.7805 -0.4960
11306TIP3   OH255332   5.177   4.320  13.937 -0.5137 -0.2566  0.5587
11306TIP3    H155333   5.221   4.393  13.893 -0.2655 -0.9991 -0.4549
11306TIP3    H255334   5.091   4.315  13.894  0.3493 -2.0706 -1.1445
11307TIP3   OH255335   6.164   4.322  13.035  0.1492  0.4721 -0.4010
11307TIP3    H155336   6.176   4.408  13.073  2.6549  0.3994 -0.8384
11307TIP3    H255337   6.179   4.261  13.107 -2.4243  0.3360  0.1023
11308TIP3   OH255338   4.063   2.432   5.887  0.6071  0.5911 -0.0682
11308TIP3    H155339   4.101   2.487   5.956 -0.1344  1.2272 -0.1565
11308TIP3    H255340   4.000   2.376   5.932 -0.2202  1.3291 -0.2703
11309TIP3   OH255341   2.754   5.822   2.097 -0.0150 -0.2547  0.0892
11309TIP3    H155342   2.816   5.752   2.074  0.1361 -0.1698  0.2393
11309TIP3    H255343   2.670   5.792   2.060 -0.2414 -1.1350  1.2304
11310TIP3   OH255344   0.196   3.159   0.107  0.4781  0.3707 -0.0193
11310TIP3    H155345   0.197   3.066   0.085 -2.2094  0.2884 -0.1510
11310TIP3    H255346   0.280   3.192   0.077  1.9778 -2.1941  0.9904
11311TIP3   OH255347   2.044   0.856   4.808 -0.4676 -0.1827  0.6804
11311TIP3    H155348   2.008   0.781   4.760  0.9590  0.1742 -1.0195
11311TIP3    H255349   1.967   0.901   4.843 -1.5764 -0.5115 -1.2128
11312TIP3   OH255350   1.685   4.078   2.107  0.3714  0.0514  0.3392
11312TIP3    H155351   1.624   4.040   2.170  0.3050  1.2081  1.0002
11312TIP3    H255352   1.675   4.025   2.028 -1.6123  0.3271  0.3692
11313TIP3   OH255353   5.036   5.549   3.372  0.1821 -0.0742 -0.1092
11313TIP3    H155354   5.127   5.549   3.341 -0.1238 -0.3750 -1.0589
11313TIP3    H255355   5.043   5.560   3.467  1.1491  1.6160 -0.3262
11314TIP3   OH255356   3.020   1.206  14.514 -0.7191 -0.4090 -0.0867
11314TIP3    H155357   3.062   1.284  14.551  0.7279 -0.3539 -1.7235
11314TIP3    H255358   2.960   1.176  14.583 -1.4477  2.2121  0.5172
11315TIP3   OH255359   4.598   5.604   4.272 -0.2067 -0.5613  1.0634
11315TIP3    H155360   4.604   5.557   4.355  1.5153  0.0924  1.3565
11315TIP3    H255361   4.526   5.562   4.225  0.2041 -2.3886  1.9807
11316TIP3   OH255362   0.489   1.228  12.251 -0.0158 -0.1504  0.2643
11316TIP3    H155363   0.583   1.235  12.271 -0.0187 -0.1536  0.2785
11316TIP3    H255364   0.486   1.211  12.157  0.0228 -0.8940  0.3901
11317TIP3   OH255365   6.574   6.119   6.143  0.1143  0.0259 -0.3409
11317TIP3    H155366   6.600   6.206   6.113 -0.3986  0.0457 -0.7403
11317TIP3    H255367   6.517   6.136   6.219  0.9837 -0.0077  0.3375
11318TIP3   OH255368   3.650   6.519   2.200 -0.6946  0.1601  0.1001
11318TIP3    H155369   3.651   6.425   2.181 -0.5440  0.1377  0.2122
11318TIP3    H255370   3.657   6.524   2.295  0.4713  0.3026  0.0250
11319TIP3   OH255371   5.488   1.071  13.590 -0.0025 -0.2993 -0.0765
11319TIP3    H155372   5.431   1.146  13.571 -0.8252 -0.8175  0.3155
11319TIP3    H255373   5.561   1.081  13.529 -0.2495  0.6549 -0.2420
11320TIP3   OH255374   2.605   3.342   1.439 -0.1650 -0.5413  0.5496
11320TIP3    H155375   2.653   3.370   1.361 -2.5098 -0.3021 -0.8770
11320TIP3    H255376   2.661   3.369   1.512  1.4405  0.5209 -0.9953
11321TIP3   OH255377   1.828   3.223   3.525  0.6085  0.1430 -0.1703
11321TIP3    H155378   1.877   3.149   3.488 -0.2712 -0.9509  0.7459
11321TIP3    H255379   1.747   3.183   3.557 -0.1490  1.6282 -0.1801
11322TIP3   OH255380   2.599   1.478   0.992  0.2415  0.2906 -0.3818
11322TIP3    H155381   2.609   1.497   1.085 -1.9007  0.2296 -0.0828
11322TIP3    H255382   2.538   1.544   0.961 -0.5100 -0.7989 -1.3103
11323TIP3   OH255383   1.351   0.921  14.881  0.0126  0.5969  0.2092
11323TIP3    H155384   1.383   1.011  14.889  1.6770 -0.1125  3.2492
11323TIP3    H255385   1.428   0.870  14.856  0.0680 -0.4395  2.3059
11324TIP3   OH255386   5.257   5.044   0.860 -0.7859  0.5530  0.2320
11324TIP3    H155387   5.205   5.094   0.922 -0.9883 -1.8860  2.1852
11324TIP3    H255388   5.346   5.047   0.895 -0.5747  0.4988 -0.2863
11325TIP3   OH255389   1.066   4.803  13.422  0.4031 -0.5780  0.0866
11325TIP3    H155390   1.086   4.845  13.506 -0.6413  2.0196 -0.8723
11325TIP3    H255391   0.978   4.768  13.433 -0.2211  0.8311 -0.2684
11326TIP3   OH255392   6.660   0.087  13.699 -0.7893 -0.0831  0.1123
11326TIP3    H155393   6.722   0.021  13.730 -0.0112  1.2407  1.5285
11326TIP3    H255394   6.574   0.051  13.721 -0.3798 -0.6079  0.9218
11327TIP3   OH255395   1.943   0.744  14.711  0.5238 -0.3871 -0.3954
11327TIP3    H155396   1.906   0.711  14.794  0.0633  1.1871  0.0701
11327TIP3    H255397   2.037   0.748  14.727  0.4633 -0.3371 -0.0353
11328TIP3   OH255398   0.006   0.798   3.147 -0.6072  0.0212  0.1821
11328TIP3    H155399  -0.021   0.754   3.228  0.5225 -0.3786  0.3636
11328TIP3    H255400   0.061   0.734   3.102  2.7703  1.7951  1.3845
11329TIP3   OH255401   2.779   5.942   0.358 -0.0852 -0.1468  0.0036
11329TIP3    H155402   2.831   5.972   0.433  0.4984 -3.5410  1.1101
11329TIP3    H255403   2.843   5.930   0.288  0.3667 -2.1638  0.6917
11330TIP3   OH255404   4.300   3.921   5.806  0.0088  0.4258  0.6311
11330TIP3    H155405   4.346   4.000   5.778  0.9913 -0.0869  0.7603
11330TIP3    H255406   4.301   3.926   5.902 -0.7220  0.6908  0.6342
11331TIP3   OH255407   5.353   4.711  11.897  0.0285 -0.6411  0.3866
11331TIP3    H155408   5.430   4.705  11.954 -0.6195  0.2924  1.3863
11331TIP3    H255409   5.287   4.656  11.940 -0.3786 -0.1459  0.3977
11332TIP3   OH255410   5.130   3.295  16.718 -0.1168  0.6435  1.0647
11332TIP3    H155411   5.147   3.352  16.793  0.2980  1.8323  0.1063
11332TIP3    H255412   5.216   3.264  16.691 -0.1248  1.2355  0.3278
11333TIP3   OH255413   3.281   0.896   3.326  0.1650 -0.1821 -0.2225
11333TIP3    H155414   3.274   0.866   3.235 -0.1795 -0.4381 -0.1123
11333TIP3    H255415   3.215   0.965   3.333  0.0880 -0.2660 -0.1256
11334TIP3   OH255416   3.358   6.499  14.117  0.1509  0.5487  0.3131
11334TIP3    H155417   3.389   6.450  14.193 -1.2303 -1.3241 -0.2503
11334TIP3    H255418   3.279   6.543  14.148 -0.9279 -0.9437 -0.2131
11335TIP3   OH255419   4.505   5.698  11.101 -0.3463  0.2176  0.0454
11335TIP3    H155420   4.481   5.791  11.097 -0.5567  0.1839  0.4829
11335TIP3    H255421   4.483   5.664  11.014  0.0135  0.6442 -0.2169
11336TIP3   OH255422   4.786   0.699  16.845  0.0746  0.1814 -0.2144
11336TIP3    H155423   4.705   0.746  16.825  0.3028  0.3459 -0.7698
11336TIP3    H255424   4.765   0.607  16.831 -0.8001 -0.0661  2.2836
11337TIP3   OH255425   0.983   2.233   0.479  0.9214  0.3874 -0.3967
11337TIP3    H155426   0.955   2.155   0.431  0.1035 -1.1245  2.3415
11337TIP3    H255427   1.071   2.212   0.510  0.6153  0.4265  0.5369
11338TIP3   OH255428   4.429   0.875  14.343 -0.6096  0.2283 -0.1178
11338TIP3    H155429   4.502   0.916  14.389  0.1387 -0.8927 -0.2483
11338TIP3    H255430   4.392   0.813  14.406  0.9579 -1.9398 -1.1736
11339TIP3   OH255431   2.583   1.228   3.208 -0.0368  0.7307  0.1346
11339TIP3    H155432   2.611   1.223   3.116 -1.1499 -0.5757 -0.1703
11339TIP3    H255433   2.622   1.151   3.249  1.0009  1.6657  0.9430
11340TIP3   OH255434   0.836   3.876  11.543 -0.4114 -0.1354  0.2314
11340TIP3    H155435   0.767   3.938  11.522 -0.3644  0.1647  0.9371
11340TIP3    H255436   0.878   3.857  11.459 -0.5323  0.6611 -0.0149
11341TIP3   OH255437   3.889   6.544  14.038  0.3121 -0.1935 -0.3367
11341TIP3    H155438   3.980   6.573  14.038 -0.0645  1.0839 -1.9442
11341TIP3    H255439   3.843   6.610  14.089 -0.4337  1.8761 -3.4348
11342TIP3   OH255440   3.240   4.019  14.993 -0.2454 -0.2207 -0.1612
11342TIP3    H155441   3.204   3.980  14.913 -0.8738 -1.7712  0.8271
11342TIP3    H255442   3.318   3.967  15.011  0.1279  0.3998  0.0109
11343TIP3   OH255443   4.652   6.391  15.948 -0.5153 -0.6639  0.3113
11343TIP3    H155444   4.660   6.296  15.937 -0.3398 -0.6324  0.1533
11343TIP3    H255445   4.623   6.422  15.862  0.0528 -0.5045  0.1687
11344TIP3   OH255446   6.143   1.889  11.099  0.7744  0.3022  0.0882
11344TIP3    H155447   6.223   1.857  11.141 -0.0057 -1.1264  0.5452
11344TIP3    H255448   6.074   1.833  11.134 -0.5186  1.8297  0.0919
11345TIP3   OH255449   2.302   2.989   0.020 -0.2567  0.2665  0.2169
11345TIP3    H155450   2.377   2.999   0.079 -1.3915 -1.4994  2.1251
11345TIP3    H255451   2.227   3.014   0.074 -1.4285 -2.2226 -0.0972
11346TIP3   OH255452   5.028   5.074  12.815  0.2984 -0.4875 -0.3394
11346TIP3    H155453   4.937   5.064  12.841 -0.3365  1.8196 -1.3448
11346TIP3    H255454   5.078   5.020  12.876 -1.5003  0.4767  2.1045
11347TIP3   OH255455   4.370   5.902   3.856 -0.0144  0.1685  0.1624
11347TIP3    H155456   4.371   5.890   3.761 -1.3260 -2.4505  0.3922
11347TIP3    H255457   4.280   5.928   3.875  0.3875  1.2371  0.6704
11348TIP3   OH255458   3.828   0.938  14.979 -0.4416  0.0622 -0.2887
11348TIP3    H155459   3.779   1.019  14.995 -2.4116 -1.0270 -0.4725
11348TIP3    H255460   3.851   0.942  14.886 -0.9500  0.1969 -0.4125
11349TIP3   OH255461   4.900   0.386  12.775  0.3443 -0.2437  0.2153
11349TIP3    H155462   4.957   0.396  12.699  0.6762  1.2010  0.6124
11349TIP3    H255463   4.865   0.474  12.790 -3.0876 -1.2959 -0.8162
11350TIP3   OH255464   1.860   0.321   4.206  0.8825 -0.1144 -0.9333
11350TIP3    H155465   1.924   0.391   4.222  0.2597  0.1437  0.6426
11350TIP3    H255466   1.861   0.309   4.111  2.0074  1.0760 -1.1073
11351TIP3   OH255467   5.977   5.328  13.329 -0.0667  0.3795  0.2432
11351TIP3    H155468   6.057   5.363  13.367 -0.1747  0.2095  0.6354
11351TIP3    H255469   5.918   5.318  13.404 -0.7413  1.2631 -0.1442
11352TIP3   OH255470   5.823   1.823  14.649  0.2444  0.0843 -0.2655
11352TIP3    H155471   5.912   1.837  14.618  0.8678  0.2619  1.5064
11352TIP3    H255472   5.796   1.907  14.686 -0.3850 -0.1763 -0.1094
11353TIP3   OH255473   4.843   0.077  13.222  0.1986 -0.2509 -0.7520
11353TIP3    H155474   4.817   0.168  13.207 -0.3386 -0.2447  0.1743
11353TIP3    H255475   4.924   0.067  13.171 -0.2980  0.4357 -1.7085
11354TIP3   OH255476   3.053   5.481   3.723 -0.0376  0.1439 -0.3826
11354TIP3    H155477   3.004   5.406   3.690 -1.2626  0.3492  0.8574
11354TIP3    H255478   3.108   5.445   3.793  0.4810  0.1720 -0.7658
11355TIP3   OH255479   2.716   4.547   5.698  0.7085  0.0811  0.4280
11355TIP3    H155480   2.667   4.466   5.682 -1.1677  1.3458 -0.5482
11355TIP3    H255481   2.753   4.535   5.786 -1.2807 -1.0055  1.1909
11356TIP3   OH255482   0.663   2.347  13.893 -0.1403 -0.0724 -0.3935
11356TIP3    H155483   0.708   2.348  13.808  1.1957  0.6704  0.2979
11356TIP3    H255484   0.604   2.421  13.889 -0.2195 -0.1479 -0.7365
11357TIP3   OH255485   1.009   6.083  11.924 -0.1446 -0.4208  0.1409
11357TIP3    H155486   1.008   6.093  12.019  2.7573  0.2863  0.2101
11357TIP3    H255487   1.029   5.990  11.911 -0.4327 -0.4959  0.2323
11358TIP3   OH255488   5.848   3.028  11.182 -0.2791 -0.1191  0.3952
11358TIP3    H155489   5.825   2.971  11.109 -0.1895 -0.0335  0.3006
11358TIP3    H255490   5.922   3.079  11.150  0.6162 -0.9939  0.9724
11359TIP3   OH255491   1.902   1.367   1.868  0.1540 -0.1633  0.3221
11359TIP3    H155492   1.908   1.324   1.783  0.5821 -1.8413  1.1562
11359TIP3    H255493   1.832   1.431   1.858 -1.2638 -1.8002 -0.7123
11360TIP3   OH255494   5.242   6.733   4.037 -0.3105 -0.0940 -0.1235
11360TIP3    H155495   5.225   6.707   3.947 -0.5649  1.0600 -0.4213
11360TIP3    H255496   5.331   6.701   4.055 -1.0559 -2.3063 -0.0039
11361TIP3   OH255497   4.550   0.821   4.942  0.1865  0.3137  0.3414
11361TIP3    H155498   4.509   0.792   4.861  0.4225  1.6748 -0.2904
11361TIP3    H255499   4.640   0.842   4.917  1.4744 -2.9310  1.7636
11362TIP3   OH255500   4.183   1.702  13.914 -0.4535  0.4621  0.3459
11362TIP3    H155501   4.260   1.656  13.945 -0.6667  0.1680  0.4503
11362TIP3    H255502   4.216   1.764  13.849 -0.1778  0.0622  0.0977
11363TIP3   OH255503   6.662   2.903  14.786  0.0415  0.4700 -0.4693
11363TIP3    H155504   6.660   2.829  14.724 -0.7695 -0.3278  0.4897
11363TIP3    H255505   6.717   2.968  14.742  1.4691 -1.0129 -0.9976
11364TIP3   OH255506   1.076   0.638   0.250  0.2920  0.0781  0.4900
11364TIP3    H155507   1.052   0.644   0.342 -0.7916 -0.2883  0.2463
11364TIP3    H255508   1.040   0.718   0.211  2.8634  1.4848  0.7934
11365TIP3   OH255509   3.198   2.545   3.455  0.7239  0.0974 -0.5024
11365TIP3    H155510   3.267   2.563   3.518  0.1518  2.6049 -0.4969
11365TIP3    H255511   3.158   2.464   3.487  1.0462  0.7846  1.8524
11366TIP3   OH255512   0.307   3.783  13.099 -0.0146 -0.1031  0.3471
11366TIP3    H155513   0.259   3.846  13.152 -1.3193 -0.7259 -0.0525
11366TIP3    H255514   0.368   3.741  13.161 -1.0791 -0.3919  1.2272
11367TIP3   OH255515   0.300   6.021   1.497 -0.0628  0.4054  0.2748
11367TIP3    H155516   0.255   6.091   1.451 -0.4239  0.3445  0.5280
11367TIP3    H255517   0.349   5.974   1.429  1.6350  1.9691  0.3440
11368TIP3   OH255518   4.677   3.163   4.133 -0.1440 -0.3215 -0.1228
11368TIP3    H155519   4.734   3.173   4.057  0.1630 -0.2697  0.1135
11368TIP3    H255520   4.591   3.142   4.095 -0.5964  2.0782 -0.6022
11369TIP3   OH255521   2.027   3.646  13.800  0.2360 -0.6512 -0.8918
11369TIP3    H155522   2.098   3.692  13.756  1.7789 -1.6473  0.4627
11369TIP3    H255523   2.070   3.581  13.856 -1.6851 -0.6100  0.7694
11370TIP3   OH255524   4.769   1.904   1.459  0.2643  0.2146  0.2493
11370TIP3    H155525   4.797   1.822   1.417  0.7110 -0.4120  1.6841
11370TIP3    H255526   4.784   1.888   1.552  2.4226  2.6828  0.4471
11371TIP3   OH255527   6.055   0.167  14.611 -0.4530 -0.0343  0.6089
11371TIP3    H155528   5.984   0.231  14.626 -0.1980 -0.2427  3.0945
11371TIP3    H255529   6.035   0.096  14.671  0.8821 -0.9692 -0.0246
11372TIP3   OH255530   4.436   2.511  12.680  0.3828  0.0636 -0.5609
11372TIP3    H155531   4.521   2.490  12.718  0.5600  0.3405 -0.7949
11372TIP3    H255532   4.457   2.557  12.599  0.0236 -1.2243 -1.4218
11373TIP3   OH255533   1.937   4.013   2.705  0.4853  0.2555 -0.3809
11373TIP3    H155534   1.914   3.952   2.775 -0.7067 -1.3466 -2.0916
11373TIP3    H255535   2.030   3.999   2.690 -0.1692 -2.9994 -2.3172
11374TIP3   OH255536   0.669   3.729  12.947  0.2221 -0.1732  0.0255
11374TIP3    H155537   0.740   3.692  12.893  0.0989  2.9046 -2.5590
11374TIP3    H255538   0.607   3.657  12.957  0.9839 -1.3581 -2.7468
11375TIP3   OH255539   4.203   5.530  11.726 -0.2098  0.4564  0.7313
11375TIP3    H155540   4.168   5.618  11.731  0.2254  0.6868 -0.0046
11375TIP3    H255541   4.146   5.477  11.781 -2.6568  0.5083 -1.5659
11376TIP3   OH255542   6.629   3.148  13.069 -0.0094  0.0838 -0.3744
11376TIP3    H155543   6.670   3.168  13.153 -0.6646 -0.8535  0.2043
11376TIP3    H255544   6.560   3.085  13.092  0.4611 -0.9814 -1.7434
11377TIP3   OH255545   5.416   2.323  11.829  0.4675  0.0532  0.5524
11377TIP3    H155546   5.506   2.294  11.818  0.7347  0.6086  1.2300
11377TIP3    H255547   5.363   2.247  11.803  1.0845  0.1328 -1.0719
11378TIP3   OH255548   6.750   2.648  14.710 -0.2870 -0.3447 -0.6333
11378TIP3    H155549   6.806   2.579  14.675  1.6326  0.2355  1.0565
11378TIP3    H255550   6.661   2.617  14.696  0.5008 -2.6680 -0.8568
11379TIP3   OH255551   1.959   5.759  13.493  0.1656  0.2803 -0.1702
11379TIP3    H155552   1.991   5.842  13.530  1.1290 -0.1934  0.0816
11379TIP3    H255553   1.873   5.748  13.533  0.1969  0.9588  0.1097
11380TIP3   OH255554   5.221   2.221   5.247  0.5796  0.1664 -0.0892
11380TIP3    H155555   5.264   2.262   5.172  0.3957 -1.2082 -0.9749
11380TIP3    H255556   5.247   2.129   5.242 -1.2095 -0.3837  0.2619
11381TIP3   OH255557   3.868   0.225   0.511 -0.0467 -0.8423  0.4193
11381TIP3    H155558   3.832   0.236   0.423 -1.2775 -1.8376  0.7718
11381TIP3    H255559   3.940   0.163   0.501 -0.4967 -1.3300  0.1796
11382TIP3   OH255560   5.281   6.618  15.731  0.2164 -0.3007  0.0771
11382TIP3    H155561   5.218   6.594  15.800  0.0680 -0.7133 -0.1970
11382TIP3    H255562   5.298   6.536  15.686  1.1261 -0.2327  0.2884
11383TIP3   OH255563   3.189   0.859  15.364  0.4411 -0.6381 -0.6616
11383TIP3    H155564   3.168   0.946  15.330  0.3176 -0.3913  0.0391
11383TIP3    H255565   3.128   0.801  15.319 -2.8490  0.2134  2.2998
11384TIP3   OH255566   3.676   1.681  16.121  0.5549 -0.0090  0.2615
11384TIP3    H155567   3.617   1.742  16.167  0.0813  0.9154 -1.4560
11384TIP3    H255568   3.617   1.615  16.084  0.9704 -0.9745  1.2893
11385TIP3   OH255569   5.837   1.054  14.795 -0.3726 -0.0600 -0.0613
11385TIP3    H155570   5.818   0.997  14.869 -0.1741 -1.4326 -1.0310
11385TIP3    H255571   5.783   1.019  14.723  0.4615  0.3791 -0.9308
11386TIP3   OH255572   0.359   1.508  16.774  1.4075  0.2269  0.0939
11386TIP3    H155573   0.393   1.420  16.789  1.3881  0.0506 -0.8753
11386TIP3    H255574   0.435   1.565  16.781  1.3591  0.1908  1.1128
11387TIP3   OH255575   5.914   5.379   2.773  0.2075  0.0820  0.0689
11387TIP3    H155576   5.953   5.295   2.745 -2.1726 -0.6216 -1.4569
11387TIP3    H255577   5.823   5.357   2.793 -0.6836  2.4084 -1.0893
11388TIP3   OH255578   5.259   3.673   2.966  0.3449 -0.0759  0.0249
11388TIP3    H155579   5.285   3.639   2.880 -0.3469 -1.8691  0.4903
11388TIP3    H255580   5.331   3.731   2.991  1.5111 -1.0716 -0.8888
11389TIP3   OH255581   1.669   1.371  15.910 -0.5609  0.4501  0.0883
11389TIP3    H155582   1.639   1.301  15.969 -1.5918  0.1116 -0.7969
11389TIP3    H255583   1.616   1.359  15.831  1.2576  0.4657 -1.1869
11390TIP3   OH255584   2.048   0.622  14.446  0.1784 -0.0462  0.3406
11390TIP3    H155585   1.968   0.625  14.393  0.0646  0.7326  0.5287
11390TIP3    H255586   2.019   0.651  14.533  1.0317  2.3968 -0.1116
11391TIP3   OH255587   3.857   6.379   0.997 -0.0947 -0.0501 -0.4635
11391TIP3    H155588   3.817   6.320   0.934 -2.1072  0.0473  0.6408
11391TIP3    H255589   3.783   6.429   1.034  0.6760 -1.2234  3.1287
11392TIP3   OH255590   2.583   1.524  11.560  0.1454  0.3378 -0.2807
11392TIP3    H155591   2.589   1.563  11.647 -1.4587 -0.0321  0.0231
11392TIP3    H255592   2.594   1.597  11.499  1.7115  0.5334  0.2081
11393TIP3   OH255593   2.259   6.427  11.557  0.3374  0.4496 -0.2947
11393TIP3    H155594   2.229   6.338  11.536 -2.6089  0.7998  1.8205
11393TIP3    H255595   2.306   6.417  11.640 -0.7742  0.9494  0.4094
11394TIP3   OH255596   3.049   0.724   0.381 -0.0716  0.0569 -0.0291
11394TIP3    H155597   3.073   0.780   0.307  0.5226  0.8092  0.7195
11394TIP3    H255598   3.133   0.700   0.421 -0.3903 -0.3231  0.4192
11395TIP3   OH255599   0.548   2.720  15.977 -0.4131  0.1957 -0.3266
11395TIP3    H155600   0.547   2.739  15.883 -1.8969  0.4736 -0.2710
11395TIP3    H255601   0.637   2.742  16.005  0.0985 -0.0528 -1.6940
11396TIP3   OH255602   0.307   5.919  13.983  0.4468 -0.3722 -0.5060
11396TIP3    H155603   0.246   5.970  13.931 -0.7120 -0.7550  0.4197
11396TIP3    H255604   0.351   5.983  14.039 -0.8163 -0.3082  0.4698
11397TIP3   OH255605   1.197   2.909  15.994 -0.5543  0.0982 -0.0744
11397TIP3    H155606   1.251   2.923  15.916 -0.1471 -0.3902  0.1167
11397TIP3    H255607   1.109   2.890  15.960 -0.6723  1.1260 -0.3844
11398TIP3   OH255608   4.776   1.208  12.869 -0.0664  0.3641 -0.5587
11398TIP3    H155609   4.707   1.265  12.835  0.6058  1.5060 -0.0647
11398TIP3    H255610   4.821   1.175  12.791  0.2135  1.3775 -0.8367
11399TIP3   OH255611   0.917   4.426   5.410  0.5291 -0.1681 -1.0860
11399TIP3    H155612   0.972   4.349   5.425  0.7300 -0.0961 -1.4371
11399TIP3    H255613   0.857   4.400   5.341  1.7111  0.5262 -2.4248
11400TIP3   OH255614   3.475   6.293   4.740 -0.1219  0.8311  0.7861
11400TIP3    H155615   3.560   6.252   4.757  0.0915  1.4846  1.3693
11400TIP3    H255616   3.439   6.245   4.666  0.2922 -0.1358  1.1945
11401TIP3   OH255617   5.333   1.485   1.485  0.4374 -0.3409 -0.0907
11401TIP3    H155618   5.328   1.576   1.456  0.6886 -0.0321  0.7943
11401TIP3    H255619   5.327   1.490   1.580 -2.4707 -1.4712 -0.1186
11402TIP3   OH255620   6.311   1.700   5.133  0.0825 -0.0484 -0.6634
11402TIP3    H155621   6.267   1.680   5.051  0.9215 -0.1658 -1.0978
11402TIP3    H255622   6.328   1.795   5.129  1.3702 -0.2760 -1.2811
11403TIP3   OH255623   2.119   3.571  11.122  0.2070 -0.7171  0.0550
11403TIP3    H155624   2.151   3.530  11.042  0.0797 -4.1935  1.6070
11403TIP3    H255625   2.172   3.532  11.192  0.0162  1.8386  1.7893
11404TIP3   OH255626   1.439   5.763   4.526  0.4383  1.2296  0.2605
11404TIP3    H155627   1.521   5.716   4.542 -1.0569 -0.9119  2.2563
11404TIP3    H255628   1.440   5.782   4.432  1.6867 -1.8207 -0.4621
11405TIP3   OH255629   3.772   5.536  10.914 -0.3314  0.2228 -0.2036
11405TIP3    H155630   3.855   5.489  10.912 -0.3714  0.1242 -2.2509
11405TIP3    H255631   3.796   5.627  10.933  0.4863  0.5056 -2.2807
11406TIP3   OH255632   3.930   0.616   1.966  0.3298  0.4940 -0.4229
11406TIP3    H155633   3.899   0.569   1.889  0.5305 -1.2013  0.4836
11406TIP3    H255634   3.914   0.556   2.039 -1.1896  2.5844  1.0896
11407TIP3   OH255635   1.965   5.478   2.107 -0.1932  0.7016 -0.0023
11407TIP3    H155636   2.045   5.531   2.108  1.0579 -1.0822  1.2299
11407TIP3    H255637   1.940   5.474   2.015  3.2148 -1.5282 -1.0434
11408TIP3   OH255638   6.343   3.420   2.966  0.2462 -0.5417 -0.1697
11408TIP3    H155639   6.428   3.385   2.939 -0.1028 -2.0477  0.5728
11408TIP3    H255640   6.318   3.366   3.042 -0.5169  1.0925  0.7889
11409TIP3   OH255641   5.239   1.039  12.748 -0.2778  0.1270 -0.1936
11409TIP3    H155642   5.220   1.066  12.659  0.5009 -3.1315 -1.4871
11409TIP3    H255643   5.334   1.052  12.758 -0.1551 -0.6040 -0.3100
11410TIP3   OH255644   1.998   2.426  14.857  0.1792 -0.3423 -0.3113
11410TIP3    H155645   1.953   2.399  14.777  0.3545  0.6409 -0.7698
11410TIP3    H255646   1.933   2.477  14.905  0.8066  1.2690 -1.0798
11411TIP3   OH255647   3.573   4.188  15.072 -0.0132 -0.0501 -0.0401
11411TIP3    H155648   3.643   4.252  15.055 -0.9434  1.0425  0.1438
11411TIP3    H255649   3.586   4.162  15.163 -0.0306  0.3722  0.0828
11412TIP3   OH255650   2.740   5.145   3.344 -0.0544 -0.1775 -0.3331
11412TIP3    H155651   2.775   5.110   3.262  0.5951  0.3601 -0.2863
11412TIP3    H255652   2.777   5.233   3.351 -0.0539 -0.2385  0.5724
11413TIP3   OH255653   6.685   6.561  15.920  0.4466 -0.6100  0.3016
11413TIP3    H155654   6.698   6.612  15.999 -1.3139 -1.0307  0.9191
11413TIP3    H255655   6.597   6.525  15.929  0.8433 -2.0577 -1.0683
11414TIP3   OH255656   6.453   4.915  16.061  0.0944 -0.2033  0.3726
11414TIP3    H155657   6.496   4.883  15.982  0.2503 -0.6515  0.6353
11414TIP3    H255658   6.374   4.861  16.069  0.7071 -1.0212  1.1924
11415TIP3   OH255659   3.628   3.202  16.206 -0.0441  0.5802  0.8341
11415TIP3    H155660   3.654   3.151  16.129  1.1148  2.4628 -0.1024
11415TIP3    H255661   3.595   3.137  16.268  0.2954 -1.1538 -0.7143
11416TIP3   OH255662   4.654   1.654  13.939 -0.6938 -0.1407  0.3081
11416TIP3    H155663   4.584   1.603  13.899 -0.9577  0.5131 -0.0636
11416TIP3    H255664   4.727   1.649  13.877 -0.7206 -0.0478  0.2706
11417TIP3   OH255665   6.139   0.968   4.248 -0.5842  0.2602 -0.2757
11417TIP3    H155666   6.168   0.877   4.234 -0.0115  0.1810  1.2254
11417TIP3    H255667   6.189   1.019   4.184 -1.5948 -0.5591 -1.7746
11418TIP3   OH255668   3.630   6.458   4.185  0.7985 -0.7744  0.0055
11418TIP3    H155669   3.632   6.542   4.138  1.1540 -0.7225  0.1150
11418TIP3    H255670   3.721   6.429   4.187  1.3104  0.6640  3.2509
11419TIP3   OH255671   0.157   5.080   5.309  0.3976 -0.5050  0.3227
11419TIP3    H155672   0.179   4.988   5.322  0.7960 -0.6243 -1.0975
11419TIP3    H255673   0.166   5.119   5.396  3.8098 -1.0758  0.3544
11420TIP3   OH255674   1.658   5.586  11.479  0.9537 -0.1157 -0.3407
11420TIP3    H155675   1.638   5.537  11.399  0.7288  0.5756 -0.7190
11420TIP3    H255676   1.680   5.674  11.448 -0.2092  0.4663  0.4204
11421TIP3   OH255677   3.589   0.427  10.894  0.4108 -0.2969  0.5817
11421TIP3    H155678   3.616   0.479  10.819 -1.7653 -0.5018 -0.4329
11421TIP3    H255679   3.568   0.491  10.962 -0.4034  0.0958 -0.0142
11422TIP3   OH255680   2.998   1.744  15.561 -0.0143  0.4788  0.0349
11422TIP3    H155681   3.034   1.828  15.589 -0.5873  1.1941 -1.2920
11422TIP3    H255682   3.069   1.681  15.577  1.2364  1.5774 -0.9578
11423TIP3   OH255683   3.292   5.081  11.309 -0.0829 -0.0344  0.2396
11423TIP3    H155684   3.347   5.027  11.365 -1.8809 -1.8176  0.4298
11423TIP3    H255685   3.353   5.133  11.257  1.7038 -1.0738  1.2175
11424TIP3   OH255686   1.114   5.493  13.865 -0.0593 -0.0230 -0.1416
11424TIP3    H155687   1.120   5.434  13.939 -0.6131  0.8337  0.6151
11424TIP3    H255688   1.195   5.478  13.815  0.2316 -0.7423  0.5305
11425TIP3   OH255689   3.367   4.245  12.202 -0.0126  0.2913 -0.0569
11425TIP3    H155690   3.282   4.201  12.200  0.1558 -0.0462  0.1564
11425TIP3    H255691   3.366   4.301  12.123  0.1871 -0.8979 -0.9296
11426TIP3   OH255692   3.250   2.766   2.885  0.2041  0.1998  0.2327
11426TIP3    H155693   3.217   2.677   2.900  1.1396 -0.8598 -3.1446
11426TIP3    H255694   3.235   2.811   2.968 -1.7341 -2.6376  1.5943
11427TIP3   OH255695   1.046   3.539   6.518  0.2368 -0.5664  0.1813
11427TIP3    H155696   1.102   3.477   6.472 -1.1527 -1.9599  0.3220
11427TIP3    H255697   1.033   3.611   6.455  1.5025 -0.5870 -0.1351
11428TIP3   OH255698   6.270   4.152  13.488 -0.5190  0.1233 -0.2852
11428TIP3    H155699   6.354   4.152  13.533 -1.9086  2.7509  2.6162
11428TIP3    H255700   6.255   4.060  13.465  2.2014 -0.6883  0.8613
11429TIP3   OH255701   1.743   0.677   1.342  0.4721  0.1110 -0.2143
11429TIP3    H155702   1.765   0.694   1.433 -1.3610 -0.0351  0.2855
11429TIP3    H255703   1.809   0.613   1.313  0.2054 -0.9891  1.4518
11430TIP3   OH255704   3.031   6.417   0.253  0.0915 -0.1895 -0.7690
11430TIP3    H155705   3.035   6.510   0.232  1.9836 -0.0438  0.0364
11430TIP3    H255706   3.055   6.413   0.346 -0.0007 -1.4906 -0.7839
11431TIP3   OH255707   6.746   2.811  15.357  0.0238  0.4487  0.3413
11431TIP3    H155708   6.672   2.759  15.324  0.2475  0.9313 -0.9884
11431TIP3    H255709   6.714   2.849  15.439 -0.8070 -0.2412  0.3486
11432TIP3   OH255710   3.024   5.121   3.414 -0.0378 -1.0702 -0.3442
11432TIP3    H155711   3.074   5.041   3.402 -0.3948 -1.4375  0.5427
11432TIP3    H255712   3.036   5.170   3.332 -0.0836 -2.1741 -1.0285
11433TIP3   OH255713   1.324   0.875  11.612  0.2605 -0.4643  0.2489
11433TIP3    H155714   1.399   0.887  11.671  0.1661 -0.1178  0.2982
11433TIP3    H255715   1.274   0.956  11.620  1.4217  0.5725 -2.0123
11434TIP3   OH255716   5.683   2.794  17.116  0.1170  0.1436 -0.3867
11434TIP3    H155717   5.623   2.777  17.043 -0.9818  1.5429  0.1458
11434TIP3    H255718   5.770   2.778  17.080 -0.5355 -1.8663 -1.2014
11435TIP3   OH255719   1.337   2.447  16.383 -0.5884 -0.5238 -0.2225
11435TIP3    H155720   1.377   2.369  16.344  0.5344  0.1904 -0.5348
11435TIP3    H255721   1.250   2.451  16.342 -0.2446 -0.9977 -1.0414
11436TIP3   OH255722   4.809   2.586  13.146 -0.3264 -0.2006 -0.4329
11436TIP3    H155723   4.889   2.547  13.181 -0.7662 -0.1829  0.6238
11436TIP3    H255724   4.750   2.592  13.221 -1.6476 -1.0097 -1.3713
11437TIP3   OH255725   4.425   6.021  11.731 -0.0682 -0.1421 -0.4730
11437TIP3    H155726   4.375   5.948  11.694  0.7108 -1.3813  0.7960
11437TIP3    H255727   4.431   6.085  11.660 -1.4506 -0.9521 -1.3733
11438TIP3   OH255728   6.401   1.634  16.362  0.1084  0.2347 -0.0443
11438TIP3    H155729   6.401   1.552  16.411  0.8633  0.7354  0.8187
11438TIP3    H255730   6.380   1.702  16.427  0.8332  0.8709 -0.4530
11439TIP3   OH255731   6.171   0.263  12.225  0.0630  0.2240 -0.6676
11439TIP3    H155732   6.148   0.328  12.159 -1.1486 -0.3911 -0.8726
11439TIP3    H255733   6.231   0.204  12.180 -1.5909 -0.8231 -1.6093
11440TIP3   OH255734   5.924   5.377  15.160 -0.1862 -0.2781  0.0979
11440TIP3    H155735   5.859   5.427  15.110 -1.4213 -0.3081  1.5996
11440TIP3    H255736   5.879   5.296  15.184  0.0542  0.1117  1.9780
11441TIP3   OH255737   5.339   1.832   1.050 -0.1018 -0.4793 -0.2627
11441TIP3    H155738   5.333   1.837   0.955  1.4350  1.6431 -0.3189
11441TIP3    H255739   5.291   1.909   1.081  0.2312 -0.6116  0.6123
11442TIP3   OH255740   0.264   5.959  14.841 -0.2026  0.2271 -0.5966
11442TIP3    H155741   0.287   5.869  14.866  1.5190  0.2302 -1.9659
11442TIP3    H255742   0.174   5.970  14.871 -0.6228 -2.1197 -0.8292
11443TIP3   OH255743   1.187   0.605   5.023 -0.2959 -0.0735 -0.1045
11443TIP3    H155744   1.265   0.557   5.048 -0.6829 -0.2388  0.8215
11443TIP3    H255745   1.118   0.539   5.019 -0.1942 -0.1163 -1.9741
11444TIP3   OH255746   2.902   3.524  10.797 -0.3056  0.2263  0.1203
11444TIP3    H155747   2.899   3.565  10.884  1.0436 -1.5033  1.0294
11444TIP3    H255748   2.932   3.594  10.739 -1.8246  1.5947  0.8901
11445TIP3   OH255749   2.991   0.754   4.881 -1.1476 -0.0004  0.0857
11445TIP3    H155750   3.060   0.698   4.917 -0.4158 -0.6399 -2.1348
11445TIP3    H255751   2.949   0.700   4.815 -1.3936  1.5815 -1.1046
11446TIP3   OH255752   1.373   2.958  11.584  0.5266 -0.1108  0.2055
11446TIP3    H155753   1.432   2.929  11.653 -1.9646 -1.8941  1.7116
11446TIP3    H255754   1.335   3.040  11.617  3.2411  2.0172 -1.5195
11447TIP3   OH255755   6.637   4.528  13.366  0.1276 -0.2196  0.8926
11447TIP3    H155756   6.581   4.604  13.355  1.6469  0.9347  0.8576
11447TIP3    H255757   6.628   4.480  13.283  0.1237  0.5836  0.4178
11448TIP3   OH255758   5.753   0.829  16.464 -0.4822 -0.2711  0.2129
11448TIP3    H155759   5.702   0.814  16.543  1.0325 -1.1908  1.0601
11448TIP3    H255760   5.828   0.770  16.472  0.0495  0.0969 -1.5960
11449TIP3   OH255761   3.414   6.559   0.662  0.3075 -0.3718 -0.4255
11449TIP3    H155762   3.410   6.475   0.709  0.5480 -0.2420 -0.1745
11449TIP3    H255763   3.415   6.534   0.569 -2.4146 -0.6005 -0.4915
11450TIP3   OH255764   2.866   3.835  13.423  0.2165 -0.3445  0.3328
11450TIP3    H155765   2.931   3.900  13.397 -1.3810  0.6704 -1.4266
11450TIP3    H255766   2.908   3.751  13.409  1.8574  0.2459  1.3306
11451TIP3   OH255767   3.973   6.389  14.406 -0.2892 -0.7324  0.3321
11451TIP3    H155768   4.041   6.456  14.407 -1.7394  0.8859 -1.7676
11451TIP3    H255769   3.948   6.378  14.498 -0.1466  1.7949  0.7275
11452TIP3   OH255770   3.886   2.138   3.090 -0.3459 -0.0311  0.5358
11452TIP3    H155771   3.869   2.137   3.184  0.8802 -1.4755  0.7864
11452TIP3    H255772   3.869   2.048   3.061 -0.2877  0.2819 -0.5435
11453TIP3   OH255773   0.863   4.174  11.263  0.1128  0.4716 -0.1987
11453TIP3    H155774   0.848   4.083  11.237 -0.8701  0.2087  1.1486
11453TIP3    H255775   0.952   4.174  11.298 -0.5872 -0.4969  1.7368
11454TIP3   OH255776   6.112   1.134  13.676 -0.6719  0.4810 -0.5864
11454TIP3    H155777   6.074   1.047  13.668 -3.4972  1.4652  0.9867
11454TIP3    H255778   6.125   1.163  13.585  0.4323 -1.5370 -1.1434
11455TIP3   OH255779   3.557   1.977  15.791 -0.5138  0.2468  0.2298
11455TIP3    H155780   3.596   2.035  15.725  0.4381 -0.0636  0.4942
11455TIP3    H255781   3.625   1.968  15.858 -0.8340 -0.7505  0.4441
11456TIP3   OH255782   5.561   0.394  13.705 -0.4353 -0.1040 -0.3181
11456TIP3    H155783   5.489   0.338  13.734 -0.5549 -0.7290 -1.7374
11456TIP3    H255784   5.538   0.416  13.614  0.8396  0.2319 -0.5688
11457TIP3   OH255785   0.639   0.289   4.555  0.2436 -0.4055  0.1486
11457TIP3    H155786   0.692   0.247   4.488  0.0177 -2.1391  0.9956
11457TIP3    H255787   0.673   0.254   4.638 -0.8142  0.0943  0.8188
11458TIP3   OH255788   0.512   5.152   4.007  0.4972 -0.2487  0.3082
11458TIP3    H155789   0.569   5.221   4.042 -1.0065  0.6286  1.1467
11458TIP3    H255790   0.459   5.196   3.941 -1.6632 -0.0887  2.0135
11459TIP3   OH255791   2.248   4.829   0.476 -0.2705 -0.0391 -0.1057
11459TIP3    H155792   2.310   4.899   0.461 -0.5600  0.6647  1.7002
11459TIP3    H255793   2.298   4.749   0.460  0.7087  0.5337 -0.0002
11460TIP3   OH255794   6.757   2.302  15.071 -0.6842 -0.1534  0.8321
11460TIP3    H155795   6.682   2.352  15.038  1.6652  1.3804 -2.8022
11460TIP3    H255796   6.804   2.364  15.127  0.0531  0.3460 -0.3213
11461TIP3   OH255797   4.473   6.657   2.217 -0.1006 -0.4266 -0.1460
11461TIP3    H155798   4.409   6.661   2.146 -0.8245  0.3523  0.5278
11461TIP3    H255799   4.425   6.623   2.292  0.0155  0.9292  0.5902
11462TIP3   OH255800   0.785   3.398  10.509 -0.1351 -0.2960 -0.0960
11462TIP3    H155801   0.692   3.383  10.492 -0.0554 -0.1170 -0.7350
11462TIP3    H255802   0.810   3.468  10.448  0.5008 -0.6012 -0.2014
11463TIP3   OH255803   2.450   5.492   2.427 -0.2739  0.3324 -0.1742
11463TIP3    H155804   2.480   5.468   2.515 -0.3200 -1.3002 -0.5686
11463TIP3    H255805   2.528   5.525   2.383 -0.2754  1.2778  0.5052
11464TIP3   OH255806   0.993   2.190  11.267 -0.3192 -0.5274 -0.3443
11464TIP3    H155807   0.953   2.111  11.305  1.6635 -0.5603  1.9730
11464TIP3    H255808   1.079   2.161  11.238  0.0591  0.5785 -0.3737
11465TIP3   OH255809   3.026   4.812   1.858  0.8413 -0.0432  0.4001
11465TIP3    H155810   3.111   4.853   1.874  1.1170 -0.8199  1.0563
11465TIP3    H255811   3.039   4.721   1.884  0.4845 -0.7611 -1.7719
11466TIP3   OH255812   5.764   5.118  15.188  0.4422  0.2258  0.2056
11466TIP3    H155813   5.814   5.037  15.198 -0.0819 -0.1585 -0.2348
11466TIP3    H255814   5.711   5.123  15.267  1.8066  1.1044  1.1126
11467TIP3   OH255815   1.404   2.943  12.710 -0.2161  0.1552  0.7914
11467TIP3    H155816   1.387   3.036  12.698  0.0079  0.0605 -0.3487
11467TIP3    H255817   1.335   2.899  12.660  0.8183 -0.2629 -0.3184
11468TIP3   OH255818   0.374   0.858  11.798  0.2569 -0.1513 -0.6619
11468TIP3    H155819   0.467   0.839  11.812  0.4864  0.7571 -0.9034
11468TIP3    H255820   0.351   0.918  11.869 -0.0017  0.0554 -0.9191
11469TIP3   OH255821   6.760   1.974   2.945  0.0268  0.3453  0.0573
11469TIP3    H155822   6.806   2.032   3.007  0.8508  1.5905 -1.6354
11469TIP3    H255823   6.812   1.894   2.944  0.6530  0.7438  0.1573
11470TIP3   OH255824   5.475   2.727   2.476  0.0587 -1.1419 -0.1426
11470TIP3    H155825   5.477   2.632   2.465 -0.8597 -1.1812 -0.0565
11470TIP3    H255826   5.396   2.755   2.429 -0.5667 -0.6060  1.1715
11471TIP3   OH255827   0.499   5.690  11.911  0.0076 -0.1671  0.0702
11471TIP3    H155828   0.434   5.750  11.874 -0.9532  0.0734  1.9884
11471TIP3    H255829   0.448   5.616  11.943  1.0349 -1.3715 -1.0049
11472TIP3   OH255830   0.938   6.049  15.725 -0.1430  0.2793 -0.4634
11472TIP3    H155831   0.989   6.130  15.715  0.3001  0.1348  0.4739
11472TIP3    H255832   0.961   5.997  15.648  0.5608  0.5321 -0.4386
11473TIP3   OH255833   0.959   1.735   3.894  0.1690 -0.5624  0.2281
11473TIP3    H155834   0.877   1.685   3.898 -1.0934  1.4204  1.0802
11473TIP3    H255835   0.998   1.711   3.810 -1.6090 -1.1281 -0.4861
11474TIP3   OH255836   2.470   1.940  10.862  0.0361 -0.4619 -0.1404
11474TIP3    H155837   2.511   1.934  10.776 -1.8409  0.2997 -1.1507
11474TIP3    H255838   2.398   2.001  10.850  0.0854  0.1559  2.1514
11475TIP3   OH255839   3.106   5.231  12.726 -0.0860 -0.2859  0.0865
11475TIP3    H155840   3.083   5.240  12.818  2.1806  0.2252  0.6607
11475TIP3    H255841   3.084   5.315  12.687 -0.7796 -0.4060  0.2097
11476TIP3   OH255842   2.614   2.755   5.563  0.0393 -1.2554 -0.1217
11476TIP3    H155843   2.709   2.761   5.555 -0.0778  0.4563 -0.7036
11476TIP3    H255844   2.587   2.698   5.491  0.6797 -2.6390  0.6903
11477TIP3   OH255845   5.596   1.172  15.008 -0.3301  0.2594  0.7728
11477TIP3    H155846   5.616   1.090  14.963  0.7891  0.5879  0.6351
11477TIP3    H255847   5.532   1.216  14.952  1.7352  1.1029 -1.0960
11478TIP3   OH255848   4.694   5.226  16.195 -0.5487  0.8063 -0.4809
11478TIP3    H155849   4.717   5.213  16.103 -1.0654  0.0295 -0.5154
11478TIP3    H255850   4.754   5.167  16.243 -0.7356  0.6986 -0.3776
11479TIP3   OH255851   4.040   1.871   3.722  0.5973  0.2797  0.6121
11479TIP3    H155852   4.111   1.934   3.714 -0.1511  1.1135  0.4503
11479TIP3    H255853   3.960   1.924   3.730 -0.1709 -0.6320 -0.5861
11480TIP3   OH255854   5.192   5.398   1.044 -0.7951 -0.3112  1.0156
11480TIP3    H155855   5.172   5.309   1.016  1.6377 -1.1815  1.7948
11480TIP3    H255856   5.191   5.394   1.140  1.1309  0.0093  1.0806
11481TIP3   OH255857   1.541   4.749   2.237 -0.3827  0.2576  0.2446
11481TIP3    H155858   1.567   4.783   2.322  1.4193  0.6132 -0.4013
11481TIP3    H255859   1.491   4.820   2.196 -0.0089  0.6287  0.4317
11482TIP3   OH255860   5.240   6.685  13.332  0.5299  0.0491  0.3030
11482TIP3    H155861   5.301   6.750  13.368  1.1831 -0.5253  0.2453
11482TIP3    H255862   5.243   6.613  13.394  2.0122 -1.1486 -1.0875
11483TIP3   OH255863   1.968   1.304   3.776 -0.1470  0.0082 -0.0562
11483TIP3    H155864   1.911   1.274   3.847  0.9071  0.5945  1.0811
11483TIP3    H255865   2.015   1.226   3.748  0.1934 -0.0300  0.6189
11484TIP3   OH255866   4.750   0.047   1.842  0.0787  0.1472  0.2644
11484TIP3    H155867   4.790   0.006   1.766  0.0292 -1.8222  1.2363
11484TIP3    H255868   4.656   0.039   1.827  0.0522 -1.4264  1.0770
11485TIP3   OH255869   6.795   4.795  16.621 -0.2016 -0.0426  0.3859
11485TIP3    H155870   6.736   4.805  16.546  2.7735 -1.6421 -2.4723
11485TIP3    H255871   6.831   4.883  16.636 -0.5694  0.2352 -0.3315
11486TIP3   OH255872   0.152   5.109   3.146  0.2396  0.3050 -0.0654
11486TIP3    H155873   0.113   5.191   3.178  0.0893 -0.2848  1.3202
11486TIP3    H255874   0.198   5.073   3.222  1.4849 -0.2162 -1.0254
11487TIP3   OH255875   0.576   2.622   1.722 -0.1869  0.2121 -0.5991
11487TIP3    H155876   0.558   2.716   1.726 -0.5314  0.1133  1.1697
11487TIP3    H255877   0.650   2.613   1.663 -0.2384  1.5791 -0.8908
11488TIP3   OH255878   5.871   6.568  10.274  0.0499 -0.7010  0.2317
11488TIP3    H155879   5.779   6.560  10.249  0.4804 -0.7253 -1.4571
11488TIP3    H255880   5.896   6.481  10.305 -1.2059 -0.0454  3.5468
11489TIP3   OH255881   1.732   3.835  14.862 -0.3047  0.3621 -0.2199
11489TIP3    H155882   1.734   3.815  14.956 -1.7909 -0.7069 -0.3857
11489TIP3    H255883   1.683   3.917  14.857  0.8750  1.0971  0.0217
11490TIP3   OH255884   1.767   6.135  15.038 -0.6278 -0.3105  0.4041
11490TIP3    H155885   1.690   6.191  15.042 -0.0932  0.4210  0.8143
11490TIP3    H255886   1.810   6.147  15.123  0.9720  0.8589 -0.4941
11491TIP3   OH255887   2.414   2.933  15.199 -0.2876  0.2821  0.5008
11491TIP3    H155888   2.490   2.952  15.144  0.2457  2.8825  1.9560
11491TIP3    H255889   2.397   3.015  15.245 -3.4950 -0.4486  0.8637
11492TIP3   OH255890   3.425   0.482  11.671 -0.4657 -0.2474  0.3233
11492TIP3    H155891   3.412   0.510  11.580  0.2859  0.6272  0.4761
11492TIP3    H255892   3.387   0.394  11.674  1.9803 -1.4777 -1.5470
11493TIP3   OH255893   2.829   3.913   2.670 -0.2830 -0.1356 -0.7646
11493TIP3    H155894   2.903   3.955   2.714 -0.7100  0.4279 -0.5709
11493TIP3    H255895   2.753   3.964   2.698 -0.5153  0.5355 -2.5061
11494TIP3   OH255896   5.936   0.856   3.933  0.0040 -0.6167 -0.3105
11494TIP3    H155897   5.989   0.777   3.927  0.2439 -0.4396 -0.5228
11494TIP3    H255898   5.870   0.846   3.864  0.7512 -0.0948 -1.1143
11495TIP3   OH255899   4.680   2.124   4.830 -0.1500  0.1149 -0.1110
11495TIP3    H155900   4.653   2.163   4.913  0.4362 -0.6097  0.4354
11495TIP3    H255901   4.607   2.142   4.770 -1.2406 -0.5857  0.9485
11496TIP3   OH255902   3.689   4.259  16.572 -0.3381  0.4261 -0.2040
11496TIP3    H155903   3.744   4.241  16.495  0.0584  1.7538 -0.2426
11496TIP3    H255904   3.635   4.333  16.546 -0.5043  0.6128  0.6492
11497TIP3   OH255905   3.407   1.747  11.328  0.8229 -0.2374  0.0301
11497TIP3    H155906   3.318   1.730  11.297  1.2159 -1.0440 -0.7111
11497TIP3    H255907   3.450   1.662  11.324  1.7413  0.2164  0.0193
11498TIP3   OH255908   3.712   4.972  13.705 -0.2422 -0.0015 -0.1257
11498TIP3    H155909   3.631   4.922  13.717 -0.0562 -0.0561  1.0449
11498TIP3    H255910   3.778   4.905  13.685 -0.8497  0.2211 -3.3748
11499TIP3   OH255911   4.955   1.374  10.770 -0.4979  0.0600  0.1148
11499TIP3    H155912   5.005   1.382  10.851 -0.6358 -1.3630  0.3658
11499TIP3    H255913   4.864   1.367  10.799 -0.5405 -0.5339 -0.1518
11500TIP3   OH255914   4.234   0.386   5.019  0.6725 -0.2689 -0.6877
11500TIP3    H155915   4.145   0.387   4.984  1.2140  0.2963 -2.1219
11500TIP3    H255916   4.222   0.378   5.113 -0.9337  0.7703 -0.7486
11501TIP3   OH255917   0.461   3.459   1.857  0.1834 -0.0284 -0.3240
11501TIP3    H155918   0.551   3.477   1.831 -0.1606  1.4028 -0.5900
11501TIP3    H255919   0.467   3.383   1.914  1.4102 -0.7361 -1.3528
11502TIP3   OH255920   1.712   0.463   0.996 -0.0702  0.2604 -0.0703
11502TIP3    H155921   1.627   0.506   0.982 -0.1538  0.8030  1.8280
11502TIP3    H255922   1.737   0.431   0.909 -2.2669 -0.0406 -0.6594
11503TIP3   OH255923   1.439   6.638   2.197  0.0675  0.0299  0.1380
11503TIP3    H155924   1.506   6.570   2.201 -0.3691 -0.5291 -1.3530
11503TIP3    H255925   1.454   6.681   2.113 -0.7674  0.6048  0.2782
11504TIP3   OH255926   3.769   0.975  13.798  0.6215 -0.0082  0.8251
11504TIP3    H155927   3.814   1.058  13.810  1.3814 -0.5362  1.8616
11504TIP3    H255928   3.810   0.916  13.862 -0.1221 -1.0862  0.3494
11505TIP3   OH255929   3.391   6.717   3.732  0.1605 -0.4347  0.5107
11505TIP3    H155930   3.387   6.809   3.707 -1.8065  0.1077  2.5027
11505TIP3    H255931   3.337   6.672   3.667 -0.0076  0.0248  0.3305
11506TIP3   OH255932   2.225   2.614   4.017 -0.4820  0.1361  0.3784
11506TIP3    H155933   2.142   2.566   4.012 -1.0712  1.1577 -0.0762
11506TIP3    H255934   2.207   2.697   3.973  0.7459  0.4437  0.4175
11507TIP3   OH255935   0.216   4.835   3.599  0.1310  0.3705  0.1588
11507TIP3    H155936   0.200   4.917   3.645  1.0817  0.2545  0.7262
11507TIP3    H255937   0.269   4.783   3.660  2.0347  0.4915 -1.2915
11508TIP3   OH255938   4.350   4.820   2.076 -0.3308 -0.0811 -0.6869
11508TIP3    H155939   4.342   4.780   2.162  0.3239 -0.3827 -0.7642
11508TIP3    H255940   4.302   4.760   2.018 -0.0888 -0.2950 -0.6637
11509TIP3   OH255941   4.569   0.865  15.350  0.0629  0.5466  0.3247
11509TIP3    H155942   4.563   0.925  15.276 -0.7291  0.8288  0.6072
11509TIP3    H255943   4.552   0.778  15.312 -2.8855  0.9292  0.5129
11510TIP3   OH255944   4.446   6.100   1.100  0.1504 -0.4324  0.4142
11510TIP3    H155945   4.441   6.005   1.111 -0.7072 -0.1981  2.5381
11510TIP3    H255946   4.526   6.125   1.146 -0.8457  0.0824  1.9296
11511TIP3   OH255947   5.720   2.430   1.157  0.1132  0.0642  0.0642
11511TIP3    H155948   5.742   2.373   1.231  0.4463  1.1844  0.8549
11511TIP3    H255949   5.771   2.394   1.083 -1.3682 -1.9814 -0.0552
11512TIP3   OH255950   6.584   2.291  15.781 -0.7166  0.0033 -0.3490
11512TIP3    H155951   6.670   2.251  15.783  0.1864  1.8562 -0.2028
11512TIP3    H255952   6.541   2.260  15.861 -0.3591 -1.2715 -0.6435
11513TIP3   OH255953   6.452   3.695  12.043  0.4006 -0.5142  0.0420
11513TIP3    H155954   6.432   3.603  12.059 -0.0201 -0.3720  0.3389
11513TIP3    H255955   6.516   3.718  12.110  1.4724 -0.9231 -0.8052
11514TIP3   OH255956   0.647   5.667   1.831  0.0346  0.3075  0.0877
11514TIP3    H155957   0.741   5.653   1.842  0.0260  0.0846 -0.1130
11514TIP3    H255958   0.614   5.681   1.920 -0.1937 -2.4430  0.5111
11515TIP3   OH255959   6.020   3.500   4.325  0.3352 -0.1901 -0.2445
11515TIP3    H155960   6.032   3.406   4.314  3.4886 -0.2529  2.1634
11515TIP3    H255961   6.057   3.539   4.246 -0.7974 -0.9141 -1.1566
11516TIP3   OH255962   3.570   4.437   0.416 -0.1776 -0.1164  0.3045
11516TIP3    H155963   3.517   4.481   0.482 -1.0236 -0.0897 -0.3686
11516TIP3    H255964   3.512   4.432   0.339  0.0906 -1.8798  0.1774
11517TIP3   OH255965   3.428   6.629  10.812 -0.3602  0.7979 -0.4143
11517TIP3    H155966   3.379   6.707  10.786  1.0330  1.6658 -0.5096
11517TIP3    H255967   3.467   6.598  10.730 -1.3101 -0.3259 -0.4718
11518TIP3   OH255968   5.625   4.027  12.054 -0.3652 -0.4797  0.7141
11518TIP3    H155969   5.654   4.100  12.108  0.6865 -1.6138  1.7601
11518TIP3    H255970   5.706   3.981  12.031 -1.0632 -1.9735  1.1023
11519TIP3   OH255971   4.774   5.627  13.820 -0.3046  0.5705  0.6018
11519TIP3    H155972   4.712   5.555  13.807  0.2189  0.4202 -1.2882
11519TIP3    H255973   4.856   5.584  13.844  0.1326  0.4573 -0.9834
11520TIP3   OH255974   1.663   2.369   3.373  0.3463  0.0678  0.2240
11520TIP3    H155975   1.718   2.440   3.407  0.5116  0.5057 -0.9111
11520TIP3    H255976   1.699   2.350   3.286 -0.7760 -0.2098 -0.1987
11521TIP3   OH255977   4.251   4.080   4.555 -0.1844 -0.0857  0.1877
11521TIP3    H155978   4.258   4.004   4.497 -0.1039  0.2592 -0.2575
11521TIP3    H255979   4.312   4.061   4.626  2.0161  0.8218 -1.3352
11522TIP3   OH255980   1.443   5.722  16.352 -0.2746 -0.0168 -0.0919
11522TIP3    H155981   1.503   5.647  16.345 -0.9206 -0.6499  0.9496
11522TIP3    H255982   1.495   5.790  16.394  0.4217  0.2559 -1.3506
11523TIP3   OH255983   5.094   6.645   0.131 -0.3353 -0.2030 -0.4255
11523TIP3    H155984   5.031   6.692   0.185  1.5200  0.1821  1.5537
11523TIP3    H255985   5.162   6.618   0.192  3.2125  2.3818 -2.8357
11524TIP3   OH255986   6.561   0.826  10.929 -0.3958  0.1585 -0.3009
11524TIP3    H155987   6.518   0.764  10.869  0.1223 -0.9353  0.4317
11524TIP3    H255988   6.488   0.867  10.976 -0.7040 -2.0208  1.2643
11525TIP3   OH255989   3.439   5.489  16.599 -0.2155  0.6904 -0.0133
11525TIP3    H155990   3.411   5.570  16.642 -0.7068  0.3768  0.2516
11525TIP3    H255991   3.363   5.459  16.550 -0.2858 -0.0494  0.5425
11526TIP3   OH255992   5.510   3.033  13.038 -0.0879 -0.0331 -0.3570
11526TIP3    H155993   5.455   2.984  13.099  3.0597 -2.1840  0.9971
11526TIP3    H255994   5.471   3.017  12.952 -1.8218 -0.9998  0.5679
11527TIP3   OH255995   6.271   5.719  15.182  0.3026  0.0421  0.1430
11527TIP3    H155996   6.251   5.803  15.223  1.8519  0.3714  0.2630
11527TIP3    H255997   6.271   5.737  15.088 -3.3622 -0.7365 -0.1675
11528TIP3   OH255998   6.055   0.135   0.351 -0.2716  0.0578  0.6932
11528TIP3    H155999   6.072   0.093   0.266 -0.8638 -1.1300  1.1422
11528TIP3    H256000   6.126   0.198   0.360  1.1603 -1.4101  0.3346
11529TIP3   OH256001   6.479   2.519   2.304 -0.5735  0.1055  0.0777
11529TIP3    H156002   6.520   2.602   2.282 -0.2682 -0.7111 -2.9272
11529TIP3    H256003   6.472   2.519   2.399  3.6915  1.5722  0.5709
11530TIP3   OH256004   1.625   4.379   0.430  0.0585 -0.0529  0.5646
11530TIP3    H156005   1.703   4.433   0.417  0.5192 -0.8299 -0.0102
11530TIP3    H256006   1.567   4.433   0.484  1.1205  0.4094  1.2718
11531TIP3   OH256007   4.576   2.477  14.831 -0.2185  0.0179  0.2430
11531TIP3    H156008   4.543   2.560  14.796  0.1836  0.6845  1.3772
11531TIP3    H256009   4.497   2.426  14.850 -0.4408 -0.5004 -1.8656
11532TIP3   OH256010   0.454   0.050   1.214  0.0548  0.6580 -0.7904
11532TIP3    H156011   0.494   0.025   1.131  1.1906  2.7623 -0.9671
11532TIP3    H256012   0.528   0.083   1.266 -0.4732 -1.4289  1.4451
11533TIP3   OH256013   6.604   5.848   1.608 -0.0129 -0.0760 -0.0626
11533TIP3    H156014   6.668   5.833   1.538 -3.0652 -1.4724 -2.8217
11533TIP3    H256015   6.554   5.924   1.578 -1.4344 -0.7433  0.5726
11534TIP3   OH256016   2.596   3.293   3.694 -0.0648  0.4053 -0.1711
11534TIP3    H156017   2.636   3.212   3.664 -0.6733  0.0854 -0.1351
11534TIP3    H256018   2.507   3.291   3.659 -1.1505 -0.4264  2.3477
11535TIP3   OH256019   1.443   2.594   5.370 -0.3817 -0.0198 -0.5576
11535TIP3    H156020   1.357   2.551   5.376 -0.9037  1.1107  0.7128
11535TIP3    H256021   1.433   2.659   5.300  0.2137 -1.4483 -2.0418
11536TIP3   OH256022   2.978   1.559  11.131 -0.0644 -0.5176  0.3381
11536TIP3    H156023   3.039   1.626  11.099 -0.8833 -0.0354 -0.2381
11536TIP3    H256024   2.952   1.511  11.053 -1.0881 -0.1577  0.4397
11537TIP3   OH256025   1.955   0.419   3.729  0.3197 -0.2150  0.4207
11537TIP3    H156026   1.972   0.420   3.823  0.1022  1.1793  0.4657
11537TIP3    H256027   2.042   0.417   3.689  0.4968  1.2449  0.6689
11538TIP3   OH256028   0.937   5.351  16.507  0.4473 -0.1751 -1.0217
11538TIP3    H156029   1.022   5.389  16.482  1.1438 -0.5163  0.6962
11538TIP3    H256030   0.897   5.417  16.564 -0.2195 -0.2457 -1.3974
11539TIP3   OH256031   0.470   5.329   5.179 -0.1376  0.1037  0.3976
11539TIP3    H156032   0.397   5.385   5.205 -0.9024 -0.4091 -0.5876
11539TIP3    H256033   0.446   5.242   5.212  0.0434 -0.0601  0.1043
11540TIP3   OH256034   3.860   6.515  15.036  0.1882 -0.0873  0.2534
11540TIP3    H156035   3.824   6.426  15.031  1.5417 -0.6210 -0.5313
11540TIP3    H256036   3.908   6.516  15.119  1.2268 -0.5352 -0.3183
11541TIP3   OH256037   2.537   5.497  15.672 -0.3294 -0.4557 -0.1643
11541TIP3    H156038   2.604   5.453  15.724  0.5914  1.3756  0.2956
11541TIP3    H256039   2.502   5.564  15.731 -1.6902 -0.5652 -0.8160
11542TIP3   OH256040   2.390   3.451   0.718 -0.5345 -0.8161  0.8004
11542TIP3    H156041   2.298   3.425   0.720  0.1676 -3.8049 -0.4712
11542TIP3    H256042   2.431   3.399   0.788  0.2753  0.0744  1.0055
11543TIP3   OH256043   3.258   0.240  15.956  0.5408  0.0586  0.0249
11543TIP3    H156044   3.217   0.165  16.000  2.8185 -0.2815  1.7203
11543TIP3    H256045   3.234   0.315  16.011  0.9362  0.0749  0.1785
11544TIP3   OH256046   3.491   0.604   4.824  0.0590 -0.3672  0.2353
11544TIP3    H156047   3.579   0.621   4.790 -0.0388  0.9041  0.5667
11544TIP3    H256048   3.432   0.642   4.759 -0.1595  0.9994  1.1840
11545TIP3   OH256049   2.678   3.394   2.530 -0.0608  0.1533 -0.0184
11545TIP3    H156050   2.633   3.310   2.526 -2.8542  1.4501  1.3721
11545TIP3    H256051   2.768   3.372   2.552 -0.2777 -2.5304 -1.4107
11546TIP3   OH256052   0.846   0.787   3.453 -0.3840 -0.0124 -0.0874
11546TIP3    H156053   0.940   0.770   3.451 -0.4529 -0.3314 -1.0615
11546TIP3    H256054   0.805   0.702   3.436 -0.8071  0.3982 -1.2349
11547TIP3   OH256055   4.307   2.227   4.158  0.4679  0.2854 -0.0333
11547TIP3    H156056   4.239   2.199   4.097 -0.6086  0.8958  0.8615
11547TIP3    H256057   4.331   2.315   4.128  0.0647  0.5142  0.3041
11548TIP3   OH256058   1.017   3.484  13.355  0.4657  0.0628  0.2677
11548TIP3    H156059   1.057   3.455  13.436  3.3296  0.3620 -0.9073
11548TIP3    H256060   1.027   3.410  13.295 -0.5123  0.2705 -0.1732
11549TIP3   OH256061   1.395   5.952   1.940 -0.0911  0.0594  0.2628
11549TIP3    H156062   1.376   6.040   1.972 -2.1947 -0.2713  0.0682
11549TIP3    H256063   1.404   5.899   2.019  0.3567  0.2978  0.3715
11550TIP3   OH256064   0.937   5.629  15.451  0.4295 -0.3505  0.2304
11550TIP3    H156065   0.975   5.620  15.363 -0.1204 -0.5032  0.0049
11550TIP3    H256066   0.854   5.675  15.437 -0.2999 -1.5309  0.5040
11551TIP3   OH256067   1.799   2.775  15.801  0.3841  0.3829  0.0289
11551TIP3    H156068   1.832   2.864  15.793 -0.0070  0.5388  0.1247
11551TIP3    H256069   1.745   2.776  15.880  0.3237  0.0792 -0.0067
11552TIP3   OH256070   2.119   5.081  13.591 -0.0910  0.3363  0.2022
11552TIP3    H156071   2.120   5.038  13.676 -1.9877 -1.7560 -0.7291
11552TIP3    H256072   2.042   5.139  13.594 -0.7771 -0.5179 -0.3931
11553TIP3   OH256073   2.233   1.103   5.373  0.2942 -0.1020  0.2683
11553TIP3    H156074   2.323   1.090   5.404 -0.1041 -0.6800  1.2391
11553TIP3    H256075   2.227   1.050   5.293  0.6065 -0.6582  0.6047
11554TIP3   OH256076   5.791   1.278   2.439  0.4975  0.0417  0.6888
11554TIP3    H156077   5.808   1.184   2.430  1.2859  0.2666 -0.2693
11554TIP3    H256078   5.701   1.288   2.407  1.1717 -0.0813 -1.3607
11555TIP3   OH256079   4.130   1.640   4.228  0.1660  0.0048 -0.1160
11555TIP3    H156080   4.054   1.697   4.223 -0.7072 -1.0906  0.1445
11555TIP3    H256081   4.126   1.587   4.148  1.2230  0.6009 -0.5821
11556TIP3   OH256082   5.640   6.769  15.999  0.3420  0.2582 -0.7057
11556TIP3    H156083   5.723   6.813  16.017  0.7195 -0.6596 -0.1142
11556TIP3    H256084   5.642   6.751  15.905  0.6270  0.6136 -0.7678
11557TIP3   OH256085   3.209   3.508  16.487 -0.2054 -0.8682  0.2083
11557TIP3    H156086   3.146   3.470  16.548 -3.0108  1.3323 -1.0999
11557TIP3    H256087   3.227   3.595  16.522  0.0022 -0.4820 -0.8401
11558TIP3   OH256088   1.100   4.194  11.450 -0.3613  0.3018 -0.1427
11558TIP3    H156089   1.051   4.276  11.461 -0.6931  0.2725 -1.2401
11558TIP3    H256090   1.098   4.153  11.537 -0.0093  1.5486  0.4732
11559TIP3   OH256091   1.157   4.751  16.088  0.4551 -0.6149 -0.8296
11559TIP3    H156092   1.221   4.749  16.017  1.7645 -0.3288  0.2944
11559TIP3    H256093   1.160   4.841  16.121  2.0646 -1.3820  1.4167
11560TIP3   OH256094   0.705   6.671   6.144  0.2752  0.0606  0.3353
11560TIP3    H156095   0.654   6.742   6.183  0.6561 -0.5347  2.0337
11560TIP3    H256096   0.643   6.626   6.086 -1.2894 -0.8098  2.5326
11561TIP3   OH256097   4.158   6.368  13.925 -0.4168  0.0429  0.4337
11561TIP3    H156098   4.152   6.463  13.930  0.8506  0.1456  0.3582
11561TIP3    H256099   4.176   6.350  13.832  2.1623 -0.0521  0.8934
11562TIP3   OH256100   1.600   3.062   3.553  0.1123 -0.0251  0.3525
11562TIP3    H156101   1.636   2.977   3.526  0.1068 -0.0680  0.4775
11562TIP3    H256102   1.587   3.053   3.647  3.3414  1.2349  1.0735
11563TIP3   OH256103   2.583   6.290  16.390  0.0939 -0.2443  0.3102
11563TIP3    H156104   2.542   6.295  16.304 -1.4379  0.2211  1.0259
11563TIP3    H256105   2.547   6.364  16.438  2.8326  0.9843  0.6014
11564TIP3   OH256106   5.522   3.985  12.290  0.1888 -0.2637 -0.3126
11564TIP3    H156107   5.564   3.995  12.204 -0.3441 -2.0040 -0.8344
11564TIP3    H256108   5.429   3.998  12.272 -0.0799 -1.9149 -0.3007
11565TIP3   OH256109   0.941   1.632   0.168 -0.2630  0.2455 -0.3754
11565TIP3    H156110   0.998   1.694   0.122  0.2469  0.6829  0.8121
11565TIP3    H256111   0.856   1.677   0.172  0.0874  0.8569  0.4236
11566TIP3   OH256112   5.975   6.038   3.066  0.2006 -0.2214 -0.5019
11566TIP3    H156113   5.974   6.126   3.104  1.2061  0.7696 -2.5809
11566TIP3    H256114   6.013   6.050   2.979  1.7085 -2.9366 -0.3436
11567TIP3   OH256115   6.049   0.806  14.879  0.0180 -0.0804 -0.2070
11567TIP3    H156116   6.126   0.827  14.826  0.0062 -0.0854 -0.2262
11567TIP3    H256117   6.055   0.865  14.954  1.5788 -2.0039  1.2761
11568TIP3   OH256118   2.314   2.327   3.488  0.4509  0.0897  0.1830
11568TIP3    H156119   2.371   2.403   3.476  1.9012 -0.5864  2.0960
11568TIP3    H256120   2.373   2.252   3.476 -0.2978 -0.6560  1.0120
11569TIP3   OH256121   1.104   6.553   5.247  0.0541  0.1973  0.3523
11569TIP3    H156122   1.033   6.576   5.306 -0.2380 -0.0547  0.1006
11569TIP3    H256123   1.102   6.621   5.179 -1.6076 -1.1915 -1.0872
11570TIP3   OH256124   5.747   3.160  14.701  0.5906 -0.6312  0.3053
11570TIP3    H156125   5.815   3.194  14.642 -1.1808 -0.0335 -1.5050
11570TIP3    H256126   5.753   3.216  14.779 -1.4943  3.3738 -2.0960
11571TIP3   OH256127   5.039   5.781  16.185 -0.0587  0.3317  0.1215
11571TIP3    H156128   5.004   5.870  16.184  0.7925  0.7415  2.1971
11571TIP3    H256129   4.975   5.730  16.236 -1.3894 -0.7036 -2.3975
11572TIP3   OH256130   1.192   0.342  15.996 -0.7020  0.4381  0.3435
11572TIP3    H156131   1.174   0.435  16.002 -0.9756  0.7039 -2.9961
11572TIP3    H256132   1.152   0.314  15.914  1.0163 -2.2149  0.2743
11573TIP3   OH256133   0.288   4.035   5.701  0.3511  0.0369 -0.0941
11573TIP3    H156134   0.225   3.970   5.670  1.9987 -1.3467 -0.7216
11573TIP3    H256135   0.372   4.006   5.664  1.4412  1.5314  1.0888
11574TIP3   OH256136   3.694   1.650   2.261  0.1474 -0.0595 -0.2921
11574TIP3    H156137   3.748   1.684   2.332 -2.9074  0.9778  1.7645
11574TIP3    H256138   3.684   1.557   2.281 -2.0133  0.5207  1.7542
11575TIP3   OH256139   0.445   6.107  15.010  0.0717 -0.1038 -0.0692
11575TIP3    H156140   0.467   6.188  14.963 -0.1521  0.1751  0.3091
11575TIP3    H256141   0.387   6.060  14.950 -1.3068  0.8640  0.4636
11576TIP3   OH256142   0.545   5.791   6.032 -0.0928  0.0147  0.1150
11576TIP3    H156143   0.462   5.778   5.986 -1.1162  0.1051  1.8634
11576TIP3    H256144   0.573   5.704   6.059  1.9020 -0.4143 -2.8310
11577TIP3   OH256145   1.747   6.271   3.070 -0.5359 -0.6514  0.0495
11577TIP3    H156146   1.752   6.361   3.038 -4.8138  1.6223  4.4869
11577TIP3    H256147   1.675   6.232   3.019  0.5302 -1.2300 -1.0529
11578TIP3   OH256148   1.752   3.134  11.144 -0.3230  0.0143 -0.1051
11578TIP3    H156149   1.683   3.185  11.101 -1.2989  0.1919  1.5369
11578TIP3    H256150   1.812   3.200  11.179  0.1404 -0.1032 -0.6670
11579TIP3   OH256151   5.697   0.172  16.618 -0.5218 -0.0206 -0.1824
11579TIP3    H156152   5.735   0.171  16.530  0.4921  0.4897  0.2388
11579TIP3    H256153   5.614   0.124  16.609  0.2341 -1.1965 -1.1159
11580TIP3   OH256154   4.879   1.985  14.258 -0.1016  0.2645  0.0039
11580TIP3    H156155   4.849   1.895  14.275 -0.4808 -0.2170 -2.7544
11580TIP3    H256156   4.815   2.020  14.197  0.1672  2.3845  0.8751
11581TIP3   OH256157   6.012   0.340   2.637  0.3414 -0.3005 -0.6677
11581TIP3    H156158   5.917   0.342   2.623 -0.0085 -0.1558  1.4445
11581TIP3    H256159   6.026   0.264   2.694  1.4435 -0.0566 -0.5950
11582TIP3   OH256160   3.375   3.275  14.903  0.4690  0.7169  0.0498
11582TIP3    H156161   3.330   3.345  14.856  1.5559  0.3165 -1.6805
11582TIP3    H256162   3.457   3.263  14.856  0.6104 -1.2568  0.6947
11583TIP3   OH256163   1.473   0.308   1.987  0.3314 -0.2433  0.6627
11583TIP3    H156164   1.403   0.246   2.011  0.4120 -0.7019 -0.2760
11583TIP3    H256165   1.475   0.307   1.892  0.3772  1.1714  0.6290
11584TIP3   OH256166   6.696   0.349   3.941 -0.7655  0.0378  0.1028
11584TIP3    H156167   6.740   0.417   3.890 -1.6124  1.2653  0.9532
11584TIP3    H256168   6.760   0.323   4.007  0.3444 -1.5790 -1.5407
11585TIP3   OH256169   2.970   0.910   4.533  0.0684  0.1687  0.2236
11585TIP3    H156170   2.935   0.903   4.444 -0.4800 -1.0738  0.5111
11585TIP3    H256171   2.925   0.986   4.570  0.7985  1.1199 -0.7507
11586TIP3   OH256172   4.594   0.324  14.706  0.0171 -0.1025 -0.0015
11586TIP3    H156173   4.671   0.312  14.652 -0.3105 -0.6684 -0.3598
11586TIP3    H256174   4.589   0.418  14.722  0.6428 -0.0409 -0.1706
11587TIP3   OH256175   2.354   3.982  14.608 -0.4803  0.2811  0.0959
11587TIP3    H156176   2.445   4.007  14.624 -0.5468  0.6040 -0.0342
11587TIP3    H256177   2.351   3.889  14.630  0.4776 -0.3841 -2.3291
11588TIP3   OH256178   0.160   5.588   2.860 -0.0094 -0.6805  0.2756
11588TIP3    H156179   0.226   5.529   2.822  0.3967 -0.1658  0.1630
11588TIP3    H256180   0.136   5.646   2.788 -0.3587 -0.6626  0.4039
11589TIP3   OH256181   0.670   5.306  12.116  0.1415 -0.3222 -0.2767
11589TIP3    H156182   0.597   5.366  12.122  0.2793 -0.0575 -1.0968
11589TIP3    H256183   0.744   5.360  12.086  0.4200 -0.7744 -0.4238
11590TIP3   OH256184   0.585   5.647   4.208 -0.0494  0.3942  0.7780
11590TIP3    H156185   0.529   5.608   4.275 -0.6615 -1.2130 -0.6045
11590TIP3    H256186   0.673   5.617   4.230 -0.3140 -0.5414  0.6124
11591TIP3   OH256187   3.023   0.983  14.197  0.1849  0.6871 -0.2165
11591TIP3    H156188   3.056   0.917  14.137  1.8962  1.2513  0.0309
11591TIP3    H256189   3.058   0.957  14.283 -2.4289 -0.2615  0.6680
11592TIP3   OH256190   4.077   2.385  13.114 -0.4573  0.0347 -0.0526
11592TIP3    H156191   4.000   2.367  13.059  0.4526 -1.8616 -0.7938
11592TIP3    H256192   4.104   2.473  13.089 -0.3870 -0.5630 -2.3034
11593TIP3   OH256193   3.409   3.368  16.616 -0.1740  0.1548  0.2289
11593TIP3    H156194   3.421   3.418  16.535 -0.1905 -0.8835 -0.4317
11593TIP3    H256195   3.319   3.336  16.611 -0.0104 -0.3426  0.4104
11594TIP3   OH256196   0.224   4.140   0.907  0.8793 -0.3834  0.0248
11594TIP3    H156197   0.226   4.235   0.891  0.8744 -0.4221 -0.2143
11594TIP3    H256198   0.153   4.128   0.971  1.1248 -0.1858  0.3360
11595TIP3   OH256199   5.210   6.072   5.310 -0.1961  0.4796 -0.0464
11595TIP3    H156200   5.225   6.154   5.262  0.7857 -0.2696 -1.0776
11595TIP3    H256201   5.195   6.099   5.400  2.2979  1.6963  0.0680
11596TIP3   OH256202   0.998   0.279  17.073  0.0541 -0.8343 -0.7859
11596TIP3    H156203   1.009   0.300  17.165 -2.5873  2.3255 -0.9883
11596TIP3    H256204   1.084   0.295  17.033  1.2019 -2.1717  1.0028
11597TIP3   OH256205   0.686   1.216   3.431  0.2488  0.3793  0.2838
11597TIP3    H156206   0.675   1.121   3.436 -0.2918  0.4124 -0.2308
11597TIP3    H256207   0.646   1.241   3.348 -0.8196  1.2372  1.0204
11598TIP3   OH256208   2.565   0.198  11.751 -0.1571  0.0846 -0.0067
11598TIP3    H156209   2.541   0.110  11.722 -0.6734 -0.2934  1.4971
11598TIP3    H256210   2.488   0.230  11.797  0.0794  1.2815 -0.4138
11599TIP3   OH256211   2.888   0.885   4.272 -0.0468  0.0126  0.2406
11599TIP3    H156212   2.840   0.843   4.201 -0.8817  0.7452  0.3461
11599TIP3    H256213   2.975   0.845   4.270 -0.5690 -1.1456 -0.1441
11600TIP3   OH256214   4.195   6.356  12.518  0.0430  0.5012 -0.0718
11600TIP3    H156215   4.222   6.447  12.508 -1.3178  1.0455  0.9272
11600TIP3    H256216   4.273   6.305  12.497  0.2752  1.7972 -2.7994
11601TIP3   OH256217   5.569   1.359   4.820 -0.2520 -0.2905  0.3810
11601TIP3    H156218   5.565   1.337   4.727  1.2833 -0.1330  0.2502
11601TIP3    H256219   5.478   1.375   4.845 -0.4723  2.7661 -1.8541
11602TIP3   OH256220   0.785   6.580   3.335  0.0860  0.0669  0.0810
11602TIP3    H156221   0.707   6.533   3.363 -0.7281  1.3523  0.0218
11602TIP3    H256222   0.756   6.633   3.261  1.3855 -0.6015 -0.9562
11603TIP3   OH256223   0.383   3.075   5.823  0.2656 -0.3013 -0.3599
11603TIP3    H156224   0.334   3.014   5.878  0.7295 -0.3448  0.0084
11603TIP3    H256225   0.450   3.111   5.881 -0.5461  1.2270 -0.3196
11604TIP3   OH256226   3.443   0.105   1.365  0.5219  0.3868 -0.8076
11604TIP3    H156227   3.507   0.133   1.430  0.6662  0.4751 -0.9893
11604TIP3    H256228   3.490   0.044   1.308 -0.0959 -1.2257  0.3121
11605TIP3   OH256229   3.608   2.991   1.293 -1.0481 -0.1813  0.2622
11605TIP3    H156230   3.516   2.979   1.318 -0.3478 -0.7954  2.7876
11605TIP3    H256231   3.615   2.950   1.206 -3.1335 -0.1068  0.0086
11606TIP3   OH256232   1.720   6.518  16.946 -0.2605  0.5536 -0.0587
11606TIP3    H156233   1.669   6.548  17.020  0.5429  3.5401 -0.5873
11606TIP3    H256234   1.805   6.493  16.983 -0.6356 -0.2308  0.2838
11607TIP3   OH256235   3.360   1.763   0.852  0.5313  0.2830  0.1046
11607TIP3    H156236   3.416   1.688   0.834  0.8542  0.4588  0.3630
11607TIP3    H256237   3.410   1.838   0.819  0.1031  0.3600 -0.3772
11608TIP3   OH256238   1.438   4.064  11.855 -0.0818  0.4381  0.0555
11608TIP3    H156239   1.426   4.035  11.765  1.5478  1.7555 -0.6537
11608TIP3    H256240   1.442   4.159  11.850  2.1487  0.4932  1.1482
11609TIP3   OH256241   5.035   0.820   4.014 -0.2874 -0.4987 -0.0535
11609TIP3    H156242   4.988   0.882   3.958 -0.2862 -0.4730 -0.0262
11609TIP3    H256243   5.007   0.843   4.103  1.5795  1.0823  0.1919
11610TIP3   OH256244   3.693   0.325  12.543  0.1860  0.1904  0.0631
11610TIP3    H156245   3.646   0.342  12.624 -0.4094 -1.5956  0.1290
11610TIP3    H256246   3.642   0.372  12.476 -0.1008  0.5360  0.5136
11611TIP3   OH256247   4.181   5.815   0.767  0.1240  0.1946  1.0164
11611TIP3    H156248   4.213   5.868   0.694  1.6969  2.9202  3.4292
11611TIP3    H256249   4.103   5.862   0.798  0.8935  0.5446  2.5215
11612TIP3   OH256250   0.395   3.131   2.740  0.2094  0.2682  0.0896
11612TIP3    H156251   0.453   3.206   2.751  0.0856  0.2480  0.9985
11612TIP3    H256252   0.339   3.154   2.666  1.3137  0.3173 -0.7510
11613TIP3   OH256253   1.318   1.368  14.640 -0.1125 -0.1150  0.2398
11613TIP3    H156254   1.366   1.407  14.713 -1.4050 -0.7275  1.4644
11613TIP3    H256255   1.310   1.276  14.664 -1.3100 -0.1548 -0.2542
11614TIP3   OH256256   4.702   5.585  11.805  0.2089  0.1501 -0.2367
11614TIP3    H156257   4.677   5.582  11.897  1.6032 -0.2815  0.1607
11614TIP3    H256258   4.780   5.641  11.803  0.2368  0.1042 -1.1543
11615TIP3   OH256259   0.011   4.499   1.733 -0.6989  0.5415 -0.0424
11615TIP3    H156260  -0.016   4.519   1.644 -1.9099 -0.6819  0.0078
11615TIP3    H256261   0.105   4.479   1.726 -1.0890 -1.1019 -1.3645
11616TIP3   OH256262   0.057   1.451  11.972  0.0609 -0.5241  0.2493
11616TIP3    H156263   0.108   1.526  12.002 -0.6093  0.1178 -0.1933
11616TIP3    H256264   0.047   1.396  12.050  0.6243 -0.1977  0.5585
11617TIP3   OH256265   1.409   2.829   5.196 -0.0406  0.1958  0.0530
11617TIP3    H156266   1.453   2.804   5.115 -0.2521  1.1174 -0.3450
11617TIP3    H256267   1.415   2.924   5.199 -1.8658  0.3390  0.0685
11618TIP3   OH256268   3.294   1.125  11.867 -0.4317  0.3035  0.2322
11618TIP3    H156269   3.304   1.220  11.871 -1.0974  0.3531  0.9867
11618TIP3    H256270   3.371   1.090  11.912 -0.1961  0.4824 -0.0286
11619TIP3   OH256271   5.200   5.422   4.868 -0.1656 -0.2863  0.0916
11619TIP3    H156272   5.279   5.440   4.920 -1.5806 -0.7337  2.5431
11619TIP3    H256273   5.132   5.474   4.910 -1.3585 -0.4841 -1.5215
11620TIP3   OH256274   1.182   4.485   0.815 -0.2894  0.0486  0.0546
11620TIP3    H156275   1.126   4.444   0.881 -0.0042 -0.9119 -0.2826
11620TIP3    H256276   1.132   4.561   0.786 -0.6801  0.1505  0.9431
11621TIP3   OH256277   6.156   0.927  12.990 -0.4631  0.0020  0.0417
11621TIP3    H156278   6.214   0.891  12.923 -0.8721 -0.4041 -0.0998
11621TIP3    H256279   6.081   0.867  12.993 -0.9077  0.5472  0.1745
11622TIP3   OH256280   0.262   5.667  13.867 -0.4142 -0.9576  0.0630
11622TIP3    H156281   0.300   5.739  13.917 -1.5167  0.8342 -1.5429
11622TIP3    H256282   0.336   5.611  13.845  0.1680 -1.6396  3.2713
11623TIP3   OH256283   4.145   6.401  11.805 -0.0725 -0.1120  0.2120
11623TIP3    H156284   4.076   6.454  11.764  0.1627 -0.2355 -0.3608
11623TIP3    H256285   4.125   6.312  11.776 -0.1911 -0.2727  0.7839
11624TIP3   OH256286   4.323   6.367  14.696 -0.1460 -0.0078 -0.1200
11624TIP3    H156287   4.269   6.379  14.773 -0.3165  1.1203 -0.3914
11624TIP3    H256288   4.298   6.282  14.661 -0.7685 -0.0867  0.5071
11625TIP3   OH256289   2.942   2.960   3.883  0.1335 -0.1017  0.0400
11625TIP3    H156290   2.857   2.985   3.848  1.2547  0.1523 -2.7453
11625TIP3    H256291   2.950   3.010   3.964 -1.7463  0.9776 -0.3753
11626TIP3   OH256292   6.249   0.571   5.024 -0.1070  0.2705  0.2214
11626TIP3    H156293   6.207   0.491   5.055 -0.8352  0.3777 -0.4464
11626TIP3    H256294   6.202   0.642   5.069  1.1027  0.3239  1.4819
11627TIP3   OH256295   0.740   5.289   3.866 -0.1637 -1.0848  0.0031
11627TIP3    H156296   0.681   5.363   3.882  0.1503 -0.9955  0.7817
11627TIP3    H256297   0.785   5.311   3.785  0.5643  0.0040  0.6727
11628TIP3   OH256298   1.097   2.224   3.254 -0.3310  0.9387 -0.3891
11628TIP3    H156299   1.029   2.260   3.198  0.2192  0.2387 -1.5539
11628TIP3    H256300   1.081   2.129   3.253  0.3966  0.8085 -0.3319
11629TIP3   OH256301   5.935   0.734   2.712  0.6288 -0.1492  0.1424
11629TIP3    H156302   5.846   0.710   2.738  0.5821 -0.0302  0.0894
11629TIP3    H256303   5.936   0.721   2.617  0.3633  0.8441 -0.0059
11630TIP3   OH256304   4.326   1.792  11.601 -0.5292  0.7003  0.6438
11630TIP3    H156305   4.249   1.744  11.572 -1.1635  1.5440  0.8847
11630TIP3    H256306   4.329   1.779  11.696 -0.1426  0.3462  0.5862
11631TIP3   OH256307   0.262   4.497  14.184 -0.0949 -0.2554 -0.2668
11631TIP3    H156308   0.337   4.489  14.125  0.3238  0.5501  0.1374
11631TIP3    H256309   0.218   4.412  14.179  0.3292 -0.4274 -1.2016
11632TIP3   OH256310   6.022   6.339  12.631 -0.3441  0.4902  0.2248
11632TIP3    H156311   6.105   6.385  12.616 -0.1119 -0.4136 -1.6350
11632TIP3    H256312   5.955   6.405  12.613 -0.0121  0.3072 -1.9386
11633TIP3   OH256313   2.014   5.031   0.109 -0.2172 -0.0438  0.1259
11633TIP3    H156314   1.929   5.037   0.152 -0.7032 -1.0948 -0.6373
11633TIP3    H256315   2.046   5.121   0.107 -1.5795  0.4648 -0.0898
11634TIP3   OH256316   6.247   2.858   3.848 -0.4461  0.0703  0.0373
11634TIP3    H156317   6.158   2.844   3.880 -0.6918 -0.3582 -0.8145
11634TIP3    H256318   6.286   2.771   3.846  0.3332  0.3523  1.3192
11635TIP3   OH256319   0.004   2.708   0.683  0.6769 -0.0142 -0.1500
11635TIP3    H156320  -0.076   2.760   0.672  1.5135  1.0174 -1.7478
11635TIP3    H256321  -0.023   2.619   0.660  0.4079  0.6851 -2.9015
11636TIP3   OH256322   6.068   1.369  16.720 -0.4266 -0.2479 -0.2066
11636TIP3    H156323   6.016   1.399  16.645  0.1221 -1.5395 -1.1559
11636TIP3    H256324   6.068   1.273  16.711  1.6038 -0.3185  0.0859
11637TIP3   OH256325   1.773   2.116   1.049  0.1074 -0.2290  0.4326
11637TIP3    H156326   1.838   2.115   0.978 -0.2723 -1.2174  0.0895
11637TIP3    H256327   1.813   2.063   1.118 -0.3026 -0.7858  0.2458
11638TIP3   OH256328   6.211   1.160   5.856  0.0276  0.2036 -0.2558
11638TIP3    H156329   6.193   1.068   5.873  1.0319  0.3631  2.1399
11638TIP3    H256330   6.293   1.161   5.807  0.8727 -0.1769  1.1044
11639TIP3   OH256331   4.190   2.049   0.892 -0.5846 -0.0275  0.5154
11639TIP3    H156332   4.172   1.962   0.857  1.4903 -0.5253  0.5631
11639TIP3    H256333   4.220   2.033   0.982  0.3790  0.6749  0.3335
11640TIP3   OH256334   1.989   3.857  10.843 -0.0772 -0.1987 -0.1990
11640TIP3    H156335   1.972   3.913  10.919 -2.3961  1.5618 -1.8706
11640TIP3    H256336   1.932   3.782  10.855 -0.9895  0.4286 -0.4971
11641TIP3   OH256337   1.660   6.625  16.391 -0.2142 -0.1263 -0.0523
11641TIP3    H156338   1.615   6.709  16.377  2.1927  1.3992  0.7455
11641TIP3    H256339   1.683   6.626  16.484  1.3097 -0.8898 -0.3930
11642TIP3   OH256340   0.146   2.944   5.991  0.5871  0.0356 -0.1288
11642TIP3    H156341   0.100   2.952   6.075 -0.2819  0.0627 -0.6051
11642TIP3    H256342   0.231   2.908   6.015  0.3355  0.0081  0.7685
11643TIP3   OH256343   0.807   0.161   2.143  0.0195 -0.3494  0.0731
11643TIP3    H156344   0.771   0.073   2.134 -0.7113 -0.0285 -0.2441
11643TIP3    H256345   0.900   0.148   2.160 -0.1430 -1.1863  0.3415
11644TIP3   OH256346   0.494   5.992  15.709 -0.1694 -0.8768 -0.3101
11644TIP3    H156347   0.435   6.058  15.746  0.0475 -0.7994 -0.1016
11644TIP3    H256348   0.441   5.948  15.642  0.0551  0.3370 -1.3352
11645TIP3   OH256349   0.965   6.092   4.839 -0.5185  0.2810 -0.6874
11645TIP3    H156350   1.011   6.041   4.906 -1.3885  0.2063 -0.1433
11645TIP3    H256351   0.918   6.027   4.787 -0.2352  0.3827 -1.0733
11646TIP3   OH256352   2.816   2.889   6.210 -0.1051  0.5346 -0.3137
11646TIP3    H156353   2.799   2.880   6.117 -0.6507  0.1360 -0.1886
11646TIP3    H256354   2.729   2.906   6.248 -0.1703 -0.9976  0.2980
11647TIP3   OH256355   3.373   1.802  16.756  0.0701 -0.4326 -0.5345
11647TIP3    H156356   3.410   1.806  16.845 -0.7932  2.2466 -0.1812
11647TIP3    H256357   3.367   1.894  16.730 -0.7256 -1.1188 -2.9600
11648TIP3   OH256358   0.259   5.886  14.371 -0.5831  0.1044  0.0274
11648TIP3    H156359   0.209   5.813  14.335 -0.5484 -0.3825  0.9364
11648TIP3    H256360   0.350   5.857  14.366 -0.4631  0.5501 -0.6229
11649TIP3   OH256361   1.160   3.244  15.585  0.2904 -0.0973  0.3457
11649TIP3    H156362   1.136   3.285  15.669 -1.6622 -0.8206  0.1875
11649TIP3    H256363   1.187   3.318  15.530  1.0977  0.4476  1.4289
11650TIP3   OH256364   5.247   5.172  11.584  0.1707 -0.1297  0.7945
11650TIP3    H156365   5.299   5.231  11.638  1.0250 -0.0708 -0.0669
11650TIP3    H256366   5.258   5.086  11.624  0.7467 -0.0786  0.7556
11651TIP3   OH256367   5.774   5.337  13.515  0.7909  0.5308  0.3563
11651TIP3    H156368   5.725   5.259  13.541  1.8342 -0.5355 -0.7249
11651TIP3    H256369   5.711   5.391  13.469  0.4678 -0.5537 -0.5252
11652TIP3   OH256370   5.287   0.978   4.709  0.0391 -0.0521  1.4113
11652TIP3    H156371   5.354   1.000   4.773 -1.5392  2.3828  2.3788
11652TIP3    H256372   5.317   1.018   4.627 -0.6784  2.0151  2.1061
11653TIP3   OH256373   6.343   6.468  17.172 -0.0949  0.2514 -0.3849
11653TIP3    H156374   6.438   6.461  17.165 -0.2525 -1.0889 -1.4535
11653TIP3    H256375   6.309   6.416  17.100 -1.6638 -1.3398  1.3751
11654TIP3   OH256376   2.458   0.823   1.397  0.1266 -0.3453 -0.0070
11654TIP3    H156377   2.527   0.856   1.455  2.2129 -4.4668  0.2352
11654TIP3    H256378   2.503   0.804   1.315 -1.0673 -1.6516 -0.3950
11655TIP3   OH256379   0.969   3.583  12.505 -0.1498 -0.7117  0.8973
11655TIP3    H156380   0.951   3.674  12.528 -0.0065 -0.0294 -1.4953
11655TIP3    H256381   0.884   3.547  12.480 -0.1473 -1.1775  1.5045
11656TIP3   OH256382   6.265   4.012  16.680 -0.0167  0.0645 -0.3424
11656TIP3    H156383   6.308   3.994  16.763  1.8658  1.1120 -1.0258
11656TIP3    H256384   6.288   3.938  16.624 -0.5539 -0.2100 -0.2069
11657TIP3   OH256385   0.882   0.959   1.283  0.1868 -0.3225 -0.1389
11657TIP3    H156386   0.929   1.034   1.244  0.3369 -1.2648 -1.9048
11657TIP3    H256387   0.792   0.990   1.292  0.1222 -0.0713 -1.3816
11658TIP3   OH256388   4.738   1.752   0.446 -0.8199 -0.3326 -0.1658
11658TIP3    H156389   4.652   1.744   0.486 -0.2301  0.8555  1.4641
11658TIP3    H256390   4.722   1.803   0.366 -1.5257  0.7777  0.6452
11659TIP3   OH256391   1.260   5.132  12.116 -0.0859 -0.7897  0.0965
11659TIP3    H156392   1.179   5.100  12.157 -0.5258  2.2915  1.9327
11659TIP3    H256393   1.329   5.107  12.178 -0.0739 -0.5399  0.1829
11660TIP3   OH256394   6.534   5.132   3.307  0.4941  0.7295  0.6883
11660TIP3    H156395   6.580   5.062   3.353 -0.6543 -0.4009  0.1835
11660TIP3    H256396   6.490   5.181   3.376 -1.0806 -0.8479  0.8729
11661TIP3   OH256397   0.154   0.512   4.259  0.8624 -0.0558 -0.0802
11661TIP3    H156398   0.137   0.458   4.336 -0.1609 -0.5710 -0.6555
11661TIP3    H256399   0.080   0.572   4.255  2.3899  2.0194  1.0371
11662TIP3   OH256400   6.052   6.502   4.813 -0.5270  0.5581 -0.4202
11662TIP3    H156401   6.015   6.590   4.805  1.3072  1.3688 -0.5841
11662TIP3    H256402   6.147   6.516   4.814 -0.1446 -1.4925 -1.4918
11663TIP3   OH256403   1.800   5.770  12.936  0.4933  0.9240 -0.1392
11663TIP3    H156404   1.836   5.690  12.899  0.2908  0.4935  0.5818
11663TIP3    H256405   1.749   5.809  12.864  2.0886  1.3783 -1.0668
11664TIP3   OH256406   0.037   4.938  11.367  0.3291 -0.0216 -0.4988
11664TIP3    H156407   0.059   4.859  11.318 -0.4829  0.0111 -0.9275
11664TIP3    H256408  -0.015   4.991  11.306 -0.6012  0.0648  0.3404
11665TIP3   OH256409   1.817   3.596  15.596  0.0765  0.4728 -0.3347
11665TIP3    H156410   1.843   3.680  15.633 -0.5692  0.5979 -0.1460
11665TIP3    H256411   1.777   3.617  15.512  0.7532  0.2673 -0.7113
11666TIP3   OH256412   5.062   3.396   5.370  0.2552 -0.3008 -0.4694
11666TIP3    H156413   4.998   3.459   5.402 -0.0719 -1.4856  1.4218
11666TIP3    H256414   5.141   3.448   5.355 -0.0166  0.5902  0.9897
11667TIP3   OH256415   5.243   2.465   3.397 -0.2881  0.0533 -0.0694
11667TIP3    H156416   5.301   2.540   3.409  0.6495 -0.7020  0.2385
11667TIP3    H256417   5.155   2.500   3.410 -0.0055  1.4478 -1.6218
11668TIP3   OH256418   5.741   3.558   0.011 -0.0655  0.6187  0.2124
11668TIP3    H156419   5.646   3.554  -0.002  0.1191 -0.6491 -0.9526
11668TIP3    H256420   5.754   3.632   0.070 -1.7759  0.8278  0.3717
11669TIP3   OH256421   0.849   3.993  15.249  0.6583 -0.4964 -0.4572
11669TIP3    H156422   0.790   4.068  15.256  0.3925 -0.6770 -0.7248
11669TIP3    H256423   0.840   3.947  15.332  2.7085  1.1190  0.7639
11670TIP3   OH256424   5.126   1.096  13.011 -0.1153  0.6196 -0.0450
11670TIP3    H156425   5.165   1.091  12.924  1.2506 -0.5689  0.5915
11670TIP3    H256426   5.191   1.143  13.064 -0.6269  0.7319  0.4971
11671TIP3   OH256427   0.061   1.837  13.297  0.2115 -0.5431  0.2162
11671TIP3    H156428   0.155   1.832  13.316  0.0821 -0.2497  0.9454
11671TIP3    H256429   0.047   1.927  13.269  0.0616 -0.4599  0.5628
11672TIP3   OH256430   0.398   3.316  15.410 -0.4185 -0.3365 -0.0360
11672TIP3    H156431   0.386   3.226  15.441  2.1325 -1.3552 -1.6938
11672TIP3    H256432   0.348   3.320  15.329 -0.7655 -0.1648  0.1864
11673TIP3   OH256433   1.397   4.704   0.848 -0.3019  0.2359 -0.1611
11673TIP3    H156434   1.342   4.751   0.785 -0.3300 -0.9052 -1.0369
11673TIP3    H256435   1.338   4.639   0.887  0.1255 -0.1909 -0.2153
11674TIP3   OH256436   4.778   4.866  13.648  0.2009  0.5172 -0.3429
11674TIP3    H156437   4.729   4.849  13.567 -0.0542  0.0319 -0.0884
11674TIP3    H256438   4.776   4.962  13.657  1.0923  0.6598 -1.4329
11675TIP3   OH256439   5.174   4.724   3.432  0.2846  0.1008 -0.1865
11675TIP3    H156440   5.247   4.690   3.483  0.3756  1.1564  0.4143
11675TIP3    H256441   5.098   4.673   3.462  0.8477 -1.4175 -1.2517
11676TIP3   OH256442   2.875   1.131  14.737  0.1638  0.4258 -0.2658
11676TIP3    H156443   2.867   1.086  14.822 -2.6923  0.7925 -0.2522
11676TIP3    H256444   2.831   1.074  14.675 -0.2167  1.4517 -0.9694
11677TIP3   OH256445   6.442   3.443  13.010 -0.5350  0.3517 -0.3237
11677TIP3    H156446   6.445   3.358  12.965 -2.2908  0.1761 -0.1687
11677TIP3    H256447   6.515   3.492  12.972 -0.3943 -0.6998 -1.4886
11678TIP3   OH256448   0.695   3.578  15.623 -0.0388 -0.5935  0.1144
11678TIP3    H156449   0.730   3.663  15.651 -0.0573 -0.3390 -0.6095
11678TIP3    H256450   0.678   3.531  15.704  0.7729 -0.2272  0.4999
11679TIP3   OH256451   5.044   6.584  14.623  0.5895  0.1757 -0.9597
11679TIP3    H156452   5.139   6.577  14.635  0.4470  1.1689  1.3570
11679TIP3    H256453   5.014   6.493  14.623  1.6050 -0.2132 -2.8865
11680TIP3   OH256454   3.312   1.543  14.122 -0.2054 -0.7202  0.1892
11680TIP3    H156455   3.351   1.476  14.179 -1.3309 -0.7444  0.9666
11680TIP3    H256456   3.221   1.516  14.113 -0.1110 -0.6071 -1.4992
11681TIP3   OH256457   6.621   0.389  16.429  0.0618 -0.0399 -0.1524
11681TIP3    H156458   6.578   0.315  16.387 -1.7781  1.0579 -0.3043
11681TIP3    H256459   6.605   0.463  16.371  0.7096  0.7674  0.6559
11682TIP3   OH256460   5.692   5.075  10.900 -0.0612  0.1588  0.1232
11682TIP3    H156461   5.609   5.036  10.873 -0.7080  0.0983  2.0030
11682TIP3    H256462   5.758   5.009  10.878 -0.8121 -0.8445  0.7808
11683TIP3   OH256463   5.962   4.298  14.649  0.0362 -0.0611 -0.4815
11683TIP3    H156464   5.918   4.216  14.674  0.6632 -0.3517 -0.3202
11683TIP3    H256465   5.891   4.354  14.618 -0.9981  0.6834  2.7795
11684TIP3   OH256466   4.465   2.988   3.893 -0.0022 -0.3403 -0.1008
11684TIP3    H156467   4.386   2.942   3.865  0.3717 -0.9005 -0.2469
11684TIP3    H256468   4.433   3.056   3.953 -0.5381 -0.9497  0.3178
11685TIP3   OH256469   0.966   1.158  14.249 -0.4023  0.1106  0.6455
11685TIP3    H156470   1.026   1.084  14.252  0.5225  0.8442  0.6725
11685TIP3    H256471   0.897   1.137  14.312  0.6272 -0.0696  1.7366
11686TIP3   OH256472   0.077   4.083  11.330 -0.2997  0.4179 -0.4106
11686TIP3    H156473   0.108   4.114  11.415 -0.5841  1.5485 -0.7021
11686TIP3    H256474   0.032   4.001  11.349  0.9484 -0.1244  0.3182
11687TIP3   OH256475   1.994   5.479  14.277  0.2716  0.1565  0.6602
11687TIP3    H156476   2.008   5.529  14.358 -3.2714  1.1931  0.7749
11687TIP3    H256477   1.949   5.540  14.219  0.3695 -1.4169 -1.1335
11688TIP3   OH256478   5.017   5.894  16.556  0.2275 -0.0007 -0.4537
11688TIP3    H156479   5.089   5.858  16.606  0.0166 -0.6457 -0.6099
11688TIP3    H256480   4.973   5.818  16.518  1.1508  0.5082 -2.6882
11689TIP3   OH256481   0.766   1.195   2.814 -0.1961 -0.0966  0.6479
11689TIP3    H156482   0.829   1.130   2.844 -0.9393 -0.0970  2.3295
11689TIP3    H256483   0.680   1.156   2.830 -0.6473  0.5647 -0.0426
11690TIP3   OH256484   6.126   5.481   2.972 -0.0235  0.3918 -0.3653
11690TIP3    H156485   6.053   5.523   3.017  0.8170 -2.1519  3.9004
11690TIP3    H256486   6.087   5.447   2.891 -2.7369  1.7715  0.2265
11691TIP3   OH256487   4.899   4.409   4.549  0.7169  0.4451  0.2857
11691TIP3    H156488   4.947   4.351   4.609  1.5229 -0.1449 -0.8869
11691TIP3    H256489   4.944   4.493   4.557  2.9244 -0.4113 -1.7610
11692TIP3   OH256490   4.546   1.908  13.960  0.3419  0.0972 -0.4585
11692TIP3    H156491   4.507   1.939  13.878 -0.1205 -0.0573 -0.3037
11692TIP3    H256492   4.573   1.818  13.941 -0.7753 -0.3234 -0.1273
11693TIP3   OH256493   0.898   2.376  13.250  0.6649 -0.1678  0.4964
11693TIP3    H156494   0.929   2.314  13.184 -0.2758 -0.7489  0.5739
11693TIP3    H256495   0.978   2.416  13.285  1.2788 -1.1199  0.2323
11694TIP3   OH256496   5.351   5.950  12.074  0.4853 -0.6344  0.1993
11694TIP3    H156497   5.324   5.993  12.156  1.0423  0.5802 -0.2273
11694TIP3    H256498   5.310   6.003  12.005  2.1689 -0.0228 -0.3855
11695TIP3   OH256499   4.986   1.473   5.826  0.0075  0.6522  0.3842
11695TIP3    H156500   5.054   1.521   5.873  1.6522  1.2049 -2.3396
11695TIP3    H256501   5.030   1.394   5.795 -0.8226  0.5446 -0.5811
11696TIP3   OH256502   0.502   2.114  14.509 -1.0229  0.2142 -0.0418
11696TIP3    H156503   0.448   2.072  14.576 -0.7809 -1.2547 -0.7247
11696TIP3    H256504   0.508   2.050  14.438  3.1299 -0.5700  0.7183
11697TIP3   OH256505   4.649   5.689   0.270  0.2949 -0.2643 -0.0942
11697TIP3    H156506   4.621   5.605   0.234 -1.1226  0.7352 -1.4503
11697TIP3    H256507   4.698   5.731   0.199  0.9168  0.1068  0.5398
11698TIP3   OH256508   4.147   6.735  14.455  0.0500 -0.1803  0.0462
11698TIP3    H156509   4.182   6.796  14.390 -0.1923  1.0866  1.0598
11698TIP3    H256510   4.219   6.673  14.472  1.9170  2.3114  2.0272
11699TIP3   OH256511   3.122   4.625   0.269 -0.2922  0.3764  0.3058
11699TIP3    H156512   3.084   4.538   0.283  2.0453 -0.7635  0.0596
11699TIP3    H256513   3.142   4.656   0.357  0.2486 -0.0165  0.3270
11700TIP3   OH256514   3.892   6.147  12.030 -0.0616 -0.2947  0.6937
11700TIP3    H156515   3.970   6.200  12.047  0.5588 -0.9702  0.0111
11700TIP3    H256516   3.903   6.069  12.084 -0.8020  0.0877  1.4208
11701TIP3   OH256517   3.401   1.763   2.149 -0.0158  0.4397 -0.0955
11701TIP3    H156518   3.475   1.771   2.209 -1.0364  1.3068  1.1360
11701TIP3    H256519   3.426   1.811   2.071  0.4638  1.2923  0.5772
11702TIP3   OH256520   5.457   5.902   3.574 -0.1631 -0.0519  0.3879
11702TIP3    H156521   5.393   5.835   3.601 -0.1159  0.1475  1.0142
11702TIP3    H256522   5.405   5.968   3.529 -0.2100 -0.5121 -0.2379
11703TIP3   OH256523   2.428   2.109  12.377  0.2370 -0.2743  0.2648
11703TIP3    H156524   2.422   2.201  12.403  2.6834 -0.4222  1.7400
11703TIP3    H256525   2.392   2.061  12.452 -0.3861 -0.5494 -0.2050
11704TIP3   OH256526   2.629   0.595  13.946 -0.0539 -0.2279  0.4643
11704TIP3    H156527   2.653   0.653  14.018  1.5165  0.4808 -0.5746
11704TIP3    H256528   2.537   0.614  13.929  0.5287  2.4590 -0.2057
11705TIP3   OH256529   0.708   4.769   4.086 -0.3232 -0.1005  0.5130
11705TIP3    H156530   0.752   4.770   4.171  0.3694 -1.6014  0.2176
11705TIP3    H256531   0.616   4.781   4.106  0.1085  2.9014  1.1755
11706TIP3   OH256532   6.255   4.948   4.633  0.3106  0.3877 -0.2529
11706TIP3    H156533   6.199   5.010   4.679  0.3889 -0.9680  1.7726
11706TIP3    H256534   6.325   4.927   4.695 -0.0371 -2.1500 -0.5918
11707TIP3   OH256535   3.299   0.355   5.426  0.2982 -0.3628  0.0609
11707TIP3    H156536   3.308   0.333   5.334  1.8991  0.6720 -0.0739
11707TIP3    H256537   3.250   0.437   5.427 -1.5275 -1.4143  0.2839
11708TIP3   OH256538   5.513   6.566   6.320  0.0095  0.6471  0.6047
11708TIP3    H156539   5.558   6.524   6.247 -0.5482  0.3174  0.4383
11708TIP3    H256540   5.422   6.575   6.290 -0.1760  0.7123  1.1679
11709TIP3   OH256541   6.146   2.339   1.670  0.0882  0.3398 -0.4169
11709TIP3    H156542   6.239   2.317   1.667 -0.1296 -0.7169 -0.0160
11709TIP3    H256543   6.133   2.377   1.757 -0.0121 -0.3232 -0.1361
11710TIP3   OH256544   6.735   3.944  16.032 -0.0241 -0.5687  0.4240
11710TIP3    H156545   6.703   3.858  16.059  0.8487 -1.3587 -0.9467
11710TIP3    H256546   6.830   3.939  16.043  0.0432  0.2103  0.2696
11711TIP3   OH256547   1.067   6.778  17.043 -0.9385 -0.2344  0.0207
11711TIP3    H156548   1.130   6.851  17.043 -1.9666  0.6815  0.8117
11711TIP3    H256549   0.992   6.811  17.091 -1.0879 -2.1377  1.2213
11712TIP3   OH256550   3.087   2.982   2.644  0.0983 -0.0909  0.1095
11712TIP3    H156551   3.103   2.916   2.576 -0.4862 -0.4657  0.3280
11712TIP3    H256552   3.145   3.055   2.620  0.8169 -0.7069 -0.0919
11713TIP3   OH256553   6.609   1.621   0.452  0.3201 -0.0480 -0.4702
11713TIP3    H156554   6.518   1.592   0.446  0.9621 -2.3929 -0.1797
11713TIP3    H256555   6.605   1.711   0.481 -1.8968 -0.5708  1.0182
11714TIP3   OH256556   1.033   2.732  11.553 -0.2783  0.2171 -0.6291
11714TIP3    H156557   0.959   2.773  11.598  0.7002  1.5414 -0.1467
11714TIP3    H256558   0.993   2.665  11.497 -1.6669 -0.5547  1.1523
11715TIP3   OH256559   4.505   1.466   2.832  1.0283 -0.1358  0.2896
11715TIP3    H156560   4.470   1.407   2.898 -1.2393  0.0982 -0.6163
11715TIP3    H256561   4.516   1.550   2.878  1.7267 -0.5587  0.9144
11716TIP3   OH256562   2.033   3.500   4.420 -0.0131 -0.1999 -0.5630
11716TIP3    H156563   2.051   3.593   4.405 -0.0300 -0.0478  0.3086
11716TIP3    H256564   2.103   3.454   4.375 -1.2664  0.1282 -3.0232
11717TIP3   OH256565   5.722   1.813  13.568  0.3601  0.1892  0.2476
11717TIP3    H156566   5.730   1.743  13.503 -3.2503  1.0299 -1.3418
11717TIP3    H256567   5.772   1.886  13.532 -1.0649  0.4263 -1.3745
11718TIP3   OH256568   1.236   3.891  13.782  0.0666 -0.1882  0.5178
11718TIP3    H156569   1.192   3.904  13.866 -1.6008  3.9249 -0.7427
11718TIP3    H256570   1.178   3.832  13.734 -0.7404  0.1081  1.1054
11719TIP3   OH256571   6.423   2.711   1.421 -0.2120  0.0582 -0.2660
11719TIP3    H156572   6.472   2.760   1.487 -0.6354  1.8186 -1.2176
11719TIP3    H256573   6.430   2.620   1.450 -1.2753  0.8237  2.8286
11720TIP3   OH256574   0.352   0.903   2.597 -0.1256 -0.1968  0.3295
11720TIP3    H156575   0.269   0.937   2.565 -1.7058 -2.1922  2.0683
11720TIP3    H256576   0.408   0.900   2.519 -1.9665  0.3234 -1.0862
11721TIP3   OH256577   1.579   6.571  14.038 -0.3623  0.1959 -0.0074
11721TIP3    H156578   1.658   6.587  13.986 -0.7561 -0.8375 -0.9801
11721TIP3    H256579   1.567   6.651  14.089  0.5957  0.8698 -0.7924
11722TIP3   OH256580   1.309   2.879   2.112  0.7613 -0.0517  0.1962
11722TIP3    H156581   1.272   2.798   2.077  1.3236  0.0457 -0.6238
11722TIP3    H256582   1.316   2.862   2.206  0.1363 -0.6591  0.1489
11723TIP3   OH256583   2.124   2.858  14.473  0.4209  0.0033 -0.8587
11723TIP3    H156584   2.069   2.786  14.443  1.2820 -0.8540 -0.4435
11723TIP3    H256585   2.129   2.846  14.568  1.1675  0.1715 -0.8746
11724TIP3   OH256586   4.985   3.864  11.560  0.0196  0.0455  0.6404
11724TIP3    H156587   5.074   3.897  11.575 -1.0349  1.9245  3.5484
11724TIP3    H256588   4.981   3.782  11.609  0.1092 -0.0348  0.5167
11725TIP3   OH256589   2.681   1.035  13.035  0.1815 -0.7695 -0.3169
11725TIP3    H156590   2.600   1.063  13.078  1.0115 -0.4436  1.1241
11725TIP3    H256591   2.653   0.970  12.971 -1.1373 -1.3421  0.7876
11726TIP3   OH256592   5.415   6.025  11.244  0.4211  0.0452 -0.1358
11726TIP3    H156593   5.443   5.936  11.225  0.2190  0.1967 -1.1773
11726TIP3    H256594   5.472   6.080  11.191  0.4269  0.5359  0.3671
11727TIP3   OH256595   3.172   6.476   2.852  0.0439 -0.7509  0.6905
11727TIP3    H156596   3.267   6.483   2.841  0.0642  0.9279  1.5115
11727TIP3    H256597   3.158   6.493   2.945 -1.0770 -0.6693  0.5156
11728TIP3   OH256598   1.760   1.241   4.819  0.5308  0.7507  0.0154
11728TIP3    H156599   1.810   1.244   4.737 -0.3363 -1.5722 -0.6620
11728TIP3    H256600   1.670   1.262   4.793  0.2142 -0.1892  0.3217
11729TIP3   OH256601   4.380   6.757  13.419  0.1278  0.2367 -0.3442
11729TIP3    H156602   4.336   6.818  13.479  2.0598  2.4352 -1.0617
11729TIP3    H256603   4.400   6.681  13.474 -1.6066  0.5320  0.7851
11730TIP3   OH256604   2.476   2.694  14.569 -0.6095  0.2726 -0.2956
11730TIP3    H156605   2.420   2.755  14.617  1.8576  2.0615  0.5265
11730TIP3    H256606   2.419   2.657  14.502 -2.3557  3.3394 -0.6918
11731TIP3   OH256607   5.860   4.518   4.450 -0.1166  0.2065 -0.0365
11731TIP3    H156608   5.824   4.464   4.380 -2.4805  1.0747  0.4060
11731TIP3    H256609   5.927   4.463   4.491  0.2342 -0.8917 -1.9759
11732TIP3   OH256610   6.598   4.022   4.662  0.2911  0.2710  0.5629
11732TIP3    H156611   6.521   3.968   4.642  0.1573 -0.0730  1.8789
11732TIP3    H256612   6.621   4.064   4.580 -1.2600  0.3093  0.1297
11733TIP3   OH256613   6.652   3.308   5.496 -0.2639 -0.0693 -0.1388
11733TIP3    H156614   6.646   3.284   5.588 -2.2706 -0.7011 -0.3920
11733TIP3    H256615   6.562   3.323   5.469  0.0080 -2.0143 -2.5165
11734TIP3   OH256616   4.407   3.449   2.626 -0.2515  0.2753 -0.2485
11734TIP3    H156617   4.330   3.463   2.571 -0.4526 -2.3704 -0.8091
11734TIP3    H256618   4.384   3.488   2.710 -2.5839 -1.0999 -0.1513
11735TIP3   OH256619   0.222   2.200   4.058  0.1817 -0.0375 -0.3381
11735TIP3    H156620   0.293   2.165   4.004  0.4140 -1.1051  0.6284
11735TIP3    H256621   0.230   2.154   4.142 -1.0384  0.5563  0.1313
11736TIP3   OH256622   0.684   6.323  16.471 -0.1950  0.4440 -0.3646
11736TIP3    H156623   0.601   6.295  16.432 -0.5223  0.1616  0.5210
11736TIP3    H256624   0.683   6.286  16.559 -0.2852  2.5210  0.5759
11737TIP3   OH256625   0.071   1.346   6.230 -0.4426 -0.0680 -0.1952
11737TIP3    H156626   0.065   1.281   6.299 -0.4127  1.0900  0.9413
11737TIP3    H256627   0.163   1.370   6.227 -0.6462  0.8379  0.3038
11738TIP3   OH256628   2.183   1.447  15.444  0.0366  0.4525  0.3064
11738TIP3    H156629   2.146   1.366  15.409  1.5169 -0.2134  0.2122
11738TIP3    H256630   2.138   1.517  15.396  0.0601 -0.3659 -0.9555
11739TIP3   OH256631   0.131   6.376  14.138 -0.6483 -0.3063  0.4640
11739TIP3    H156632   0.068   6.397  14.207  0.0592  1.6136  0.5828
11739TIP3    H256633   0.171   6.294  14.166 -1.4474 -0.3347  1.5675
11740TIP3   OH256634   1.487   4.014  13.797 -0.3794  0.2400  0.7350
11740TIP3    H156635   1.548   3.964  13.741  0.8403  1.8025  0.5952
11740TIP3    H256636   1.408   3.960  13.799  1.0023 -1.9284  0.9890
11741TIP3   OH256637   4.835   4.889  12.881  0.8627 -0.2160  0.5910
11741TIP3    H156638   4.823   4.820  12.946  1.1998 -1.4396 -0.6048
11741TIP3    H256639   4.897   4.852  12.818  1.3492  1.3312  0.1178
11742TIP3   OH256640   2.612   1.973  16.908  0.0995 -0.1271 -0.2333
11742TIP3    H156641   2.567   1.992  16.826 -0.8168 -1.1582  0.0061
11742TIP3    H256642   2.673   1.902  16.886  2.3830  1.8491 -0.7715
11743TIP3   OH256643   3.455   3.202   6.217 -0.4215 -0.4826 -0.2421
11743TIP3    H156644   3.430   3.291   6.242  1.4957  0.0451 -0.0638
11743TIP3    H256645   3.377   3.167   6.172 -1.4484  1.0176  0.2930
11744TIP3   OH256646   4.946   6.699   2.845  0.2984  0.4034 -0.3565
11744TIP3    H156647   5.006   6.678   2.774  4.0066 -1.3622  2.9019
11744TIP3    H256648   4.986   6.773   2.890 -1.2638  0.7244  0.5783
11745TIP3   OH256649   4.183   5.992  13.848  0.0514  0.0351  0.4593
11745TIP3    H156650   4.253   6.054  13.868  1.2827 -0.9080 -0.7782
11745TIP3    H256651   4.197   5.969  13.756  0.6018 -3.2356  1.2401
11746TIP3   OH256652   0.107   5.047  13.917  0.4730  0.0468 -0.2933
11746TIP3    H156653   0.150   4.978  13.968 -1.5458  1.4935  3.7970
11746TIP3    H256654   0.161   5.125  13.932  0.4127  0.2976 -1.3196
11747TIP3   OH256655   5.730   4.476   3.087  0.1351  0.1872  0.0775
11747TIP3    H156656   5.640   4.484   3.057  0.3336 -0.8156 -0.8191
11747TIP3    H256657   5.733   4.392   3.132  1.0713 -0.7345 -1.6190
11748TIP3   OH256658   2.471   6.533   4.143  0.4365 -0.2016  0.2619
11748TIP3    H156659   2.430   6.596   4.083  0.2848  0.1095  0.6882
11748TIP3    H256660   2.537   6.584   4.190  0.8938 -0.5596  0.0167
11749TIP3   OH256661   1.116   1.484   0.435  0.1439 -0.3405  0.4024
11749TIP3    H156662   1.032   1.488   0.480  0.4711  1.2366  0.9565
11749TIP3    H256663   1.174   1.540   0.487  1.1203 -0.2000 -0.7753
11750TIP3   OH256664   3.028   5.318  11.322 -0.8842 -0.0736 -0.0352
11750TIP3    H156665   2.999   5.243  11.374 -1.5966  0.3827  0.2368
11750TIP3    H256666   3.117   5.335  11.354  0.4638 -2.5391 -2.0454
11751TIP3   OH256667   0.482   6.369  14.933  0.7409  0.3266 -0.3662
11751TIP3    H156668   0.439   6.346  14.851  1.0704 -1.0077 -0.1958
11751TIP3    H256669   0.411   6.392  14.992  0.5295  1.8189 -1.1540
11752TIP3   OH256670   0.041   1.747   2.744  0.5432 -0.0096 -0.7737
11752TIP3    H156671   0.123   1.751   2.792  1.3964 -1.8611 -1.9215
11752TIP3    H256672  -0.016   1.691   2.797 -1.3531  3.9269  1.7287
11753TIP3   OH256673   6.668   0.151  12.958 -0.8295 -0.6179 -0.5759
11753TIP3    H156674   6.714   0.115  12.882  0.6672 -0.3425  0.1548
11753TIP3    H256675   6.610   0.081  12.986 -0.7281 -1.0527 -1.4110
11754TIP3   OH256676   0.678   0.442  16.784 -0.4703  0.1982  0.4645
11754TIP3    H156677   0.720   0.386  16.849  1.7763 -1.1704 -1.9757
11754TIP3    H256678   0.682   0.530  16.822  1.0088 -0.5038  2.0371
11755TIP3   OH256679   4.372   6.584  16.718  0.4106  0.2636  0.1726
11755TIP3    H156680   4.367   6.679  16.723 -0.7132  0.2701 -0.7302
11755TIP3    H256681   4.370   6.565  16.624 -0.1277 -0.6807  0.3665
11756TIP3   OH256682   2.845   0.187   5.250 -0.4473 -0.1399 -0.1774
11756TIP3    H156683   2.940   0.187   5.265 -0.0626  0.1471 -2.3200
11756TIP3    H256684   2.830   0.121   5.183 -2.1376 -1.8456  1.7200
11757TIP3   OH256685   1.206   1.162   2.260  0.3883 -0.3887 -0.6177
11757TIP3    H156686   1.194   1.074   2.224 -0.5759 -0.1911 -0.8174
11757TIP3    H256687   1.196   1.220   2.184  0.3157 -0.0707 -0.3653
11758TIP3   OH256688   6.530   4.920   0.043  0.4281 -0.2739 -0.4334
11758TIP3    H156689   6.538   4.908  -0.051  0.1706 -4.2739 -0.1181
11758TIP3    H256690   6.440   4.950   0.056  0.9324  1.8729 -1.4558
11759TIP3   OH256691   3.895   1.293  14.880 -0.2436  0.4032 -0.4684
11759TIP3    H156692   3.972   1.339  14.914  0.5772 -0.7181 -0.7646
11759TIP3    H256693   3.865   1.238  14.952  0.5461 -0.7772 -1.0054
11760TIP3   OH256694   4.256   5.044  13.341  0.5663  0.1590 -0.2513
11760TIP3    H156695   4.190   5.029  13.409  0.4381  1.0217 -0.1770
11760TIP3    H256696   4.278   4.956  13.309 -1.2974 -0.1187 -0.9236
11761TIP3   OH256697   3.023   6.783   5.941  0.3032 -0.1312  0.8095
11761TIP3    H156698   2.968   6.706   5.933 -0.1477  0.1120  1.4476
11761TIP3    H256699   3.029   6.818   5.852 -0.8054 -0.0125  0.7632
11762TIP3   OH256700   5.864   4.277   3.848 -0.0520  0.5519  0.3818
11762TIP3    H156701   5.889   4.349   3.905  4.0944 -0.1091 -0.2353
11762TIP3    H256702   5.856   4.316   3.761  0.4689  0.5803  0.3399
11763TIP3   OH256703   2.155   1.025  14.511 -0.0287  0.8191 -0.7461
11763TIP3    H156704   2.191   1.106  14.476 -0.3634  1.4862  0.3896
11763TIP3    H256705   2.166   1.033  14.606  1.1799 -1.0762 -0.6777
11764TIP3   OH256706   4.817   5.150   3.939 -0.1185 -0.2762 -0.2748
11764TIP3    H156707   4.788   5.065   3.906  0.4042 -0.4194 -0.3823
11764TIP3    H256708   4.738   5.203   3.942 -0.4468 -0.7598 -0.2281
11765TIP3   OH256709   3.405   5.378   0.228  0.2511 -0.7160  0.4044
11765TIP3    H156710   3.359   5.409   0.306 -0.4009  4.0707 -1.5507
11765TIP3    H256711   3.404   5.452   0.167  4.1832 -2.7582 -2.7074
11766TIP3   OH256712   1.659   4.863  14.301  0.2636  0.4797 -0.5584
11766TIP3    H156713   1.749   4.882  14.273  0.2920  0.6395 -0.3682
11766TIP3    H256714   1.604   4.912  14.241  0.3155  0.6361 -0.4791
11767TIP3   OH256715   1.073   2.145  14.197 -0.0088  0.1829  0.8613
11767TIP3    H156716   1.007   2.095  14.245  1.2664  0.0678  2.5626
11767TIP3    H256717   1.150   2.088  14.195  0.3186  0.6221 -0.4254
11768TIP3   OH256718   2.497   4.453  13.274  0.5394 -0.0689 -0.3584
11768TIP3    H156719   2.479   4.493  13.189  0.7614 -1.0042 -0.8590
11768TIP3    H256720   2.425   4.481  13.330  0.1245  0.1492 -1.0015
11769TIP3   OH256721   0.405   4.868   1.732 -0.3436 -0.2390 -0.3886
11769TIP3    H156722   0.310   4.855   1.731 -0.3255 -0.5217  0.6044
11769TIP3    H256723   0.432   4.852   1.642 -1.3363  0.6498 -0.8670
11770TIP3   OH256724   6.371   3.132   2.617 -0.4500  0.5450  0.2258
11770TIP3    H156725   6.436   3.174   2.561  2.2189 -4.0383 -0.6941
11770TIP3    H256726   6.293   3.124   2.562 -0.8140  3.2655  0.2052
11771TIP3   OH256727   3.600   1.777  14.580  0.1803 -0.0957  0.5024
11771TIP3    H156728   3.692   1.777  14.604  0.9344  2.6690 -1.8676
11771TIP3    H256729   3.564   1.855  14.621 -1.5679 -1.8200  2.5072
11772TIP3   OH256730   3.687   1.270   6.526 -0.1100 -0.3586  0.3500
11772TIP3    H156731   3.688   1.258   6.621  0.0963  1.3738  0.6034
11772TIP3    H256732   3.721   1.358   6.513 -1.6166  0.0469 -1.2341
11773TIP3   OH256733   6.037   2.689  15.395  0.4165  0.4014  0.2108
11773TIP3    H156734   6.116   2.653  15.434 -1.3020 -2.0250  1.7656
11773TIP3    H256735   5.966   2.635  15.430 -1.7342  0.7725 -3.1051
11774TIP3   OH256736   5.929   0.229  14.378 -0.0889  0.4486 -0.3363
11774TIP3    H156737   5.988   0.184  14.438  0.3369  2.0667  0.5049
11774TIP3    H256738   5.844   0.187  14.393  0.1018  0.5342  1.0873
11775TIP3   OH256739   0.722   3.772   3.431 -0.3885 -0.1183  0.2314
11775TIP3    H156740   0.715   3.847   3.490  1.0854  0.5603 -0.4202
11775TIP3    H256741   0.759   3.808   3.351 -0.3055 -1.4239 -0.3394
11776TIP3   OH256742   0.743   6.209   6.106 -0.5639  0.5564  0.2337
11776TIP3    H156743   0.734   6.239   6.015  0.4779 -0.4880 -0.2329
11776TIP3    H256744   0.766   6.117   6.099  0.5933  0.7148  1.5260
11777TIP3   OH256745   3.523   4.585   2.511 -0.4512  0.1974  0.9411
11777TIP3    H156746   3.554   4.496   2.491  0.3321  0.7366 -0.3820
11777TIP3    H256747   3.491   4.579   2.601 -1.4102 -1.6713  0.5350
11778TIP3   OH256748   0.589   3.866   5.785  0.2966  0.0539  0.4094
11778TIP3    H156749   0.605   3.960   5.795 -0.6728  0.1578  1.0863
11778TIP3    H256750   0.660   3.824   5.835  0.2530  0.4429  0.7998
11779TIP3   OH256751   6.013   1.359   0.978  0.1042  0.2264  0.4162
11779TIP3    H156752   6.024   1.269   0.948 -0.1300 -0.1937  1.5160
11779TIP3    H256753   6.036   1.356   1.071 -0.7769  1.1198  0.6798
11780TIP3   OH256754   2.754   2.738  14.214  0.1337 -0.5193  0.0838
11780TIP3    H156755   2.728   2.811  14.158  1.1539  0.4909  0.8929
11780TIP3    H256756   2.850   2.740  14.214  0.1699 -1.4514  0.6425
11781TIP3   OH256757   2.903   6.661  15.296  0.6049 -0.0262 -0.3879
11781TIP3    H156758   2.894   6.756  15.302  0.2961 -0.1376  1.6898
11781TIP3    H256759   2.989   6.643  15.333  1.3051 -0.4782 -2.1445
11782TIP3   OH256760   1.932   3.317   5.911 -0.1461 -0.6528  0.4656
11782TIP3    H156761   1.908   3.352   5.997 -1.0272 -0.4952  0.1671
11782TIP3    H256762   1.936   3.222   5.924 -0.2469 -0.6285  0.6851
11783TIP3   OH256763   5.822   3.366   4.720  0.5820  0.0782  0.5080
11783TIP3    H156764   5.871   3.305   4.665 -1.9982 -1.9663  0.3130
11783TIP3    H256765   5.797   3.315   4.797 -0.8866  1.1359  0.7771
11784TIP3   OH256766   5.618   3.600   4.044  0.4132  0.0506 -0.3282
11784TIP3    H156767   5.650   3.690   4.031 -0.6718  0.5894  0.5619
11784TIP3    H256768   5.690   3.555   4.090  0.1054  1.1241  1.2933
11785TIP3   OH256769   3.526   3.557  16.432 -0.1511  0.1611 -0.2821
11785TIP3    H156770   3.449   3.599  16.471  1.8905  1.2086  2.9887
11785TIP3    H256771   3.595   3.622  16.439  2.0946 -2.1783  0.9818
11786TIP3   OH256772   3.512   0.641  13.231  0.1023 -0.1050 -0.1769
11786TIP3    H156773   3.570   0.651  13.156 -2.2079  2.1988 -1.8319
11786TIP3    H256774   3.426   0.666  13.199 -0.9642  1.4408  3.3324
11787TIP3   OH256775   1.992   5.322  17.042  0.1266  0.1513 -0.0936
11787TIP3    H156776   1.936   5.278  16.978 -0.3667  0.0519  0.4008
11787TIP3    H256777   2.018   5.403  16.999  0.2568 -0.1731 -0.6373
11788TIP3   OH256778   5.593   2.360  14.543 -0.0463  0.2789 -0.5040
11788TIP3    H156779   5.576   2.450  14.517  1.8552  0.0689 -2.7797
11788TIP3    H256780   5.587   2.310  14.461 -0.5462 -1.5849  0.6173
11789TIP3   OH256781   6.545   3.826   5.218  0.1005  0.2314 -0.4039
11789TIP3    H156782   6.596   3.877   5.155  1.9420  0.7019  1.3494
11789TIP3    H256783   6.521   3.888   5.286 -0.5216 -0.5668  0.1331
11790TIP3   OH256784   6.336   1.089  14.635 -0.0199  0.2420  0.5303
11790TIP3    H156785   6.415   1.140  14.650  2.2485 -2.7943 -0.0736
11790TIP3    H256786   6.358   1.030  14.563 -2.6700 -1.0853  0.6646
11791TIP3   OH256787   2.202   3.857  11.165 -0.6277  0.4581 -0.2636
11791TIP3    H156788   2.118   3.898  11.144 -1.3362  0.6017  2.4175
11791TIP3    H256789   2.191   3.766  11.138 -1.6474  0.5010 -0.0679
11792TIP3   OH256790   2.627   3.149  16.015 -0.4767  0.1390 -0.6904
11792TIP3    H156791   2.576   3.157  15.935 -0.4796  2.6030 -0.5379
11792TIP3    H256792   2.714   3.182  15.992 -0.4077  0.6402  0.2390
11793TIP3   OH256793   5.969   0.119  15.018 -0.2663  0.1653 -0.1135
11793TIP3    H156794   6.042   0.181  15.012 -0.8877  0.8510 -0.6231
11793TIP3    H256795   5.981   0.061  14.943  0.0144 -0.0148  0.0670
11794TIP3   OH256796   0.552   0.599  14.944  0.1650 -0.1557 -0.2770
11794TIP3    H156797   0.524   0.668  15.004 -1.7550 -0.8686 -0.2986
11794TIP3    H256798   0.617   0.641  14.888  2.8372  0.3106  2.8359
11795TIP3   OH256799   2.233   2.922  12.303  0.4678  0.0047  0.3062
11795TIP3    H156800   2.206   2.992  12.362 -0.2910 -1.0646  1.2782
11795TIP3    H256801   2.262   2.967  12.224  2.6260  1.5639  1.8691
11796TIP3   OH256802   3.301   0.556   6.087  0.0878 -0.5231  0.3917
11796TIP3    H156803   3.274   0.614   6.015  1.1294  0.6046  0.8547
11796TIP3    H256804   3.274   0.602   6.166 -2.5880 -2.5485  0.7816
11797TIP3   OH256805   6.193   5.821  11.148  0.0768  0.0214 -0.3393
11797TIP3    H156806   6.260   5.884  11.175 -1.1087  1.6980 -1.1440
11797TIP3    H256807   6.189   5.830  11.053 -2.1903  0.9807 -0.2195
11798TIP3   OH256808   5.117   2.323  11.561  0.1945 -0.0977 -0.1460
11798TIP3    H156809   5.089   2.400  11.611  0.7493 -0.6483  1.0484
11798TIP3    H256810   5.199   2.350  11.520 -0.8573  0.7654 -1.8302
11799TIP3   OH256811   4.890   0.877   0.803 -0.3326  0.0213 -0.2407
11799TIP3    H156812   4.813   0.886   0.859  0.1608  1.4505  0.2633
11799TIP3    H256813   4.928   0.793   0.827 -0.1815  0.5537  1.5411
11800TIP3   OH256814   1.361   0.739  12.971 -0.3378 -0.2421 -0.4422
11800TIP3    H156815   1.341   0.708  12.882 -0.3670  0.8302 -0.8310
11800TIP3    H256816   1.376   0.833  12.960  2.1175 -0.4858  0.3062
11801TIP3   OH256817   6.493   5.087   1.389  0.1464  0.2742  0.0479
11801TIP3    H156818   6.430   5.015   1.392  0.7511 -0.2424  0.3134
11801TIP3    H256819   6.551   5.065   1.316 -1.1546  1.7379 -1.5166
11802TIP3   OH256820   2.200   5.120   5.035  0.1542  0.2536 -0.0167
11802TIP3    H156821   2.113   5.109   5.073  0.3163 -1.7698 -0.1732
11802TIP3    H256822   2.188   5.103   4.942  0.7254 -0.1165 -0.0283
11803TIP3   OH256823   0.900   1.031  11.430 -0.0794  0.2935 -0.4574
11803TIP3    H156824   0.856   1.114  11.413 -0.7792 -0.1037 -0.6223
11803TIP3    H256825   0.829   0.967  11.435  0.5308 -0.5087 -1.5748
11804TIP3   OH256826   1.557   6.781   4.274  0.0661 -0.7686 -0.0420
11804TIP3    H156827   1.502   6.851   4.308  0.1081 -0.3123 -0.8850
11804TIP3    H256828   1.496   6.712   4.250 -0.2077 -0.0495 -1.4807
11805TIP3   OH256829   0.504   5.896   1.336 -0.2245  0.2342  0.0641
11805TIP3    H156830   0.496   5.935   1.249  2.2661  1.4501  0.3001
11805TIP3    H256831   0.515   5.802   1.320 -0.6608  0.3390 -0.8750
11806TIP3   OH256832   0.891   3.190   5.673  0.1631 -0.6710 -0.0610
11806TIP3    H156833   0.960   3.256   5.663 -0.9025  0.4849  0.0668
11806TIP3    H256834   0.905   3.154   5.760 -0.0262  0.3097  0.3832
11807TIP3   OH256835   2.340   3.228  15.281 -0.4282 -0.1417 -0.2273
11807TIP3    H156836   2.367   3.230  15.189  0.4300  0.7103  0.0354
11807TIP3    H256837   2.402   3.284  15.326 -1.0248 -0.3085  0.8374
11808TIP3   OH256838   1.571   2.433   0.595  0.1290 -0.0446 -0.0326
11808TIP3    H156839   1.536   2.357   0.643 -0.7961 -0.8254 -1.8527
11808TIP3    H256840   1.666   2.421   0.599  0.3085  1.2644  3.6403
11809TIP3   OH256841   1.208   5.792   2.292  0.3315  1.0514 -0.5380
11809TIP3    H156842   1.251   5.834   2.367  0.3201  0.8867 -0.4393
11809TIP3    H256843   1.278   5.746   2.247 -0.0635 -1.0726  0.8544
11810TIP3   OH256844   4.599   0.721   0.720  0.2140  0.7471 -0.4953
11810TIP3    H156845   4.591   0.629   0.746  1.6076  1.1942  1.8372
11810TIP3    H256846   4.580   0.770   0.800 -0.2403  2.5029 -1.6265
11811TIP3   OH256847   3.104   5.528  16.905  0.9484 -0.1156 -0.3822
11811TIP3    H156848   3.020   5.503  16.866  0.3871  1.6325 -0.3894
11811TIP3    H256849   3.082   5.556  16.994  1.3006  1.5296 -0.7776
11812TIP3   OH256850   3.087   6.150  14.497  0.1043  0.2155 -0.0454
11812TIP3    H156851   3.008   6.188  14.536 -0.3983  1.2057 -1.9035
11812TIP3    H256852   3.124   6.096  14.566 -2.5867 -0.8616  0.6885
11813TIP3   OH256853   2.736   1.272  14.450 -0.6662  0.3628 -0.0324
11813TIP3    H156854   2.733   1.194  14.395 -1.7266  1.3609 -1.4686
11813TIP3    H256855   2.798   1.331  14.406 -0.8277  0.8170  0.3321
11814TIP3   OH256856   4.013   6.730   2.323 -0.1504 -0.1030 -0.0511
11814TIP3    H156857   4.102   6.698   2.311 -0.4960 -0.6545 -1.3233
11814TIP3    H256858   3.968   6.660   2.371  0.0902  0.1707  0.5802
11815TIP3   OH256859   5.544   3.924   1.122  0.3340  0.1428 -0.2924
11815TIP3    H156860   5.615   3.963   1.173  0.6244  2.3813 -2.2725
11815TIP3    H256861   5.587   3.859   1.067  0.2342 -1.1707  1.0989
11816TIP3   OH256862   4.836   6.031   5.355 -0.1602 -0.0629  0.2404
11816TIP3    H156863   4.749   6.031   5.317  0.3179 -0.0202 -0.9021
11816TIP3    H256864   4.895   6.039   5.280  0.8664 -1.2771  0.8832
11817TIP3   OH256865   2.143   5.697  15.264  0.1549 -0.6056  0.5383
11817TIP3    H156866   2.225   5.711  15.311  1.7400  0.0595 -2.2412
11817TIP3    H256867   2.098   5.628  15.314  1.2294  0.6637  3.4756
11818TIP3   OH256868   3.876   6.095  11.306 -0.3334 -0.1190 -0.5342
11818TIP3    H156869   3.903   6.004  11.295 -0.6222 -0.1113 -1.4455
11818TIP3    H256870   3.955   6.146  11.289 -0.0071 -0.2085  0.6411
11819TIP3   OH256871   1.597   1.965  11.933  0.2266  0.3428 -0.3699
11819TIP3    H156872   1.619   1.872  11.936  0.4484  0.4132  0.3589
11819TIP3    H256873   1.502   1.968  11.945  0.1756  0.1926 -0.7352
11820TIP3   OH256874   3.310   5.002  14.806 -0.1589  0.0231  0.9800
11820TIP3    H156875   3.338   5.037  14.721  0.2815 -0.6573  0.8357
11820TIP3    H256876   3.305   4.908  14.792  0.3591 -0.1425  1.8366
11821TIP3   OH256877   3.430   3.505   3.218  0.5632  0.3385  0.5241
11821TIP3    H156878   3.483   3.452   3.159 -0.7001 -1.4592  0.9150
11821TIP3    H256879   3.463   3.594   3.208  1.9246 -0.3155 -1.1110
11822TIP3   OH256880   2.051   0.063  15.820 -0.4906 -0.3221  0.0570
11822TIP3    H156881   2.138   0.023  15.832 -1.0017 -1.2207  0.9376
11822TIP3    H256882   2.032   0.106  15.903 -0.9278 -0.2102 -0.0972
11823TIP3   OH256883   1.096   3.385   3.042  0.7070  0.4661  0.5085
11823TIP3    H156884   1.004   3.372   3.068  0.6382  1.6443  0.9615
11823TIP3    H256885   1.116   3.311   2.985 -0.3689 -0.0914  0.8207
11824TIP3   OH256886   0.868   6.046   0.671  0.0896 -0.2569  0.1456
11824TIP3    H156887   0.855   6.074   0.762  0.0132 -0.1503  0.1032
11824TIP3    H256888   0.951   6.000   0.672 -0.0507 -0.5097  0.3258
11825TIP3   OH256889   0.136   1.437   4.646 -0.1956 -0.6612 -0.1021
11825TIP3    H156890   0.206   1.461   4.586 -0.2581  0.2793  0.1937
11825TIP3    H256891   0.146   1.495   4.721 -0.1746 -1.7609  0.7796
11826TIP3   OH256892   3.131   3.708   4.783  0.0606 -0.0716  0.0328
11826TIP3    H156893   3.057   3.746   4.735 -1.2590 -2.0396  0.3470
11826TIP3    H256894   3.090   3.640   4.837  1.8784  0.1368  1.7493
11827TIP3   OH256895   0.803   1.716   0.763 -0.2831  0.0902 -0.2875
11827TIP3    H156896   0.857   1.794   0.778 -2.6078  1.8620 -0.6580
11827TIP3    H256897   0.857   1.661   0.707  1.0223  1.9322 -0.9530
11828TIP3   OH256898   4.855   6.258   5.513 -0.5540  0.3356 -0.0591
11828TIP3    H156899   4.840   6.175   5.466  0.9123  0.0103 -0.0103
11828TIP3    H256900   4.849   6.325   5.445  2.7533 -0.2257 -1.1009
11829TIP3   OH256901   0.617   2.787   6.303  0.2315 -0.4699  0.4987
11829TIP3    H156902   0.682   2.781   6.233  0.2899 -1.8225  0.6367
11829TIP3    H256903   0.639   2.867   6.350 -0.1096  0.7493 -1.3079
11830TIP3   OH256904   5.441   6.378  11.391  0.1720  0.3859  0.0321
11830TIP3    H156905   5.467   6.380  11.299 -1.6662 -0.9195 -0.5829
11830TIP3    H256906   5.513   6.421  11.437  0.8792  1.5963 -2.0557
11831TIP3   OH256907   6.115   1.461  16.008  0.1994 -0.1064 -0.6071
11831TIP3    H156908   6.047   1.396  16.028 -0.9157  0.8810 -1.0641
11831TIP3    H256909   6.085   1.542  16.050  0.6059  0.5922 -1.6199
11832TIP3   OH256910   2.878   6.016  15.111 -0.7221  0.2784 -0.7025
11832TIP3    H156911   2.941   6.082  15.139 -1.2137  0.5071 -0.1150
11832TIP3    H256912   2.918   5.975  15.034  1.1108 -1.0097  0.8460
11833TIP3   OH256913   5.249   1.207  12.206  0.3992  0.4171  0.3414
11833TIP3    H156914   5.329   1.253  12.234  0.9264 -0.2843 -0.0053
11833TIP3    H256915   5.275   1.116  12.197 -0.2679  0.3010 -0.4945
11834TIP3   OH256916   3.756   3.517  12.099  0.8914  0.7480 -0.0961
11834TIP3    H156917   3.766   3.554  12.187 -0.6804 -1.5652  1.1604
11834TIP3    H256918   3.836   3.542  12.053  0.6968  4.1551  1.1281
11835TIP3   OH256919   4.722   3.784   3.537 -0.1442  0.2061 -0.1337
11835TIP3    H156920   4.735   3.859   3.595  2.4970 -0.3344  0.1001
11835TIP3    H256921   4.791   3.793   3.470  1.0025 -2.5073  0.5335
11836TIP3   OH256922   1.397   4.072   1.482  0.0990  0.4472  0.6589
11836TIP3    H156923   1.302   4.071   1.473 -0.1210  0.6518  2.4582
11836TIP3    H256924   1.414   4.143   1.544  1.4143  0.3097  0.4933
11837TIP3   OH256925   1.230   2.967  13.620  0.3139 -0.2776 -0.7458
11837TIP3    H156926   1.221   3.002  13.709  0.6505  1.0479 -1.2078
11837TIP3    H256927   1.194   2.879  13.625 -0.9988  0.2896  0.3756
11838TIP3   OH256928   5.584   3.704  10.716  0.1232  0.1641 -0.2153
11838TIP3    H156929   5.653   3.686  10.780 -0.1029  0.3277  0.0764
11838TIP3    H256930   5.543   3.785  10.747  0.2922  0.4815 -0.8053
11839TIP3   OH256931   0.962   6.007  11.593  0.2632 -0.6150  0.5598
11839TIP3    H156932   0.934   6.004  11.501  1.0854 -0.0615  0.2797
11839TIP3    H256933   0.962   5.916  11.621 -1.5142 -0.6749  0.4904
11840TIP3   OH256934   3.768   4.920   2.676  0.7110  0.6491 -0.1778
11840TIP3    H156935   3.681   4.941   2.642  0.2657 -2.3165 -1.1548
11840TIP3    H256936   3.765   4.947   2.768 -1.1558  0.7783 -0.2356
11841TIP3   OH256937   2.582   4.335   1.721 -0.1986 -0.8906  0.1608
11841TIP3    H156938   2.583   4.431   1.713  2.1236 -0.8577  0.1493
11841TIP3    H256939   2.576   4.319   1.815  0.1878 -0.7028  0.2202
11842TIP3   OH256940   3.740   5.840  11.538  0.1379 -0.2076  0.2729
11842TIP3    H156941   3.823   5.823  11.494 -0.6561  0.6527 -1.6444
11842TIP3    H256942   3.747   5.930  11.569  0.5159 -0.6612  1.5736
11843TIP3   OH256943   1.230   6.516  14.528 -0.4705 -0.0746  0.0213
11843TIP3    H156944   1.166   6.587  14.523  0.0180  0.5466  1.7999
11843TIP3    H256945   1.309   6.551  14.487 -0.5998 -0.0384 -0.1970
11844TIP3   OH256946   0.364   4.089  15.335 -0.5950  0.6604  0.2713
11844TIP3    H156947   0.370   4.177  15.299 -2.8130  0.6903 -0.2147
11844TIP3    H256948   0.300   4.096  15.406 -1.2701 -0.6224 -0.1600
11845TIP3   OH256949   1.330   3.520  11.718  0.3039  0.4061 -0.1914
11845TIP3    H156950   1.412   3.506  11.671  1.3257  3.5358  0.3942
11845TIP3    H256951   1.288   3.592  11.671 -0.4565  1.0720  1.4311
11846TIP3   OH256952   1.954   2.496  16.621 -0.4738  0.4707  0.0020
11846TIP3    H156953   1.873   2.472  16.577  0.0546  0.6183 -1.1118
11846TIP3    H256954   1.943   2.588  16.645 -0.5895  0.5311 -0.2796
11847TIP3   OH256955   4.769   0.081   1.562 -0.2763 -0.4117 -0.3177
11847TIP3    H156956   4.726   0.004   1.526  0.4737 -1.3452  0.7289
11847TIP3    H256957   4.698   0.130   1.605 -0.5183 -1.2739  0.2823
11848TIP3   OH256958   6.398   0.444   1.664 -0.3840 -0.7242  0.1134
11848TIP3    H156959   6.456   0.474   1.594 -1.6549  0.2013 -0.5984
11848TIP3    H256960   6.329   0.394   1.619 -1.1349 -0.2574  0.7075
11849TIP3   OH256961   6.030   1.938  14.167  0.2618  0.1436 -0.4860
11849TIP3    H156962   6.102   1.877  14.184  1.2160  1.1976 -0.6305
11849TIP3    H256963   5.984   1.945  14.250 -0.2082 -1.1844 -0.6078
11850TIP3   OH256964   3.142   1.202   1.612 -0.2945  0.0545 -0.4943
11850TIP3    H156965   3.189   1.283   1.635 -2.0634  1.4566 -1.5365
11850TIP3    H256966   3.063   1.204   1.666 -1.1465 -0.1025 -1.6799
11851TIP3   OH256967   6.613   3.806   1.191  0.1748  0.4131 -0.3403
11851TIP3    H156968   6.640   3.886   1.235  0.5290  1.1552 -1.8509
11851TIP3    H256969   6.614   3.828   1.097 -0.0296 -1.2544 -0.7672
11852TIP3   OH256970   6.610   0.016  14.599 -0.4169  0.1050 -0.1222
11852TIP3    H156971   6.669  -0.058  14.614  1.0761  1.0941 -0.7845
11852TIP3    H256972   6.591   0.014  14.506 -0.4443  0.4896 -0.1303
11853TIP3   OH256973   4.428   0.967  15.957  0.8582  0.1515 -0.2701
11853TIP3    H156974   4.362   0.971  15.887  1.4185  0.8607 -0.7869
11853TIP3    H256975   4.413   1.047  16.008 -0.6174 -1.1610  1.4639
11854TIP3   OH256976   5.446   3.171   6.352 -0.3065 -0.2762 -0.5003
11854TIP3    H156977   5.457   3.078   6.332  0.7056 -0.5661  1.1561
11854TIP3    H256978   5.528   3.196   6.394 -0.5468  1.3935 -0.9486
11855TIP3   OH256979   5.100   0.602   2.740 -0.4266  0.6748  0.1854
11855TIP3    H156980   5.125   0.649   2.820  0.0776 -0.9967  1.0560
11855TIP3    H256981   5.038   0.536   2.769  0.3143 -0.4384 -0.6607
11856TIP3   OH256982   4.623   2.563   0.471 -0.3344  0.2914 -0.3367
11856TIP3    H156983   4.704   2.527   0.435 -1.5235 -0.3334 -2.5673
11856TIP3    H256984   4.560   2.490   0.466 -1.1795  0.8945  0.9323
11857TIP3   OH256985   6.200   0.426   3.843 -0.2070 -0.5235  0.5087
11857TIP3    H156986   6.120   0.428   3.791 -0.2566  0.1657  0.6003
11857TIP3    H256987   6.183   0.360   3.910 -1.6139  1.1810  1.9344
11858TIP3   OH256988   5.680   0.195   3.332 -0.0656  0.5899  0.4499
11858TIP3    H156989   5.720   0.197   3.245  1.4700 -2.3859  0.9501
11858TIP3    H256990   5.726   0.263   3.381 -0.4116  1.7783 -0.8093
11859TIP3   OH256991   2.754   0.706   5.832  0.2075 -0.3187  0.2709
11859TIP3    H156992   2.765   0.692   5.738  0.1409  0.4131  0.1487
11859TIP3    H256993   2.662   0.685   5.849 -0.2492  1.2094 -0.1556
11860TIP3   OH256994   5.257   3.589   5.351  0.4031  0.0661 -0.0867
11860TIP3    H156995   5.208   3.646   5.291  2.5713  2.1979  0.0292
11860TIP3    H256996   5.267   3.641   5.431 -1.6727 -2.3806  1.9360
11861TIP3   OH256997   3.038   4.030   1.988 -0.0602  0.3686 -0.3214
11861TIP3    H156998   2.998   4.085   2.056 -0.1410  0.1993 -0.2322
11861TIP3    H256999   3.040   3.943   2.026 -0.8432  0.1119 -0.8484
11862TIP3   OH257000   2.259   4.724   2.483 -0.0307 -0.0188  0.2922
11862TIP3    H157001   2.219   4.753   2.565 -2.4202 -3.1835  0.4474
11862TIP3    H257002   2.212   4.772   2.415 -0.3186  0.2652  0.6828
11863TIP3   OH257003   5.502   6.080   1.930 -0.5835 -0.6508 -0.6344
11863TIP3    H157004   5.534   5.999   1.890  1.3529  0.2017 -0.9422
11863TIP3    H257005   5.574   6.109   1.986 -1.7325  0.2332  0.4460
11864TIP3   OH257006   5.043   1.411   4.559 -0.1040 -0.3951 -0.2599
11864TIP3    H157007   5.111   1.402   4.492  1.8999 -0.6977  1.6719
11864TIP3    H257008   4.990   1.484   4.530  2.1011  1.0022 -1.0574
11865TIP3   OH257009   3.732   0.261   4.911  0.0696 -0.7316 -0.7053
11865TIP3    H157010   3.811   0.310   4.930  0.5467 -1.3576 -1.0308
11865TIP3    H257011   3.709   0.285   4.821  1.3990 -2.5201 -1.5771
11866TIP3   OH257012   1.606   1.514  15.517 -0.3400  0.3157 -0.0729
11866TIP3    H157013   1.608   1.483  15.427 -2.1506  0.0958 -0.0811
11866TIP3    H257014   1.605   1.435  15.570 -0.2999  0.4304  0.1008
11867TIP3   OH257015   1.024   3.850   2.350 -0.1645 -0.1511  0.5882
11867TIP3    H157016   0.999   3.836   2.259  0.5062 -0.9751  0.5249
11867TIP3    H257017   1.010   3.944   2.364 -0.4258 -0.0451 -0.3110
11868TIP3   OH257018   1.230   3.243  13.563  0.0062 -0.2184  0.5659
11868TIP3    H157019   1.152   3.291  13.589  0.5346 -0.2041  2.1975
11868TIP3    H257020   1.216   3.154  13.593 -0.4887 -0.8988 -1.4888
11869TIP3   OH257021   1.497   1.488  12.553  0.0949 -0.4168 -0.3845
11869TIP3    H157022   1.485   1.407  12.603  0.7472 -0.4883 -0.3324
11869TIP3    H257023   1.567   1.467  12.491 -0.0036 -0.0096 -0.6344
11870TIP3   OH257024   2.492   1.937  12.194 -0.2997 -0.6005  0.4611
11870TIP3    H157025   2.473   2.007  12.256  0.4553  0.7396 -0.7657
11870TIP3    H257026   2.587   1.933  12.190 -0.3005 -2.2241  1.0370
11871TIP3   OH257027   6.005   3.716   5.402 -0.9183 -0.2406  0.3959
11871TIP3    H157028   5.973   3.636   5.362 -0.3902 -0.7987  1.0688
11871TIP3    H257029   6.028   3.691   5.491  1.6422  0.0368 -0.1170
11872TIP3   OH257030   3.038   1.565  14.773  0.2962 -0.5535  0.1205
11872TIP3    H157031   3.041   1.651  14.814 -0.1996 -0.4182 -0.1132
11872TIP3    H257032   3.023   1.504  14.845  1.6693 -0.5602  0.4162
11873TIP3   OH257033   5.030   4.017  15.047 -0.0971  0.2876  0.2800
11873TIP3    H157034   5.075   4.101  15.041 -1.3089  1.0155  0.9279
11873TIP3    H257035   5.100   3.952  15.052  0.9103  0.9650 -2.9603
11874TIP3   OH257036   0.478   1.032  14.818  0.3313 -0.5198 -0.1775
11874TIP3    H157037   0.569   1.023  14.848  0.8017  0.4681 -1.2288
11874TIP3    H257038   0.454   1.122  14.840 -0.4852 -0.8451  0.2955
11875TIP3   OH257039   5.536   5.840  13.611  0.2917  0.6034  0.5861
11875TIP3    H157040   5.534   5.824  13.517  0.3306  0.6694  0.5744
11875TIP3    H257041   5.629   5.833  13.634  0.2940  0.6893  0.6025
11876TIP3   OH257042   4.966   3.583  11.694 -0.7225 -0.3764  0.2251
11876TIP3    H157043   4.871   3.581  11.709 -0.8719 -0.6238 -0.6796
11876TIP3    H257044   5.004   3.589  11.781 -1.6012  1.0697  0.5450
11877TIP3   OH257045   1.308   2.183  16.899  0.4295  0.3060 -0.6054
11877TIP3    H157046   1.381   2.245  16.903  0.3533  0.3381  0.4301
11877TIP3    H257047   1.333   2.113  16.959  0.4829 -0.6501 -1.7079
11878TIP3   OH257048   4.237   4.317   4.402  0.1525 -0.4781 -0.4794
11878TIP3    H157049   4.261   4.225   4.415  0.1412 -0.6347 -1.4772
11878TIP3    H257050   4.209   4.347   4.489  1.6354 -0.9630  0.2003
11879TIP3   OH257051   0.588   3.785  14.528 -0.0916 -0.5815 -0.1327
11879TIP3    H157052   0.578   3.790  14.623  1.1602  0.8286 -0.0243
11879TIP3    H257053   0.570   3.874  14.497  1.7437 -0.4274 -0.9232
11880TIP3   OH257054   2.899   4.914   0.834 -0.4229  0.2191 -0.1406
11880TIP3    H157055   2.840   4.872   0.771  0.6297 -1.2883 -0.1854
11880TIP3    H257056   2.901   5.005   0.807 -3.8805  0.7117  0.7864
11881TIP3   OH257057   2.941   0.567  11.213 -0.0865 -0.2242 -0.4176
11881TIP3    H157058   2.907   0.573  11.124  0.2508  1.3278 -0.4645
11881TIP3    H257059   2.896   0.492  11.250 -0.0305 -1.0796 -1.9767
11882TIP3   OH257060   4.144   4.279   3.855  1.0125 -0.0764 -0.0347
11882TIP3    H157061   4.146   4.245   3.944 -1.2565 -0.8071 -0.2068
11882TIP3    H257062   4.183   4.367   3.862  0.3057  0.1335  1.8012
11883TIP3   OH257063   4.350   0.313   1.945 -0.4741  0.2147  0.6150
11883TIP3    H157064   4.259   0.298   1.921 -1.2145  3.3480  0.9841
11883TIP3    H257065   4.357   0.283   2.036 -1.1451  0.0157  0.6058
11884TIP3   OH257066   5.114   1.643   1.998 -0.1529 -0.4174  0.0529
11884TIP3    H157067   5.028   1.617   1.963 -0.1153 -0.0700 -0.2941
11884TIP3    H257068   5.177   1.597   1.943 -0.1216 -1.2615  0.7716
11885TIP3   OH257069   1.535   5.924  13.404 -0.7491 -0.2996 -0.3800
11885TIP3    H157070   1.592   5.878  13.466 -0.6751  1.0661  0.6255
11885TIP3    H257071   1.521   6.010  13.444 -0.7690  0.6156 -2.2438
11886TIP3   OH257072   3.675   3.131   5.460 -0.2787  0.6170  0.1002
11886TIP3    H157073   3.683   3.056   5.402 -2.1610  0.3730  0.0850
11886TIP3    H257074   3.715   3.203   5.412 -0.7124  0.1540 -0.9769
11887TIP3   OH257075   5.021   1.473  11.627  0.1318  0.6056  0.0255
11887TIP3    H157076   4.987   1.485  11.538  1.1843  0.4022 -0.4280
11887TIP3    H257077   5.073   1.552  11.643 -0.6152  0.9567  0.7364
11888TIP3   OH257078   3.758   0.272   0.274 -0.2550  0.3694  0.2536
11888TIP3    H157079   3.682   0.272   0.216 -0.6711  0.6284  0.7884
11888TIP3    H257080   3.825   0.320   0.225  0.1924 -1.4255 -0.9918
11889TIP3   OH257081   6.716   1.254  15.751  0.2449  0.2947 -0.3563
11889TIP3    H157082   6.767   1.252  15.832  0.2308 -1.9182 -0.3312
11889TIP3    H257083   6.769   1.205  15.688 -1.0607 -0.5768 -0.8139
11890TIP3   OH257084   0.443   0.421   3.130  0.1586 -0.2332 -0.0555
11890TIP3    H157085   0.458   0.405   3.037 -0.3319  0.3320 -0.2375
11890TIP3    H257086   0.395   0.504   3.133 -0.1076 -0.4011  0.6810
11891TIP3   OH257087   3.612   6.563  14.786 -0.0065 -0.3592  0.3056
11891TIP3    H157088   3.600   6.617  14.864  0.1057 -0.2068  0.2185
11891TIP3    H257089   3.673   6.613  14.732 -1.7729  0.6061 -0.8936
11892TIP3   OH257090   1.944   2.593   3.225 -0.5769 -0.4018  0.0247
11892TIP3    H157091   1.910   2.593   3.315 -0.9287 -0.3391 -0.1085
11892TIP3    H257092   2.005   2.519   3.223  1.2739  1.0127  0.9965
11893TIP3   OH257093   1.537   5.684   3.550  0.1551 -0.1232 -0.2265
11893TIP3    H157094   1.491   5.701   3.468  0.8226  3.0364 -0.0745
11893TIP3    H257095   1.478   5.716   3.618  1.2451  1.0888  0.1923
11894TIP3   OH257096   0.363   6.359   4.883  0.5304  0.8931  0.0725
11894TIP3    H157097   0.303   6.333   4.813  1.3441 -3.1551  0.6583
11894TIP3    H257098   0.312   6.352   4.963  1.0007  0.3401  0.3265
11895TIP3   OH257099   1.474   2.430  17.139 -0.4179  0.0011  0.2299
11895TIP3    H157100   1.432   2.512  17.165 -0.2834  0.2437 -0.2983
11895TIP3    H257101   1.454   2.422  17.045  0.3165 -0.1078  0.0726
11896TIP3   OH257102   2.088   1.104  16.873  0.5023  0.5810 -0.0768
11896TIP3    H157103   2.152   1.036  16.850 -0.9936 -1.0370  0.3181
11896TIP3    H257104   2.140   1.182  16.887  2.3974 -0.6574  0.1603
11897TIP3   OH257105   6.014   2.436   3.893  0.0666  0.5944  0.2742
11897TIP3    H157106   6.047   2.471   3.976 -1.1599  0.9852  0.6197
11897TIP3    H257107   6.089   2.392   3.853  0.4321 -0.5535  2.1052
11898TIP3   OH257108   3.343   0.075  11.472 -0.4813  0.3435  0.2926
11898TIP3    H157109   3.382  -0.005  11.508 -0.7057  0.4438  0.7559
11898TIP3    H257110   3.328   0.131  11.548 -2.4130 -0.0612  0.2614
11899TIP3   OH257111   6.209   1.326  12.940 -0.4452  0.0829 -0.1290
11899TIP3    H157112   6.263   1.364  13.010 -0.3214 -1.8015  0.8516
11899TIP3    H257113   6.270   1.315  12.867 -0.2336  0.7587 -0.0591
11900TIP3   OH257114   2.706   6.479   2.419  0.3413 -0.4444  0.0471
11900TIP3    H157115   2.747   6.546   2.366  0.1481  0.5666  1.1315
11900TIP3    H257116   2.646   6.527   2.477 -0.7505 -1.6629 -0.0073
11901TIP3   OH257117   4.436   6.359  11.660 -0.1582  0.0924 -0.0117
11901TIP3    H157118   4.436   6.302  11.584  0.5933 -0.2671  0.2470
11901TIP3    H257119   4.344   6.372  11.680 -0.3750  0.4035 -1.1311
11902TIP3   OH257120   3.596   2.753  16.126  0.4330 -0.6550 -0.2493
11902TIP3    H157121   3.676   2.705  16.110  1.0752  0.4220 -0.3804
11902TIP3    H257122   3.557   2.765  16.039  1.1384  0.4845 -0.4339
11903TIP3   OH257123   4.794   6.074  12.629  0.3840 -0.3968 -0.5760
11903TIP3    H157124   4.881   6.043  12.651 -0.2701 -2.1194 -0.2890
11903TIP3    H257125   4.735   6.013  12.672 -0.9747  0.7472 -0.7421
11904TIP3   OH257126   0.974   2.657   4.877 -0.3239  0.5994  0.1665
11904TIP3    H157127   0.941   2.679   4.964 -0.6266  0.8679 -0.0143
11904TIP3    H257128   1.062   2.694   4.875 -0.9207  2.0621 -0.2276
11905TIP3   OH257129   5.091   3.015  11.971  0.2569 -0.6616  0.0117
11905TIP3    H157130   5.122   3.028  12.060 -0.1498 -1.3890  0.2637
11905TIP3    H257131   5.158   2.959  11.930 -0.3162 -1.5835  0.3210
11906TIP3   OH257132   5.591   5.339  10.416  0.3861 -0.0223  0.1759
11906TIP3    H157133   5.684   5.317  10.422  0.2258 -0.7285  0.0818
11906TIP3    H257134   5.545   5.261  10.447 -0.1890  0.0966 -0.3499
11907TIP3   OH257135   0.386   3.694  15.690 -0.1784  0.0697  0.6459
11907TIP3    H157136   0.428   3.732  15.613 -0.2960  0.3770  0.7339
11907TIP3    H257137   0.440   3.723  15.763 -0.0201 -0.2895  0.6736
11908TIP3   OH257138   1.719   5.426   3.517 -0.0166  0.0929 -0.2484
11908TIP3    H157139   1.806   5.456   3.541 -0.2602 -0.7022  1.7975
11908TIP3    H257140   1.663   5.504   3.528  0.2080  0.2639 -0.3089
11909TIP3   OH257141   4.247   4.273  13.088  0.1922  0.0158  0.3025
11909TIP3    H157142   4.173   4.322  13.124  0.5299  0.9917 -0.2732
11909TIP3    H257143   4.216   4.241  13.003 -0.1496 -1.1040  0.8392
11910TIP3   OH257144   1.157   6.300   2.947 -0.9034  0.7297  0.0753
11910TIP3    H157145   1.194   6.271   3.030 -1.0583 -0.9262 -0.4112
11910TIP3    H257146   1.232   6.312   2.890 -0.9780 -1.4529 -0.5450
11911TIP3   OH257147   4.560   2.564  12.994 -0.2757 -0.1219  0.3503
11911TIP3    H157148   4.629   2.498  12.987 -1.0428 -0.8035 -1.1939
11911TIP3    H257149   4.504   2.532  13.066  0.8204  0.2834  1.4075
11912TIP3   OH257150   3.569   1.144  11.946  0.1903 -0.9266 -0.2545
11912TIP3    H157151   3.617   1.222  11.972 -0.2987 -0.2547 -1.3048
11912TIP3    H257152   3.614   1.072  11.991  1.8031 -0.2579 -0.7106
11913TIP3   OH257153   4.304   5.393  13.731 -0.3122  0.0206  0.2277
11913TIP3    H157154   4.314   5.354  13.644 -1.4959  1.1509 -0.4534
11913TIP3    H257155   4.394   5.405  13.762  0.1129 -1.4594 -0.3182
11914TIP3   OH257156   0.431   1.328   4.534  0.2820 -0.0149 -0.0277
11914TIP3    H157157   0.394   1.240   4.545  0.8841 -0.4016 -1.0120
11914TIP3    H257158   0.486   1.340   4.611 -0.0175 -0.3990  0.2505
11915TIP3   OH257159   3.375   4.306  15.945  0.1721 -0.1355  0.0253
11915TIP3    H157160   3.448   4.367  15.936 -1.1444  1.2163 -2.8664
11915TIP3    H257161   3.351   4.284  15.855 -2.1069 -1.6394  0.9155
11916TIP3   OH257162   5.024   2.973   6.474 -0.5232  0.7550 -0.1659
11916TIP3    H157163   4.994   3.056   6.511 -0.4907  0.3253  0.8337
11916TIP3    H257164   5.060   2.924   6.548 -1.4807 -0.5796 -0.5408
11917TIP3   OH257165   4.975   1.006  16.025  0.0413 -0.0157 -0.1511
11917TIP3    H157166   4.996   1.098  16.006 -1.9908  0.2532 -1.3637
11917TIP3    H257167   5.020   0.988  16.108  1.4166  1.7127 -0.4717
11918TIP3   OH257168   0.993   2.427   3.049 -0.9467 -0.1801 -0.2881
11918TIP3    H157169   1.073   2.480   3.039 -1.4071  0.3286 -1.4403
11918TIP3    H257170   0.930   2.486   3.089 -1.1449 -0.1656 -0.6159
11919TIP3   OH257171   2.703   5.400   3.018  0.4959 -0.0189 -0.2776
11919TIP3    H157172   2.645   5.330   3.049 -0.2434  0.1600 -1.2298
11919TIP3    H257173   2.667   5.480   3.057 -0.5353  0.2295 -1.6596
11920TIP3   OH257174   2.387   1.535   0.613  0.3839  0.1726 -0.0168
11920TIP3    H157175   2.457   1.484   0.574 -0.5477 -0.4453 -0.9503
11920TIP3    H257176   2.311   1.476   0.614 -0.2549  0.9696  0.5060
11921TIP3   OH257177   0.492   0.632   4.601  0.2638  0.0692  0.0144
11921TIP3    H157178   0.530   0.558   4.649 -0.7577 -1.2934 -1.1537
11921TIP3    H257179   0.560   0.700   4.603  1.9861 -1.5475 -0.3416
11922TIP3   OH257180   5.503   4.007   2.235  0.2564 -0.2251  0.0684
11922TIP3    H157181   5.461   3.922   2.239 -0.1846 -0.0552 -0.6994
11922TIP3    H257182   5.590   3.993   2.273  0.0962 -0.9508  0.1786
11923TIP3   OH257183   2.425   4.600   5.311 -0.1807 -0.5980  0.0453
11923TIP3    H157184   2.520   4.603   5.326 -0.3038  2.2835  0.9065
11923TIP3    H257185   2.388   4.571   5.394 -0.1475  1.3992  0.8083
11924TIP3   OH257186   3.598   5.526   2.646 -0.1906  0.2030 -0.5364
11924TIP3    H157187   3.605   5.597   2.709  1.8396 -0.1075 -0.3423
11924TIP3    H257188   3.573   5.449   2.698  0.3096  0.2048 -0.2881
11925TIP3   OH257189   2.966   5.473  15.477  0.1562  0.1843  0.0661
11925TIP3    H157190   3.045   5.480  15.423  0.0733  1.0184  0.0417
11925TIP3    H257191   2.969   5.549  15.534 -0.4791  0.0578  0.2740
11926TIP3   OH257192   2.873   2.586  14.799  0.1597 -0.0074 -0.6740
11926TIP3    H157193   2.837   2.650  14.738  1.5436 -0.1629 -1.7077
11926TIP3    H257194   2.857   2.624  14.885 -2.7395 -0.2458 -1.0030
11927TIP3   OH257195   5.656   1.775  17.000  0.9834 -0.2157 -0.1970
11927TIP3    H157196   5.689   1.864  17.009 -4.0257  1.9405  0.5409
11927TIP3    H257197   5.635   1.766  16.907 -0.5599  0.3446  0.0688
11928TIP3   OH257198   5.547   3.878   1.484  0.0888 -0.1276 -0.2091
11928TIP3    H157199   5.473   3.849   1.430 -0.1432  0.8876 -0.4636
11928TIP3    H257200   5.580   3.956   1.440  0.6715  0.0164  0.4628
11929TIP3   OH257201   6.551   4.945  12.553 -0.1050  0.2434  0.3741
11929TIP3    H157202   6.459   4.934  12.527 -0.7753 -0.0722  2.6626
11929TIP3    H257203   6.590   4.859  12.539 -0.6854 -0.1751  1.2452
11930TIP3   OH257204   4.880   1.355  16.075 -0.0881 -0.4641 -0.0233
11930TIP3    H157205   4.793   1.387  16.052 -0.6145 -1.3257  0.7058
11930TIP3    H257206   4.918   1.328  15.992  0.2714  1.7257 -0.6352
11931TIP3   OH257207   4.174   3.235  12.996  0.4581  0.2901  0.2174
11931TIP3    H157208   4.127   3.171  13.048  0.2982 -0.1690 -0.4856
11931TIP3    H257209   4.106   3.296  12.966  0.8018  1.7889  2.2289
11932TIP3   OH257210   0.778   0.135  15.763  0.0217  0.0795 -0.1183
11932TIP3    H157211   0.798   0.093  15.846  0.5410 -0.0807 -0.3239
11932TIP3    H257212   0.684   0.153  15.767 -0.1514 -0.8461  0.0831
11933TIP3   OH257213   5.655   4.886  14.983 -0.4021 -0.4927  0.5593
11933TIP3    H157214   5.632   4.970  14.943  0.9963  0.0165  0.7744
11933TIP3    H257215   5.696   4.909  15.066  1.9731 -1.2255 -0.3334
11934TIP3   OH257216   4.535   3.272  16.846 -1.0140 -0.3469  0.6539
11934TIP3    H157217   4.529   3.182  16.814 -1.7133 -0.0013 -0.2403
11934TIP3    H257218   4.482   3.272  16.926  0.7702 -1.2257  1.8978
11935TIP3   OH257219   0.183   4.978   2.901  0.1232 -0.2900 -0.8968
11935TIP3    H157220   0.181   5.037   2.976  0.5669 -0.0102 -1.1017
11935TIP3    H257221   0.151   5.031   2.828 -1.1027 -0.7966 -0.7564
11936TIP3   OH257222   0.509   2.874   1.779  0.0847 -0.3206  0.7388
11936TIP3    H157223   0.479   2.900   1.692  0.0800 -0.5030  0.6843
11936TIP3    H257224   0.434   2.891   1.836 -0.2128 -0.9881  0.5649
11937TIP3   OH257225   3.637   2.402   4.336  0.2543 -0.3278 -0.1373
11937TIP3    H157226   3.596   2.382   4.420 -1.6056 -0.1732 -0.9535
11937TIP3    H257227   3.669   2.492   4.345 -1.5910  0.3688 -0.1560
11938TIP3   OH257228   4.457   1.723  16.144 -0.7864  0.1242 -0.7592
11938TIP3    H157229   4.435   1.798  16.090 -0.8152 -0.6679 -1.8789
11938TIP3    H257230   4.375   1.700  16.188 -0.9918  0.2147 -1.0908
11939TIP3   OH257231   2.235   2.033  10.795 -0.1071  0.5211 -0.0494
11939TIP3    H157232   2.157   2.089  10.794 -0.0597  0.6001  0.2893
11939TIP3    H257233   2.201   1.944  10.804 -0.1465  0.6027  0.7183
11940TIP3   OH257234   6.256   3.451  14.690 -0.5709  0.3099 -0.0554
11940TIP3    H157235   6.241   3.460  14.596 -2.1601 -2.3446 -0.1498
11940TIP3    H257236   6.180   3.493  14.730  1.6686  4.5499  0.3666
11941TIP3   OH257237   0.789   4.864  13.476  0.5526  0.5500 -0.7009
11941TIP3    H157238   0.722   4.901  13.534  0.9864  1.3078 -0.6782
11941TIP3    H257239   0.742   4.800  13.423 -0.0586  0.6004 -0.2253
11942TIP3   OH257240   6.073   5.645   3.979  0.2245  0.2038 -0.3124
11942TIP3    H157241   6.167   5.637   3.997  0.5825 -0.6921 -2.2937
11942TIP3    H257242   6.065   5.623   3.886 -2.2016 -1.6562  0.2470
11943TIP3   OH257243   1.556   5.025  15.840 -0.0563 -0.2737  0.6029
11943TIP3    H157244   1.550   5.065  15.927 -2.7003  0.1898  0.2874
11943TIP3    H257245   1.605   5.089  15.788  1.0217 -0.2796  1.5583
11944TIP3   OH257246   6.793   4.404   2.401 -0.4377 -0.6355 -0.2603
11944TIP3    H157247   6.803   4.348   2.323  0.4008 -0.3722 -0.3451
11944TIP3    H257248   6.882   4.430   2.424 -0.6547 -0.8208  0.8804
11945TIP3   OH257249   6.718   3.415  14.367 -0.1513 -0.1057 -0.0870
11945TIP3    H157250   6.779   3.438  14.296  0.4855 -1.3748  0.0313
11945TIP3    H257251   6.772   3.416  14.446 -0.0836 -1.9513 -0.0748
11946TIP3   OH257252   5.377   5.604  15.831  0.6831 -0.5004 -0.4309
11946TIP3    H157253   5.447   5.586  15.894 -0.0572 -1.4699  0.1493
11946TIP3    H257254   5.306   5.545  15.857 -0.5337  0.7814 -0.7028
11947TIP3   OH257255   5.047   1.194   2.516  0.8276 -0.1762  0.2343
11947TIP3    H157256   5.079   1.129   2.454 -0.2822 -0.5398  0.0165
11947TIP3    H257257   5.011   1.142   2.589 -1.8680  0.0496 -0.8130
11948TIP3   OH257258   1.528   1.537  16.354  0.2284  0.0539  0.6446
11948TIP3    H157259   1.493   1.572  16.437  0.2458  0.3910  0.5110
11948TIP3    H257260   1.469   1.465  16.332  0.1043  0.0915  0.8497
11949TIP3   OH257261   0.358   2.472  13.678  0.0251  0.2606 -0.1324
11949TIP3    H157262   0.276   2.521  13.688 -0.1518  0.0164 -0.3812
11949TIP3    H257263   0.360   2.449  13.585  1.5064  2.2579 -0.6663
11950TIP3   OH257264   0.572   0.689  15.724  0.1480 -0.4735  0.1117
11950TIP3    H157265   0.520   0.622  15.680  0.4261  0.4747 -1.7855
11950TIP3    H257266   0.613   0.644  15.798 -0.8810 -1.9804 -0.1856
11951TIP3   OH257267   6.554   0.389   5.625  0.1848  0.1742 -0.3094
11951TIP3    H157268   6.478   0.334   5.644 -0.9044  2.0973  1.1956
11951TIP3    H257269   6.532   0.430   5.541 -1.1793  1.7895  0.7628
11952TIP3   OH257270   0.527   2.082  14.152  0.0369 -0.3968 -0.6706
11952TIP3    H157271   0.588   2.016  14.185 -0.3995 -0.7796 -0.6389
11952TIP3    H257272   0.476   2.037  14.085 -0.1640 -0.0527 -0.7486
11953TIP3   OH257273   2.569   5.966   4.929 -0.2706  0.0754  0.4841
11953TIP3    H157274   2.575   6.053   4.890 -2.6104 -1.0319 -2.8007
11953TIP3    H257275   2.657   5.929   4.919  0.6939  1.9157  1.7390
11954TIP3   OH257276   6.553   5.739   2.889 -0.6170 -0.8047 -0.2655
11954TIP3    H157277   6.555   5.712   2.797 -0.1285  0.2701 -0.5807
11954TIP3    H257278   6.464   5.718   2.918 -1.0694 -0.2906 -1.2447
11955TIP3   OH257279   6.673   2.857   6.388  0.3353 -0.0118 -0.5738
11955TIP3    H157280   6.705   2.851   6.478 -1.1053 -0.3637 -0.0609
11955TIP3    H257281   6.658   2.766   6.362 -0.3464  0.1473 -0.7576
11956TIP3   OH257282   3.719   0.224  14.738 -0.6471  0.4106 -0.1372
11956TIP3    H157283   3.737   0.284  14.665 -3.4907  1.6694  0.0587
11956TIP3    H257284   3.689   0.281  14.809 -0.0640 -0.9880  1.2814
11957TIP3   OH257285   2.719   3.126  13.411  0.2577  0.1271  0.5004
11957TIP3    H157286   2.744   3.048  13.459 -1.0706  0.2374  1.4219
11957TIP3    H257287   2.650   3.097  13.351 -1.2450  0.8103  1.8308
11958TIP3   OH257288   0.901   3.920   5.683  0.3165  0.4826 -0.3049
11958TIP3    H157289   0.856   3.892   5.762 -0.0704 -0.0038 -0.6842
11958TIP3    H257290   0.965   3.984   5.712  1.5065 -1.0797  0.6659
11959TIP3   OH257291   2.747   0.978  15.660 -0.6657  0.0579  0.5876
11959TIP3    H157292   2.695   0.913  15.613  1.5858 -2.0899  0.8519
11959TIP3    H257293   2.834   0.972  15.621 -0.1248  2.2975  1.2883
11960TIP3   OH257294   0.827   3.749   1.425  0.3395 -0.0853  0.2151
11960TIP3    H157295   0.814   3.838   1.458 -1.4627 -0.5646  0.9133
11960TIP3    H257296   0.889   3.759   1.353 -0.3140  1.8307 -0.1368
11961TIP3   OH257297   0.293   4.959  13.410 -0.4632 -0.4151 -0.0424
11961TIP3    H157298   0.293   5.036  13.468 -0.7243 -0.4426 -0.0025
11961TIP3    H257299   0.268   4.994  13.325  2.6641  0.1286 -0.8549
11962TIP3   OH257300   5.383   1.745  12.569 -0.2872  0.0852  0.2646
11962TIP3    H157301   5.306   1.739  12.627 -0.2421  0.2632  0.3426
11962TIP3    H257302   5.349   1.722  12.483 -0.4314  0.1697  0.2975
11963TIP3   OH257303   6.093   5.601   5.750  0.4230 -0.0379 -0.0035
11963TIP3    H157304   6.005   5.610   5.786 -0.1598  3.0464 -1.8167
11963TIP3    H257305   6.152   5.622   5.822 -0.4389  0.3537  0.5916
11964TIP3   OH257306   2.264   0.661  15.748  0.1833  0.3014  0.4452
11964TIP3    H157307   2.224   0.596  15.806  0.2870 -0.3694 -0.2214
11964TIP3    H257308   2.269   0.740  15.801 -2.5189  0.5796  0.3948
11965TIP3   OH257309   6.748   3.304   3.456 -0.0830 -0.6746  0.3519
11965TIP3    H157310   6.717   3.221   3.419 -1.1197  0.0308 -0.4101
11965TIP3    H257311   6.827   3.324   3.406  0.8331 -1.7514  1.3112
11966TIP3   OH257312   3.231   6.159   0.755 -0.8571 -0.7646  0.0576
11966TIP3    H157313   3.220   6.220   0.828  2.0621 -1.2582  1.0086
11966TIP3    H257314   3.181   6.082   0.781 -1.1514 -0.3404  0.7889
11967TIP3   OH257315   3.550   0.919   1.786  0.4363 -0.3212 -0.4434
11967TIP3    H157316   3.632   0.895   1.829  0.8647  1.0444 -0.4536
11967TIP3    H257317   3.547   1.014   1.793  0.8117  0.0591 -3.9538
11968TIP3   OH257318   2.860   2.344   2.107  0.1764 -0.3719 -0.0187
11968TIP3    H157319   2.867   2.425   2.158 -0.3621 -0.3091 -0.0368
11968TIP3    H257320   2.859   2.275   2.173 -2.0972 -0.2075  0.1832
11969TIP3   OH257321   1.503   3.016  14.942 -0.1603  0.0856 -0.1543
11969TIP3    H157322   1.598   3.024  14.932 -0.2025  0.7487 -0.0609
11969TIP3    H257323   1.474   3.104  14.966 -0.8352 -0.0492 -0.4546
11970TIP3   OH257324   5.994   3.837   1.591 -0.7224  0.4335 -0.2364
11970TIP3    H157325   5.945   3.823   1.510 -0.8108 -0.3497 -0.0554
11970TIP3    H257326   5.947   3.907   1.636 -2.5222 -1.2228  0.5815
11971TIP3   OH257327   5.513   2.615   4.431  0.5926 -0.0902 -0.0539
11971TIP3    H157328   5.426   2.642   4.461  1.5211  1.0751  1.8408
11971TIP3    H257329   5.546   2.557   4.501  1.8594  0.6169 -0.0267
11972TIP3   OH257330   0.585   5.100   4.983  0.2903  0.3704  0.2790
11972TIP3    H157331   0.656   5.048   5.022 -0.0549  0.6313  1.2813
11972TIP3    H257332   0.623   5.187   4.969 -0.5196  1.3335  3.3198
11973TIP3   OH257333   2.788   0.965  15.347  0.0046  0.2523 -0.0289
11973TIP3    H157334   2.798   1.056  15.377 -1.6788  0.5754 -0.2909
11973TIP3    H257335   2.797   0.971  15.252  0.0026  0.1441 -0.0352
11974TIP3   OH257336   5.542   0.927  14.752  0.0567  0.2150  0.2886
11974TIP3    H157337   5.566   0.954  14.664  0.2304 -2.1005 -0.4412
11974TIP3    H257338   5.457   0.970  14.768  0.1939  0.9478 -0.8416
11975TIP3   OH257339   3.801   4.630   4.974 -0.2069  0.4447  0.1856
11975TIP3    H157340   3.751   4.711   4.968 -1.3263 -0.1414  1.1040
11975TIP3    H257341   3.781   4.596   5.061  0.2440 -0.8062 -0.1749
11976TIP3   OH257342   2.610   5.487  12.671  0.7881  0.3342 -0.0220
11976TIP3    H157343   2.688   5.438  12.699  0.7039  0.0083 -0.3510
11976TIP3    H257344   2.544   5.420  12.655  0.6470  0.5605 -0.3992
11977TIP3   OH257345   0.358   2.196  13.792 -0.8645 -0.2889  0.1747
11977TIP3    H157346   0.404   2.184  13.708 -0.6200  0.8507  0.1375
11977TIP3    H257347   0.339   2.289  13.796  0.6493  0.0071  2.1663
11978TIP3   OH257348   2.814   2.543  13.044 -0.2544 -0.3541  0.4244
11978TIP3    H157349   2.728   2.581  13.062 -0.0256  1.6534 -2.1293
11978TIP3    H257350   2.796   2.450  13.028 -0.9714 -1.4993  5.9530
11979TIP3   OH257351   0.231   3.483   4.123 -0.1731 -0.6033 -0.6591
11979TIP3    H157352   0.214   3.559   4.180 -0.9009 -0.4055 -1.1173
11979TIP3    H257353   0.285   3.518   4.052  2.5722 -1.2915  0.9402
11980TIP3   OH257354   1.197   1.300   3.099 -0.1646 -0.3734 -0.2902
11980TIP3    H157355   1.159   1.212   3.102  2.0042 -1.4439 -1.1721
11980TIP3    H257356   1.206   1.319   3.005  0.9275  0.0305 -0.1227
11981TIP3   OH257357   6.430   6.235   4.673 -0.6566 -0.0387  0.2793
11981TIP3    H157358   6.357   6.247   4.733 -0.4148  1.5825  0.2823
11981TIP3    H257359   6.466   6.149   4.696 -1.7735 -0.2978  1.1166
11982TIP3   OH257360   1.787   1.464  16.300 -0.4999 -0.7837 -0.3058
11982TIP3    H157361   1.820   1.510  16.223  1.0019  0.4868  1.0295
11982TIP3    H257362   1.694   1.486  16.304 -0.5277 -0.6187 -1.5667
11983TIP3   OH257363   0.595   4.222   6.427 -0.4091  0.0530 -0.3459
11983TIP3    H157364   0.613   4.295   6.368 -0.4262  0.8664  0.6443
11983TIP3    H257365   0.654   4.152   6.397  0.9021  1.0607 -0.1863
11984TIP3   OH257366   5.210   6.170  14.721  0.2904  0.5819  0.5257
11984TIP3    H157367   5.301   6.199  14.721  0.6215 -0.3976  1.0872
11984TIP3    H257368   5.160   6.247  14.694  1.3329  0.9581 -0.4402
11985TIP3   OH257369   4.707   3.430   5.546  0.5567 -0.0866  0.2382
11985TIP3    H157370   4.698   3.474   5.630 -0.7421  0.1139  0.0146
11985TIP3    H257371   4.773   3.480   5.499  0.3366  0.6014  0.6465
11986TIP3   OH257372   2.340   1.225   1.633 -0.1391 -0.2223  0.0286
11986TIP3    H157373   2.384   1.309   1.620  0.8090 -0.3819  1.8760
11986TIP3    H257374   2.280   1.240   1.705 -0.6879 -0.8866 -0.2823
11987TIP3   OH257375   6.026   0.700   3.508  0.5413  0.7142 -0.0683
11987TIP3    H157376   6.022   0.622   3.562 -2.0067 -0.2438 -1.4778
11987TIP3    H257377   6.011   0.669   3.419  0.2529  2.6893 -0.7691
11988TIP3   OH257378   5.157   2.984  16.021  0.0660 -0.0624  0.1730
11988TIP3    H157379   5.184   2.892  16.018  1.6225  0.3967 -0.7354
11988TIP3    H257380   5.079   2.984  16.077 -1.2537 -2.2544 -1.4665
11989TIP3   OH257381   3.310   4.422   2.042  0.2302  0.0085 -0.5709
11989TIP3    H157382   3.324   4.493   2.104  1.7115 -0.8053  0.0694
11989TIP3    H257383   3.241   4.369   2.083 -0.1659  0.5097 -0.5716
11990TIP3   OH257384   0.722   4.574   5.178 -0.1069  0.5350  0.1766
11990TIP3    H157385   0.657   4.592   5.109  0.6468  1.6967 -0.2512
11990TIP3    H257386   0.753   4.486   5.158  0.4033  1.0107 -1.2491
11991TIP3   OH257387   4.070   4.224   6.426  0.0693 -0.7139  0.1090
11991TIP3    H157388   4.155   4.238   6.467 -0.1340  1.1607 -0.0290
11991TIP3    H257389   4.008   4.226   6.499  0.0508 -1.2111  0.1113
11992TIP3   OH257390   4.283   2.882   5.987 -0.0837 -0.3289  0.2426
11992TIP3    H157391   4.357   2.943   5.984  0.2479 -0.7531 -0.6586
11992TIP3    H257392   4.212   2.929   5.943  0.4067 -0.8661 -1.1867
11993TIP3   OH257393   2.475   6.714  11.665 -0.2627 -0.6838  0.5919
11993TIP3    H157394   2.425   6.634  11.681  0.6298 -1.4390 -0.2284
11993TIP3    H257395   2.566   6.689  11.680  0.2381 -0.4154 -1.6545
11994TIP3   OH257396   4.210   0.491   4.438  0.3556  0.1232 -0.3514
11994TIP3    H157397   4.217   0.411   4.490 -0.4720  0.6342  0.6028
11994TIP3    H257398   4.137   0.539   4.479  0.0013  0.7708 -1.6997
11995TIP3   OH257399   4.545   6.647   4.524 -0.2380 -0.6844 -0.2787
11995TIP3    H157400   4.455   6.634   4.556  0.0958 -1.3299  0.4167
11995TIP3    H257401   4.591   6.567   4.549  0.1974 -0.9516 -1.8433
11996TIP3   OH257402   0.366   4.203   1.704  0.6587  0.4752  0.9573
11996TIP3    H157403   0.334   4.191   1.614  0.8578  0.1538  0.9280
11996TIP3    H257404   0.307   4.151   1.758  1.0552 -0.0176  0.9172
11997TIP3   OH257405   3.766   1.835  12.771  0.8057  0.3454  0.7208
11997TIP3    H157406   3.849   1.793  12.795  0.3400 -1.1983 -0.2273
11997TIP3    H257407   3.783   1.877  12.687  0.5470 -0.3094  0.3305
11998TIP3   OH257408   1.952   4.019  16.328 -0.8044 -0.3362 -0.1670
11998TIP3    H157409   2.046   4.000  16.329 -0.6075  0.5031  1.3205
11998TIP3    H257410   1.919   3.977  16.249  0.7119 -1.1908 -0.3767
11999TIP3   OH257411   2.108   0.934   5.568  0.1178 -0.2899  0.3440
11999TIP3    H157412   2.145   0.998   5.508  1.0495 -1.2135 -0.1044
11999TIP3    H257413   2.136   0.963   5.655  1.9167 -0.9136  0.0286
12000TIP3   OH257414   5.621   1.742  13.817 -0.4889 -0.3281 -0.2771
12000TIP3    H157415   5.655   1.819  13.862  3.3897 -2.6826  1.2414
12000TIP3    H257416   5.649   1.753  13.726 -0.9104  0.4800 -0.3241
12001TIP3   OH257417   1.132   2.969   4.419 -0.3520 -0.2776  0.8171
12001TIP3    H157418   1.182   2.943   4.342  1.2650 -0.3350  1.8350
12001TIP3    H257419   1.074   3.038   4.388  0.3882 -0.1830 -0.4196
12002TIP3   OH257420   6.376   5.183   4.145  0.1744 -0.2489  0.2514
12002TIP3    H157421   6.350   5.132   4.068 -0.3006  0.4608 -0.0624
12002TIP3    H257422   6.295   5.198   4.193  0.4773 -0.7242  0.9184
12003TIP3   OH257423   1.468   3.534  16.886 -0.0499  0.0901  0.0624
12003TIP3    H157424   1.559   3.559  16.868 -0.0373  0.0653  0.0939
12003TIP3    H257425   1.437   3.599  16.949  0.1136 -0.2235  0.4655
12004TIP3   OH257426   0.792   6.283  16.046 -0.0380 -0.0213 -0.1064
12004TIP3    H157427   0.827   6.327  16.124 -1.1874  1.6338 -0.4707
12004TIP3    H257428   0.867   6.235  16.011  1.6689  2.5449 -0.2814
12005TIP3   OH257429   2.552   0.469  16.960  0.8557 -0.1391 -0.4733
12005TIP3    H157430   2.472   0.521  16.953  0.9789  0.1615  0.2301
12005TIP3    H257431   2.582   0.483  17.050  1.7254 -0.2034 -0.7396
12006TIP3   OH257432   2.718   3.017  10.987 -0.1579 -0.4130  0.3598
12006TIP3    H157433   2.634   3.030  10.943 -1.7156 -0.0527  3.1945
12006TIP3    H257434   2.754   3.105  10.997 -0.8233 -0.2627  1.5812
12007TIP3   OH257435   1.701   5.911   1.407 -0.0591 -0.1292 -0.3651
12007TIP3    H157436   1.684   5.928   1.500 -0.5811  1.2382 -0.6819
12007TIP3    H257437   1.617   5.929   1.365  0.0925 -1.0446 -1.0783
12008TIP3   OH257438   3.361   2.604  11.491  0.0989  0.4301 -0.2167
12008TIP3    H157439   3.350   2.674  11.556  1.5847 -0.6172  1.2337
12008TIP3    H257440   3.449   2.616  11.457  0.3754 -0.7271  0.0461
12009TIP3   OH257441   2.813   2.660   5.763 -0.0825  0.0512  0.1247
12009TIP3    H157442   2.755   2.602   5.712 -1.8306 -0.5986  2.6513
12009TIP3    H257443   2.845   2.724   5.699  0.7804 -2.7710 -2.5033
12010TIP3   OH257444   5.161   5.637   1.398  0.1645  0.0391  0.1881
12010TIP3    H157445   5.109   5.674   1.469  0.7900  3.0184 -0.7695
12010TIP3    H257446   5.252   5.659   1.419  0.4092  0.5593 -1.2404
12011TIP3   OH257447   3.741   0.821   5.527 -0.4753  0.5904  0.3324
12011TIP3    H157448   3.678   0.767   5.479  0.4803 -0.2606 -0.0166
12011TIP3    H257449   3.719   0.911   5.503 -1.3879  0.2987  0.0274
12012TIP3   OH257450   6.763   1.609  12.235  0.5064  0.2105 -0.0727
12012TIP3    H157451   6.783   1.517  12.250  0.3319  0.1816 -0.0205
12012TIP3    H257452   6.849   1.652  12.229  0.5852  0.2301  1.0106
12013TIP3   OH257453   2.925   0.067   1.529  0.0450  0.2777 -0.4253
12013TIP3    H157454   2.861   0.035   1.593  0.5552 -0.0457 -0.0787
12013TIP3    H257455   2.989  -0.003   1.521 -0.8500 -0.3879 -2.5020
12014TIP3   OH257456   3.113   3.244  16.636  0.2933  0.4792  0.4302
12014TIP3    H157457   3.187   3.193  16.603  0.2663 -0.6608  2.0357
12014TIP3    H257458   3.039   3.183  16.633  0.0360  0.7241  1.4146
12015TIP3   OH257459   1.955   1.908  16.581 -0.4643 -0.1937 -0.0279
12015TIP3    H157460   1.908   1.869  16.654 -0.7108  0.0487 -0.0577
12015TIP3    H257461   1.899   1.894  16.505 -0.5285  0.1670 -0.0491
12016TIP3   OH257462   6.165   1.155  14.322  0.4392  0.7782 -0.3980
12016TIP3    H157463   6.206   1.070  14.336  1.7438  1.3959 -0.3313
12016TIP3    H257464   6.076   1.134  14.295  0.6602 -0.5997 -0.1437
12017TIP3   OH257465   5.081   1.273   3.226 -0.5852 -0.1792 -0.1810
12017TIP3    H157466   5.094   1.344   3.289 -1.7346  0.5482 -0.7328
12017TIP3    H257467   5.010   1.221   3.264  0.5437 -1.3275  0.4413
12018TIP3   OH257468   2.290   3.819  15.661  0.0070 -0.0746 -0.0635
12018TIP3    H157469   2.285   3.829  15.566  1.3647  0.1587 -0.1181
12018TIP3    H257470   2.218   3.873  15.694  1.4960  2.5670 -0.8135
12019TIP3   OH257471   4.699   6.536  17.052 -0.3201 -0.5202 -0.3702
12019TIP3    H157472   4.791   6.545  17.078 -0.3816 -1.5067  0.2410
12019TIP3    H257473   4.679   6.618  17.006  0.4018  0.3843  0.8614
12020TIP3   OH257474   6.594   5.343  15.254  0.2403 -0.1599  0.0606
12020TIP3    H157475   6.648   5.419  15.278 -0.9343  0.9619 -0.7459
12020TIP3    H257476   6.506   5.365  15.287 -0.3323 -0.7273 -1.0556
12021TIP3   OH257477   4.689   5.622   2.466 -0.1952 -0.1580  0.4461
12021TIP3    H157478   4.624   5.558   2.495  1.8374 -1.0397  3.4416
12021TIP3    H257479   4.685   5.692   2.532  0.8712  0.5055 -0.1568
12022TIP3   OH257480   5.526   4.995   0.670  0.1586  0.4206  0.8809
12022TIP3    H157481   5.488   4.909   0.655  0.0798  0.2523  1.9592
12022TIP3    H257482   5.478   5.053   0.610  0.4635 -0.3263 -0.1151
12023TIP3   OH257483   3.241   4.025   2.791  0.2790 -0.1538 -0.0423
12023TIP3    H157484   3.312   4.089   2.787 -0.6016  0.8401 -0.2111
12023TIP3    H257485   3.253   3.981   2.875  0.6854  0.4850  0.2367
12024TIP3   OH257486   1.442   2.453  16.881  0.3252 -0.5723  0.0992
12024TIP3    H157487   1.505   2.423  16.815  1.0141 -0.0916  0.5202
12024TIP3    H257488   1.440   2.548  16.871  0.3022 -0.5095  0.6393
12025TIP3   OH257489   4.281   3.054  15.063 -0.0246 -0.2620  0.6766
12025TIP3    H157490   4.259   3.147  15.050  0.1834 -0.2124  0.6844
12025TIP3    H257491   4.268   3.040  15.157 -4.5855 -1.3812  0.1482
12026TIP3   OH257492   3.160   4.692   5.976  0.0231 -0.1883 -0.0483
12026TIP3    H157493   3.133   4.626   6.039 -0.7220  0.2025  0.0569
12026TIP3    H257494   3.127   4.660   5.892 -1.2002  0.5011  0.1438
12027TIP3   OH257495   4.833   5.581  12.847 -0.3304 -0.0261 -0.0601
12027TIP3    H157496   4.776   5.531  12.905 -0.3701 -1.3801 -1.1995
12027TIP3    H257497   4.921   5.569  12.884 -0.6692  1.7845  1.5003
12028TIP3   OH257498   0.249   6.688   4.559  0.1216  0.7684 -0.5866
12028TIP3    H157499   0.219   6.770   4.520 -0.5972  0.0718 -1.5390
12028TIP3    H257500   0.285   6.638   4.486 -0.4203 -0.1937 -0.2152
12029TIP3   OH257501   3.565   4.776  12.940 -0.8336  0.0062 -0.3268
12029TIP3    H157502   3.532   4.689  12.963 -1.9183 -0.3094 -2.8037
12029TIP3    H257503   3.639   4.790  13.000 -1.7225 -1.8269  1.3339
12030TIP3   OH257504   3.721   0.901   0.748 -0.0090  0.0942 -0.0435
12030TIP3    H157505   3.709   0.807   0.735  1.6234  0.0201 -1.3714
12030TIP3    H257506   3.812   0.910   0.776 -0.4715  1.2111  1.2016
12031TIP3   OH257507   6.062   5.675  12.717  0.4254  0.2828 -0.3219
12031TIP3    H157508   6.048   5.723  12.635 -1.3527  0.9657  0.3403
12031TIP3    H257509   6.149   5.703  12.747  0.2075  1.6466 -0.9005
12032TIP3   OH257510   1.377   0.965   0.063 -0.3372 -0.2472  0.1859
12032TIP3    H157511   1.309   1.026   0.094 -0.1000  0.2590 -0.2703
12032TIP3    H257512   1.391   0.906   0.137 -0.8544  0.0088  0.4992
12033TIP3   OH257513   6.614   1.182  12.603  0.1580 -0.7699  0.0905
12033TIP3    H157514   6.619   1.257  12.544  0.5707 -0.0463  1.0240
12033TIP3    H257515   6.580   1.111  12.548 -0.2780  0.0986 -0.8006
12034TIP3   OH257516   0.657   0.481  11.217 -0.1830  0.0991 -0.7653
12034TIP3    H157517   0.649   0.539  11.141  0.8406  0.0691 -0.9133
12034TIP3    H257518   0.660   0.393  11.180  2.1655  0.1697 -0.8789
12035TIP3   OH257519   3.203   5.600   5.925  0.3237 -0.1740 -0.2770
12035TIP3    H157520   3.154   5.658   5.867  0.2392 -1.7185 -1.8406
12035TIP3    H257521   3.289   5.642   5.934 -0.1221  0.7795 -0.3665
12036TIP3   OH257522   1.304   0.599  13.806 -0.1556  0.2671  0.3052
12036TIP3    H157523   1.282   0.510  13.834 -1.1846  0.1993 -0.6302
12036TIP3    H257524   1.244   0.616  13.733 -0.1314  1.8148  0.6174
12037TIP3   OH257525   2.537   1.785  15.579  0.0404 -0.5103 -0.2910
12037TIP3    H157526   2.602   1.808  15.647  0.0332 -0.0671 -0.4271
12037TIP3    H257527   2.532   1.690  15.582 -1.2824 -0.4257  1.5611
12038TIP3   OH257528   2.877   2.309   4.108 -0.1265 -0.1794 -0.4538
12038TIP3    H157529   2.822   2.310   4.187 -0.0296 -1.4833 -0.3610
12038TIP3    H257530   2.927   2.228   4.114  2.1817  1.1775 -0.3090
12039TIP3   OH257531   0.505   1.882  16.172  0.1582 -0.7310 -0.9522
12039TIP3    H157532   0.516   1.941  16.097  1.1756 -0.6393 -0.7328
12039TIP3    H257533   0.589   1.884  16.218 -0.3801 -0.9666  0.0740
12040TIP3   OH257534   5.935   1.481   0.176  0.2371  0.5616 -0.0778
12040TIP3    H157535   5.966   1.485   0.086  2.8911 -2.5507  0.5052
12040TIP3    H257536   5.877   1.405   0.179 -0.7224  1.2823  0.6722
12041TIP3   OH257537   2.248   2.407  15.276 -0.6626 -0.3529 -0.4916
12041TIP3    H157538   2.206   2.490  15.254  0.3520  0.1236 -0.7016
12041TIP3    H257539   2.223   2.348  15.204 -0.1373  0.2266 -1.1670
12042TIP3   OH257540   2.503   1.134   5.481  0.3648 -0.2632  0.1391
12042TIP3    H157541   2.550   1.077   5.541  1.0637 -0.7464 -0.8484
12042TIP3    H257542   2.539   1.221   5.497 -0.3329 -0.1588  1.2742
12043TIP3   OH257543   0.730   5.336   4.915  0.5411 -0.2518  0.5101
12043TIP3    H157544   0.724   5.414   4.969 -0.4737 -1.1974  1.8140
12043TIP3    H257545   0.822   5.309   4.922  0.8864  0.7639  0.0808
12044TIP3   OH257546   4.290   2.385   5.045 -0.1705 -0.6943  0.2266
12044TIP3    H157547   4.230   2.338   4.987  1.0427 -0.1658 -1.5219
12044TIP3    H257548   4.249   2.471   5.057 -0.7351 -1.0189  0.7099
12045TIP3   OH257549   6.641   2.918  11.123  0.2873 -0.3741 -0.2748
12045TIP3    H157550   6.665   2.985  11.059  2.3404  1.7514  2.4755
12045TIP3    H257551   6.595   2.851  11.072  0.6336  1.7550 -3.6713
12046TIP3   OH257552   3.720   2.343  15.983  0.3859  0.3236 -0.0252
12046TIP3    H157553   3.738   2.417  16.041 -0.3081  0.4929 -0.0133
12046TIP3    H257554   3.624   2.334  15.985  0.2297  1.0858 -2.0498
12047TIP3   OH257555   3.695   6.527  13.134 -0.2109  0.4437 -0.0475
12047TIP3    H157556   3.685   6.511  13.228  1.4832  2.0531  0.4755
12047TIP3    H257557   3.649   6.609  13.119 -1.4179 -0.3654 -0.8795
12048TIP3   OH257558   1.466   5.747   0.895 -0.1971 -0.5773  0.2507
12048TIP3    H157559   1.373   5.770   0.886 -0.0239 -0.0806 -0.3671
12048TIP3    H257560   1.472   5.703   0.979 -1.1872 -1.6223 -0.1941
12049TIP3   OH257561   5.454   0.935  17.064 -0.0926  0.1060  0.3527
12049TIP3    H157562   5.403   0.913  17.142 -0.3513  2.6458  0.9667
12049TIP3    H257563   5.404   0.897  16.992 -1.5868  0.4899  1.1460
12050TIP3   OH257564   3.387   1.512  13.378 -0.0008  0.5676 -0.3458
12050TIP3    H157565   3.462   1.454  13.359 -0.0958  0.3996 -0.2130
12050TIP3    H257566   3.353   1.536  13.292  0.3161  0.7892 -0.4107
12051TIP3   OH257567   6.614   4.175   3.697 -0.2707  0.4605 -0.8235
12051TIP3    H157568   6.693   4.136   3.733 -0.8264 -1.2819 -1.3714
12051TIP3    H257569   6.645   4.243   3.638  0.7617  0.5905 -0.1423
12052TIP3   OH257570   0.306   2.175   3.347  0.0974 -0.3350  0.4127
12052TIP3    H157571   0.247   2.198   3.275 -0.3160  0.4103  0.9764
12052TIP3    H257572   0.378   2.238   3.340 -0.3771  0.3079  1.1633
12053TIP3   OH257573   5.732   2.058  16.792  0.0055  0.1539 -0.9150
12053TIP3    H157574   5.745   2.106  16.709  0.9776  1.0555 -0.2680
12053TIP3    H257575   5.820   2.043  16.825 -0.3817  0.2048  0.1880
12054TIP3   OH257576   1.056   1.656  13.226  0.7479  0.8033 -0.2618
12054TIP3    H157577   1.034   1.717  13.296 -0.9967 -2.2048  2.0780
12054TIP3    H257578   1.088   1.578  13.272 -0.8140 -1.4729 -2.7566
12055TIP3   OH257579   0.236   1.685   0.262 -0.4440  0.4347  0.2633
12055TIP3    H157580   0.205   1.744   0.194 -1.6016  1.1493  1.3504
12055TIP3    H257581   0.159   1.632   0.284 -0.5813  1.3176  2.1067
12056TIP3   OH257582   6.786   3.819   3.575  0.7945 -0.3244  0.1805
12056TIP3    H157583   6.740   3.740   3.544  0.3738 -0.6116  1.4770
12056TIP3    H257584   6.809   3.866   3.495 -1.0554 -0.5744 -0.5589
12057TIP3   OH257585   3.730   0.528  10.698 -0.1846 -0.2943  0.5839
12057TIP3    H157586   3.749   0.532  10.604 -1.4057 -0.2431  0.3266
12057TIP3    H257587   3.807   0.485  10.736  1.7600  2.4042  0.0084
12058TIP3   OH257588   1.424   3.876   3.047  0.0502  0.8799  0.3721
12058TIP3    H157589   1.383   3.831   3.121  0.0900 -1.0488 -0.7406
12058TIP3    H257590   1.517   3.851   3.052  0.2008  1.3548  0.0821
12059TIP3   OH257591   1.636   6.454  15.529 -0.2949  0.0115 -0.1477
12059TIP3    H157592   1.543   6.436  15.513 -0.6957  1.0414  0.9340
12059TIP3    H257593   1.673   6.369  15.554 -1.1308 -0.2484  0.2434
12060TIP3   OH257594   6.159   4.385   5.090 -0.0582 -0.1779  0.5303
12060TIP3    H157595   6.090   4.321   5.070  0.7216 -1.0397  0.4904
12060TIP3    H257596   6.227   4.333   5.133  0.7940  0.5463  0.0856
12061TIP3   OH257597   0.025   4.313  13.657  0.1076  0.7341  0.0841
12061TIP3    H157598   0.014   4.265  13.739  0.1146  1.9378  0.8166
12061TIP3    H257599   0.059   4.399  13.684  1.6593  0.6064 -1.3055
12062TIP3   OH257600   5.655   1.928  11.201  0.3172 -0.0217 -0.1806
12062TIP3    H157601   5.708   1.864  11.155  1.0354  0.6531 -0.3167
12062TIP3    H257602   5.589   1.955  11.137  2.6878  2.6208 -1.7326
12063TIP3   OH257603   6.392   6.420   0.671  0.1115 -0.7954 -0.1748
12063TIP3    H157604   6.465   6.357   0.666 -0.1200 -1.0379 -0.5632
12063TIP3    H257605   6.434   6.502   0.698  0.1874 -1.4751  1.9390
12064TIP3   OH257606   1.952   4.354   0.198 -0.1367  0.2346 -0.1957
12064TIP3    H157607   1.887   4.329   0.132 -0.3809  0.5094 -0.0638
12064TIP3    H257608   1.937   4.447   0.212  0.1834  0.2646 -0.0460
12065TIP3   OH257609   0.607   2.019  17.026 -0.2971  0.2073  0.5254
12065TIP3    H157610   0.591   2.094  17.083 -2.1428  1.6882 -1.7574
12065TIP3    H257611   0.520   1.982  17.010  0.2228 -0.4821 -0.8703
12066TIP3   OH257612   6.052   0.033   5.022 -0.1645  0.1817 -0.1952
12066TIP3    H157613   6.084   0.114   5.061  1.1388 -0.8287  0.9713
12066TIP3    H257614   6.127  -0.026   5.027 -1.4898 -1.5455  0.3235
12067TIP3   OH257615   2.861   2.274   5.646  0.4400  0.2946  0.2871
12067TIP3    H157616   2.795   2.338   5.670  0.3417 -0.0383  0.9372
12067TIP3    H257617   2.944   2.323   5.647  0.0997  1.0191 -1.7662
12068TIP3   OH257618   1.695   0.678  16.571  0.3917 -0.0716 -0.5831
12068TIP3    H157619   1.764   0.698  16.508  1.6383 -1.4284  0.3114
12068TIP3    H257620   1.621   0.649  16.517  1.3452 -0.9535 -1.4622
12069TIP3   OH257621   1.170   5.711  16.369 -0.0187  0.6275 -0.1048
12069TIP3    H157622   1.265   5.714  16.355 -0.1239  0.8662 -0.8088
12069TIP3    H257623   1.149   5.795  16.410 -0.0091  0.8279 -0.5069
12070TIP3   OH257624   2.481   4.061  16.889  0.6144 -0.5911 -0.2251
12070TIP3    H157625   2.395   4.099  16.906 -0.2591 -2.8568  0.7010
12070TIP3    H257626   2.538   4.101  16.955 -0.4640 -1.4698  1.2896
12071TIP3   OH257627   0.692   2.974   4.469 -0.0868  0.1014 -0.3718
12071TIP3    H157628   0.766   2.919   4.497  0.5152  1.4810  0.8506
12071TIP3    H257629   0.636   2.979   4.546 -0.4939  0.6330 -0.6979
12072TIP3   OH257630   1.424   2.139   4.970  0.5255 -0.1667 -0.1173
12072TIP3    H157631   1.345   2.106   5.012  0.3546  0.6221  0.1952
12072TIP3    H257632   1.402   2.140   4.876 -0.1031  0.7223  0.0256
12073TIP3   OH257633   4.694   2.065   1.076 -0.3344 -0.3223 -1.0200
12073TIP3    H157634   4.698   2.112   1.159  0.8661  0.5493 -1.5439
12073TIP3    H257635   4.776   2.086   1.032 -0.2953 -1.9308 -1.8172
12074TIP3   OH257636   2.382   1.401   3.121 -0.6065 -0.6034 -0.5496
12074TIP3    H157637   2.464   1.403   3.170  0.6388 -1.9340 -2.4386
12074TIP3    H257638   2.326   1.342   3.172 -0.0580 -0.4652  0.2441
12075TIP3   OH257639   1.721   1.836  12.556 -0.4635  0.0752  0.3040
12075TIP3    H157640   1.746   1.881  12.475 -1.7373  0.5960  0.1777
12075TIP3    H257641   1.626   1.830  12.552 -0.4302 -1.2206  1.0861
12076TIP3   OH257642   0.980   3.510   0.182  0.0093 -0.1449 -0.1871
12076TIP3    H157643   0.939   3.423   0.172  0.7143 -0.7602  1.8109
12076TIP3    H257644   1.070   3.497   0.152 -0.1191  0.1341 -0.7005
12077TIP3   OH257645   6.618   6.385   2.204  0.0376 -0.4442 -0.2111
12077TIP3    H157646   6.658   6.336   2.133 -0.0972 -1.0612  0.1304
12077TIP3    H257647   6.540   6.335   2.227  1.5294 -1.8685  2.2413
12078TIP3   OH257648   3.680   3.413   4.564 -0.0822 -0.1685  0.0025
12078TIP3    H157649   3.729   3.371   4.636  2.0582  0.2314 -1.1346
12078TIP3    H257650   3.694   3.507   4.577 -0.5926 -0.0415 -0.3349
12079TIP3   OH257651   1.205   6.084  15.491  0.5636  0.1047 -0.0022
12079TIP3    H157652   1.270   6.035  15.441 -0.7489 -0.6110 -1.0825
12079TIP3    H257653   1.123   6.037  15.475 -0.3985  1.5780  0.4866
12080TIP3   OH257654   5.680   2.654  15.705  0.1943 -0.4624 -0.0655
12080TIP3    H157655   5.716   2.606  15.779 -0.0547  0.3613  0.6076
12080TIP3    H257656   5.679   2.745  15.734  0.2266 -0.1107 -1.1401
12081TIP3   OH257657   3.816   3.109   0.462 -0.8423 -0.5326 -0.3119
12081TIP3    H157658   3.805   3.019   0.494 -2.0980 -0.1671  0.3617
12081TIP3    H257659   3.873   3.151   0.526 -0.8488 -0.6554 -0.2248
12082TIP3   OH257660   3.077   0.115   5.365 -0.1841  0.4597 -0.5608
12082TIP3    H157661   3.034   0.037   5.399  2.2972  0.0327  1.8947
12082TIP3    H257662   3.150   0.082   5.312  0.2497  1.0937 -0.3819
12083TIP3   OH257663   0.566   3.924  11.692  0.1184 -0.0037  0.3757
12083TIP3    H157664   0.563   3.831  11.669  1.0267  0.1894 -0.6127
12083TIP3    H257665   0.506   3.966  11.631  0.6425  0.2108  0.0082
12084TIP3   OH257666   2.772   5.672   5.854 -0.1613  0.3675  0.4424
12084TIP3    H157667   2.754   5.722   5.775  0.0389  2.4141  1.6340
12084TIP3    H257668   2.830   5.728   5.906 -1.3358 -0.3106  2.6134
12085TIP3   OH257669   0.169   1.455   1.755 -0.1779 -0.4624 -0.8105
12085TIP3    H157670   0.106   1.511   1.709 -0.8709 -1.2275 -0.8112
12085TIP3    H257671   0.153   1.474   1.848  1.2636  1.1279 -0.8343
12086TIP3   OH257672   5.858   1.589  15.769  0.2047 -0.3006 -0.3692
12086TIP3    H157673   5.913   1.528  15.721 -1.0791 -0.2719 -1.9842
12086TIP3    H257674   5.782   1.602  15.712 -1.4998 -0.3783  1.7711
12087TIP3   OH257675   0.378   1.816   5.483  0.0217 -0.3209 -0.2939
12087TIP3    H157676   0.330   1.828   5.565  0.4834  0.2257 -0.0997
12087TIP3    H257677   0.311   1.820   5.415 -0.1840  0.7156 -0.0471
12088TIP3   OH257678   3.203   6.071   3.079  0.2301  0.1259 -0.5286
12088TIP3    H157679   3.215   5.979   3.056 -1.0005 -0.4533  1.0068
12088TIP3    H257680   3.187   6.115   2.995  0.2460 -1.1342 -1.2151
12089TIP3   OH257681   0.725   1.506  12.809  0.0442 -1.0844  0.2263
12089TIP3    H157682   0.682   1.589  12.784 -0.8844 -1.5303  0.2880
12089TIP3    H257683   0.780   1.529  12.884  0.2383 -0.4106 -0.1139
12090TIP3   OH257684   3.827   5.315  14.115  0.2308  0.3424  0.0223
12090TIP3    H157685   3.874   5.245  14.159  0.9974  1.4431  1.0300
12090TIP3    H257686   3.813   5.283  14.026  0.4145 -1.1306  0.5044
12091TIP3   OH257687   4.244   5.689  16.983 -0.1520  0.3802 -0.1706
12091TIP3    H157688   4.295   5.649  16.912 -1.2062 -0.2965 -0.5735
12091TIP3    H257689   4.195   5.616  17.021 -0.4746  0.9415  0.5040
12092TIP3   OH257690   5.601   2.581   4.186 -0.1260 -0.0504  0.0919
12092TIP3    H157691   5.524   2.588   4.129 -0.5787 -2.3277  0.3441
12092TIP3    H257692   5.567   2.600   4.274  0.0397  0.8751 -0.0292
12093TIP3   OH257693   2.409   4.377  17.161  0.3899 -0.4411 -0.1426
12093TIP3    H157694   2.487   4.347  17.208  0.6016 -0.6600 -0.6297
12093TIP3    H257695   2.437   4.458  17.118 -0.3564  0.8488  1.6872
12094TIP3   OH257696   2.122   1.714  11.197 -0.2505 -0.0793  0.8417
12094TIP3    H157697   2.148   1.633  11.151  0.0049  1.1095 -1.2445
12094TIP3    H257698   2.091   1.772  11.127 -0.2820  1.6862  2.2570
12095TIP3   OH257699   0.089   2.727   4.063  1.0251 -0.2075 -0.3039
12095TIP3    H157700   0.054   2.680   4.138  0.9891 -1.1201 -0.8885
12095TIP3    H257701   0.183   2.737   4.083  0.5623  2.1317  1.2008
12096TIP3   OH257702   6.302   3.070   4.320 -0.2544  0.0451  0.0033
12096TIP3    H157703   6.370   3.021   4.273  0.2518  0.8190 -0.0900
12096TIP3    H257704   6.351   3.132   4.375 -0.8867  1.2199 -0.7201
12097TIP3   OH257705   2.570   0.916  15.882 -0.4855  0.5729  0.2980
12097TIP3    H157706   2.651   0.957  15.852 -0.7418  1.1859  0.4351
12097TIP3    H257707   2.541   0.864  15.807  1.6421 -2.2090  1.2050
12098TIP3   OH257708   3.722   4.545   5.264  0.2949 -0.0105  0.3544
12098TIP3    H157709   3.706   4.638   5.282  0.3643 -0.2260  1.6153
12098TIP3    H257710   3.692   4.500   5.343  0.8023 -1.0190 -0.0107
12099TIP3   OH257711   6.396   4.123  15.743  0.1187 -0.2488  0.3873
12099TIP3    H157712   6.463   4.186  15.769  0.5165 -0.9610  1.1366
12099TIP3    H257713   6.445   4.053  15.700 -0.3250 -0.0421 -0.4845
12100TIP3   OH257714   5.328   6.359   0.710  0.2577 -0.0601  0.7853
12100TIP3    H157715   5.342   6.418   0.636  0.0810  0.8104  1.4164
12100TIP3    H257716   5.370   6.404   0.784 -0.7503 -0.2372  1.4916
12101TIP3   OH257717   3.393   5.717   5.589 -0.6555  0.6704  0.3366
12101TIP3    H157718   3.370   5.755   5.504 -0.2146  2.6681  1.0574
12101TIP3    H257719   3.487   5.700   5.583 -0.0651  3.1845  1.2001
12102TIP3   OH257720   0.489   5.140  15.410 -0.5462 -0.7172 -0.3434
12102TIP3    H157721   0.569   5.184  15.380 -0.0195  0.0953  2.0137
12102TIP3    H257722   0.421   5.208  15.404 -1.0177 -1.3002 -2.0004
12103TIP3   OH257723   3.175   5.806  10.433 -0.0123  0.0643 -0.4890
12103TIP3    H157724   3.131   5.723  10.412 -0.2649 -0.0615  0.4797
12103TIP3    H257725   3.251   5.780  10.485 -1.5451  0.5341  2.1776
12104TIP3   OH257726   2.823   6.596   5.608  0.6739 -0.2393  0.4748
12104TIP3    H157727   2.766   6.671   5.589  1.5771  0.6739  1.2413
12104TIP3    H257728   2.834   6.599   5.703  0.2498 -1.7205  0.5900
12105TIP3   OH257729   4.773   2.427   5.683  0.0687 -0.1865 -0.7331
12105TIP3    H157730   4.840   2.495   5.689 -0.6564  0.4744 -0.0567
12105TIP3    H257731   4.817   2.348   5.717  0.3842  0.3282  0.0688
12106TIP3   OH257732   3.835   0.311  16.310  0.7701  0.4716  0.3553
12106TIP3    H157733   3.828   0.247  16.239  1.6460 -0.1629  0.8222
12106TIP3    H257734   3.871   0.261  16.384  2.2718  1.6854  0.4882
12107TIP3   OH257735   1.209   2.562   2.996 -0.1803 -0.7332 -0.2444
12107TIP3    H157736   1.264   2.592   3.069 -1.6515 -2.3459  1.6414
12107TIP3    H257737   1.137   2.625   2.993  1.5842  1.3578 -2.6914
12108TIP3   OH257738   4.572   1.264   3.074 -0.1937 -0.1031 -0.1862
12108TIP3    H157739   4.482   1.260   3.042  0.0024  0.1277 -0.7662
12108TIP3    H257740   4.579   1.190   3.134 -0.8138 -0.0345 -0.0246
12109TIP3   OH257741   2.459   6.330  15.452  0.3256 -0.0082  0.0673
12109TIP3    H157742   2.410   6.323  15.370  1.0061  0.8644 -0.4274
12109TIP3    H257743   2.544   6.366  15.427  0.2501  1.0786  1.2354
12110TIP3   OH257744   1.394   5.778   1.472 -0.0929 -0.1324  0.7474
12110TIP3    H157745   1.367   5.794   1.562 -1.0405  1.1081  0.2794
12110TIP3    H257746   1.328   5.824   1.419  1.4943  0.7656 -0.5298
12111TIP3   OH257747   0.808   3.867   5.939 -1.1798  0.5037  0.4409
12111TIP3    H157748   0.863   3.790   5.945 -1.3970  0.2491 -0.6294
12111TIP3    H257749   0.834   3.921   6.013  0.7527  0.5575 -0.2214
12112TIP3   OH257750   5.847   0.876  11.156 -0.2528 -0.1650  0.0533
12112TIP3    H157751   5.789   0.911  11.224 -1.5130  0.7465 -1.4262
12112TIP3    H257752   5.902   0.950  11.131  1.2325 -0.8866  1.0627
12113TIP3   OH257753   2.742   0.426   1.360 -0.0591  0.5267 -0.2319
12113TIP3    H157754   2.705   0.434   1.272 -0.4744 -0.6762 -0.1856
12113TIP3    H257755   2.808   0.357   1.353  0.0326  0.5424  0.3620
12114TIP3   OH257756   4.335   2.852  13.637 -0.1069 -0.3329 -1.0932
12114TIP3    H157757   4.258   2.794  13.640 -0.0445 -0.6089 -3.0947
12114TIP3    H257758   4.344   2.874  13.544  1.4956  0.7146 -0.7257
12115TIP3   OH257759   0.016   3.097   0.327  0.7324  0.1959 -0.3951
12115TIP3    H157760   0.069   3.074   0.402  2.0100 -0.7152 -1.5411
12115TIP3    H257761   0.078   3.127   0.261 -0.1586 -0.8389 -1.7609
12116TIP3   OH257762   1.703   2.113   5.340  0.4678  0.0528  0.1683
12116TIP3    H157763   1.758   2.035   5.345  0.4441  0.0921  2.5592
12116TIP3    H257764   1.753   2.179   5.388  0.4792  1.5491 -1.7930
12117TIP3   OH257765   2.224   2.439   1.696 -0.0400  0.9515 -0.0853
12117TIP3    H157766   2.281   2.459   1.621 -0.8687  0.6556 -0.8039
12117TIP3    H257767   2.142   2.408   1.657 -1.0522  2.2758  0.9061
12118TIP3   OH257768   0.318   2.294   5.414  0.0953  0.4594 -0.0242
12118TIP3    H157769   0.371   2.214   5.406 -0.0175  0.2984  0.7434
12118TIP3    H257770   0.352   2.352   5.346  1.0953  0.2546  0.2725
12119TIP3   OH257771   0.162   5.541  15.283  0.5102  0.0249  0.3044
12119TIP3    H157772   0.171   5.622  15.232  1.6698 -0.8339 -0.9199
12119TIP3    H257773   0.068   5.534  15.300  0.1377  0.6034 -1.3285
12120TIP3   OH257774   0.539   5.536  12.284  0.4238 -0.1912  0.0145
12120TIP3    H157775   0.600   5.509  12.353 -0.6319 -0.0962  1.0282
12120TIP3    H257776   0.457   5.552  12.331 -0.6313 -1.1822 -1.4372
12121TIP3   OH257777   3.925   1.200  13.951 -0.1991  0.9825 -0.0853
12121TIP3    H157778   4.000   1.259  13.954  1.1854 -0.5577 -1.7687
12121TIP3    H257779   3.937   1.142  14.026  0.7961  0.2249 -0.8078
12122TIP3   OH257780   0.773   0.197  14.147 -0.0367  0.4299 -0.1549
12122TIP3    H157781   0.812   0.110  14.154  0.4101  0.5781 -0.7211
12122TIP3    H257782   0.748   0.219  14.237  1.1877  0.3318  0.2212
12123TIP3   OH257783   4.734   0.473   4.455 -0.3012 -0.6405 -0.5225
12123TIP3    H157784   4.810   0.417   4.469 -0.1427 -0.1865  0.5905
12123TIP3    H257785   4.664   0.413   4.430 -0.1312 -1.3486  0.6343
12124TIP3   OH257786   5.073   1.855   4.791  0.0439 -0.4404 -0.0748
12124TIP3    H157787   5.091   1.881   4.882 -2.0492  4.0198 -0.6737
12124TIP3    H257788   5.010   1.783   4.799  1.1311 -1.2447  1.9608
12125TIP3   OH257789   5.528   2.905  15.871 -0.0324 -0.2702  0.0746
12125TIP3    H157790   5.621   2.891  15.885  0.0787  0.8206  0.5119
12125TIP3    H257791   5.485   2.856  15.941  0.3338  1.3131  1.4581
12126TIP3   OH257792   5.790   0.327   5.085  0.3101  0.2168  0.0613
12126TIP3    H157793   5.846   0.333   5.008  0.2939  0.2441  0.0521
12126TIP3    H257794   5.709   0.287   5.053  0.1718  0.5489 -0.0034
12127TIP3   OH257795   4.519   0.837   1.211  0.2324  0.0186 -0.4791
12127TIP3    H157796   4.492   0.926   1.236 -0.5764 -0.1967 -0.5924
12127TIP3    H257797   4.439   0.785   1.214  0.4114 -0.3832 -1.9089
12128TIP3   OH257798   3.377   2.507  14.604 -0.1894  0.2254  0.3644
12128TIP3    H157799   3.463   2.466  14.601 -1.2620 -2.1441 -1.1540
12128TIP3    H257800   3.321   2.450  14.551 -2.2843  2.6891 -0.3145
12129TIP3   OH257801   2.665   3.190  14.891 -0.3584  0.3226 -0.5740
12129TIP3    H157802   2.733   3.147  14.942  0.7172  2.7275  0.1520
12129TIP3    H257803   2.656   3.136  14.813  0.7930 -1.2481  0.3139
12130TIP3   OH257804   4.989   1.622  10.628  0.4196 -0.7765  0.2459
12130TIP3    H157805   4.992   1.694  10.692  1.0617 -0.3084 -0.3014
12130TIP3    H257806   4.996   1.543  10.680  0.9183 -0.3984  0.7563
12131TIP3   OH257807   6.335   1.735  11.541 -0.0361  0.1250 -0.3354
12131TIP3    H157808   6.366   1.716  11.630 -0.0822 -2.5590 -0.8110
12131TIP3    H257809   6.240   1.729  11.547 -0.0823  0.7230 -0.4222
12132TIP3   OH257810   4.432   4.296   5.859 -0.4199 -0.4590 -0.4745
12132TIP3    H157811   4.424   4.227   5.925 -2.4138  1.0583  0.9914
12132TIP3    H257812   4.512   4.342   5.883 -1.0830  0.0373  0.9492
12133TIP3   OH257813   4.249   2.459  11.242  0.4202 -0.3449 -0.0816
12133TIP3    H157814   4.267   2.550  11.268 -0.0260 -0.1381 -0.4755
12133TIP3    H257815   4.279   2.407  11.316 -1.0159  0.2432  0.9480
12134TIP3   OH257816   3.374   0.730   1.823 -0.7506  0.3935  0.1453
12134TIP3    H157817   3.450   0.786   1.836 -1.1320  1.3485 -1.4209
12134TIP3    H257818   3.331   0.766   1.745 -2.7714 -0.1426  0.9382
12135TIP3   OH257819   0.015   5.520  14.996 -0.0853  0.8201  0.1122
12135TIP3    H157820   0.106   5.505  14.971  0.2039  2.7528 -0.0862
12135TIP3    H257821  -0.034   5.511  14.915  0.0239  0.5917  0.0700
12136TIP3   OH257822   1.802   3.964  11.599 -0.1550 -0.4462  0.1719
12136TIP3    H157823   1.890   3.926  11.602 -0.1359 -0.6870 -1.7949
12136TIP3    H257824   1.783   3.988  11.689  1.0431 -2.3996  1.0205
12137TIP3   OH257825   4.674   0.546   3.412  0.0663 -0.1179 -1.2150
12137TIP3    H157826   4.621   0.509   3.483 -0.9573  0.2189 -1.7813
12137TIP3    H257827   4.710   0.626   3.449  0.8878 -0.7683 -0.5503
12138TIP3   OH257828   1.873   3.220   0.720 -0.0204  0.4116  0.0698
12138TIP3    H157829   1.916   3.306   0.715  1.7842 -0.4509  0.1471
12138TIP3    H257830   1.808   3.222   0.649  1.0879  1.2556 -0.9667
12139TIP3   OH257831   4.191   2.967  15.799 -0.6462 -0.0169  0.4248
12139TIP3    H157832   4.208   3.061  15.805  0.6618 -0.2684  1.1552
12139TIP3    H257833   4.277   2.926  15.814 -1.4722 -1.3687  1.8015
12140TIP3   OH257834   0.733   2.217   0.581  0.2293  0.3193  0.3194
12140TIP3    H157835   0.815   2.216   0.532 -0.1776 -1.9774 -0.4391
12140TIP3    H257836   0.741   2.145   0.643 -1.9486 -1.3923 -1.2169
12141TIP3   OH257837   6.028   1.192   6.119 -0.3797  0.1918  0.2441
12141TIP3    H157838   6.092   1.135   6.161 -0.3755  1.2516  1.7619
12141TIP3    H257839   5.944   1.146   6.129 -0.1381 -0.3219 -0.0625
12142TIP3   OH257840   4.311   3.787   0.696  0.3247 -0.4668 -0.0135
12142TIP3    H157841   4.399   3.748   0.694  0.9442  0.6222  2.3287
12142TIP3    H257842   4.322   3.868   0.747 -1.7336  0.5815 -1.1099
12143TIP3   OH257843   0.824   5.957   4.629 -0.1988  0.5737 -0.2064
12143TIP3    H157844   0.755   5.891   4.635  0.1852  0.2906  1.4423
12143TIP3    H257845   0.777   6.041   4.635 -0.5830  0.4555 -1.2808
12144TIP3   OH257846   6.258   6.155  13.273  0.0661  0.4736 -0.1816
12144TIP3    H157847   6.188   6.220  13.269  0.9338  1.6438  1.9836
12144TIP3    H257848   6.213   6.071  13.278 -1.1551  1.1435  0.2754
12145TIP3   OH257849   0.725   5.217  12.980 -0.7981 -0.1240 -0.2282
12145TIP3    H157850   0.693   5.263  13.057 -2.1576  0.1406 -0.9103
12145TIP3    H257851   0.646   5.187  12.935 -0.0217 -0.8193 -1.1821
12146TIP3   OH257852   2.926   0.982  12.454 -0.0203  0.2029  0.5415
12146TIP3    H157853   2.901   1.010  12.366 -0.3433  0.3574  0.6780
12146TIP3    H257854   2.939   0.888  12.447 -0.9478  0.0621  0.5219
12147TIP3   OH257855   1.922   2.362  11.254 -0.0691  0.4217  0.6965
12147TIP3    H157856   1.837   2.404  11.245 -1.0264 -1.5860 -0.2376
12147TIP3    H257857   1.954   2.352  11.164  0.4810 -0.1560  0.9458
12148TIP3   OH257858   3.601   5.505   0.803 -0.0418  0.0557  0.0334
12148TIP3    H157859   3.577   5.576   0.744  1.0010  0.6948  0.3496
12148TIP3    H257860   3.697   5.507   0.805 -0.0334 -0.5594  1.0095
12149TIP3   OH257861   4.075   6.196   4.274 -0.2986  0.0582 -0.5335
12149TIP3    H157862   4.051   6.111   4.311 -0.9519 -1.2367 -3.5625
12149TIP3    H257863   4.154   6.178   4.223  0.5316  1.6959  0.1094
12150TIP3   OH257864   2.967   6.722   1.154 -0.5334  0.0957 -0.7151
12150TIP3    H157865   2.886   6.774   1.153 -1.7284 -1.6787 -1.2136
12150TIP3    H257866   2.961   6.670   1.234  1.4150  1.7903  0.6126
12151TIP3   OH257867   1.000   0.405   4.983 -0.3389  0.2721  0.4194
12151TIP3    H157868   0.930   0.341   4.970  0.6467 -1.0928  1.5194
12151TIP3    H257869   1.067   0.381   4.919  0.1096  0.0666  0.9581
12152TIP3   OH257870   3.060   6.589   1.405  0.3183 -0.2351  0.7648
12152TIP3    H157871   3.113   6.662   1.438 -1.9535  1.3570  1.1701
12152TIP3    H257872   3.032   6.543   1.484  0.0550 -0.2943  0.6366
12153TIP3   OH257873   4.623   4.055  11.382  0.1207 -0.1083 -0.2899
12153TIP3    H157874   4.548   4.008  11.419  2.3180 -1.1449  3.2945
12153TIP3    H257875   4.625   4.139  11.428  2.2082 -0.9131  1.2417
12154TIP3   OH257876   4.309   1.725   3.499  0.2028  0.6159 -0.2268
12154TIP3    H157877   4.401   1.696   3.498  0.0911  0.0862  1.5668
12154TIP3    H257878   4.315   1.820   3.502  0.6878  0.5985 -0.4244
12155TIP3   OH257879   5.065   5.069   2.485  0.1045  0.5866 -0.6195
12155TIP3    H157880   4.997   5.080   2.552 -0.2333  1.1164 -1.0364
12155TIP3    H257881   5.048   4.983   2.447 -0.5769  0.8735 -0.9799
12156TIP3   OH257882   0.089   5.504   2.085  0.2514 -0.0806 -0.4002
12156TIP3    H157883   0.119   5.541   2.002 -2.0630  0.5842 -1.0223
12156TIP3    H257884   0.139   5.422   2.094  1.4894  0.4822 -1.7674
12157TIP3   OH257885   2.244   3.468  13.972 -0.0874 -0.1934  0.0950
12157TIP3    H157886   2.235   3.377  14.001 -1.1760  0.3475  1.6422
12157TIP3    H257887   2.288   3.463  13.888 -0.4079 -2.1756  0.0023
12158TIP3   OH257888   3.580   3.806   0.351  0.5757  0.0389 -0.0267
12158TIP3    H157889   3.633   3.832   0.275  1.2005 -0.0381  0.3756
12158TIP3    H257890   3.491   3.802   0.317  0.7603  0.6046 -0.6121
12159TIP3   OH257891   0.045   1.338   0.083 -0.2339  0.1347  0.3801
12159TIP3    H157892   0.078   1.346   0.173 -0.8488  0.7660  0.5575
12159TIP3    H257893  -0.050   1.340   0.092 -0.3032 -0.0760 -0.2676
12160TIP3   OH257894   4.645   0.702   2.791  0.6138 -0.0458 -0.3935
12160TIP3    H157895   4.654   0.640   2.863  2.3020 -0.5194 -0.9798
12160TIP3    H257896   4.632   0.647   2.714  1.7442  0.3114 -0.8628
12161TIP3   OH257897   1.978   6.144  13.500 -0.2586  0.5212  0.7311
12161TIP3    H157898   1.915   6.136  13.572  0.3504  1.7286  1.4306
12161TIP3    H257899   2.035   6.068  13.510  0.2519  1.0467  1.9839
12162TIP3   OH257900   1.392   0.493  16.862 -0.2416 -0.0630  0.1569
12162TIP3    H157901   1.448   0.451  16.928  0.3789 -0.7390 -0.7736
12162TIP3    H257902   1.448   0.556  16.818 -0.2964 -0.4907 -0.5454
12163TIP3   OH257903   4.368   4.464   4.225  0.5377  0.9818 -0.3262
12163TIP3    H157904   4.445   4.408   4.231 -1.0283 -1.3191 -0.4673
12163TIP3    H257905   4.306   4.428   4.289 -1.4535  1.0012 -2.1351
12164TIP3   OH257906   4.512   3.639  12.442  0.1617  0.3696 -0.1018
12164TIP3    H157907   4.453   3.585  12.388  2.2940  0.9882 -3.3672
12164TIP3    H257908   4.528   3.586  12.520 -3.3677 -0.4663  0.2468
12165TIP3   OH257909   0.595   2.346  14.621  0.7353 -0.5329  0.0719
12165TIP3    H157910   0.568   2.259  14.592  0.3788 -0.3933 -0.0153
12165TIP3    H257911   0.642   2.331  14.703  2.2186 -0.9941 -0.8120
12166TIP3   OH257912   5.909   2.342   4.969  0.1373  0.7361  0.0287
12166TIP3    H157913   5.955   2.402   4.910  1.0736  0.7716  0.7741
12166TIP3    H257914   5.978   2.304   5.024 -0.6196  0.1024  0.5644
12167TIP3   OH257915   3.455   3.121   2.688 -0.2606 -0.4291 -0.7131
12167TIP3    H157916   3.523   3.117   2.622  1.3995 -0.8154  0.9386
12167TIP3    H257917   3.499   3.099   2.770 -3.0375 -4.4984 -0.0226
12168TIP3   OH257918   2.469   5.667   0.213  0.0379  0.4599 -0.2526
12168TIP3    H157919   2.381   5.690   0.243 -0.3513  1.7795 -2.2269
12168TIP3    H257920   2.475   5.572   0.229 -1.2989  0.5422  0.9373
12169TIP3   OH257921   5.696   5.689  10.838 -0.5608 -0.3258  0.3432
12169TIP3    H157922   5.644   5.769  10.841  1.0221  0.7473  0.3788
12169TIP3    H257923   5.687   5.658  10.748  0.6158  1.1988 -0.3541
12170TIP3   OH257924   5.401   2.608   4.016 -0.1858 -0.4726  0.1904
12170TIP3    H157925   5.317   2.619   4.061 -0.0644 -0.7157  0.4791
12170TIP3    H257926   5.380   2.621   3.923 -0.3735  0.3366  0.3466
12171TIP3   OH257927   3.460   3.228  15.173  0.2849  0.4310 -0.8193
12171TIP3    H157928   3.397   3.164  15.208 -0.4604  2.0607  0.9561
12171TIP3    H257929   3.430   3.243  15.083  0.7292 -1.9657 -1.4427
12172TIP3   OH257930   6.281   3.313   5.248  0.8323 -0.0473  0.1242
12172TIP3    H157931   6.368   3.280   5.271  0.1484 -0.3923  2.5296
12172TIP3    H257932   6.227   3.234   5.242  0.0749  0.3265  1.6956
12173TIP3   OH257933   0.978   1.780   2.274 -0.1179 -0.3406  0.0853
12173TIP3    H157934   1.048   1.718   2.254  0.2024  0.8116 -2.9367
12173TIP3    H257935   1.018   1.841   2.337  1.8073  0.4339 -1.7453
12174TIP3   OH257936   2.046   3.855   0.018  0.0730  0.1826  0.2439
12174TIP3    H157937   2.099   3.862   0.097  0.0618  1.0819  0.1837
12174TIP3    H257938   2.023   3.945  -0.004 -1.3302 -0.1650  0.1605
12175TIP3   OH257939   6.202   5.805  16.531  0.2116 -0.0028 -0.1068
12175TIP3    H157940   6.283   5.847  16.502  0.7368  0.5209  1.9050
12175TIP3    H257941   6.173   5.859  16.605 -0.8387 -1.3622  0.5099
12176TIP3   OH257942   1.520   0.752   4.520 -0.2374  0.2751 -0.2788
12176TIP3    H157943   1.443   0.699   4.539 -0.0665 -0.0750 -0.5391
12176TIP3    H257944   1.592   0.688   4.514  0.2136  0.6713  0.7449
12177TIP3   OH257945   1.993   0.871  10.841 -0.1753 -0.3569 -0.3583
12177TIP3    H157946   1.936   0.796  10.823 -0.3590 -1.2164  3.1572
12177TIP3    H257947   1.933   0.942  10.864  0.0825 -0.3325  0.2503
12178TIP3   OH257948   4.362   4.557  10.706  0.2888  0.0998  0.1799
12178TIP3    H157949   4.313   4.614  10.766  0.8854  0.2650  0.5236
12178TIP3    H257950   4.334   4.469  10.727  1.0321  0.0922  1.2371
12179TIP3   OH257951   1.599   6.157   4.938 -0.1954 -0.3518  0.2951
12179TIP3    H157952   1.688   6.158   4.902 -0.1277 -0.2662  0.4664
12179TIP3    H257953   1.588   6.068   4.971 -0.3112 -0.4735 -0.0734
12180TIP3   OH257954   3.279   0.418  16.410  0.4479 -0.0354 -0.2865
12180TIP3    H157955   3.326   0.420  16.493 -0.3060  1.0250  0.1367
12180TIP3    H257956   3.348   0.407  16.344  1.1411  0.0086  0.4192
12181TIP3   OH257957   0.426   3.335   0.078  0.0976 -0.2237  0.0386
12181TIP3    H157958   0.485   3.334   0.002 -0.8617 -3.1372 -0.8044
12181TIP3    H257959   0.357   3.397   0.053  1.4416  1.2797 -0.0518
12182TIP3   OH257960   4.455   1.618   4.736  0.2732  0.6197 -0.6428
12182TIP3    H157961   4.487   1.612   4.646  1.9906 -0.4475  0.0021
12182TIP3    H257962   4.426   1.529   4.757 -1.7644  1.2098 -0.6584
12183TIP3   OH257963   0.915   2.388  16.990 -0.8304 -0.1923 -0.3009
12183TIP3    H157964   0.980   2.444  16.947 -2.0409  1.1545 -0.4131
12183TIP3    H257965   0.878   2.336  16.918  0.8366 -1.7976 -0.0946
12184TIP3   OH257966   2.695   1.912  11.194 -0.1311 -0.1535 -0.2341
12184TIP3    H157967   2.761   1.981  11.194 -0.3372  0.0656  0.7133
12184TIP3    H257968   2.707   1.867  11.111  0.3218  0.7208 -0.6550
12185TIP3   OH257969   6.501   0.095  15.409 -0.0853 -0.0890  0.8327
12185TIP3    H157970   6.496   0.113  15.503 -0.5534 -1.5133  1.1061
12185TIP3    H257971   6.499  -0.001  15.403  2.4555 -0.1401 -0.5040
12186TIP3   OH257972   1.064   3.279   4.439  0.5084  0.5443  0.2760
12186TIP3    H157973   1.020   3.364   4.439  1.1121  0.9473 -2.2586
12186TIP3    H257974   1.022   3.230   4.369  2.3701  0.0183 -0.5266
12187TIP3   OH257975   6.131   2.843   5.222 -0.2784 -0.2707 -0.5224
12187TIP3    H157976   6.218   2.851   5.263 -0.4559  2.6931 -0.4493
12187TIP3    H257977   6.075   2.811   5.293  0.3906 -0.2932  0.0194
12188TIP3   OH257978   2.270   1.627  13.395 -0.1124 -0.4907 -0.0762
12188TIP3    H157979   2.182   1.655  13.370  0.4275  1.2389 -0.2119
12188TIP3    H257980   2.261   1.597  13.485 -0.8221 -0.2123 -0.0450
12189TIP3   OH257981   0.830   3.329   3.411  0.2863  0.2674  0.3277
12189TIP3    H157982   0.785   3.256   3.453  2.1058 -1.6042 -0.7912
12189TIP3    H257983   0.780   3.345   3.331 -0.2539  0.4339  0.6920
12190TIP3   OH257984   4.693   2.003   3.964  0.2610 -0.5760 -0.1103
12190TIP3    H157985   4.703   1.922   4.014 -2.6523 -0.3211  1.0874
12190TIP3    H257986   4.675   2.069   4.030 -0.5572  0.4165 -1.2996
12191TIP3   OH257987   6.163   1.834  16.910 -0.1406 -0.3059 -0.3521
12191TIP3    H157988   6.179   1.779  16.986  2.6819  0.2628 -0.4374
12191TIP3    H257989   6.158   1.773  16.837  1.9587 -0.6016 -0.3115
12192TIP3   OH257990   6.260   5.044   1.036 -0.1434  0.2053  0.3597
12192TIP3    H157991   6.305   5.067   0.954 -0.5626 -0.5058 -0.0799
12192TIP3    H257992   6.279   5.118   1.095 -0.5160  1.1305 -0.6348
12193TIP3   OH257993   2.839   3.046   0.523  0.4016  0.5586 -0.5035
12193TIP3    H157994   2.883   3.127   0.549  1.2174  0.6233 -1.9307
12193TIP3    H257995   2.878   2.978   0.578  0.9790  0.8928 -0.4940
12194TIP3   OH257996   1.787   4.452  11.168 -0.3950  0.3769  0.0985
12194TIP3    H157997   1.873   4.493  11.178 -0.3163 -0.0468  1.3286
12194TIP3    H257998   1.798   4.389  11.096  0.2236  0.5536  0.0360
12195TIP3   OH257999   1.777   1.738  12.804  0.1268 -0.4592  0.2111
12195TIP3    H158000   1.770   1.821  12.851  0.5117 -0.3589  0.0908
12195TIP3    H258001   1.745   1.758  12.716 -0.7947 -0.6966  0.4740
12196TIP3   OH258002   1.874   1.902   1.195  0.0009 -0.6080  0.3773
12196TIP3    H158003   1.931   1.827   1.211 -1.5060 -1.7606  0.6008
12196TIP3    H258004   1.795   1.883   1.244 -1.3130  0.0466 -1.3792
12197TIP3   OH258005   1.384   1.883   1.795  0.7943  0.6562 -0.0328
12197TIP3    H158006   1.331   1.889   1.875  0.5053 -0.4062 -0.1332
12197TIP3    H258007   1.471   1.911   1.823  0.7824 -0.0384  0.7491
12198TIP3   OH258008   6.056   3.117   2.469  0.4090  0.2016 -0.4029
12198TIP3    H158009   6.065   3.123   2.374  3.8991  0.3506 -0.1715
12198TIP3    H258010   6.061   3.023   2.488 -2.6401 -0.0649 -0.4180
12199TIP3   OH258011   0.399   5.260   4.555 -0.1415 -0.4906 -0.1859
12199TIP3    H158012   0.334   5.299   4.613 -0.7434  0.0021 -1.1514
12199TIP3    H258013   0.450   5.202   4.611 -0.3122  0.4139  0.9439
12200TIP3   OH258014   6.382   3.632  11.219 -0.1162  0.0208 -0.0946
12200TIP3    H158015   6.391   3.726  11.210 -0.0837  0.0587  0.3373
12200TIP3    H258016   6.298   3.612  11.177 -1.0269  0.4856  1.4500
12201TIP3   OH258017   4.111   2.250  14.932 -0.0533  0.0980 -0.6607
12201TIP3    H158018   4.204   2.268  14.922  0.1069  0.2702  0.9509
12201TIP3    H258019   4.104   2.202  15.015 -1.3264 -0.5120 -1.0988
12202TIP3   OH258020   3.989   3.030  16.029  0.5211 -0.6185 -0.4762
12202TIP3    H158021   3.934   3.095  16.073  0.9519  0.0392 -0.8902
12202TIP3    H258022   4.039   3.081  15.965  1.6666 -1.1910 -0.0638
12203TIP3   OH258023   2.435   0.966  15.279 -0.0056 -0.4362 -0.0648
12203TIP3    H158024   2.454   0.877  15.309  2.1909  0.4867  1.6187
12203TIP3    H258025   2.414   1.014  15.358  3.2334  1.4767 -0.1737
12204TIP3   OH258026   6.765   6.450   1.353  0.6820  0.5302 -0.1260
12204TIP3    H158027   6.827   6.428   1.284 -0.0234 -0.6346 -0.4178
12204TIP3    H258028   6.816   6.500   1.417  1.4186  1.3918 -1.3399
12205TIP3   OH258029   6.136   2.982  16.818  0.8664 -0.1727  0.4041
12205TIP3    H158030   6.166   2.917  16.882 -0.8001 -1.0716  0.3247
12205TIP3    H258031   6.041   2.968  16.812  0.8139  0.6674 -1.4103
12206TIP3   OH258032   0.305   4.680   6.279 -0.4915 -0.1560 -0.1321
12206TIP3    H158033   0.383   4.721   6.242 -1.2075  0.2286 -1.2488
12206TIP3    H258034   0.281   4.737   6.353  2.4406 -2.3214  2.7832
12207TIP3   OH258035   0.850   6.144  14.147  0.4530  0.1536 -0.0780
12207TIP3    H158036   0.839   6.192  14.065  1.7921 -0.2047 -0.4844
12207TIP3    H258037   0.761   6.118  14.170 -0.3727  2.9924  0.3006
12208TIP3   OH258038   0.960   6.527  12.372 -1.0817 -1.0203 -0.0693
12208TIP3    H158039   0.899   6.458  12.400 -1.8403 -0.5534 -0.5491
12208TIP3    H258040   1.024   6.482  12.317 -3.9253 -0.8144 -3.9744
12209TIP3   OH258041   3.363   4.681  11.335 -0.6509 -0.3688  0.0454
12209TIP3    H158042   3.394   4.768  11.358 -0.3586 -0.0013 -1.6374
12209TIP3    H258043   3.345   4.685  11.241  0.6663 -2.4817 -0.3821
12210TIP3   OH258044   6.083   3.932   4.281 -0.2073  0.2317 -0.4261
12210TIP3    H158045   6.098   3.885   4.363 -0.3078 -0.9495 -1.0640
12210TIP3    H258046   6.010   3.992   4.300  1.3013  1.7208  1.0020
12211TIP3   OH258047   3.328   3.922  11.339  0.1127 -0.0335  0.6312
12211TIP3    H158048   3.320   3.931  11.244 -0.1878  0.6886  0.7161
12211TIP3    H258049   3.420   3.901  11.353  0.0911 -0.4637  0.1611
12212TIP3   OH258050   0.236   5.442  16.573 -0.0947 -0.0062 -0.5838
12212TIP3    H158051   0.194   5.445  16.487 -2.1501  0.4748  0.3845
12212TIP3    H258052   0.328   5.422  16.554 -0.8898 -2.0239 -2.7598
12213TIP3   OH258053   1.367   4.058  16.835 -1.0354  0.2250  0.3918
12213TIP3    H158054   1.381   4.140  16.882 -2.2711  0.1013  1.0253
12213TIP3    H258055   1.453   4.034  16.801 -0.3270  0.8980  1.6441
12214TIP3   OH258056   2.289   6.255  13.192  0.9143 -0.0310 -0.1048
12214TIP3    H158057   2.301   6.261  13.098  1.4446  0.9213  0.0142
12214TIP3    H258058   2.369   6.292  13.229 -0.2633  1.8250  0.7087
12215TIP3   OH258059   3.433   4.113   0.936 -0.0632  0.1179  0.4561
12215TIP3    H158060   3.420   4.040   0.997 -0.1530 -0.3911 -0.1636
12215TIP3    H258061   3.474   4.182   0.989  2.2066 -1.2022  0.5356
12216TIP3   OH258062   5.518   1.296   3.525 -0.3568  0.3553 -0.2246
12216TIP3    H158063   5.604   1.275   3.562 -0.2000  1.0142 -0.2143
12216TIP3    H258064   5.536   1.318   3.434 -0.3677  1.5837  0.0617
12217TIP3   OH258065   4.833   3.759  13.889 -0.8439  0.4281 -0.6334
12217TIP3    H158066   4.809   3.801  13.806 -0.8915  1.4021 -0.1422
12217TIP3    H258067   4.922   3.788  13.905 -1.1483  0.9905  0.1031
12218TIP3   OH258068   0.807   4.964   0.620 -0.1227 -0.9748  0.0449
12218TIP3    H158069   0.798   5.038   0.679  0.9307 -1.7195  1.1784
12218TIP3    H258070   0.895   4.972   0.583 -1.0774  0.0284 -2.2742
12219TIP3   OH258071   5.394   4.598   3.822 -0.7173 -0.2784 -0.2682
12219TIP3    H158072   5.418   4.610   3.730 -1.1593  0.2157 -0.3206
12219TIP3    H258073   5.351   4.680   3.847 -0.8982 -0.5366  0.2864
12220TIP3   OH258074   0.651   5.313  13.375  0.1577 -0.1059  0.2766
12220TIP3    H158075   0.572   5.260  13.369  0.2886 -0.3361  0.5141
12220TIP3    H258076   0.720   5.256  13.340  0.3638 -0.2340  0.8817
12221TIP3   OH258077   1.667   4.033   2.877  0.3596 -0.1942  0.1466
12221TIP3    H158078   1.667   3.994   2.965  1.0224  0.4600  0.4486
12221TIP3    H258079   1.725   4.109   2.885 -0.8791  0.8537 -0.4250
12222TIP3   OH258080   4.734   6.724  16.471 -0.2004  0.2425  0.1223
12222TIP3    H158081   4.726   6.649  16.412  0.9885  1.4803 -1.7449
12222TIP3    H258082   4.787   6.692  16.544  0.3925 -0.7082 -0.7028
12223TIP3   OH258083   3.562   4.417   1.728 -0.0324  0.4700  0.1213
12223TIP3    H158084   3.570   4.495   1.783  0.1318  0.2551  0.4010
12223TIP3    H258085   3.624   4.354   1.765  1.4397  0.9353 -1.3804
12224TIP3   OH258086   6.092   2.967   0.879  0.5510 -0.4068  0.5786
12224TIP3    H158087   5.999   2.954   0.859  0.5705 -1.9605  1.3167
12224TIP3    H258088   6.110   3.057   0.853 -0.6836 -0.6785 -1.4168
12225TIP3   OH258089   2.474   1.628  14.633 -0.4198  0.3016 -0.1829
12225TIP3    H158090   2.421   1.664  14.705 -0.4371 -0.9197  0.4387
12225TIP3    H258091   2.564   1.636  14.663 -0.4117  0.0297 -0.1301
12226TIP3   OH258092   3.578   3.930   4.489 -0.0777  0.0204 -0.1536
12226TIP3    H158093   3.526   3.994   4.537 -0.0726  0.1640 -0.3399
12226TIP3    H258094   3.565   3.952   4.397 -1.9089 -1.6493 -0.3565
12227TIP3   OH258095   6.379   2.886  15.444 -0.1163  0.0411  0.1824
12227TIP3    H158096   6.341   2.935  15.371 -0.2613 -1.1658 -0.5652
12227TIP3    H258097   6.370   2.794  15.419  2.0197 -0.3277  0.6225
12228TIP3   OH258098   4.540   5.744  12.506  0.5066 -0.0698 -0.2245
12228TIP3    H158099   4.567   5.780  12.590  0.6111 -1.0710  0.1856
12228TIP3    H258100   4.619   5.744  12.453  0.1899  1.6533 -0.7398
12229TIP3   OH258101   5.482   6.328  10.619  0.0880  0.0539  0.0963
12229TIP3    H158102   5.526   6.384  10.683  2.1096 -0.2427 -0.9674
12229TIP3    H258103   5.484   6.379  10.538 -1.1491 -0.1709 -0.0851
12230TIP3   OH258104   6.634   1.933  16.724 -0.3108 -0.4599  0.2759
12230TIP3    H158105   6.629   1.837  16.720  3.1653 -0.8625 -4.7015
12230TIP3    H258106   6.712   1.950  16.777  1.0662 -0.7784 -1.5328
12231TIP3   OH258107   1.560   3.519  14.009  0.2980  0.1103  0.1829
12231TIP3    H158108   1.641   3.493  13.965  0.9240  0.8279  0.8709
12231TIP3    H258109   1.518   3.580  13.948 -0.1717 -0.9054 -0.5493
12232TIP3   OH258110   3.133   0.032  16.815  0.0849 -0.1373  0.3704
12232TIP3    H158111   3.061  -0.027  16.838  0.2090 -0.4348 -0.0026
12232TIP3    H258112   3.093   0.096  16.755 -0.2898  0.7630  1.5224
12233TIP3   OH258113   3.314   0.603   1.234  0.3804 -0.9542 -0.5659
12233TIP3    H158114   3.240   0.546   1.211 -0.9125  0.8553 -1.1135
12233TIP3    H258115   3.280   0.661   1.302  2.0536 -1.5989  0.9145
12234TIP3   OH258116   1.435   5.727   0.508  0.5075  0.1810 -0.5803
12234TIP3    H158117   1.429   5.792   0.578 -1.0772  0.2959 -0.7833
12234TIP3    H258118   1.493   5.659   0.544 -1.0132 -0.2343  1.2527
12235TIP3   OH258119   5.413   5.018  12.023 -0.1979 -0.0576 -0.0920
12235TIP3    H158120   5.431   4.941  12.076  0.1758  1.1582  1.6243
12235TIP3    H258121   5.499   5.048  11.993 -0.3303 -0.2386 -0.6616
12236TIP3   OH258122   0.129   0.668   6.186  0.0720  0.0796 -0.1936
12236TIP3    H158123   0.108   0.750   6.231  0.0095 -1.1997  2.3253
12236TIP3    H258124   0.058   0.656   6.124  0.7125  2.4716 -1.5072
12237TIP3   OH258125   1.177   5.363  15.427 -0.0116  0.1183 -0.5093
12237TIP3    H158126   1.176   5.453  15.460 -1.4653 -0.0429 -0.0184
12237TIP3    H258127   1.084   5.340  15.420  0.3440 -1.3881 -0.5260
12238TIP3   OH258128   4.975   0.826   3.385 -0.1734 -0.2347 -0.1895
12238TIP3    H158129   4.968   0.921   3.379 -1.4535 -0.1916  1.2491
12238TIP3    H258130   4.941   0.805   3.473 -1.0948 -2.1146 -0.9259
12239TIP3   OH258131   4.656   2.555  13.386 -0.0167  0.5883  0.0704
12239TIP3    H158132   4.572   2.576  13.345 -0.0293  0.8930  0.2496
12239TIP3    H258133   4.634   2.541  13.478  0.0143 -0.0668 -0.0137
12240TIP3   OH258134   5.738   3.401  11.399 -0.8311  0.2153 -0.4104
12240TIP3    H158135   5.766   3.316  11.432 -0.2216  0.9744  1.1099
12240TIP3    H258136   5.651   3.414  11.436 -0.3352  0.8689  0.5592
12241TIP3   OH258137   2.805   0.100  16.956 -0.4210 -0.8011  0.3120
12241TIP3    H158138   2.837   0.016  16.922 -1.1668 -1.2140  0.6263
12241TIP3    H258139   2.828   0.163  16.887 -0.2490 -1.3291 -0.1237
12242TIP3   OH258140   6.210   3.838   3.522 -0.0367  0.8072 -0.8141
12242TIP3    H158141   6.146   3.857   3.590  1.8703 -0.2460  1.4125
12242TIP3    H258142   6.288   3.888   3.546  0.8345  0.0869 -1.9871
12243TIP3   OH258143   1.610   6.051   1.112  0.7020 -0.2790  0.0852
12243TIP3    H158144   1.633   6.017   1.025  0.8725  0.1258 -0.0297
12243TIP3    H258145   1.520   6.083   1.102  0.5123 -0.7683  0.2150
12244TIP3   OH258146   0.463   2.206   1.300 -0.1770 -0.2863 -0.4890
12244TIP3    H158147   0.498   2.287   1.337 -1.2884  0.3347 -0.7286
12244TIP3    H258148   0.531   2.140   1.316  0.7425  0.6855 -0.2768
12245TIP3   OH258149   1.782   2.418   5.979  0.3196 -0.2888 -0.7169
12245TIP3    H158150   1.876   2.438   5.979  0.1580  0.5043 -0.0673
12245TIP3    H258151   1.776   2.334   6.025  0.5882  0.3162  0.4520
12246TIP3   OH258152   6.054   5.369  16.744  0.5972  0.5199 -0.0191
12246TIP3    H158153   6.083   5.442  16.799 -0.3503  0.6085  0.3908
12246TIP3    H258154   6.096   5.292  16.782  1.6432  0.8446 -0.4831
12247TIP3   OH258155   1.578   5.983   2.430 -0.4003 -0.2843 -0.2778
12247TIP3    H158156   1.619   5.979   2.517  1.8745 -2.0389 -1.3270
12247TIP3    H258157   1.631   6.047   2.382 -2.8544  2.2283  0.0744
12248TIP3   OH258158   4.383   4.589   2.226 -0.4109  0.2246  0.0591
12248TIP3    H158159   4.317   4.526   2.255 -1.1341 -0.1850 -2.2784
12248TIP3    H258160   4.433   4.543   2.158  0.9138  1.2427  0.2964
12249TIP3   OH258161   2.316   3.755  13.784 -0.3053  0.1900 -0.3815
12249TIP3    H158162   2.341   3.666  13.758 -0.3445  1.0870 -3.9986
12249TIP3    H258163   2.393   3.790  13.828  0.1860 -1.1657 -0.1034
12250TIP3   OH258164   2.861   3.206  10.430 -0.3985  0.2594 -0.3365
12250TIP3    H158165   2.863   3.115  10.460  0.5383  0.3968  0.0637
12250TIP3    H258166   2.780   3.242  10.466  0.3118  0.1934  1.4018
12251TIP3   OH258167   6.101   0.744  17.099  0.1433 -0.4708  0.0646
12251TIP3    H158168   6.146   0.723  17.017 -0.7734 -1.0572 -0.3021
12251TIP3    H258169   6.072   0.660  17.132 -0.9114 -0.0831  0.1525
12252TIP3   OH258170   4.348   3.121   5.551 -0.4153  0.0750 -0.2729
12252TIP3    H158171   4.428   3.143   5.503 -0.1006 -0.2195  0.1153
12252TIP3    H258172   4.318   3.205   5.586 -0.2496  0.1778 -0.3701
12253TIP3   OH258173   4.007   0.249  14.713  0.2278  0.2390  0.2852
12253TIP3    H158174   4.028   0.299  14.791  0.9990 -0.2559  0.4105
12253TIP3    H258175   3.926   0.202  14.735  0.8759 -0.5216  1.0895
12254TIP3   OH258176   5.945   1.960  15.050 -0.3190  0.2901 -0.2800
12254TIP3    H158177   5.890   2.038  15.038 -1.2881 -0.3549 -0.0845
12254TIP3    H258178   6.002   1.959  14.973 -0.3874  1.1095 -0.3554
12255TIP3   OH258179   5.948   3.285  16.181  0.8221 -0.1501 -0.3631
12255TIP3    H158180   5.919   3.344  16.111  2.2795 -0.0470 -0.9295
12255TIP3    H258181   5.902   3.203  16.165  0.0271  0.3325 -0.5643
12256TIP3   OH258182   6.534   2.900  13.838 -0.1272 -0.1579 -0.0271
12256TIP3    H158183   6.469   2.911  13.907  0.9317 -1.0283  1.1422
12256TIP3    H258184   6.539   2.805  13.824 -0.7420  0.0228 -1.7365
12257TIP3   OH258185   1.706   5.620  15.122  0.3049  0.0506 -0.3375
12257TIP3    H158186   1.724   5.704  15.165 -2.4430  0.2935  0.5765
12257TIP3    H258187   1.728   5.554  15.188 -2.0250  0.3440  0.8467
12258TIP3   OH258188   4.421   3.843  11.513  0.1704  0.3760  0.2584
12258TIP3    H158189   4.329   3.827  11.491  0.4819 -1.0079 -0.1643
12258TIP3    H258190   4.441   3.776  11.579  0.6103  1.3163  1.0927
12259TIP3   OH258191   5.049   0.248   2.738  0.4830  0.3403 -0.0726
12259TIP3    H158192   5.118   0.197   2.780 -0.2584 -0.8967 -0.3081
12259TIP3    H258193   5.085   0.271   2.652  1.4927  1.7629  0.6773
12260TIP3   OH258194   0.624   5.997   1.855 -0.0406  0.7021 -0.0674
12260TIP3    H158195   0.620   5.902   1.850  1.2779  0.3765  3.0187
12260TIP3    H258196   0.647   6.025   1.766  1.3012 -1.9933 -0.6531
12261TIP3   OH258197   5.338   3.954   0.918  0.4052 -0.4229 -0.0474
12261TIP3    H158198   5.345   3.925   1.009  0.6091  0.3069  0.1813
12261TIP3    H258199   5.419   4.001   0.901  0.7909 -1.3611 -0.9231
12262TIP3   OH258200   0.435   1.153  11.386  0.6875 -0.3231  0.7395
12262TIP3    H158201   0.428   1.087  11.454  1.3150 -1.6764 -0.4582
12262TIP3    H258202   0.529   1.176  11.384  0.6396 -0.1466  0.4591
12263TIP3   OH258203   0.548   3.710  10.729  0.0036 -0.0503 -0.3777
12263TIP3    H158204   0.463   3.724  10.686 -0.8402  0.5320  1.3960
12263TIP3    H258205   0.543   3.762  10.809  1.4577 -1.2528  0.5340
12264TIP3   OH258206   3.392   4.080  16.094  0.2476  0.4082  0.4236
12264TIP3    H158207   3.441   4.006  16.059 -0.6529  0.3746 -0.7987
12264TIP3    H258208   3.405   4.150  16.030 -0.0813  0.8655  0.8514
12265TIP3   OH258209   2.242   6.265  16.591 -0.1153 -0.1537  0.0137
12265TIP3    H158210   2.208   6.231  16.508  3.0497 -0.4821 -1.2642
12265TIP3    H258211   2.201   6.210  16.657 -1.3522 -1.0805 -1.4492
12266TIP3   OH258212   4.399   5.820  12.262 -0.0918 -0.4130 -0.4144
12266TIP3    H158213   4.429   5.797  12.350 -0.0837  1.5753  0.1478
12266TIP3    H258214   4.413   5.741  12.211 -1.3293 -2.0924  1.6423
12267TIP3   OH258215   1.225   3.357  17.016  0.0734  0.3942 -0.2996
12267TIP3    H158216   1.131   3.374  17.014 -0.5207 -2.2295  0.4491
12267TIP3    H258217   1.265   3.433  16.974 -2.4298  1.2095 -1.3731
12268TIP3   OH258218   4.393   0.674  16.980  0.2098 -0.0694  0.0206
12268TIP3    H158219   4.375   0.599  17.035 -0.7276  0.3156  0.2530
12268TIP3    H258220   4.454   0.727  17.030  1.4515 -1.0143 -0.4497
12269TIP3   OH258221   2.034   3.618  14.511 -0.6669  0.2756 -0.0075
12269TIP3    H158222   2.021   3.524  14.504 -2.6706  0.5690 -0.9108
12269TIP3    H258223   2.060   3.646  14.422  2.0116  0.3689  0.7003
12270TIP3   OH258224   0.806   3.946  11.114 -0.1874  0.4922  0.2365
12270TIP3    H158225   0.861   3.943  11.036 -3.2083 -0.5029 -2.0092
12270TIP3    H258226   0.793   3.854  11.137 -2.1542  0.5946 -0.2898
12271TIP3   OH258227   3.898   5.322   4.882 -0.2266 -0.6148  0.4153
12271TIP3    H158228   3.812   5.341   4.845 -0.9157  0.1072  2.2950
12271TIP3    H258229   3.886   5.240   4.931  0.0287 -0.2770  1.0554
12272TIP3   OH258230   2.173   3.246  16.251 -0.4250  0.4930  0.0694
12272TIP3    H158231   2.151   3.160  16.287 -2.7623  1.4300  1.1193
12272TIP3    H258232   2.266   3.241  16.230 -0.4249 -2.1614  0.4294
12273TIP3   OH258233   4.973   3.464   1.337  0.0581 -0.0888  0.3435
12273TIP3    H158234   5.051   3.496   1.383  0.7566  0.1581 -0.9510
12273TIP3    H258235   4.968   3.518   1.258 -2.4646  1.0766  1.2275
12274TIP3   OH258236   2.098   4.867   3.816  0.1460  0.7171 -0.0385
12274TIP3    H158237   2.136   4.820   3.890 -1.9294  0.7133  1.1070
12274TIP3    H258238   2.137   4.954   3.820 -0.7333  1.0744  1.7756
12275TIP3   OH258239   4.611   2.401  11.296  0.4559 -0.0921 -0.2504
12275TIP3    H158240   4.665   2.327  11.325 -0.7050 -0.2299  1.6991
12275TIP3    H258241   4.651   2.478  11.338  0.5708  0.1473 -0.7902
12276TIP3   OH258242   1.275   5.532   1.671 -0.3091 -0.4432 -0.4321
12276TIP3    H158243   1.317   5.455   1.710 -0.1118  0.9140  2.3216
12276TIP3    H258244   1.256   5.589   1.746 -0.1076  2.3560 -2.3384
12277TIP3   OH258245   6.250   2.781   2.345  0.2614 -0.1454 -0.2695
12277TIP3    H158246   6.310   2.795   2.272 -0.6208  2.1520 -0.6393
12277TIP3    H258247   6.173   2.742   2.305  0.3021 -0.1585 -0.3355
12278TIP3   OH258248   3.688   2.713  16.378  0.0303 -0.1537  0.5848
12278TIP3    H158249   3.646   2.772  16.440 -0.5068  0.3069 -0.1981
12278TIP3    H258250   3.649   2.735  16.293  0.9646 -0.5628  0.0284
12279TIP3   OH258251   2.933   5.738   3.912  0.1396  0.5727 -0.3911
12279TIP3    H158252   2.968   5.687   3.839  1.2881 -2.2943  1.9548
12279TIP3    H258253   3.005   5.796   3.936  0.3550  0.3598 -0.5123
12280TIP3   OH258254   2.872   2.546   3.471 -0.2041 -0.1802 -0.0411
12280TIP3    H158255   2.899   2.609   3.404 -0.7878 -1.4826 -1.5874
12280TIP3    H258256   2.952   2.497   3.491  0.2748  1.0865  1.2481
12281TIP3   OH258257   5.270   6.304   4.473 -0.4493  0.0662  0.0820
12281TIP3    H158258   5.358   6.307   4.509 -0.7370 -0.2859  0.8341
12281TIP3    H258259   5.281   6.323   4.380  0.2714  1.3435  0.4036
12282TIP3   OH258260   5.975   0.939   5.473 -0.1498 -0.0746  0.3941
12282TIP3    H158261   5.912   0.867   5.476 -0.8210  0.4612 -0.3207
12282TIP3    H258262   6.047   0.911   5.529 -0.8184 -0.9043  0.8545
12283TIP3   OH258263   0.631   0.117   3.865 -0.1669  0.0041  0.8599
12283TIP3    H158264   0.637   0.022   3.864 -1.1327 -0.0944 -0.9211
12283TIP3    H258265   0.548   0.136   3.909  0.3354  0.0608  1.7902
12284TIP3   OH258266   0.796   6.605   1.611 -0.0331 -0.0347 -0.2019
12284TIP3    H158267   0.863   6.575   1.673  0.0947  1.8468  0.6302
12284TIP3    H258268   0.811   6.552   1.533  2.1387 -0.0092  0.1143
12285TIP3   OH258269   3.357   4.972   2.402  0.6376 -0.0052 -0.4813
12285TIP3    H158270   3.283   4.999   2.457  1.0020 -0.7033  0.3757
12285TIP3    H258271   3.331   4.997   2.313 -1.4227 -1.8316 -0.4686
12286TIP3   OH258272   6.174   6.064   3.899 -0.5178 -0.1055  0.3935
12286TIP3    H158273   6.100   6.011   3.870 -1.6606  1.8986 -0.5843
12286TIP3    H258274   6.134   6.129   3.958  0.5826  0.5950  0.3836
12287TIP3   OH258275   0.655   5.475  16.293  0.6279  0.3424  0.2108
12287TIP3    H158276   0.660   5.434  16.207 -0.4631 -0.2102  0.3970
12287TIP3    H258277   0.736   5.526  16.300  0.6092  0.6069 -1.2444
12288TIP3   OH258278   3.914   6.421   4.195  0.1227 -0.0754 -0.8586
12288TIP3    H158279   3.962   6.342   4.219  0.2105 -0.4039 -2.0646
12288TIP3    H258280   3.976   6.492   4.209  0.2413 -0.2709 -0.3539
12289TIP3   OH258281   0.243   1.354  11.367  0.2826  0.8217  0.5290
12289TIP3    H158282   0.290   1.418  11.314 -0.2071  1.0247  0.3343
12289TIP3    H258283   0.308   1.286  11.386 -0.0440 -0.3904 -2.1685
12290TIP3   OH258284   0.317   5.132  13.665 -0.2633 -0.4108 -0.4848
12290TIP3    H158285   0.327   5.188  13.742  1.1095 -1.3793  0.0710
12290TIP3    H258286   0.268   5.056  13.697 -1.3483  0.0333 -1.0334
12291TIP3   OH258287   0.163   5.694   0.163 -0.1516  0.0094 -0.4537
12291TIP3    H158288   0.168   5.625   0.229 -1.1529  0.9573  0.6920
12291TIP3    H258289   0.161   5.648   0.079 -0.8003 -1.3473  0.2718
12292TIP3   OH258290   1.292   1.027   0.490 -0.1437  0.3543 -0.4340
12292TIP3    H158291   1.347   1.101   0.512 -0.4489  0.5467 -0.3201
12292TIP3    H258292   1.222   1.064   0.435 -0.7387  0.2892  0.2697
12293TIP3   OH258293   5.913   2.637  14.747 -0.3905  0.4815  0.1884
12293TIP3    H158294   5.913   2.729  14.773 -1.2474  0.6700 -0.4312
12293TIP3    H258295   5.831   2.602  14.782 -0.7519  0.3191 -0.7833
12294TIP3   OH258296   2.224   4.595  14.352 -0.3591 -0.4879 -0.0316
12294TIP3    H158297   2.217   4.598  14.447 -0.0505 -0.1098 -0.0217
12294TIP3    H258298   2.255   4.682  14.327 -0.2081 -0.6611 -0.4569
12295TIP3   OH258299   3.110   4.644   4.661 -0.0673 -0.7913  0.2667
12295TIP3    H158300   3.184   4.639   4.601 -0.0843 -1.2954  0.2840
12295TIP3    H258301   3.101   4.738   4.680  0.2958 -0.6855 -0.0664
12296TIP3   OH258302   0.771   1.634  12.517  0.4196  0.3436 -0.0481
12296TIP3    H158303   0.852   1.597  12.550  0.3144  0.4281  0.3143
12296TIP3    H258304   0.733   1.680  12.592  0.6583  1.3749 -0.5413
12297TIP3   OH258305   5.939   6.587  11.499 -0.1801 -0.0576 -0.2634
12297TIP3    H158306   6.005   6.646  11.461  0.0504  1.1112  1.7715
12297TIP3    H258307   5.944   6.508  11.446  1.5681  0.6860 -1.3059
12298TIP3   OH258308   2.204   0.257   0.273  0.1260 -0.9482 -0.2713
12298TIP3    H158309   2.204   0.272   0.178  1.2545  2.4690  0.1319
12298TIP3    H258310   2.297   0.256   0.297 -0.1420 -1.7973  0.8364
12299TIP3   OH258311   0.475   1.951   1.159  0.4110  0.1850 -0.6915
12299TIP3    H158312   0.438   1.871   1.197 -0.3984  0.5701 -0.6390
12299TIP3    H258313   0.561   1.925   1.128 -0.2936 -1.0109 -1.7274
12300TIP3   OH258314   0.283   4.028   5.001  0.2695 -0.2015  0.2318
12300TIP3    H158315   0.289   4.123   4.995  0.7376 -0.3103 -1.8140
12300TIP3    H258316   0.363   4.001   5.045 -0.2404  0.3600  1.5767
12301TIP3   OH258317   6.258   4.340  12.316  0.0264 -0.3718  0.2521
12301TIP3    H158318   6.239   4.270  12.254 -1.1582  0.9330 -0.9255
12301TIP3    H258319   6.299   4.408  12.265  3.0917 -0.9100  1.7710
12302TIP3   OH258320   6.190   4.851   4.162  0.0569  0.2672  0.0980
12302TIP3    H158321   6.195   4.856   4.258  0.0711 -1.4238  0.2033
12302TIP3    H258322   6.257   4.788   4.138  1.2207  1.9206 -1.2095
12303TIP3   OH258323   6.100   3.931  13.130  0.2491  0.1169 -0.2041
12303TIP3    H158324   6.145   3.867  13.185  2.3716  0.3921 -1.4926
12303TIP3    H258325   6.126   4.016  13.166 -2.4078  0.3614  1.3852
12304TIP3   OH258326   4.544   6.250   3.055 -0.5977  0.1886  1.0078
12304TIP3    H158327   4.620   6.308   3.058 -0.1673 -0.3938  1.5998
12304TIP3    H258328   4.488   6.279   3.126 -1.1685  0.9203  0.2798
12305TIP3   OH258329   2.062   2.260   0.812 -0.7418  0.2294 -0.3639
12305TIP3    H158330   1.985   2.303   0.774 -1.4021 -0.4064  0.2182
12305TIP3    H258331   2.088   2.319   0.884 -0.7857  0.3628 -0.4563
12306TIP3   OH258332   0.183   0.116   1.172  0.4300  0.2475 -0.0886
12306TIP3    H158333   0.277   0.107   1.189  0.4161 -2.0861 -0.7999
12306TIP3    H258334   0.147   0.030   1.192 -1.2546  0.5593 -1.5031
12307TIP3   OH258335   6.052   1.760  14.507  0.0931 -0.2860 -0.0552
12307TIP3    H158336   6.108   1.835  14.529  1.4491 -1.3368  0.2894
12307TIP3    H258337   6.097   1.718  14.433 -1.6651  0.2853 -1.5061
12308TIP3   OH258338   1.250   5.935  11.425  0.3932 -0.5841 -0.3655
12308TIP3    H158339   1.333   5.895  11.399  0.0600 -1.0079 -0.8002
12308TIP3    H258340   1.227   5.991  11.351  0.1125 -0.7516 -0.4059
12309TIP3   OH258341   6.278   1.575  12.018 -0.0138 -0.3519 -0.2055
12309TIP3    H158342   6.257   1.667  12.034 -0.8293 -0.5699  0.0506
12309TIP3    H258343   6.195   1.537  11.990  0.4643 -0.8741 -0.9283
12310TIP3   OH258344   1.185   5.680   5.476  0.1273 -0.3248 -0.5783
12310TIP3    H158345   1.176   5.769   5.509 -2.3202 -0.8646  0.4268
12310TIP3    H258346   1.172   5.688   5.382 -1.7138  0.2665 -0.3292
12311TIP3   OH258347   0.872   3.048   1.049  0.3793 -0.3510  0.1465
12311TIP3    H158348   0.810   2.993   1.098 -0.6974 -0.8148 -1.6647
12311TIP3    H258349   0.816   3.101   0.993  1.5406  0.9785  0.2166
12312TIP3   OH258350   1.424   4.822   5.582 -0.0593  0.7996 -0.1449
12312TIP3    H158351   1.501   4.864   5.545 -1.5924  1.2601 -3.1169
12312TIP3    H258352   1.388   4.888   5.642 -0.9483  2.8263 -2.7201
12313TIP3   OH258353   6.274   2.299  12.297  0.1624  0.1494 -0.1251
12313TIP3    H158354   6.280   2.278  12.204 -0.4562  2.0863 -0.6368
12313TIP3    H258355   6.279   2.214  12.341  1.6199 -0.7243 -1.8412
12314TIP3   OH258356   1.239   4.103  14.182  0.3632  0.0869  0.2834
12314TIP3    H158357   1.173   4.171  14.170  0.0229 -0.3256 -0.2088
12314TIP3    H258358   1.321   4.151  14.189  0.2194  0.5225 -0.7934
12315TIP3   OH258359   6.318   4.240  11.728 -0.2140  0.0398 -0.0497
12315TIP3    H158360   6.299   4.161  11.779 -0.1121 -0.1463 -0.3030
12315TIP3    H258361   6.411   4.232  11.705  0.1814  0.9046  1.1108
12316TIP3   OH258362   1.966   0.467   2.338  0.3167 -0.2727  0.2321
12316TIP3    H158363   1.968   0.560   2.312  0.0356 -0.3583 -0.1073
12316TIP3    H258364   1.957   0.470   2.433  3.5733  0.0561  0.6458
12317TIP3   OH258365   6.040   4.088   2.286  0.1591  0.3847  0.0477
12317TIP3    H158366   6.079   4.052   2.366  0.1290 -0.0501 -0.1272
12317TIP3    H258367   6.114   4.105   2.228  0.0231 -3.7874 -1.6894
12318TIP3   OH258368   1.534   3.676  16.228 -0.1956  0.1230 -0.5122
12318TIP3    H158369   1.606   3.674  16.292 -1.0441  0.0038  0.4664
12318TIP3    H258370   1.574   3.648  16.146  0.9224  0.2625 -0.0343
12319TIP3   OH258371   5.487   0.309  11.724  0.4664 -0.1723 -0.7377
12319TIP3    H158372   5.493   0.220  11.759  1.5718 -0.6841 -2.1262
12319TIP3    H258373   5.421   0.303  11.654 -0.1620  0.3423 -0.2049
12320TIP3   OH258374   5.268   5.691  13.055  0.0276  0.5484 -0.3103
12320TIP3    H158375   5.217   5.756  13.103 -1.5638  1.2369 -2.7326
12320TIP3    H258376   5.339   5.742  13.014  0.5208  0.2266  0.1328
12321TIP3   OH258377   5.934   1.089  10.797 -0.1146  0.0144  0.1032
12321TIP3    H158378   5.937   1.098  10.893 -0.2311 -0.5222  0.1588
12321TIP3    H258379   5.854   1.135  10.772  0.9114  1.8932  0.0484
12322TIP3   OH258380   6.534   1.543   6.404 -0.2177 -0.2205  0.5181
12322TIP3    H158381   6.517   1.459   6.446 -1.8761 -0.6737 -0.9329
12322TIP3    H258382   6.450   1.590   6.407 -0.2427 -0.0211 -1.6227
12323TIP3   OH258383   3.484   1.000  14.771  0.6637 -0.6216 -0.2772
12323TIP3    H158384   3.475   1.083  14.725 -1.0852 -0.5468  0.1342
12323TIP3    H258385   3.417   0.943  14.733 -0.1019 -0.9010  1.3934
12324TIP3   OH258386   0.231   4.401   0.792  0.4426 -0.5205  0.2006
12324TIP3    H158387   0.268   4.436   0.711  0.1612 -1.3320 -0.2864
12324TIP3    H258388   0.137   4.397   0.776  0.2406  0.4835  1.0300
12325TIP3   OH258389   1.298   4.217  12.800  0.2893 -0.5619  0.7572
12325TIP3    H158390   1.332   4.282  12.862 -0.7003  0.4850  0.2199
12325TIP3    H258391   1.207   4.205  12.825 -0.8810  1.7256 -1.9428
12326TIP3   OH258392   0.794   6.615   0.013  0.2195 -0.3043 -0.2096
12326TIP3    H158393   0.850   6.537   0.008 -0.2556 -0.8494  1.9803
12326TIP3    H258394   0.850   6.682   0.052 -0.1673 -0.3958  0.5232
12327TIP3   OH258395   0.294   6.347   2.019 -0.0519  0.0344  0.7337
12327TIP3    H158396   0.388   6.333   2.013 -0.2403 -0.5515 -2.0014
12327TIP3    H258397   0.283   6.441   2.009  0.1719 -0.1276 -1.5390
12328TIP3   OH258398   3.982   1.838  16.846 -0.3636  0.3241 -0.2635
12328TIP3    H158399   4.029   1.881  16.775 -0.2989 -0.1082 -0.4830
12328TIP3    H258400   3.934   1.768  16.804  1.4058 -1.3725  0.3794
12329TIP3   OH258401   1.754   3.687   3.295 -0.4782 -0.1050 -0.2940
12329TIP3    H158402   1.663   3.666   3.317 -0.4274  1.2931  1.4027
12329TIP3    H258403   1.805   3.623   3.345 -0.4632  1.4144  1.7909
12330TIP3   OH258404   3.943   2.655  12.170 -0.3637  0.5675  0.5226
12330TIP3    H158405   3.992   2.699  12.239  0.7977 -0.8385  0.6486
12330TIP3    H258406   3.894   2.586  12.216  2.1079 -1.8231 -0.1972
12331TIP3   OH258407   5.274   6.592  10.727  0.2419  0.5651  0.2349
12331TIP3    H158408   5.334   6.617  10.656 -0.3131 -2.0278 -1.2689
12331TIP3    H258409   5.187   6.604  10.691 -0.0768 -3.0745 -0.5977
12332TIP3   OH258410   4.664   2.334   0.707 -0.1494  0.3057  0.5512
12332TIP3    H158411   4.658   2.249   0.751 -0.4370 -0.2298 -0.5006
12332TIP3    H258412   4.626   2.319   0.621 -0.7445  1.6522  0.5534
12333TIP3   OH258413   3.926   6.397  14.676  0.0699  0.3943 -0.0159
12333TIP3    H158414   3.872   6.475  14.665 -0.4380 -0.1502 -1.6293
12333TIP3    H258415   3.985   6.419  14.749  0.1569  2.3887 -0.6266
12334TIP3   OH258416   3.064   1.071  16.757 -0.3378  0.2353  0.6259
12334TIP3    H158417   2.992   1.092  16.698  1.5704  0.5803 -1.7644
12334TIP3    H258418   3.026   1.013  16.822 -2.5919 -0.1888 -0.9548
12335TIP3   OH258419   0.898   5.255   0.572 -0.4056 -0.4340  0.4603
12335TIP3    H158420   0.916   5.349   0.579  0.7566 -0.2923 -2.7820
12335TIP3    H258421   0.983   5.213   0.582 -0.4724 -0.8952 -0.7079
12336TIP3   OH258422   6.298   1.188  11.569  0.3028  0.4431  0.4436
12336TIP3    H158423   6.348   1.260  11.606 -0.2026  0.3546  1.3250
12336TIP3    H258424   6.269   1.220  11.483  3.9653 -0.4311 -1.3025
12337TIP3   OH258425   2.321   3.683  14.560 -0.3258 -0.3801  0.4264
12337TIP3    H158426   2.348   3.648  14.475 -0.8685  2.3164 -0.9701
12337TIP3    H258427   2.226   3.667  14.563 -0.1622 -1.3128  0.9868
12338TIP3   OH258428   3.078   1.012   4.837 -0.3731 -0.3306 -0.1468
12338TIP3    H158429   3.045   0.922   4.836 -1.4055  0.0052 -2.1656
12338TIP3    H258430   3.049   1.047   4.921 -0.2809 -1.7671  0.5062
12339TIP3   OH258431   6.576   4.872  15.067 -0.0127 -0.1299  0.2315
12339TIP3    H158432   6.587   4.867  14.972 -1.1860 -2.2492  0.1250
12339TIP3    H258433   6.559   4.964  15.085 -2.0796 -0.0080 -1.9289
12340TIP3   OH258434   6.191   0.801   0.644 -0.1546  0.1293  0.7538
12340TIP3    H158435   6.244   0.880   0.653  1.0778 -0.7893  2.0420
12340TIP3    H258436   6.225   0.742   0.711  0.4879 -2.3418 -1.5777
12341TIP3   OH258437   2.289   5.592  14.774  0.0114  0.1700 -0.4889
12341TIP3    H158438   2.331   5.508  14.796  2.6682  1.0049 -1.9032
12341TIP3    H258439   2.231   5.610  14.849  2.1129 -1.1796  1.6217
12342TIP3   OH258440   6.786   0.010   1.673 -0.1527 -0.2694 -0.9370
12342TIP3    H158441   6.796   0.098   1.638  3.7463  0.1339  0.7190
12342TIP3    H258442   6.838  -0.046   1.615 -0.6897 -1.0810 -0.6548
12343TIP3   OH258443   6.741   5.022   1.779  0.0187 -0.2239 -0.5784
12343TIP3    H158444   6.787   5.095   1.739 -1.2582 -0.1254 -1.9642
12343TIP3    H258445   6.652   5.026   1.742 -0.8048 -1.0243  1.1699
12344TIP3   OH258446   2.213   3.266   5.400 -0.0962 -0.2984  0.6485
12344TIP3    H158447   2.127   3.235   5.428  0.3166 -0.4210  1.8466
12344TIP3    H258448   2.247   3.196   5.346 -0.0367 -1.0329  1.6131
12345TIP3   OH258449   5.423   4.434  14.234 -0.0370 -0.1775  0.1337
12345TIP3    H158450   5.514   4.436  14.266  0.3547 -0.9232 -0.8760
12345TIP3    H258451   5.425   4.372  14.160 -1.0554  0.9267 -0.8562
12346TIP3   OH258452   4.395   1.075   4.634 -0.4203 -0.3385  0.2480
12346TIP3    H158453   4.485   1.043   4.642 -0.5178 -0.5138  0.6604
12346TIP3    H258454   4.348   1.034   4.706 -0.1876  1.9684  1.8449
12347TIP3   OH258455   3.828   6.196   6.572  0.1721  0.0606 -0.0436
12347TIP3    H158456   3.911   6.177   6.528 -1.2909 -1.4964 -2.3200
12347TIP3    H258457   3.821   6.292   6.570  1.3570  0.1523 -0.8653
12348TIP3   OH258458   0.276   3.038  14.307  0.7322 -0.6126 -0.5540
12348TIP3    H158459   0.235   3.037  14.393  2.4499  0.1762  0.3290
12348TIP3    H258460   0.273   3.130  14.280  0.2699 -0.8436 -1.3037
12349TIP3   OH258461   4.407   5.569  12.120 -0.8407 -0.7199 -0.2872
12349TIP3    H158462   4.422   5.530  12.206 -0.1420 -0.2109 -0.1715
12349TIP3    H258463   4.423   5.498  12.058 -0.6862 -0.9139 -0.0270
12350TIP3   OH258464   2.678   0.481  14.938  0.2095 -0.2404  0.1133
12350TIP3    H158465   2.674   0.472  15.033  0.4676  0.7358  0.2280
12350TIP3    H258466   2.610   0.422  14.905 -0.6447  0.2384  0.9626
12351TIP3   OH258467   4.794   0.859  11.420 -0.0841  0.9460  0.3721
12351TIP3    H158468   4.861   0.790  11.428  0.1139  0.9934 -0.6516
12351TIP3    H258469   4.712   0.816  11.443 -0.1303  0.0257 -1.3310
12352TIP3   OH258470   4.366   2.589   2.312  0.0509  0.3744 -0.1783
12352TIP3    H158471   4.340   2.541   2.234 -2.6899  1.9073 -0.3507
12352TIP3    H258472   4.334   2.536   2.385 -0.6019  0.6252 -0.2709
12353TIP3   OH258473   6.446   0.375   0.598 -0.0689  0.2379 -0.4387
12353TIP3    H158474   6.397   0.301   0.635  0.7612 -0.6253 -1.0206
12353TIP3    H258475   6.417   0.450   0.649 -0.3619 -0.6142  0.7057
12354TIP3   OH258476   0.284   3.122  16.621 -0.0283 -0.0869 -0.6182
12354TIP3    H158477   0.287   3.216  16.602  1.3561  0.7864  3.0331
12354TIP3    H258478   0.215   3.112  16.686  1.4747 -1.0920  0.9228
12355TIP3   OH258479   2.996   4.813   3.689  0.2558  0.3129 -0.0225
12355TIP3    H158480   3.071   4.869   3.712  0.4383  0.4928 -0.9854
12355TIP3    H258481   2.924   4.875   3.675 -0.0703  0.1418  0.8730
12356TIP3   OH258482   6.357   1.354  15.087 -0.1508 -0.1222  0.4180
12356TIP3    H158483   6.421   1.424  15.075  0.4314 -0.7819 -0.4513
12356TIP3    H258484   6.410   1.277  15.111 -0.7434 -0.3543  1.0237
12357TIP3   OH258485   1.772   5.028  16.621 -0.3101  0.2061 -0.1015
12357TIP3    H158486   1.682   4.994  16.622 -0.2940  0.1476  1.5295
12357TIP3    H258487   1.825   4.956  16.657  0.5849 -0.1719 -2.0256
12358TIP3   OH258488   0.286   3.053   1.769  0.1410 -0.7117 -0.1060
12358TIP3    H158489   0.334   3.106   1.833  0.6585 -3.2161  1.7233
12358TIP3    H258490   0.300   3.098   1.686  0.2299  2.1660  1.3332
12359TIP3   OH258491   3.363   1.672  15.087  0.6689  0.6679  0.2026
12359TIP3    H158492   3.321   1.756  15.104 -2.8217 -0.9610  0.4629
12359TIP3    H258493   3.362   1.664  14.992  1.3016  1.0465  0.1618
12360TIP3   OH258494   3.309   6.624   5.808 -0.1064  0.5639  0.3602
12360TIP3    H158495   3.221   6.613   5.844  0.2397 -0.5743  0.9104
12360TIP3    H258496   3.298   6.618   5.713 -0.2198 -3.8377  0.4180
12361TIP3   OH258497   2.761   1.780   6.643 -0.0777  0.2814 -0.3026
12361TIP3    H158498   2.832   1.820   6.593  0.7676  1.0259  1.3911
12361TIP3    H258499   2.739   1.846   6.710 -1.8665 -0.2363 -0.3167
12362TIP3   OH258500   5.788   6.094  10.793  0.5032  0.1146  0.5805
12362TIP3    H158501   5.800   6.065  10.703  2.4188  1.1473  0.4667
12362TIP3    H258502   5.698   6.126  10.797  0.5474  0.4894 -1.0821
12363TIP3   OH258503   1.105   1.198  15.474 -0.4215 -0.1763 -0.3696
12363TIP3    H158504   1.093   1.202  15.379  0.3888  1.0535 -0.4506
12363TIP3    H258505   1.051   1.125  15.502  0.1128 -1.2090 -1.8985
12364TIP3   OH258506   4.069   5.541  10.215  0.3394  0.2073  0.2403
12364TIP3    H158507   4.162   5.559  10.222  0.4629 -0.0558 -0.6274
12364TIP3    H258508   4.041   5.521  10.305  1.0556  0.5600  0.5420
12365TIP3   OH258509   5.660   0.436  15.773 -0.0486  0.0421 -0.2427
12365TIP3    H158510   5.673   0.417  15.866  2.0452 -0.1407 -0.5067
12365TIP3    H258511   5.648   0.530  15.769  1.4518  0.2841  0.1340
12366TIP3   OH258512   2.131   0.553  12.977 -0.2240  0.0975 -0.0676
12366TIP3    H158513   2.041   0.543  12.945  0.2246 -2.8352 -0.6832
12366TIP3    H258514   2.186   0.528  12.903  1.1033  1.1825  0.5175
12367TIP3   OH258515   5.284   1.695   2.950  0.2636  0.0008 -0.0242
12367TIP3    H158516   5.341   1.628   2.912  2.1380  1.4170  0.1024
12367TIP3    H258517   5.300   1.689   3.044  0.2151  0.4128  0.0103
12368TIP3   OH258518   3.009   3.613   4.093 -0.0990 -0.3308 -0.6160
12368TIP3    H158519   3.056   3.589   4.173  1.1939 -2.0086 -1.7958
12368TIP3    H258520   2.976   3.530   4.058  1.4489 -0.0483 -3.0302
12369TIP3   OH258521   3.090   4.219  14.298  0.2783  0.1371  1.1317
12369TIP3    H158522   3.033   4.295  14.291 -0.1226 -0.0734  1.9372
12369TIP3    H258523   3.100   4.205  14.392 -0.9218 -1.7171  1.0456
12370TIP3   OH258524   0.056   5.196  11.129 -0.1060  0.4623 -0.3830
12370TIP3    H158525   0.036   5.160  11.042  0.3395 -0.7304 -0.0174
12370TIP3    H258526  -0.020   5.251  11.150 -0.6534  0.0183 -1.1281
12371TIP3   OH258527   1.706   5.366  13.364 -0.5248  0.7059  0.2749
12371TIP3    H158528   1.653   5.287  13.379  0.6787 -0.2321 -0.2797
12371TIP3    H258529   1.685   5.423  13.438 -1.2291 -0.2360  0.8302
12372TIP3   OH258530   1.832   2.999  12.670 -0.1597  0.0546 -0.3013
12372TIP3    H158531   1.792   2.997  12.583  1.1273 -1.5175 -0.9166
12372TIP3    H258532   1.765   2.963  12.728 -1.4772  2.2207 -0.3713
12373TIP3   OH258533   1.192   0.926   3.974  0.0735  0.3052 -0.4463
12373TIP3    H158534   1.136   0.863   4.020 -0.0888 -1.1035 -2.4315
12373TIP3    H258535   1.193   0.895   3.883  3.3392  0.7808 -0.7038
12374TIP3   OH258536   6.383   5.355  16.804 -0.7353 -0.0852 -0.0587
12374TIP3    H158537   6.323   5.380  16.875 -0.3955  0.3713  0.0746
12374TIP3    H258538   6.373   5.424  16.739  1.0116  1.0369  0.7908
12375TIP3   OH258539   1.749   1.187   3.175  0.8330  0.2886  0.6919
12375TIP3    H158540   1.741   1.278   3.148  1.4439 -0.1145 -0.9438
12375TIP3    H258541   1.811   1.189   3.248  0.3849  1.2352  1.0541
12376TIP3   OH258542   0.861   3.330   4.080  0.1379  0.1717  0.1052
12376TIP3    H158543   0.858   3.413   4.033 -0.7008  1.2458  1.9654
12376TIP3    H258544   0.773   3.293   4.070  0.6569 -0.7861 -1.1607
12377TIP3   OH258545   3.339   5.467  13.654 -0.4133  0.0277 -0.4117
12377TIP3    H158546   3.256   5.463  13.607 -0.2353 -0.0662 -0.7183
12377TIP3    H258547   3.353   5.378  13.686 -0.7426  0.1832  0.1862
12378TIP3   OH258548   6.020   6.275  15.957 -0.5948 -0.3172  0.3454
12378TIP3    H158549   5.981   6.263  15.871 -1.2226 -1.6698  0.8049
12378TIP3    H258550   6.084   6.205  15.965 -0.4324 -0.1121  0.9295
12379TIP3   OH258551   2.582   2.680  13.123  0.4652  0.0858  0.1511
12379TIP3    H158552   2.529   2.646  13.051  1.4187 -3.0587  0.7620
12379TIP3    H258553   2.521   2.688  13.196  0.2254 -0.4785  0.0164
12380TIP3   OH258554   2.414   2.858   0.315 -0.2192  0.0164  0.6513
12380TIP3    H158555   2.505   2.875   0.340  0.5517 -0.1923 -1.7590
12380TIP3    H258556   2.367   2.939   0.337  0.6116  0.2696  1.5583
12381TIP3   OH258557   3.291   0.760   3.982  0.2682 -0.3394 -0.3625
12381TIP3    H158558   3.224   0.778   4.048 -0.3099 -1.8017 -0.5130
12381TIP3    H258559   3.250   0.783   3.899  0.5764  0.3848 -0.3200
12382TIP3   OH258560   6.329   5.802   4.294 -0.2431 -0.3176  0.4173
12382TIP3    H158561   6.268   5.793   4.367  1.0847  0.5184  1.7034
12382TIP3    H258562   6.322   5.894   4.268 -0.4964 -0.5421 -0.3294
12383TIP3   OH258563   4.151   5.994   3.098 -0.0232  0.2366 -0.3992
12383TIP3    H158564   4.170   6.065   3.160 -0.6755  0.2542 -0.2126
12383TIP3    H258565   4.227   5.936   3.104  0.6478  1.0481 -0.7504
12384TIP3   OH258566   0.081   4.133   3.153 -0.0257  0.4222  0.2163
12384TIP3    H158567   0.011   4.077   3.120 -1.0830  2.6722 -1.6756
12384TIP3    H258568   0.036   4.201   3.204  1.2337 -0.4640  2.6821
12385TIP3   OH258569   0.569   3.109   5.640 -0.2069  0.0144 -0.2919
12385TIP3    H158570   0.535   3.090   5.727 -4.0074  0.7767 -1.4363
12385TIP3    H258571   0.588   3.203   5.641  1.1171 -0.2431  0.0846
12386TIP3   OH258572   1.493   5.950  15.078  0.4179 -0.6424 -0.6845
12386TIP3    H158573   1.578   5.907  15.090  0.3207 -0.3866  1.2903
12386TIP3    H258574   1.491   6.019  15.145 -1.4912 -0.8818 -0.4277
12387TIP3   OH258575   0.375   2.716   2.850 -0.3246 -0.1524 -0.2354
12387TIP3    H158576   0.383   2.661   2.772  1.3005 -0.8254  0.3549
12387TIP3    H258577   0.339   2.658   2.917 -0.6419  0.1067 -0.1802
12388TIP3   OH258578   0.156   3.749   2.022 -0.0210  0.4652  0.2103
12388TIP3    H158579   0.227   3.689   2.045 -0.2322  0.1277 -0.0025
12388TIP3    H258580   0.167   3.763   1.928 -0.1077  0.5856  0.2183
12389TIP3   OH258581   5.483   6.150  17.154  0.8661 -0.1308  0.0001
12389TIP3    H158582   5.458   6.241  17.140  1.1872  0.2601  1.7745
12389TIP3    H258583   5.410   6.100  17.118  1.1596  0.7507 -1.9776
12390TIP3   OH258584   4.698   3.448  10.608  0.0590  0.0481  0.0777
12390TIP3    H158585   4.714   3.370  10.555  0.6106  0.3680 -0.2455
12390TIP3    H258586   4.603   3.458  10.609 -0.2251 -1.9684  2.1001
12391TIP3   OH258587   3.779   4.427   4.751 -0.1250  0.8689  0.2598
12391TIP3    H158588   3.798   4.489   4.823  1.9082  0.9116 -0.2460
12391TIP3    H258589   3.816   4.470   4.673  1.5308 -1.0181 -0.0697
12392TIP3   OH258590   2.225   3.542   5.377  0.2327 -0.0519  0.0109
12392TIP3    H158591   2.276   3.546   5.458  0.5137  1.0394 -0.2054
12392TIP3    H258592   2.201   3.450   5.368  1.7072 -0.4961  0.3936
12393TIP3   OH258593   6.564   2.820   6.818 -1.0649 -0.5123 -0.3486
12393TIP3    H158594   6.486   2.779   6.856  0.0485 -0.3660  2.3420
12393TIP3    H258595   6.608   2.749   6.771 -2.6118 -0.6702 -1.6058
12394TIP3   OH258596   0.604   4.538  15.687  0.1495  0.0690 -0.0332
12394TIP3    H158597   0.638   4.495  15.608  0.9646  2.5268 -1.1091
12394TIP3    H258598   0.681   4.553  15.742 -0.1016  0.2510  0.2755
12395TIP3   OH258599   5.936   2.035  15.482  0.0840 -0.5949 -0.2986
12395TIP3    H158600   5.889   2.078  15.554  0.8349  1.5364 -0.9946
12395TIP3    H258601   5.928   1.942  15.501 -1.6876 -0.1988  1.3037
12396TIP3   OH258602   2.031   4.068   1.574  0.6090  0.4319 -0.2618
12396TIP3    H158603   2.025   4.101   1.663 -1.4872  0.0748 -0.2172
12396TIP3    H258604   2.018   4.145   1.519 -0.4507  0.3046 -0.2072
12397TIP3   OH258605   2.720   6.077  11.220  0.4664 -0.3052  0.0502
12397TIP3    H158606   2.757   5.990  11.238  0.2584 -0.4952 -0.4363
12397TIP3    H258607   2.766   6.106  11.142  3.4365  1.7153  2.2965
12398TIP3   OH258608   2.444   4.948  15.782  0.0137 -0.1613 -0.5578
12398TIP3    H158609   2.464   5.034  15.746  0.5599  0.4128  1.0458
12398TIP3    H258610   2.471   4.886  15.713  2.7112  0.7986 -0.4791
12399TIP3   OH258611   6.022   5.409  14.343 -0.1322 -0.1812  0.1905
12399TIP3    H158612   6.002   5.359  14.422  2.7747  1.8733  2.4467
12399TIP3    H258613   6.031   5.499  14.373  2.6506  0.4715 -2.1519
12400TIP3   OH258614   2.954   0.215  16.199  0.2106 -0.0037 -0.0882
12400TIP3    H158615   2.988   0.144  16.145 -0.1491  0.2064 -0.6025
12400TIP3    H258616   2.859   0.202  16.198  0.0994  0.7625 -0.5909
12401TIP3   OH258617   2.599   0.089  14.952 -0.1371 -0.0674  0.0285
12401TIP3    H158618   2.607   0.104  14.858  2.9612  2.2235  0.4863
12401TIP3    H258619   2.667   0.025  14.972 -2.2776 -2.3533  0.5251
12402TIP3   OH258620   3.343   1.208  13.449 -0.3869  0.7969  0.3557
12402TIP3    H158621   3.259   1.220  13.493  0.3110  0.9299  1.7204
12402TIP3    H258622   3.370   1.119  13.472 -0.8368  0.1726 -1.3550
12403TIP3   OH258623   4.875   1.032   1.507  0.4598  0.1762 -0.5182
12403TIP3    H158624   4.843   0.972   1.575 -1.5863  1.2052 -0.4812
12403TIP3    H258625   4.891   0.977   1.431 -0.4017 -0.5583 -0.1807
12404TIP3   OH258626   4.514   0.254   2.159 -0.3374  0.3881  0.1092
12404TIP3    H158627   4.547   0.180   2.107  0.2121 -0.2829  1.3609
12404TIP3    H258628   4.544   0.235   2.248 -0.7254  1.8217  0.5621
12405TIP3   OH258629   4.080   3.790   2.654  0.4858  0.1310 -0.2717
12405TIP3    H158630   3.994   3.767   2.619  0.7519 -1.1416 -0.1434
12405TIP3    H258631   4.120   3.844   2.585  0.1811 -0.5758 -1.0290
12406TIP3   OH258632   1.209   6.248   3.214  0.7338 -0.4372  0.1839
12406TIP3    H158633   1.281   6.266   3.274  0.6721 -0.8483  0.3844
12406TIP3    H258634   1.139   6.307   3.242 -0.0596 -2.0827  1.8987
12407TIP3   OH258635   2.435   3.444  16.405 -0.2993  0.0515  0.0745
12407TIP3    H158636   2.413   3.529  16.367  1.8107  0.9158  0.6322
12407TIP3    H258637   2.419   3.381  16.335  0.8365  1.2811 -1.3638
12408TIP3   OH258638   1.478   0.781  16.753  0.4368  0.2590  0.5765
12408TIP3    H158639   1.538   0.812  16.822 -0.0021 -0.3057  1.2219
12408TIP3    H258640   1.536   0.752  16.683  0.9622 -1.0422  1.5178
12409TIP3   OH258641   2.287   4.198   6.373 -0.0013  0.0736  0.4472
12409TIP3    H158642   2.281   4.282   6.327 -1.3879  0.8827  1.9744
12409TIP3    H258643   2.198   4.163   6.369  0.4909 -1.1860  0.1240
12410TIP3   OH258644   3.135   6.099  13.900 -0.4570 -0.3289  0.0354
12410TIP3    H158645   3.128   6.184  13.945 -0.2442 -0.7656  0.9255
12410TIP3    H258646   3.082   6.040  13.953  0.2122 -0.9738  0.0029
12411TIP3   OH258647   0.359   6.245   2.273  0.2398 -0.4678 -0.6892
12411TIP3    H158648   0.320   6.272   2.190 -0.5850 -0.5545 -0.3326
12411TIP3    H258649   0.300   6.278   2.340  1.0843 -0.0915 -0.1057
12412TIP3   OH258650   2.803   0.014   3.924  0.1143 -0.6525 -0.1122
12412TIP3    H158651   2.749   0.093   3.928 -0.4901 -1.0201 -0.8702
12412TIP3    H258652   2.867   0.032   3.855  0.9401 -0.2474  0.7329
12413TIP3   OH258653   0.360   4.711  12.827 -0.3356  0.4073  0.3355
12413TIP3    H158654   0.359   4.626  12.784 -0.6470  0.6600 -0.1680
12413TIP3    H258655   0.294   4.705  12.896  0.3408 -0.0833  0.9657
12414TIP3   OH258656   6.073   2.548   3.284  0.1255 -0.5689 -0.2829
12414TIP3    H158657   5.991   2.588   3.257 -0.7314 -1.9717  0.1427
12414TIP3    H258658   6.093   2.485   3.214  0.8445 -0.2475 -0.3796
12415TIP3   OH258659   4.098   1.587  11.914  0.7047  0.3641  0.1426
12415TIP3    H158660   4.187   1.578  11.879  0.4218 -1.3861 -0.1997
12415TIP3    H258661   4.108   1.578  12.008  0.9664  0.9034  0.1706
12416TIP3   OH258662   2.644   1.323  14.717 -0.1275 -0.3098  0.7047
12416TIP3    H158663   2.655   1.308  14.623  0.7692  0.1996  0.7188
12416TIP3    H258664   2.723   1.288  14.756 -0.7784 -1.0948  1.3470
12417TIP3   OH258665   2.817   3.991  15.277 -0.9053 -0.2140  0.1643
12417TIP3    H158666   2.753   4.054  15.243  1.4853  1.0063 -2.3946
12417TIP3    H258667   2.869   4.041  15.340  0.1112  0.0255 -0.8387
12418TIP3   OH258668   0.252   1.190  12.713  0.2639 -0.0768 -0.6524
12418TIP3    H158669   0.219   1.104  12.739 -1.8288  1.1677  1.1928
12418TIP3    H258670   0.294   1.175  12.628 -1.6683 -2.5921 -1.3056
12419TIP3   OH258671   1.129   1.209   0.350 -0.1991  0.3388  0.0043
12419TIP3    H158672   1.135   1.206   0.254  1.8482  1.7545  0.0128
12419TIP3    H258673   1.122   1.303   0.370  1.2372  0.2014  1.2892
12420TIP3   OH258674   6.014   4.164   2.889  0.0702  0.6575  0.1735
12420TIP3    H158675   6.094   4.131   2.848 -0.7529 -1.0453 -0.1325
12420TIP3    H258676   5.986   4.094   2.947 -1.8084  0.7456 -0.5717
12421TIP3   OH258677   4.541   6.123   0.801 -0.3318  0.0657  0.0070
12421TIP3    H158678   4.524   6.032   0.780 -0.2128 -0.1847  0.9398
12421TIP3    H258679   4.469   6.171   0.760 -1.6291 -0.6707  1.3285
12422TIP3   OH258680   1.780   3.028  14.892  0.2285  0.4862 -0.0540
12422TIP3    H158681   1.873   3.015  14.873  0.3721  1.4058 -0.0393
12422TIP3    H258682   1.745   3.068  14.812  0.2873  1.9882  0.6369
12423TIP3   OH258683   5.073   2.629   2.183 -0.1658  0.1492 -0.4153
12423TIP3    H158684   5.005   2.618   2.249  1.4596  1.2083  1.5612
12423TIP3    H258685   5.060   2.718   2.150  0.8298  0.7607  0.7468
12424TIP3   OH258686   0.400   2.385   2.181  0.2223 -0.4281 -0.6867
12424TIP3    H158687   0.468   2.452   2.190  0.4744 -0.6153 -1.1913
12424TIP3    H258688   0.333   2.426   2.127  0.2641 -0.4965 -0.7906
12425TIP3   OH258689   4.708   2.885   6.579 -0.3364  0.3843 -0.1445
12425TIP3    H158690   4.788   2.855   6.623 -0.6688 -1.3149 -0.6292
12425TIP3    H258691   4.726   2.976   6.556  0.6008  0.7145  1.7049
12426TIP3   OH258692   4.862   2.514   4.330  0.5409 -0.3770 -0.2311
12426TIP3    H158693   4.823   2.601   4.337 -0.7227 -0.9304  0.0238
12426TIP3    H258694   4.787   2.456   4.319  1.1518 -1.6732  1.8315
12427TIP3   OH258695   6.504   2.069  13.570 -0.2310  0.1312  0.2467
12427TIP3    H158696   6.474   2.056  13.480 -1.5152 -0.1942  0.6970
12427TIP3    H258697   6.460   2.148  13.599 -1.8994 -1.1613  1.4066
12428TIP3   OH258698   2.930   3.572  13.292 -0.0138  0.1817 -0.4571
12428TIP3    H158699   2.996   3.511  13.259  1.2784  0.6929  1.0133
12428TIP3    H258700   2.870   3.586  13.219  1.0197 -0.9879 -1.5678
12429TIP3   OH258701   6.342   5.084   3.121 -0.2793  0.2924 -0.0240
12429TIP3    H158702   6.333   5.177   3.099 -0.2615  0.3112  0.0499
12429TIP3    H258703   6.380   5.083   3.208  0.1504  0.2124 -0.2101
12430TIP3   OH258704   3.766   6.173  15.095  0.4365 -0.0036 -0.1816
12430TIP3    H158705   3.747   6.238  15.028  0.1867  0.7116  0.5800
12430TIP3    H258706   3.713   6.097  15.070 -0.2237  0.5153 -0.3872
12431TIP3   OH258707   5.329   1.305   1.007 -0.0825 -0.1588 -0.5640
12431TIP3    H158708   5.355   1.396   0.994 -0.0102  0.3166  2.2592
12431TIP3    H258709   5.350   1.286   1.099  1.3489 -3.5482 -1.4252
12432TIP3   OH258710   4.517   2.426  15.967  0.2690 -0.1727 -0.2867
12432TIP3    H158711   4.422   2.434  15.963  0.3141  1.7820  1.2301
12432TIP3    H258712   4.551   2.502  15.920  1.1708 -1.5104 -1.9510
12433TIP3   OH258713   3.714   6.347   0.660  0.1070 -0.4117  0.0644
12433TIP3    H158714   3.634   6.385   0.695 -0.8519 -0.6967 -1.7226
12433TIP3    H258715   3.688   6.262   0.626  1.4217 -1.0104  0.4708
12434TIP3   OH258716   0.225   0.127   0.274 -0.0989  0.0911  0.0335
12434TIP3    H158717   0.178   0.082   0.344 -1.4888  2.1767  0.5157
12434TIP3    H258718   0.172   0.204   0.255  2.2993  1.7095 -0.5575
12435TIP3   OH258719   3.105   1.965  12.628 -0.3308  0.0408  0.2774
12435TIP3    H158720   3.118   2.043  12.575 -0.4735  0.0461  0.2506
12435TIP3    H258721   3.033   1.918  12.586  0.0420 -0.3252  0.0366
12436TIP3   OH258722   3.049   6.314   5.633  0.2274  0.2617  0.4188
12436TIP3    H158723   2.958   6.295   5.656 -0.3761  0.4684 -1.5615
12436TIP3    H258724   3.076   6.382   5.694 -1.0861  0.4625  0.7995
12437TIP3   OH258725   1.604   2.562  14.036  0.1596  0.5442 -0.0221
12437TIP3    H158726   1.584   2.550  13.943 -0.6423 -0.5116  0.2659
12437TIP3    H258727   1.578   2.652  14.055  0.1738  0.7149 -0.7740
12438TIP3   OH258728   3.693   0.817  16.928  0.0639 -0.4314  0.2362
12438TIP3    H158729   3.703   0.739  16.983  1.3820 -0.7614 -0.4213
12438TIP3    H258730   3.772   0.818  16.874 -0.3323  0.9057 -0.3576
12439TIP3   OH258731   5.288   4.273  12.306  0.0937 -0.0665 -0.1088
12439TIP3    H158732   5.334   4.296  12.387 -2.0618  0.5540  1.0189
12439TIP3    H258733   5.338   4.316  12.237 -0.2077  2.8206  1.3129
12440TIP3   OH258734   4.791   5.022   6.078 -0.2450 -0.0917 -0.1533
12440TIP3    H158735   4.879   5.000   6.046 -0.3109  2.1534 -2.2350
12440TIP3    H258736   4.735   4.953   6.043  0.6925 -1.9101  1.7424
12441TIP3   OH258737   0.069   5.282   1.739 -0.0063 -0.1966 -0.1095
12441TIP3    H158738   0.111   5.290   1.824  2.4026  0.0141 -1.2527
12441TIP3    H258739   0.079   5.369   1.699  0.9011 -0.8956 -1.4591
12442TIP3   OH258740   2.280   3.036  16.040 -0.0147 -0.3498  0.3276
12442TIP3    H158741   2.189   3.015  16.064  0.0313 -0.5433  0.3332
12442TIP3    H258742   2.274   3.121  15.996 -0.4499 -1.1963 -1.3599
12443TIP3   OH258743   1.596   1.903   6.268 -0.3895  0.4014  0.0086
12443TIP3    H158744   1.503   1.883   6.277 -0.6646  1.3780 -0.4805
12443TIP3    H258745   1.628   1.909   6.358 -0.4969 -1.2056  0.1693
12444TIP3   OH258746   4.431   0.475   4.840 -0.0706  0.3703  0.1002
12444TIP3    H158747   4.378   0.552   4.821 -0.3747 -0.0202 -0.6810
12444TIP3    H258748   4.391   0.436   4.918  0.2610  1.1500  0.6719
12445TIP3   OH258749   3.851   1.051  14.551  0.0933 -0.3342  0.5013
12445TIP3    H158750   3.911   1.123  14.535  1.1482 -1.1655  0.6325
12445TIP3    H258751   3.799   1.045  14.471 -0.2790  0.8150  0.6482
12446TIP3   OH258752   1.050   6.204   0.114 -0.5356  0.1804  0.1477
12446TIP3    H158753   1.050   6.127   0.057 -0.3796 -0.6546  1.2338
12446TIP3    H258754   0.964   6.202   0.156 -0.3869  0.3679  0.4674
12447TIP3   OH258755   0.632   0.395  12.602  0.3918 -0.7023 -0.1784
12447TIP3    H158756   0.618   0.332  12.672  0.8182 -1.0564 -0.4001
12447TIP3    H258757   0.663   0.474  12.646  2.6490 -1.5617 -0.0878
12448TIP3   OH258758   4.798   3.711   3.845  0.2563 -0.1010  0.2460
12448TIP3    H158759   4.887   3.685   3.869  0.0047 -0.5633  0.6837
12448TIP3    H258760   4.773   3.775   3.912  0.8833  1.3529 -0.8400
12449TIP3   OH258761   4.664   4.226  17.079  0.2356 -0.3951 -0.3739
12449TIP3    H158762   4.689   4.258  17.165  2.8565  0.7798 -1.4669
12449TIP3    H258763   4.590   4.281  17.053 -0.1364 -0.3152  0.8175
12450TIP3   OH258764   6.777   5.034   3.395 -0.1274 -0.4704  0.0573
12450TIP3    H158765   6.822   5.096   3.451 -0.7954 -0.4630  0.6043
12450TIP3    H258766   6.845   4.999   3.337 -0.0078  1.9194 -1.3742
12451TIP3   OH258767   2.255   1.574  17.147 -0.2043 -0.0048  0.3706
12451TIP3    H158768   2.321   1.644  17.151  0.3705 -0.5732  1.2262
12451TIP3    H258769   2.196   1.594  17.220 -0.0290 -0.4100  0.6268
12452TIP3   OH258770   4.677   2.649  12.081  0.1196  0.8437 -0.0748
12452TIP3    H158771   4.673   2.743  12.063 -0.3474  0.8568  0.0884
12452TIP3    H258772   4.593   2.629  12.122 -0.0735  0.2161 -0.7513
12453TIP3   OH258773   3.119   6.406  16.243  0.0107 -0.3514  0.5239
12453TIP3    H158774   3.124   6.499  16.223  0.3481  0.0148  2.1873
12453TIP3    H258775   3.042   6.375  16.195 -0.8456  1.0511  0.9423
12454TIP3   OH258776   0.443   2.861   4.465 -0.3009  0.2170 -0.3026
12454TIP3    H158777   0.535   2.853   4.443  0.0600 -2.1229  1.6097
12454TIP3    H258778   0.400   2.791   4.414 -0.9447  0.9067 -0.7308
12455TIP3   OH258779   5.806   4.073  13.233 -0.1168  0.2810  0.5581
12455TIP3    H158780   5.794   4.133  13.161  2.0625  0.2785  0.1292
12455TIP3    H258781   5.806   4.128  13.311 -1.6768  0.3732  0.5242
12456TIP3   OH258782   4.099   4.082  10.654 -0.0263 -0.0215 -0.2539
12456TIP3    H158783   4.097   4.178  10.660  0.4507  0.0189 -0.6958
12456TIP3    H258784   4.161   4.064  10.584  1.0672 -0.6911  0.8581
12457TIP3   OH258785   5.872   4.278  13.411 -0.1029  0.7385  0.1774
12457TIP3    H158786   5.938   4.347  13.422  0.9269 -0.2769  0.5930
12457TIP3    H258787   5.841   4.261  13.500 -0.8115  1.0659  0.0068
12458TIP3   OH258788   4.419   3.642   2.347 -0.0474  0.3608  0.1000
12458TIP3    H158789   4.488   3.636   2.280  0.1727  0.2652  0.3318
12458TIP3    H258790   4.432   3.729   2.385 -0.9946  0.9415 -0.8563
12459TIP3   OH258791   3.500   4.749  12.065  0.0171  0.3590  0.1732
12459TIP3    H158792   3.480   4.838  12.036  0.0846  0.5562  0.7022
12459TIP3    H258793   3.475   4.749  12.158 -1.4535 -0.6439 -0.1923
12460TIP3   OH258794   5.772   6.685   6.311  0.3901  0.2571  0.2216
12460TIP3    H158795   5.790   6.634   6.390  1.0596  0.4404  0.1950
12460TIP3    H258796   5.677   6.680   6.300 -0.0499  2.1534  2.3804
12461TIP3   OH258797   2.001   4.604   2.065 -0.6148 -0.4641  0.1727
12461TIP3    H158798   1.949   4.676   2.029  1.3822  1.3795  0.7607
12461TIP3    H258799   2.043   4.641   2.143 -0.6929 -2.7588  1.3758
12462TIP3   OH258800   3.023   1.867  11.636 -0.0359  0.5996  0.0187
12462TIP3    H158801   3.008   1.800  11.569  3.3467  1.5373 -1.8554
12462TIP3    H258802   2.993   1.949  11.596  1.5747  1.0963 -0.2076
12463TIP3   OH258803   3.688   3.538  11.369 -0.0947 -0.0138  0.4141
12463TIP3    H158804   3.726   3.567  11.286  2.1601  1.9628  1.9830
12463TIP3    H258805   3.602   3.580  11.371  0.5218  1.3616 -0.2209
12464TIP3   OH258806   2.724   2.370  16.549 -0.1799  0.0480 -0.4353
12464TIP3    H158807   2.668   2.360  16.625 -0.6607 -1.4490 -0.9639
12464TIP3    H258808   2.787   2.299  16.556 -0.2717 -0.1474 -1.4667
12465TIP3   OH258809   0.828   2.520   5.769  0.0033  0.5581  0.0919
12465TIP3    H158810   0.761   2.497   5.834  0.3716 -0.3420  0.1712
12465TIP3    H258811   0.884   2.442   5.764 -0.1856  0.4926 -1.5266
12466TIP3   OH258812   4.328   4.715   5.980 -0.5467 -0.3050 -0.1175
12466TIP3    H158813   4.415   4.676   5.966 -0.1212  0.4555  0.3957
12466TIP3    H258814   4.283   4.653   6.037 -0.7127 -1.2065 -1.1883
12467TIP3   OH258815   3.808   4.305   0.069 -0.6100  0.1530 -0.8011
12467TIP3    H158816   3.884   4.345   0.027  0.3720 -1.7342 -0.9427
12467TIP3    H258817   3.734   4.356   0.039  0.2696  0.0704 -3.3002
12468TIP3   OH258818   0.732   5.094  15.041  0.8225  0.1785  0.1848
12468TIP3    H158819   0.660   5.041  15.007  2.3141 -2.0018  0.2153
12468TIP3    H258820   0.795   5.096  14.970  1.2126  1.1045  0.5550
12469TIP3   OH258821   1.153   5.509   5.680 -0.2386  0.0570  0.4095
12469TIP3    H158822   1.103   5.584   5.713 -1.0762 -0.3153 -0.0019
12469TIP3    H258823   1.171   5.530   5.589  0.1733  0.0893  0.4958
12470TIP3   OH258824   4.696   1.651  11.245 -0.2978 -0.0204 -0.0571
12470TIP3    H158825   4.655   1.619  11.326 -0.9282  0.1341 -0.3030
12470TIP3    H258826   4.623   1.657  11.183 -0.3942  2.6608  0.1849
12471TIP3   OH258827   1.654   2.458  12.162  0.8582 -0.6238 -0.3213
12471TIP3    H158828   1.634   2.551  12.160  0.1589 -0.7726 -0.4501
12471TIP3    H258829   1.569   2.415  12.158  1.2261 -1.2806 -1.6770
12472TIP3   OH258830   0.481   1.328  14.375  0.4656  0.2498  0.6546
12472TIP3    H158831   0.577   1.334  14.371  0.4164  1.0424  0.5094
12472TIP3    H258832   0.453   1.316  14.285  0.5204 -1.9591  0.8714
12473TIP3   OH258833   0.360   0.640   4.132 -0.0966  0.0372  0.1591
12473TIP3    H158834   0.289   0.596   4.178  0.7298 -0.5234  0.9387
12473TIP3    H258835   0.346   0.618   4.040  0.8995 -2.8401  0.6037
12474TIP3   OH258836   0.072   2.880  13.005 -0.4004 -0.0138  0.8809
12474TIP3    H158837  -0.010   2.886  12.958 -0.6144  2.8193  1.4059
12474TIP3    H258838   0.047   2.856  13.095 -0.4968 -0.4979  0.7260
12475TIP3   OH258839   4.549   2.777  13.793 -0.2701 -0.0305 -0.0944
12475TIP3    H158840   4.472   2.817  13.752  1.4458  1.9850 -1.5399
12475TIP3    H258841   4.566   2.830  13.870  0.6302  0.6047 -0.7138
12476TIP3   OH258842   1.360   5.068   5.764 -0.3698  0.5163 -0.2809
12476TIP3    H158843   1.274   5.097   5.736 -0.5850 -0.0078 -0.1803
12476TIP3    H258844   1.358   5.073   5.860 -0.0414  1.1846 -0.3078
12477TIP3   OH258845   4.233   5.522   0.753 -0.1698  0.5529 -0.0252
12477TIP3    H158846   4.327   5.536   0.737 -0.1693 -0.0051 -0.5385
12477TIP3    H258847   4.197   5.610   0.759  0.3545  0.7741 -0.0519
12478TIP3   OH258848   6.481   1.593   1.385  0.6420  0.2902 -0.8736
12478TIP3    H158849   6.574   1.598   1.408  1.0121  0.8592 -2.3866
12478TIP3    H258850   6.479   1.554   1.298 -0.5291  0.3756 -0.9074
12479TIP3   OH258851   2.782   4.204   4.320 -0.5065  0.2910 -0.4597
12479TIP3    H158852   2.752   4.241   4.403 -0.5075  0.6335 -0.6100
12479TIP3    H258853   2.845   4.137   4.345 -0.3943  0.4956 -0.1878
12480TIP3   OH258854   2.701   5.879  16.832  0.2159  0.2268 -0.0989
12480TIP3    H158855   2.754   5.952  16.799 -0.8096  1.7224  1.4052
12480TIP3    H258856   2.612   5.913  16.832 -0.6089 -1.8136 -1.3945
12481TIP3   OH258857   3.628   3.523  16.174 -0.3961  0.3895 -0.8515
12481TIP3    H158858   3.558   3.497  16.234 -0.9858 -2.8511 -2.6965
12481TIP3    H258859   3.610   3.474  16.094  2.4983  1.5461 -2.3522
12482TIP3   OH258860   4.949   6.150  14.908 -0.2536 -0.7289 -0.2683
12482TIP3    H158861   4.898   6.087  14.958  0.9962 -0.7862  0.9928
12482TIP3    H258862   5.040   6.128  14.927  0.2314  0.6055 -0.8902
12483TIP3   OH258863   1.083   6.384   2.009 -0.4479 -0.3468 -0.2391
12483TIP3    H158864   0.990   6.372   2.028 -0.8921  0.2673 -1.9323
12483TIP3    H258865   1.086   6.445   1.936  1.2512 -1.1656 -0.9107
12484TIP3   OH258866   1.468   1.147  14.953  0.2978  0.1467  0.0405
12484TIP3    H158867   1.452   1.224  15.008  1.6276  0.5725 -0.1292
12484TIP3    H258868   1.538   1.175  14.893 -1.0415 -0.3215 -1.8225
12485TIP3   OH258869   6.482   6.310  14.236 -0.0385  0.5857 -0.0108
12485TIP3    H158870   6.534   6.266  14.305  1.2000  1.0470 -0.6138
12485TIP3    H258871   6.414   6.356  14.284  0.3473  0.2876  0.8588
12486TIP3   OH258872   1.129   3.210   3.281  0.8739 -0.8799 -1.3048
12486TIP3    H158873   1.085   3.205   3.366  2.3132 -1.0279 -0.5320
12486TIP3    H258874   1.063   3.245   3.222 -0.4641 -1.6814 -0.3484
12487TIP3   OH258875   5.613   3.628  11.007 -0.2610 -0.3106  0.6854
12487TIP3    H158876   5.584   3.715  11.034 -0.4555 -0.5105  1.1282
12487TIP3    H258877   5.686   3.645  10.947 -0.9294  0.1841 -0.0193
12488TIP3   OH258878   3.430   1.290   0.409  0.2421  0.1166  0.3456
12488TIP3    H158879   3.338   1.284   0.435 -0.5808  0.4920 -2.2482
12488TIP3    H258880   3.445   1.384   0.395  0.0099 -0.1815 -2.3679
12489TIP3   OH258881   0.162   4.131  11.605 -0.0633 -0.1141  0.1300
12489TIP3    H158882   0.233   4.196  11.608 -1.1954  1.1805 -0.2169
12489TIP3    H258883   0.114   4.143  11.687 -1.1765  0.5638 -0.5951
12490TIP3   OH258884   3.256   3.183  12.065  0.1862  0.4951  0.2407
12490TIP3    H158885   3.311   3.133  12.004  0.1904 -1.2815  1.6162
12490TIP3    H258886   3.168   3.177  12.029  0.0430 -1.2811  0.7907
12491TIP3   OH258887   2.138   2.965   5.723  0.5867  0.2890 -0.4672
12491TIP3    H158888   2.045   2.983   5.709  0.7148  3.1413  1.4497
12491TIP3    H258889   2.146   2.870   5.717 -2.3132  0.0091 -1.2350
12492TIP3   OH258890   0.988   0.304  12.914 -0.0422 -0.4512  0.0485
12492TIP3    H158891   0.959   0.213  12.903 -0.9533 -0.3529  1.3988
12492TIP3    H258892   1.051   0.317  12.844 -2.0956 -1.1856 -2.0481
12493TIP3   OH258893   5.620   5.032  16.810  0.2673  0.2478  0.5219
12493TIP3    H158894   5.574   4.993  16.884  0.2822 -1.5076 -0.3318
12493TIP3    H258895   5.711   5.004  16.820  0.2709 -0.0084 -0.1225
12494TIP3   OH258896   5.479   1.990  11.001  0.2646 -0.0711 -0.2536
12494TIP3    H158897   5.393   1.958  10.976  0.1846 -0.3388  0.3570
12494TIP3    H258898   5.532   1.981  10.922 -0.0626 -0.6261 -0.4151
12495TIP3   OH258899   0.328   6.259  10.899 -1.0810  0.6152  0.0897
12495TIP3    H158900   0.274   6.189  10.864 -1.5690  1.7104 -1.4898
12495TIP3    H258901   0.373   6.295  10.822 -0.2622  1.5264  0.9622
12496TIP3   OH258902   0.873   4.892   6.227 -0.1485  0.5186  0.6398
12496TIP3    H158903   0.819   4.825   6.187 -0.7831  2.2010 -1.5336
12496TIP3    H258904   0.812   4.944   6.280 -0.3533  1.2935 -0.3164
12497TIP3   OH258905   5.247   3.314  14.827 -0.1103 -0.2422  0.1557
12497TIP3    H158906   5.303   3.292  14.901  0.7836 -1.5873 -0.8687
12497TIP3    H258907   5.288   3.270  14.752 -1.1293  0.8511 -1.0925
12498TIP3   OH258908   4.823   2.507   4.903  0.1398  0.6168 -0.1170
12498TIP3    H158909   4.782   2.515   4.989 -0.7460  0.3894 -0.5072
12498TIP3    H258910   4.862   2.593   4.887  0.3221  0.6559  0.5151
12499TIP3   OH258911   5.289   0.429   2.608 -0.2672  0.2293 -0.4660
12499TIP3    H158912   5.221   0.474   2.657 -0.9004 -2.2368  1.1010
12499TIP3    H258913   5.351   0.399   2.675  0.6093 -0.3933 -1.5227
12500TIP3   OH258914   1.924   5.375   0.417 -0.1523  0.0714 -0.1314
12500TIP3    H158915   1.937   5.364   0.511 -1.9693  2.2100  0.4451
12500TIP3    H258916   1.872   5.299   0.391  1.7304 -1.4038  0.1923
12501TIP3   OH258917   5.500   4.413   2.484  0.6045  0.1886 -0.0596
12501TIP3    H158918   5.531   4.322   2.484 -1.6052 -0.6395  0.3757
12501TIP3    H258919   5.507   4.440   2.576  0.2877  0.0923 -0.0071
12502TIP3   OH258920   6.751   1.581   1.559 -0.4191 -0.0172  0.1991
12502TIP3    H158921   6.748   1.673   1.586 -0.3080 -0.1262  0.5817
12502TIP3    H258922   6.709   1.534   1.631 -0.3913 -0.2793  0.0443
12503TIP3   OH258923   0.037   5.098  10.606 -0.2742 -0.2756 -0.4832
12503TIP3    H158924   0.101   5.144  10.551  0.5388 -2.0051 -1.0602
12503TIP3    H258925   0.015   5.019  10.557 -3.1068  0.3699 -0.4101
12504TIP3   OH258926   1.848   1.453   3.168 -0.0649  0.4179 -0.3814
12504TIP3    H158927   1.932   1.495   3.150 -0.8163  1.5660 -1.3759
12504TIP3    H258928   1.809   1.506   3.238  0.0559 -0.1604  0.1358
12505TIP3   OH258929   0.008   2.078   0.748 -0.3183 -0.2047  0.9720
12505TIP3    H158930   0.078   2.029   0.705 -0.7531 -1.6158  1.7894
12505TIP3    H258931  -0.066   2.072   0.688  0.2727  1.4643  0.0114
12506TIP3   OH258932   3.081   2.772   0.268  0.0520 -0.1365 -0.7692
12506TIP3    H158933   3.087   2.859   0.228  0.9739  1.5299  2.6242
12506TIP3    H258934   3.171   2.749   0.290 -0.4821  0.0478  2.0416
12507TIP3   OH258935   4.116   5.526   2.074  0.5523  0.2514 -0.9268
12507TIP3    H158936   4.126   5.450   2.131  0.0615  0.9445  0.1162
12507TIP3    H258937   4.196   5.577   2.088  0.7047  0.1260 -1.3266
12508TIP3   OH258938   5.474   2.090   4.534  0.1999 -0.1342 -0.2469
12508TIP3    H158939   5.422   2.016   4.564 -0.5007  0.3443 -0.2700
12508TIP3    H258940   5.413   2.143   4.483  1.3883 -1.0954 -2.8526
12509TIP3   OH258941   0.672   6.631  15.894 -0.3401  0.2498 -0.1519
12509TIP3    H158942   0.759   6.666  15.915 -0.2775 -0.9124  1.7464
12509TIP3    H258943   0.687   6.571  15.822  0.4813 -0.0928  0.2888
12510TIP3   OH258944   3.618   5.375  15.275  0.4677 -0.6035  0.1022
12510TIP3    H158945   3.532   5.414  15.293  0.3614 -0.4955 -0.5992
12510TIP3    H258946   3.676   5.415  15.340 -0.2224 -1.5402  1.3357
12511TIP3   OH258947   1.673   2.939  16.851 -0.4840 -0.1369  0.0068
12511TIP3    H158948   1.601   2.999  16.870 -0.0042  0.5168 -0.1751
12511TIP3    H258949   1.732   2.990  16.795  0.3764 -0.4703  0.5795
12512TIP3   OH258950   4.856   1.509   0.411  0.7174  1.0892 -0.0423
12512TIP3    H158951   4.853   1.601   0.383  1.2938  0.8190 -1.0260
12512TIP3    H258952   4.859   1.514   0.507 -1.3665  2.0363  0.0294
12513TIP3   OH258953   3.401   4.563   4.838  0.5278  1.0333  0.4595
12513TIP3    H158954   3.387   4.625   4.910 -0.3696  0.0633  1.1473
12513TIP3    H258955   3.396   4.477   4.880  1.6120  0.4733 -0.5005
12514TIP3   OH258956   0.938   1.980   1.740 -0.3165  0.1978  0.0507
12514TIP3    H158957   1.011   1.927   1.709  0.6856  1.8368 -0.5224
12514TIP3    H258958   0.882   1.990   1.664  1.3117  2.8518 -0.9155
12515TIP3   OH258959   2.076   1.569   3.138 -0.1889 -0.3282 -0.5732
12515TIP3    H158960   2.130   1.623   3.080 -0.4441 -0.4249 -0.9009
12515TIP3    H258961   2.111   1.481   3.130  1.4212  0.0667  1.3519
12516TIP3   OH258962   4.607   1.745  12.901 -0.5550  0.0865  0.2016
12516TIP3    H158963   4.612   1.660  12.944 -0.6774  0.2191  0.4831
12516TIP3    H258964   4.519   1.748  12.865 -1.2727  0.8749  1.8718
12517TIP3   OH258965   4.624   1.850   2.594 -0.0306  0.2148  0.0183
12517TIP3    H158966   4.568   1.773   2.605  1.4332 -0.8545  0.3402
12517TIP3    H258967   4.640   1.881   2.683 -0.8867  1.1095 -0.1312
12518TIP3   OH258968   6.479   4.074   1.545 -0.3105  0.2020 -0.5595
12518TIP3    H158969   6.417   4.017   1.500  0.2499 -1.0331  0.1864
12518TIP3    H258970   6.506   4.024   1.622  0.2411  1.4630  0.0943
12519TIP3   OH258971   1.149   3.898  16.984 -0.5845 -0.0330 -0.4030
12519TIP3    H158972   1.207   3.973  16.971 -0.7557  0.2347  0.3450
12519TIP3    H258973   1.093   3.897  16.906  1.2642 -1.0828 -1.7993
12520TIP3   OH258974   0.545   0.759   1.571 -0.7788  0.4806 -0.2825
12520TIP3    H158975   0.542   0.854   1.566  1.2410  0.6046  0.0827
12520TIP3    H258976   0.573   0.730   1.484  2.5885  0.5535  0.6487
12521TIP3   OH258977   6.122   3.600  13.131  0.3110  0.2770 -0.4301
12521TIP3    H158978   6.201   3.581  13.081  0.7244  0.0570  0.2938
12521TIP3    H258979   6.069   3.521  13.124  1.5707 -0.8410  1.7144
12522TIP3   OH258980   3.153   2.969   0.062 -0.1435  0.0751  0.3205
12522TIP3    H158981   3.114   2.893   0.018  1.2819 -1.7221  1.9792
12522TIP3    H258982   3.089   3.039   0.050 -0.0804 -0.3248 -4.1644
12523TIP3   OH258983   2.772   3.706   5.476 -0.1857  0.0870 -0.2612
12523TIP3    H158984   2.861   3.737   5.457 -0.8539  1.9697 -0.4035
12523TIP3    H258985   2.773   3.691   5.571 -0.0598  1.2997 -0.0550
12524TIP3   OH258986   3.308   0.526  12.985 -0.1874 -0.0920  0.0638
12524TIP3    H158987   3.324   0.465  13.057  0.8090  1.0676  0.8786
12524TIP3    H258988   3.222   0.564  13.004 -0.9448 -1.4233 -0.6121
12525TIP3   OH258989   4.123   2.339   5.610  0.4802 -0.2269 -0.2327
12525TIP3    H158990   4.103   2.366   5.699 -0.2776  0.0244 -0.4642
12525TIP3    H258991   4.074   2.257   5.598  1.4383 -0.8306 -0.0732
12526TIP3   OH258992   1.304   4.125   2.564 -0.0960  0.0752  0.2094
12526TIP3    H158993   1.293   4.030   2.571 -2.2115  0.3237  0.9601
12526TIP3    H258994   1.381   4.143   2.618  1.1165 -1.2978 -0.9457
12527TIP3   OH258995   4.323   4.830  15.691 -0.2467 -0.2649  0.6149
12527TIP3    H158996   4.411   4.861  15.711  0.4827 -2.6157  1.3057
12527TIP3    H258997   4.281   4.905  15.647  1.3937  1.6043  2.0253
12528TIP3   OH258998   1.216   4.127  10.192 -0.3757 -0.5475  0.3702
12528TIP3    H158999   1.141   4.178  10.223 -1.0261 -0.1039 -1.7401
12528TIP3    H259000   1.284   4.143  10.257 -1.5399  0.5176  1.3926
12529TIP3   OH259001   0.281   6.537  13.045 -0.1803 -0.5389 -0.0513
12529TIP3    H159002   0.224   6.577  12.979 -0.7436  0.4384  0.9888
12529TIP3    H259003   0.365   6.582  13.033 -0.1866 -0.5854 -0.2906
12530TIP3   OH259004   2.819   0.730   1.122  0.0645 -0.1191  0.2331
12530TIP3    H159005   2.829   0.824   1.109  1.7216  0.0356  2.1374
12530TIP3    H259006   2.872   0.690   1.053  1.2869  0.4319  0.8222
12531TIP3   OH259007   0.268   4.442   1.462  0.1522 -0.1718  0.3768
12531TIP3    H159008   0.180   4.478   1.467  0.0852 -0.4899  2.6862
12531TIP3    H259009   0.265   4.382   1.388 -1.0672  1.0502 -0.6117
12532TIP3   OH259010   5.055   5.058   5.026  0.0158 -0.3908  0.4364
12532TIP3    H159011   5.039   4.997   5.098 -0.1877  0.3366  1.0167
12532TIP3    H259012   5.151   5.058   5.015 -0.0816 -3.4516 -1.9193
12533TIP3   OH259013   6.345   3.379  13.260  0.3727 -0.3622 -0.1560
12533TIP3    H159014   6.391   3.448  13.309 -0.9001  0.1433  0.3704
12533TIP3    H259015   6.372   3.392  13.170  3.2886 -1.7138  0.4075
12534TIP3   OH259016   6.579   6.008  11.103 -0.0397 -0.0648 -0.1805
12534TIP3    H159017   6.531   5.932  11.135  1.6719 -2.0478 -1.9564
12534TIP3    H259018   6.664   5.973  11.076  0.6698  2.4169 -1.4838
12535TIP3   OH259019   6.130   1.846  16.321  0.1548  0.2419 -0.3931
12535TIP3    H159020   6.070   1.918  16.343 -2.6725 -2.2913  0.8642
12535TIP3    H259021   6.187   1.838  16.397 -1.6238 -0.8035  0.8731
12536TIP3   OH259022   3.968   6.237   3.561 -0.0939  0.2976  0.3019
12536TIP3    H159023   3.945   6.218   3.652  0.5223 -1.4382  0.1355
12536TIP3    H259024   3.965   6.152   3.517 -3.7604  1.4831 -2.1690
12537TIP3   OH259025   3.945   5.159  14.911  0.0420  0.5707 -0.2206
12537TIP3    H159026   3.915   5.069  14.925 -0.3435  0.7448  0.1208
12537TIP3    H259027   3.953   5.195  14.999 -1.3529  1.3556 -0.3768
12538TIP3   OH259028   2.489   3.955  11.397  0.0893 -0.1799 -0.9504
12538TIP3    H159029   2.399   3.975  11.425  0.5634  2.0310 -0.7816
12538TIP3    H259030   2.497   3.861  11.407 -1.0056 -0.0303  2.7525
12539TIP3   OH259031   0.350   6.399   3.802  0.3494 -0.1747 -0.0196
12539TIP3    H159032   0.257   6.388   3.821  0.2498  0.6296 -0.0111
12539TIP3    H259033   0.375   6.479   3.849  0.5838  0.6870 -1.5301
12540TIP3   OH259034   0.309   2.822   5.167 -0.3882  0.1278  0.1319
12540TIP3    H159035   0.382   2.773   5.128 -0.9350 -0.0782 -0.6579
12540TIP3    H259036   0.264   2.862   5.093 -1.2714 -0.0089  0.5752
12541TIP3   OH259037   6.550   0.728   4.518  0.2899 -0.1791 -0.0922
12541TIP3    H159038   6.460   0.724   4.484  0.0899  0.3529  0.3522
12541TIP3    H259039   6.551   0.807   4.572  1.1920  0.1405 -0.5635
12542TIP3   OH259040   2.107   3.872  14.075  0.0622 -0.0110 -0.4027
12542TIP3    H159041   2.046   3.912  14.137  1.1233  1.2452 -0.1305
12542TIP3    H259042   2.100   3.925  13.996  1.0111  0.3608 -0.2586
12543TIP3   OH259043   5.181   2.123   4.409  0.5822  0.6070 -0.3508
12543TIP3    H159044   5.170   2.030   4.431 -0.8832  1.1149  1.2720
12543TIP3    H259045   5.122   2.137   4.335  0.6802  0.2864 -0.4920
12544TIP3   OH259046   6.768   6.264  11.307 -0.0004 -0.3261  0.0356
12544TIP3    H159047   6.734   6.176  11.321  1.2867 -0.8212  0.1942
12544TIP3    H259048   6.819   6.283  11.385 -0.8468  0.8711  0.3321
12545TIP3   OH259049   2.543   0.590   0.299 -0.0056  0.0746  0.4216
12545TIP3    H159050   2.632   0.599   0.266  0.1327 -0.0815  0.7422
12545TIP3    H259051   2.524   0.496   0.293 -0.3388  0.1752 -0.1269
12546TIP3   OH259052   4.106   5.018   3.338 -0.1897  0.1032 -0.3058
12546TIP3    H159053   4.142   4.995   3.253  0.4541 -0.2430  0.0566
12546TIP3    H259054   4.056   5.099   3.322  0.5257  0.4436 -0.8608
12547TIP3   OH259055   6.638   1.823  15.153 -0.5629  0.1061 -0.5088
12547TIP3    H159056   6.585   1.897  15.124 -1.0634 -0.3049 -0.6408
12547TIP3    H259057   6.728   1.855  15.147 -0.8432  1.3537  1.1995
12548TIP3   OH259058   3.007   2.674  16.303 -0.4420  0.3352  0.9315
12548TIP3    H159059   2.990   2.766  16.322  1.6155  0.7500  1.0052
12548TIP3    H259060   2.983   2.664  16.210  1.5204  1.5903  0.2363
12549TIP3   OH259061   6.020   5.115   3.185 -0.8220  0.0723  0.4392
12549TIP3    H159062   6.067   5.198   3.196 -3.0158  1.2895  1.2447
12549TIP3    H259063   6.014   5.080   3.274  2.4959 -2.5111 -0.1259
12550TIP3   OH259064   4.337   3.586   4.303  0.3256 -0.4433  0.7490
12550TIP3    H159065   4.270   3.524   4.274 -0.1911  0.1046  0.7604
12550TIP3    H259066   4.419   3.552   4.266 -0.3190  0.3097 -1.5149
12551TIP3   OH259067   5.498   5.469   1.486 -0.8596  0.5689  0.1195
12551TIP3    H159068   5.567   5.458   1.421 -0.6612 -0.2143  0.4531
12551TIP3    H259069   5.533   5.429   1.565 -1.5707  0.4511  0.3805
12552TIP3   OH259070   5.700   4.699  16.893 -0.0995 -0.5161  0.4482
12552TIP3    H159071   5.626   4.640  16.908 -1.9403  1.8687  1.3534
12552TIP3    H259072   5.734   4.716  16.981 -0.9531  1.3298  0.4722
12553TIP3   OH259073   0.342   0.497   1.183 -0.1232 -0.0405 -0.8315
12553TIP3    H159074   0.272   0.562   1.197  1.6672  2.7120 -3.4709
12553TIP3    H259075   0.296   0.419   1.153 -2.2710  0.6069  0.5442
12554TIP3   OH259076   2.073   2.422   1.036  0.4883 -1.1536 -0.2890
12554TIP3    H159077   2.101   2.367   1.110  0.3740 -0.4409  0.2950
12554TIP3    H259078   2.076   2.511   1.070 -0.6729 -0.9071 -0.7927
12555TIP3   OH259079   2.935   3.126   0.835 -0.2659 -0.0548 -0.4800
12555TIP3    H159080   2.845   3.146   0.806 -0.6459  0.9209  1.2667
12555TIP3    H259081   2.945   3.032   0.817 -0.4584  0.4040 -3.6204
12556TIP3   OH259082   1.566   0.371   6.642  0.0788 -0.3320  0.3871
12556TIP3    H159083   1.612   0.324   6.712  1.0025  2.0710  1.4958
12556TIP3    H259084   1.487   0.405   6.685 -0.2402 -0.2910 -0.2228
12557TIP3   OH259085   2.404   6.761   0.783  0.1907  0.2595  0.1666
12557TIP3    H159086   2.493   6.739   0.812  1.6332  1.7094 -2.7570
12557TIP3    H259087   2.399   6.730   0.693 -1.9195  1.1478 -0.0879
12558TIP3   OH259088   4.354   5.268   3.548  0.8385 -0.1611 -0.0540
12558TIP3    H159089   4.360   5.191   3.491  3.0024 -1.0855  1.3053
12558TIP3    H259090   4.431   5.263   3.604 -0.7245  1.1446  2.4197
12559TIP3   OH259091   2.891   4.231   0.146 -0.5022  0.0216 -0.7584
12559TIP3    H159092   2.837   4.154   0.127 -0.5014  0.2604 -1.8124
12559TIP3    H259093   2.853   4.300   0.092  0.6221  0.2888 -1.2266
12560TIP3   OH259094   6.274   4.529   2.801  0.4887  0.5939 -0.2637
12560TIP3    H159095   6.195   4.542   2.854  0.7781  1.9683 -0.1275
12560TIP3    H259096   6.241   4.514   2.712 -0.0101 -2.0264  0.2877
12561TIP3   OH259097   1.122   4.677  15.432 -0.1124  0.3072 -0.0650
12561TIP3    H159098   1.147   4.758  15.389 -0.0585  0.2987 -0.0506
12561TIP3    H259099   1.027   4.680  15.437 -0.1947 -0.1777 -1.1369
12562TIP3   OH259100   2.261   2.619   0.252 -0.0160 -0.2561  0.5076
12562TIP3    H159101   2.333   2.680   0.269 -1.3448  1.6063 -0.1858
12562TIP3    H259102   2.210   2.662   0.183 -1.7725 -1.5175  0.9689
12563TIP3   OH259103   6.134   3.625   4.079  0.2829 -0.0424 -0.2602
12563TIP3    H159104   6.135   3.721   4.078 -2.3059  0.0475 -0.6924
12563TIP3    H259105   6.121   3.600   3.988  0.1145 -0.7664 -0.0449
12564TIP3   OH259106   6.560   0.472  14.232  0.0618  1.0160 -0.0840
12564TIP3    H159107   6.491   0.488  14.296 -1.6555  1.0001 -1.8367
12564TIP3    H259108   6.592   0.559  14.208  0.0520  1.0725  0.1071
12565TIP3   OH259109   4.023   5.450  11.928 -0.8245 -0.5720  0.1606
12565TIP3    H159110   3.954   5.383  11.930 -1.2620 -0.1695 -0.9061
12565TIP3    H259111   4.005   5.504  12.005 -2.8711  0.6463 -1.0711
12566TIP3   OH259112   6.414   0.321  10.997 -0.1872  0.1596 -0.1442
12566TIP3    H159113   6.389   0.261  11.067  2.3206  0.5256  1.1900
12566TIP3    H259114   6.371   0.404  11.021 -1.4554 -0.3678 -0.5140
12567TIP3   OH259115   4.883   5.648   5.181 -0.0213 -0.0522 -0.3253
12567TIP3    H159116   4.861   5.710   5.111  2.5434  0.0093 -1.1930
12567TIP3    H259117   4.908   5.703   5.255 -1.4317 -0.1167  0.2278
12568TIP3   OH259118   2.597   1.372  13.302  0.6582  0.1515 -0.3801
12568TIP3    H159119   2.594   1.467  13.299  0.5522  0.1517 -0.2861
12568TIP3    H259120   2.601   1.345  13.211 -3.4811  0.1187 -0.7368
12569TIP3   OH259121   5.743   4.256   3.270  0.0334  0.1093  0.2398
12569TIP3    H159122   5.690   4.217   3.340  1.7364 -0.9423  1.0190
12569TIP3    H259123   5.832   4.258   3.306  1.0600 -0.8868 -2.0496
12570TIP3   OH259124   2.760   2.773  14.637 -0.0927  0.5764  0.6586
12570TIP3    H159125   2.681   2.744  14.591 -0.8458  1.3624  1.4031
12570TIP3    H259126   2.799   2.838  14.579  1.0252 -1.0655 -0.5322
12571TIP3   OH259127   2.217   5.137   5.726 -0.0686  0.0195  0.3262
12571TIP3    H159128   2.269   5.157   5.648  0.2140  0.8341  0.7151
12571TIP3    H259129   2.139   5.092   5.692  0.2853 -0.0797 -0.3723
12572TIP3   OH259130   5.025   6.108   3.812  0.3600 -0.1318 -0.1215
12572TIP3    H159131   5.106   6.058   3.806  0.3332 -0.0787 -1.0564
12572TIP3    H259132   4.986   6.102   3.725  0.3724  1.5355 -0.2724
12573TIP3   OH259133   4.468   3.962  14.007  0.3429 -0.1889 -0.0977
12573TIP3    H159134   4.379   3.975  14.041  0.2255 -1.0718 -0.0436
12573TIP3    H259135   4.498   4.050  13.984 -0.6042  0.1056 -0.2523
12574TIP3   OH259136   0.692   4.466  14.966  0.6983  0.7668 -0.1921
12574TIP3    H159137   0.617   4.525  14.956  0.4742  0.5592  0.2516
12574TIP3    H259138   0.768   4.524  14.963  0.4298  1.2631  1.5600
12575TIP3   OH259139   1.119   4.358  17.081 -0.4337  0.2408  0.2783
12575TIP3    H159140   1.142   4.299  17.153 -2.0147  1.3118  1.7462
12575TIP3    H259141   1.140   4.308  17.002  0.8406 -1.1971  1.4603
12576TIP3   OH259142   1.982   3.151  11.895  0.7145 -0.1036  0.1990
12576TIP3    H159143   1.920   3.211  11.937  1.0582  0.6397 -0.3268
12576TIP3    H259144   2.045   3.208  11.851 -0.5239 -0.7588 -2.6768
12577TIP3   OH259145   4.302   5.412   5.708 -0.1783 -0.6229  0.7797
12577TIP3    H159146   4.245   5.489   5.708  1.0777  0.4177 -1.7620
12577TIP3    H259147   4.388   5.446   5.734  0.1796 -1.3371  0.5628
12578TIP3   OH259148   5.766   4.112  14.713  0.0797 -0.6706  0.3275
12578TIP3    H159149   5.726   4.045  14.658 -0.6146  1.0349 -1.3552
12578TIP3    H259150   5.693   4.156  14.755  0.4721 -0.3949  0.7362
12579TIP3   OH259151   2.866   4.871   4.908  0.3150  0.0236 -0.2109
12579TIP3    H159152   2.887   4.929   4.835 -2.0194 -1.5542 -2.3261
12579TIP3    H259153   2.834   4.929   4.977  0.4959  1.4227 -1.2697
12580TIP3   OH259154   0.134   3.522   2.224  0.3434 -0.0128  0.0699
12580TIP3    H159155   0.203   3.551   2.283  1.4714  1.9845 -2.0691
12580TIP3    H259156   0.111   3.600   2.174 -2.6505 -0.9000 -0.1466
12581TIP3   OH259157   2.562   2.924  14.911  0.2748 -0.0432 -0.5599
12581TIP3    H159158   2.605   2.911  14.827  1.3477  0.8328 -0.1633
12581TIP3    H259159   2.614   2.990  14.956 -1.6801  1.3447 -0.1876
12582TIP3   OH259160   5.000   5.154  15.767  0.3640  0.8245  0.0262
12582TIP3    H159161   4.984   5.138  15.673 -1.3432  2.1477  0.0540
12582TIP3    H259162   5.094   5.139  15.777  0.6564  0.9636 -1.9661
12583TIP3   OH259163   4.062   2.141  13.540 -0.4659  0.4823 -0.3298
12583TIP3    H159164   4.101   2.111  13.622 -1.9754 -1.9916 -0.3978
12583TIP3    H259165   4.022   2.225  13.562 -0.6545 -0.0313  1.4634
12584TIP3   OH259166   0.654   6.691   4.594  0.0447 -0.2092 -0.4260
12584TIP3    H159167   0.745   6.664   4.607 -0.2149 -0.3506  1.3056
12584TIP3    H259168   0.626   6.641   4.517  1.6616  0.5097 -1.5471
12585TIP3   OH259169   4.157   2.654   0.313  0.3895 -0.1462  0.1216
12585TIP3    H159170   4.147   2.625   0.403 -0.2816  1.6237  0.6591
12585TIP3    H259171   4.092   2.723   0.302  0.5907 -0.1742 -1.6627
12586TIP3   OH259172   4.390   4.916  12.474 -0.4611 -0.3824  0.2260
12586TIP3    H159173   4.389   5.007  12.447 -1.5272 -0.3988  0.1526
12586TIP3    H259174   4.434   4.916  12.559  0.3215  0.0665 -0.1744
12587TIP3   OH259175   5.563   6.447   5.295 -0.3654  0.4576 -0.1516
12587TIP3    H159176   5.614   6.526   5.279 -0.9427  0.5958 -1.4442
12587TIP3    H259177   5.596   6.414   5.379  1.8557  0.5114 -0.9440
12588TIP3   OH259178   5.481   2.014   1.354 -0.2961  0.2741  0.0826
12588TIP3    H159179   5.469   2.072   1.279 -0.0083  0.8483  0.4791
12588TIP3    H259180   5.575   2.005   1.363 -0.3133  0.7163  0.7590
12589TIP3   OH259181   1.326   2.556   2.142 -0.0881 -0.1149  0.1667
12589TIP3    H159182   1.403   2.604   2.112 -0.6828  0.3060 -0.7252
12589TIP3    H259183   1.355   2.512   2.223  1.2492 -0.4415 -0.4559
12590TIP3   OH259184   3.407   1.282  15.608 -0.1760 -0.1549 -0.3502
12590TIP3    H159185   3.464   1.350  15.645  0.1532  0.0531 -1.2180
12590TIP3    H259186   3.395   1.220  15.680  0.0858  0.4642  0.2420
12591TIP3   OH259187   5.465   2.511  12.564 -0.4811 -0.7540  0.3607
12591TIP3    H159188   5.550   2.553  12.555 -0.6380 -0.5364 -0.1188
12591TIP3    H259189   5.425   2.518  12.477 -2.4391  2.2446  1.3595
12592TIP3   OH259190   3.210   0.121  14.387  0.2130 -0.0862 -0.1047
12592TIP3    H159191   3.298   0.142  14.356  0.3578 -0.1406  0.2571
12592TIP3    H259192   3.151   0.171  14.331  0.5511  1.4077  0.8223
12593TIP3   OH259193   5.209   3.937   4.378 -0.1934  0.3879  0.2681
12593TIP3    H159194   5.294   3.896   4.397 -0.6674 -0.7130  0.0896
12593TIP3    H259195   5.213   3.960   4.286 -0.0496  0.4349  0.2859
12594TIP3   OH259196   0.976   4.676   0.019  0.2892 -0.6212  0.1267
12594TIP3    H159197   0.941   4.765   0.018  1.0924 -0.2851  0.5822
12594TIP3    H259198   0.919   4.629   0.081 -0.2715 -0.4884 -0.2822
12595TIP3   OH259199   0.129   1.825  12.557 -0.0244 -0.5381 -0.8548
12595TIP3    H159200   0.215   1.787  12.539 -0.1205 -0.1815 -2.1245
12595TIP3    H259201   0.099   1.779  12.636  1.2190 -0.8270 -0.5259
12596TIP3   OH259202   0.245   3.911   0.641  0.0635 -0.7241  0.1146
12596TIP3    H159203   0.235   4.006   0.641 -0.8969 -0.8024 -0.7575
12596TIP3    H259204   0.168   3.880   0.689 -0.5251 -1.1119 -1.0482
12597TIP3   OH259205   1.725   3.376   4.833  0.0074 -0.0212 -0.4009
12597TIP3    H159206   1.802   3.325   4.858 -0.1719 -0.3075 -0.4280
12597TIP3    H259207   1.663   3.311   4.798 -0.7258  0.0390  0.7430
12598TIP3   OH259208   0.446   3.427  12.056  0.0423  0.3927  0.2112
12598TIP3    H159209   0.409   3.374  12.126 -1.8445  1.2625 -0.0895
12598TIP3    H259210   0.502   3.490  12.101  1.8967 -1.4137  0.6113
12599TIP3   OH259211   1.793   3.138   1.001  0.0322  0.3554 -0.5946
12599TIP3    H159212   1.726   3.080   0.965 -1.1244  1.2809  0.0237
12599TIP3    H259213   1.751   3.223   1.008  1.3749  1.0451 -0.4818
12600TIP3   OH259214   3.485   1.936   1.614  0.1486  0.5812 -0.5631
12600TIP3    H159215   3.515   1.849   1.587 -2.9100 -1.2483  1.2340
12600TIP3    H259216   3.557   1.995   1.592  3.8206 -2.8405  1.1129
12601TIP3   OH259217   2.428   0.165   3.525 -0.4245 -0.0632  0.1804
12601TIP3    H159218   2.370   0.128   3.458  0.6719  0.6078 -1.1996
12601TIP3    H259219   2.441   0.256   3.497  0.7041 -0.0061  0.8451
12602TIP3   OH259220   0.951   4.556   3.063 -0.5892  0.5422 -0.3185
12602TIP3    H159221   0.995   4.585   3.143 -1.6361 -1.5416  1.1336
12602TIP3    H259222   1.001   4.480   3.034 -1.9573 -0.6128  0.1970
12603TIP3   OH259223   6.337   1.752  12.969  0.3657  0.2556 -0.0227
12603TIP3    H159224   6.410   1.774  12.912  0.8762  0.9166  0.8523
12603TIP3    H259225   6.265   1.807  12.939  0.4965  0.2730 -0.3028
12604TIP3   OH259226   6.775   6.480  13.662  0.1655  0.0449 -0.1245
12604TIP3    H159227   6.689   6.491  13.701 -0.9397 -2.0572 -1.7381
12604TIP3    H259228   6.774   6.390  13.628  2.3302  0.5605 -1.7521
12605TIP3   OH259229   1.454   1.521   6.083 -0.1801  0.5353  0.3622
12605TIP3    H159230   1.488   1.462   6.016 -0.6788  0.4954  0.1393
12605TIP3    H259231   1.514   1.595   6.083 -0.8190  1.0746 -0.9388
12606TIP3   OH259232   4.036   4.855  11.599 -0.4436  0.2703 -0.5504
12606TIP3    H159233   4.033   4.864  11.694 -0.5349 -0.8983 -0.4219
12606TIP3    H259234   4.104   4.915  11.570  0.5498 -0.3725  0.4068
12607TIP3   OH259235   6.031   2.781   5.496  0.1297 -0.3717  0.5661
12607TIP3    H159236   5.950   2.756   5.452  0.0788  0.1101  0.3770
12607TIP3    H259237   6.015   2.763   5.588 -0.4471  0.3411  0.6208
12608TIP3   OH259238   0.631   4.101  13.187 -0.2380  0.2168  0.2339
12608TIP3    H159239   0.703   4.038  13.187 -0.8846 -0.7155  3.5623
12608TIP3    H259240   0.669   4.180  13.150  1.1204 -1.5051 -2.3910
12609TIP3   OH259241   1.555   0.873   2.113  0.2584 -0.0673  0.6652
12609TIP3    H159242   1.539   0.962   2.082  0.8958  0.3115  1.3700
12609TIP3    H259243   1.594   0.828   2.039  1.5067  0.7443  0.7928
12610TIP3   OH259244   6.584   2.470   5.464  0.1540  0.0988  0.7524
12610TIP3    H159245   6.612   2.550   5.420  0.5707 -0.3761  0.1288
12610TIP3    H259246   6.527   2.426   5.401  1.4203 -0.9953  0.2971
12611TIP3   OH259247   3.066   0.400  12.311 -0.0189 -0.4257  0.0390
12611TIP3    H159248   3.100   0.462  12.375 -2.2536  0.1810  0.7272
12611TIP3    H259249   3.026   0.455  12.243  3.2078 -1.0025 -2.5630
12612TIP3   OH259250   5.424   5.834  15.713 -0.0408 -0.3021  0.2266
12612TIP3    H159251   5.340   5.859  15.752  0.9602  0.0509  2.3069
12612TIP3    H259252   5.433   5.741  15.734 -0.4326 -0.6679 -1.0950
12613TIP3   OH259253   0.244   4.433  11.827 -0.0272  0.0937  0.5924
12613TIP3    H159254   0.322   4.489  11.835  0.3980 -0.1931 -1.0917
12613TIP3    H259255   0.177   4.490  11.789  0.6152 -0.6285 -1.7963
12614TIP3   OH259256   2.121   5.911  14.718  0.1695 -0.1543 -0.1285
12614TIP3    H159257   2.120   5.987  14.776  0.3069 -0.4792  0.3077
12614TIP3    H259258   2.158   5.841  14.772 -0.4137 -0.6535 -0.3748
12615TIP3   OH259259   5.627   2.868  14.176 -0.6453  0.2025 -0.1031
12615TIP3    H159260   5.585   2.876  14.090 -1.5542  1.1860  0.4156
12615TIP3    H259261   5.720   2.885  14.159 -0.8206  0.4189 -0.8839
12616TIP3   OH259262   2.505   2.200   5.359  0.0399  0.0895  0.5621
12616TIP3    H159263   2.440   2.236   5.299  1.4354  1.4767 -0.1805
12616TIP3    H259264   2.584   2.251   5.343  0.7893 -0.2564  2.8125
12617TIP3   OH259265   3.091   5.944   1.333 -0.0663  0.3007  0.3518
12617TIP3    H159266   3.146   5.986   1.267  0.9699  0.7270  1.4632
12617TIP3    H259267   3.032   6.013   1.362  0.0163  0.3340  0.4415
12618TIP3   OH259268   1.447   6.708   1.907 -0.3550 -0.1985 -0.1014
12618TIP3    H159269   1.401   6.683   1.827  0.9686  0.1997 -1.0318
12618TIP3    H259270   1.536   6.728   1.878  0.4797 -1.1062  1.6374
12619TIP3   OH259271   6.773   6.426  11.548 -0.2835  0.2599 -0.6362
12619TIP3    H159272   6.738   6.492  11.608  0.3659 -0.4218  0.5388
12619TIP3    H259273   6.865   6.451  11.538 -0.4493  0.5125 -1.5640
12620TIP3   OH259274   3.487   2.609   0.658 -0.3601  0.2664 -0.2782
12620TIP3    H159275   3.502   2.666   0.733 -0.0643  0.1394 -0.2396
12620TIP3    H259276   3.449   2.667   0.591 -0.6617  0.3697 -0.0195
12621TIP3   OH259277   5.724   2.667   4.825  0.5032 -0.0929 -0.1191
12621TIP3    H159278   5.667   2.596   4.854  0.9117 -0.4262 -0.1245
12621TIP3    H259279   5.790   2.625   4.770  1.7854 -0.0021  1.2617
12622TIP3   OH259280   4.905   5.647  16.749  0.1222 -0.0305 -0.9743
12622TIP3    H159281   4.834   5.705  16.721  0.5308  0.4482 -1.0361
12622TIP3    H259282   4.982   5.678  16.701  0.5975  0.1035 -0.1457
12623TIP3   OH259283   2.537   6.199   4.476  0.6997 -0.1090 -0.3714
12623TIP3    H159284   2.544   6.226   4.385 -0.3893  1.6840  0.0278
12623TIP3    H259285   2.514   6.106   4.472  0.9667 -0.1283 -1.9106
12624TIP3   OH259286   6.753   1.527  10.755  0.6037 -0.1800 -0.2266
12624TIP3    H159287   6.792   1.440  10.744  1.5063  0.2771 -0.7454
12624TIP3    H259288   6.671   1.523  10.704  0.5040 -0.8031 -0.0256
12625TIP3   OH259289   2.328   0.811  11.928  0.1508 -0.5131 -0.0144
12625TIP3    H159290   2.415   0.821  11.890  0.2981 -1.9388 -0.0763
12625TIP3    H259291   2.294   0.901  11.932  2.0875  0.2357  1.1548
12626TIP3   OH259292   3.300   4.397   5.088  0.7356 -0.5319  0.1146
12626TIP3    H159293   3.259   4.438   5.164 -1.4938 -0.8340 -0.8561
12626TIP3    H259294   3.394   4.405   5.105  0.3830  2.6218  1.1669
12627TIP3   OH259295   1.058   6.283   4.667 -0.4317 -0.0410  0.2355
12627TIP3    H159296   1.139   6.280   4.616 -0.1479  0.3851  0.6531
12627TIP3    H259297   1.060   6.203   4.719 -0.9962 -0.7625 -0.8180
12628TIP3   OH259298   6.584   1.793  14.839 -0.1003 -0.4208 -0.0740
12628TIP3    H159299   6.571   1.854  14.911  0.6358  0.2176 -0.4579
12628TIP3    H259300   6.533   1.829  14.767  2.4474  1.3654 -1.1716
12629TIP3   OH259301   4.525   1.453  14.352  0.2025  0.0452  0.3433
12629TIP3    H159302   4.570   1.381  14.395 -0.2472 -0.2863  0.2712
12629TIP3    H259303   4.585   1.528  14.360  0.4572 -0.2085  0.8495
12630TIP3   OH259304   0.679   4.063  16.444  0.5461 -0.4473  0.7248
12630TIP3    H159305   0.631   3.982  16.433 -2.7150  1.5766 -1.6245
12630TIP3    H259306   0.769   4.042  16.417 -0.9662 -2.5530 -3.5151
12631TIP3   OH259307   5.247   5.187  13.792 -0.1640 -0.2983  0.2758
12631TIP3    H159308   5.172   5.130  13.807  0.8346 -2.0264 -1.0223
12631TIP3    H259309   5.292   5.191  13.876 -0.4989 -1.0341  0.4912
12632TIP3   OH259310   3.508   2.977   0.409 -0.1481 -0.1951  0.2282
12632TIP3    H159311   3.470   3.008   0.327 -1.5071 -1.0027  0.5078
12632TIP3    H259312   3.592   2.940   0.384  0.4551  1.5193 -0.4495
12633TIP3   OH259313   3.651   1.721   5.268 -0.3154 -0.7739 -0.0971
12633TIP3    H159314   3.691   1.657   5.210 -0.4069 -0.4185 -0.5542
12633TIP3    H259315   3.623   1.792   5.211  1.0554  0.3376  0.5619
12634TIP3   OH259316   0.510   6.363  11.988  0.1307 -0.1994 -0.0578
12634TIP3    H159317   0.516   6.274  11.955  0.7518  0.2411 -1.1838
12634TIP3    H259318   0.598   6.382  12.023 -0.7679 -1.0415  3.0136
12635TIP3   OH259319   1.759   2.790  13.859 -0.0116  0.2615 -0.2615
12635TIP3    H159320   1.731   2.871  13.901  0.6719  0.3767 -0.0139
12635TIP3    H259321   1.709   2.721  13.904 -0.9937  0.5773 -0.8380
12636TIP3   OH259322   0.025   3.485   5.374 -0.3684  0.2884  0.3016
12636TIP3    H159323   0.103   3.516   5.421  0.0118  1.2008 -0.8946
12636TIP3    H259324  -0.014   3.420   5.433  0.8966  0.3363  1.2315
12637TIP3   OH259325   5.787   1.348   6.486  0.3113  0.7528 -0.2091
12637TIP3    H159326   5.718   1.304   6.436  0.1872 -0.3564  0.9095
12637TIP3    H259327   5.860   1.286   6.486  0.1569  0.5479  1.3421
12638TIP3   OH259328   3.746   1.100  15.353 -0.6167 -0.2421 -0.4089
12638TIP3    H159329   3.821   1.068  15.403 -0.1288  1.2186 -0.1676
12638TIP3    H259330   3.678   1.034  15.367 -0.5193  0.1055  2.2067
12639TIP3   OH259331   0.014   6.276   2.001 -0.0192  0.5303  0.3551
12639TIP3    H159332   0.004   6.191   1.957 -0.8389  2.4968 -3.7468
12639TIP3    H259333   0.103   6.276   2.034  1.0862 -0.8876 -2.3110
12640TIP3   OH259334   5.066   4.326  10.728  0.2256  0.1910  0.2367
12640TIP3    H159335   5.067   4.402  10.670  1.4114 -0.2341 -0.3374
12640TIP3    H259336   5.105   4.357  10.809  0.4193  0.2778  0.1105
12641TIP3   OH259337   1.112   3.721   0.606 -0.1889  0.0525 -0.5213
12641TIP3    H159338   1.132   3.635   0.645 -2.6214 -1.0892 -1.5601
12641TIP3    H259339   1.049   3.759   0.666 -0.5489  0.2696 -1.0358
12642TIP3   OH259340   1.728   2.737  15.528  0.2942  0.1723  0.6426
12642TIP3    H159341   1.810   2.749  15.481  0.1756 -0.2721  0.3132
12642TIP3    H259342   1.752   2.746  15.620  0.2148  2.9190  0.4811
12643TIP3   OH259343   0.856   5.378  12.760 -0.0461 -0.0002 -0.1597
12643TIP3    H159344   0.763   5.391  12.775 -0.1178 -0.5400 -0.1415
12643TIP3    H259345   0.882   5.308  12.819  0.5001  0.5279  0.2512
12644TIP3   OH259346   0.519   4.780   6.158 -0.0316  0.7425  0.0248
12644TIP3    H159347   0.515   4.869   6.122 -0.6769 -0.1720 -2.3452
12644TIP3    H259348   0.588   4.737   6.108 -0.6167 -0.4516  0.2174
12645TIP3   OH259349   1.336   0.467  13.082  0.1770 -0.1455  0.3397
12645TIP3    H159350   1.309   0.557  13.067  0.7101  0.2090  1.3956
12645TIP3    H259351   1.341   0.428  12.994  0.7667  1.0940 -0.2035
12646TIP3   OH259352   6.215   3.113  14.589 -0.2909 -0.3714  0.0145
12646TIP3    H159353   6.136   3.165  14.579  0.5539  0.6061 -2.5747
12646TIP3    H259354   6.281   3.175  14.621 -0.1686 -0.7529  0.5048
12647TIP3   OH259355   3.031   2.830   1.292 -0.5411 -0.3105  0.3478
12647TIP3    H159356   3.122   2.857   1.276 -0.4114 -0.4240  0.8718
12647TIP3    H259357   2.978   2.899   1.252 -0.2357 -0.6026 -0.5896
12648TIP3   OH259358   2.254   0.945  11.574 -0.3519  0.5495 -0.7854
12648TIP3    H159359   2.214   0.859  11.557 -0.8978  0.8075 -0.8352
12648TIP3    H259360   2.235   0.963  11.666 -1.7299  1.3671 -1.2014
12649TIP3   OH259361   5.739   4.504   2.717 -0.1347  0.5722  0.7332
12649TIP3    H159362   5.782   4.533   2.637 -0.7401  0.7285  0.4618
12649TIP3    H259363   5.785   4.424   2.741  0.9209  1.2258  0.9614
12650TIP3   OH259364   1.170   6.013   2.480  0.2688  0.2723 -0.1082
12650TIP3    H159365   1.233   6.027   2.552 -0.6790  1.0875  0.6022
12650TIP3    H259366   1.163   5.918   2.472  2.0015  0.1588 -0.5807
12651TIP3   OH259367   3.214   0.379   2.275 -0.2906 -0.0196  0.5099
12651TIP3    H159368   3.146   0.312   2.269  0.3860 -0.5985 -1.0782
12651TIP3    H259369   3.291   0.340   2.233 -0.0662  1.9605 -1.0642
12652TIP3   OH259370   5.995   0.516   3.698  0.0451  0.7868  0.1171
12652TIP3    H159371   5.921   0.457   3.683  1.2669 -0.7364 -0.2329
12652TIP3    H259372   5.985   0.545   3.788 -0.3965 -0.2623  0.4177
12653TIP3   OH259373   4.904   0.756  14.901 -0.4369  0.6476  0.1503
12653TIP3    H159374   4.822   0.748  14.949 -0.2397  1.8677  0.7296
12653TIP3    H259375   4.878   0.782  14.813 -0.8082 -1.7354 -0.5121
12654TIP3   OH259376   0.891   3.611  14.627  0.0683 -0.4242  0.2117
12654TIP3    H159377   0.881   3.698  14.666 -0.8940 -0.9141  1.1139
12654TIP3    H259378   0.805   3.571  14.636  0.8860 -2.0525  1.2574
12655TIP3   OH259379   3.268   5.889  12.324  0.0439  0.2042  0.9189
12655TIP3    H159380   3.217   5.857  12.398 -2.2777  0.2690 -0.5507
12655TIP3    H259381   3.207   5.945  12.275  1.4809  0.1732 -1.0285
12656TIP3   OH259382   0.038   3.981   2.150 -0.2679  0.2415  0.2211
12656TIP3    H159383   0.074   3.902   2.110  1.3562  0.2709  1.4777
12656TIP3    H259384   0.020   4.039   2.077  1.8073 -0.0153 -0.5784
12657TIP3   OH259385   4.471   6.778  16.480  0.3549  0.0180  0.2799
12657TIP3    H159386   4.562   6.751  16.476 -0.5134 -3.2704 -0.8319
12657TIP3    H259387   4.438   6.767  16.391 -1.4015 -0.0255  0.8812
12658TIP3   OH259388   5.032   4.039   4.568 -0.2951  0.1710 -0.2739
12658TIP3    H159389   5.016   3.966   4.628 -2.2065  0.8933  0.1585
12658TIP3    H259390   5.091   4.003   4.502 -0.4930 -1.5123  0.4161
12659TIP3   OH259391   5.176   4.533  13.106  0.2216 -0.1385 -0.4484
12659TIP3    H159392   5.177   4.442  13.076  0.8179  0.2988 -1.8351
12659TIP3    H259393   5.139   4.582  13.032 -0.1719  0.7381  0.3163
12660TIP3   OH259394   6.358   0.886  15.299 -0.4481  0.5448  0.0427
12660TIP3    H159395   6.436   0.831  15.296  0.2165  1.4297  0.8491
12660TIP3    H259396   6.288   0.826  15.326 -0.2905 -0.4733 -1.6242
12661TIP3   OH259397   0.750   3.217  13.737 -0.0966 -0.0145 -0.1621
12661TIP3    H159398   0.697   3.232  13.659  1.0315 -0.6013 -1.0705
12661TIP3    H259399   0.709   3.142  13.779 -1.4255  1.0279  0.4937
12662TIP3   OH259400   1.989   0.448   4.756 -0.5747  0.1481  0.1280
12662TIP3    H159401   2.075   0.489   4.744 -0.9695  0.9143 -0.0835
12662TIP3    H259402   1.927   0.510   4.720 -1.1377 -0.9369 -0.8377
12663TIP3   OH259403   6.741   6.471  14.363  0.5614 -0.3619 -0.0863
12663TIP3    H159404   6.736   6.375  14.367 -0.9440 -0.2698  0.7787
12663TIP3    H259405   6.657   6.498  14.324  1.3362  0.5759 -1.1739
12664TIP3   OH259406   6.025   3.710   3.180 -0.0369  0.3072  0.3650
12664TIP3    H159407   6.102   3.695   3.235  0.6376  1.7338 -0.1430
12664TIP3    H259408   6.038   3.798   3.145 -1.7837  0.4753  0.0651
12665TIP3   OH259409   1.920   3.481   5.205  0.3071  0.2350 -0.4791
12665TIP3    H159410   1.854   3.528   5.154  1.8018  0.2367 -2.5680
12665TIP3    H259411   1.975   3.438   5.139  1.5505 -0.9313  1.2184
12666TIP3   OH259412   5.443   5.524  14.723 -0.2316 -0.1494 -0.7726
12666TIP3    H159413   5.496   5.601  14.705 -1.4748  0.8212 -0.4425
12666TIP3    H259414   5.441   5.518  14.819 -0.9242 -0.0256 -0.7761
12667TIP3   OH259415   1.119   5.970   3.854  0.2102  0.2093  0.1803
12667TIP3    H159416   1.202   6.001   3.816  0.2095 -1.8781 -1.7207
12667TIP3    H259417   1.054   5.984   3.785 -0.7253  0.3300  1.0575
12668TIP3   OH259418   2.265   6.771  12.970  0.3744 -0.0856  0.8051
12668TIP3    H159419   2.305   6.805  13.049  0.0752  1.5294  0.3006
12668TIP3    H259420   2.172   6.763  12.991 -0.0886  2.3859  0.0402
12669TIP3   OH259421   2.479   1.067   6.176  0.1157 -0.8328  0.6981
12669TIP3    H159422   2.431   0.995   6.216  0.3064 -1.2387  0.2107
12669TIP3    H259423   2.556   1.026   6.136  0.4980 -0.2881  0.8639
12670TIP3   OH259424   5.402   0.402  16.507  0.4340 -0.4229 -0.4387
12670TIP3    H159425   5.328   0.402  16.568  0.5192 -0.4055 -0.3358
12670TIP3    H259426   5.471   0.448  16.553  0.3465  0.0132 -0.7333
12671TIP3   OH259427   4.500   4.900  16.254 -0.2405  0.1694 -0.2657
12671TIP3    H159428   4.487   4.955  16.176  2.3723  0.0449 -0.9103
12671TIP3    H259429   4.478   4.957  16.327 -2.9369  0.2388 -1.0381
12672TIP3   OH259430   3.921   2.942  17.007  0.4035  0.2480 -0.2301
12672TIP3    H159431   3.875   2.907  17.083  1.5432  1.2109  0.9389
12672TIP3    H259432   3.854   2.948  16.939 -0.5230 -1.1206  0.5243
12673TIP3   OH259433   1.636   5.188  10.913  0.5613  0.6716  0.5013
12673TIP3    H159434   1.701   5.250  10.945  2.2667  0.2309 -1.8291
12673TIP3    H259435   1.609   5.223  10.828  1.0844 -1.3504 -0.5776
12674TIP3   OH259436   6.193   0.864   0.313 -0.3116 -0.1858 -0.0895
12674TIP3    H159437   6.245   0.902   0.383  0.3578  2.2022 -1.7797
12674TIP3    H259438   6.249   0.796   0.275 -0.3128 -0.8386  1.0269
12675TIP3   OH259439   5.617   3.640  13.300  0.7549 -0.3215  0.3992
12675TIP3    H159440   5.570   3.609  13.222  0.5595 -2.9360  1.4772
12675TIP3    H259441   5.707   3.652  13.271  0.2616  0.9405 -0.7332
12676TIP3   OH259442   3.161   3.615   3.163 -0.2401  0.5486  0.0312
12676TIP3    H159443   3.109   3.640   3.240 -3.2913 -0.2176 -1.6218
12676TIP3    H259444   3.251   3.641   3.186 -1.5870  4.1897  2.1746
12677TIP3   OH259445   3.589   3.833  13.994 -0.7905 -0.4031 -0.0150
12677TIP3    H159446   3.664   3.819  13.936 -0.8458  1.0765 -0.4674
12677TIP3    H259447   3.556   3.744  14.012  1.1408 -1.0931  0.3264
12678TIP3   OH259448   2.773   3.181  11.580  0.2779  0.0236 -0.0749
12678TIP3    H159449   2.767   3.245  11.651 -0.2410 -1.2190  1.0329
12678TIP3    H259450   2.770   3.096  11.624 -1.1133 -0.7980 -1.6528
12679TIP3   OH259451   2.858   2.207  16.719 -0.3032  0.3726 -0.2498
12679TIP3    H159452   2.832   2.117  16.699  1.4544 -0.7616  2.0606
12679TIP3    H259453   2.952   2.201  16.736 -0.2983  2.5109  0.7687
12680TIP3   OH259454   3.780   5.948   1.717 -0.2786 -0.2935  0.1896
12680TIP3    H159455   3.737   5.902   1.789 -0.8461  0.9343  0.6650
12680TIP3    H259456   3.707   5.980   1.663  0.1386 -1.5607 -1.1909
12681TIP3   OH259457   3.865   4.851   1.557 -0.0971 -0.3940 -0.0893
12681TIP3    H159458   3.874   4.944   1.539 -0.8967 -0.2243  0.3510
12681TIP3    H259459   3.808   4.817   1.488 -1.7070 -0.0857  1.0238
12682TIP3   OH259460   5.669   3.375  12.294  0.1152 -0.1158 -0.4031
12682TIP3    H159461   5.666   3.404  12.385 -0.6134  1.3791 -0.8530
12682TIP3    H259462   5.577   3.373  12.267  0.2123 -2.0154 -0.7005
12683TIP3   OH259463   0.854   4.537   1.760 -0.1414 -0.1758 -0.4456
12683TIP3    H159464   0.915   4.610   1.748  0.0185 -0.3701 -0.8685
12683TIP3    H259465   0.768   4.575   1.745 -0.1231  0.0993  0.1476
12684TIP3   OH259466   0.121   5.203   2.753 -0.4842  0.1071  0.3671
12684TIP3    H159467   0.103   5.245   2.669  2.2338 -2.5437 -1.7393
12684TIP3    H259468   0.197   5.250   2.788 -0.1828 -0.2623  0.2054
12685TIP3   OH259469   2.020   5.884  12.744  0.2903  0.3850 -0.6519
12685TIP3    H159470   1.971   5.805  12.765  0.3314  0.2576 -1.0310
12685TIP3    H259471   2.023   5.932  12.827 -0.5052  0.4184 -0.6341
12686TIP3   OH259472   5.786   2.365   4.299  0.2791 -0.1847  0.3309
12686TIP3    H159473   5.741   2.439   4.257  0.3037 -0.4063 -0.0844
12686TIP3    H259474   5.742   2.288   4.264 -0.0972 -0.3574  1.1644
12687TIP3   OH259475   1.227   2.651   5.713  0.0973 -0.1004 -0.2300
12687TIP3    H159476   1.246   2.561   5.688 -2.6399 -1.2949  1.5070
12687TIP3    H259477   1.256   2.657   5.804  1.1281  1.1399 -0.6014
12688TIP3   OH259478   2.581   4.925   0.969  0.3821  0.3277 -0.0002
12688TIP3    H159479   2.650   4.936   1.034  0.3265 -0.0883  0.1350
12688TIP3    H259480   2.501   4.955   1.013  0.3775  0.2351  0.0553
12689TIP3   OH259481   5.648   4.311   0.580 -0.0940 -0.3667 -0.2302
12689TIP3    H159482   5.693   4.343   0.658  1.4900  0.3192 -1.3792
12689TIP3    H259483   5.691   4.228   0.559  0.1306 -0.0824 -0.9137
12690TIP3   OH259484   0.215   0.739  12.875 -0.0721 -0.5542 -0.0806
12690TIP3    H159485   0.253   0.757  12.788  1.0967  0.9873  0.6887
12690TIP3    H259486   0.149   0.807  12.886  1.6185  0.9794  1.2515
12691TIP3   OH259487   3.325   3.123  13.503 -0.1743 -0.0978 -0.1415
12691TIP3    H159488   3.367   3.150  13.585  0.2619  1.2467 -0.7806
12691TIP3    H259489   3.367   3.039  13.481 -0.7323 -0.7824  1.3052
12692TIP3   OH259490   2.347   0.228   0.950 -0.7101  0.4504  0.4318
12692TIP3    H159491   2.331   0.300   0.890  0.9447  0.4014 -0.0979
12692TIP3    H259492   2.367   0.153   0.894  1.2078  0.4900  0.9982
12693TIP3   OH259493   3.453   6.251   3.498 -0.8191 -0.8118 -0.2576
12693TIP3    H159494   3.460   6.156   3.496 -1.4651 -0.8553 -0.7743
12693TIP3    H259495   3.384   6.271   3.435 -1.3164 -0.0640  0.5114
12694TIP3   OH259496   2.275   0.059  14.427 -0.2609  0.3030  0.0839
12694TIP3    H159497   2.251   0.029  14.340  2.0329 -0.2262 -0.4393
12694TIP3    H259498   2.342  -0.003  14.457 -0.1176  1.1707  1.7008
12695TIP3   OH259499   2.389   2.725  13.357  0.1395  0.7809 -0.4946
12695TIP3    H159500   2.363   2.699  13.445 -0.5434 -0.7162 -1.0958
12695TIP3    H259501   2.325   2.792  13.332 -0.8910 -0.1918 -0.5600
12696TIP3   OH259502   4.369   0.087   1.189  0.4545  0.2729 -0.5005
12696TIP3    H159503   4.404   0.134   1.265  0.5261 -0.3047 -0.1731
12696TIP3    H259504   4.366  -0.005   1.217 -2.4705  0.4091 -0.0439
12697TIP3   OH259505   2.187   5.100   0.796  0.1643  0.7567 -0.3365
12697TIP3    H159506   2.184   5.152   0.715  1.2650 -0.7678 -1.4111
12697TIP3    H259507   2.105   5.050   0.795  0.1690  0.7487 -0.5149
12698TIP3   OH259508   6.436   6.152  16.240  0.0486  0.1000 -0.7571
12698TIP3    H159509   6.386   6.187  16.314  0.4368 -0.3874 -0.2597
12698TIP3    H259510   6.383   6.175  16.163 -0.7441 -0.0612 -0.2785
12699TIP3   OH259511   1.568   4.290  16.488  0.1780 -0.6882 -0.2266
12699TIP3    H159512   1.601   4.328  16.407  1.0466  0.1467  0.5004
12699TIP3    H259513   1.638   4.233  16.518 -0.1269 -0.9667 -0.0349
12700TIP3   OH259514   6.722   6.122  16.160  0.0904  0.3096 -0.4452
12700TIP3    H159515   6.636   6.136  16.200  0.2509  1.3004 -0.4286
12700TIP3    H259516   6.703   6.088  16.073 -0.3384  1.1327 -0.6774
12701TIP3   OH259517   4.356   0.269  14.847  0.8682  0.4890  0.0244
12701TIP3    H159518   4.341   0.175  14.839 -1.4624  0.9435 -1.9254
12701TIP3    H259519   4.442   0.283  14.807  0.2667 -0.5770 -1.7595
12702TIP3   OH259520   4.327   0.458   3.318 -0.4992 -0.2518 -0.1004
12702TIP3    H159521   4.357   0.514   3.390 -0.4076  0.1140 -0.4212
12702TIP3    H259522   4.347   0.369   3.347 -2.4456 -0.2940  1.2983
12703TIP3   OH259523   1.455   4.286  14.333 -0.0872  0.0478  0.7498
12703TIP3    H159524   1.487   4.367  14.373 -0.0852  0.2835  0.2815
12703TIP3    H259525   1.523   4.261  14.271 -0.9548  0.7837 -0.5631
12704TIP3   OH259526   2.969   6.678  16.239 -0.0686 -0.0351  0.1570
12704TIP3    H159527   2.902   6.732  16.280 -1.9282 -2.7127  0.9684
12704TIP3    H259528   2.930   6.649  16.156  1.3204  0.6974 -0.7890
12705TIP3   OH259529   6.660   4.442   0.099 -0.0263  0.1899 -0.1809
12705TIP3    H159530   6.745   4.401   0.115  0.2946  1.3071  1.1566
12705TIP3    H259531   6.673   4.534   0.123 -2.8175 -0.4148  5.0572
12706TIP3   OH259532   6.431   3.905  13.652  0.2371 -0.3409 -0.0356
12706TIP3    H159533   6.487   3.964  13.601  1.0522 -0.4057  0.7722
12706TIP3    H259534   6.482   3.825  13.662 -0.0743 -0.4676  0.5597
12707TIP3   OH259535   4.316   2.048  16.402 -0.2849 -0.0318 -0.5279
12707TIP3    H159536   4.321   2.111  16.330 -1.3323  1.5529  0.7122
12707TIP3    H259537   4.253   2.087  16.464  0.3505 -1.4679  1.1106
12708TIP3   OH259538   4.657   4.209  13.533 -0.4716  0.0752 -0.1344
12708TIP3    H159539   4.652   4.163  13.617 -3.3690  1.9527  0.8639
12708TIP3    H259540   4.654   4.139  13.468  0.3971 -1.3717  1.2968
12709TIP3   OH259541   0.194   0.005  12.421 -0.1046  0.1283 -0.3716
12709TIP3    H159542   0.114   0.059  12.421  0.1044  0.5232  1.8625
12709TIP3    H259543   0.259   0.059  12.465  1.1700 -0.5623 -1.3431
12710TIP3   OH259544   2.396   4.183  14.158 -0.2210  0.7762  0.1019
12710TIP3    H159545   2.358   4.096  14.147  0.0914  0.5651  0.6339
12710TIP3    H259546   2.321   4.241  14.167 -0.5411  1.0336 -3.2060
12711TIP3   OH259547   1.661   1.683  11.778  0.0358 -0.3047 -0.1370
12711TIP3    H159548   1.592   1.686  11.711  1.3771  0.6828 -1.5487
12711TIP3    H259549   1.735   1.641  11.735  0.8071 -0.0144  0.8604
12712TIP3   OH259550   6.785   5.490   4.734  0.5033 -0.2946  0.6804
12712TIP3    H159551   6.693   5.488   4.759  0.5835 -1.0598  0.9488
12712TIP3    H259552   6.793   5.420   4.669  0.5955  0.7348 -0.4493
12713TIP3   OH259553   0.305   1.920  14.669  0.2444 -0.0496  0.0857
12713TIP3    H159554   0.327   1.908  14.576 -0.1536  1.0762 -0.1698
12713TIP3    H259555   0.215   1.953  14.668  0.0973 -0.4144  0.8973
12714TIP3   OH259556   4.924   2.645  13.559  0.1907 -0.2649  0.2975
12714TIP3    H159557   4.902   2.620  13.469 -1.1635  1.0891  0.1979
12714TIP3    H259558   4.863   2.716  13.579  0.7500 -0.2580  2.1515
12715TIP3   OH259559   4.490   1.751   1.201  0.3059 -0.0153 -0.0113
12715TIP3    H159560   4.559   1.738   1.266 -0.2968  0.6118  0.7701
12715TIP3    H259561   4.413   1.778   1.251 -0.2593  0.2071 -0.9525
12716TIP3   OH259562   3.663   3.639  10.238  0.4287  0.8559  0.4276
12716TIP3    H159563   3.729   3.649  10.306 -2.6812  1.1690  3.6508
12716TIP3    H259564   3.600   3.578  10.274 -0.9675  0.3008 -2.6266
12717TIP3   OH259565   4.689   5.862  16.735 -0.3940 -0.3401  0.5323
12717TIP3    H159566   4.664   5.858  16.643 -0.5334 -3.2390  0.6221
12717TIP3    H259567   4.707   5.955  16.750 -0.9762  0.3204 -2.2253
12718TIP3   OH259568   5.110   0.628  16.888 -0.3137 -0.1122 -0.1047
12718TIP3    H159569   5.017   0.634  16.866 -1.1277  1.8228  3.1671
12718TIP3    H259570   5.145   0.716  16.871  1.1808 -0.9532 -1.8532
12719TIP3   OH259571   2.242   2.551  17.024 -0.4076 -0.5181 -0.0382
12719TIP3    H159572   2.307   2.514  17.084  0.8994 -0.5396 -1.4138
12719TIP3    H259573   2.200   2.620  17.075 -0.4960 -1.6149  1.4393
12720TIP3   OH259574   2.586   4.081   2.059  0.3486  0.2351  0.0580
12720TIP3    H159575   2.491   4.091   2.059  0.2973  0.1506  1.7824
12720TIP3    H259576   2.619   4.169   2.047  0.0423  0.3271 -0.1213
12721TIP3   OH259577   5.522   2.600   1.651 -0.0967 -0.2345 -0.4096
12721TIP3    H159578   5.540   2.537   1.721  1.0225  1.2336  0.6857
12721TIP3    H259579   5.426   2.599   1.642 -0.2805 -0.3837  1.2403
12722TIP3   OH259580   2.755   0.188   6.606 -0.0848 -0.4056  0.4154
12722TIP3    H159581   2.780   0.218   6.519  1.5550  0.9288  1.2843
12722TIP3    H259582   2.819   0.229   6.665 -1.9829 -0.1304  2.4035
12723TIP3   OH259583   6.047   6.132  11.111  0.4671  0.3533 -0.3997
12723TIP3    H159584   6.141   6.137  11.125  0.5154  1.7233 -1.0989
12723TIP3    H259585   6.024   6.213  11.066 -1.0990  0.1680 -0.0116
12724TIP3   OH259586   2.509   5.658  10.761 -0.1453 -0.5122  0.6647
12724TIP3    H159587   2.575   5.592  10.738  0.3354  0.6332 -1.4824
12724TIP3    H259588   2.433   5.634  10.708  0.0165  0.5848 -0.0951
12725TIP3   OH259589   4.009   4.008   1.062 -0.3209  0.2306 -0.6503
12725TIP3    H159590   3.933   4.039   1.013  0.4953  1.6329 -1.0825
12725TIP3    H259591   4.009   4.061   1.142  0.6394  0.8162 -1.0223
12726TIP3   OH259592   5.956   6.356   0.009 -0.3778 -0.1392  0.5740
12726TIP3    H159593   5.994   6.422   0.067  0.1159 -0.2005  0.3285
12726TIP3    H259594   5.981   6.385  -0.079 -2.7831  1.0502  0.1926
12727TIP3   OH259595   3.776   3.925  15.411 -0.0887 -0.1127 -0.2109
12727TIP3    H159596   3.735   3.997  15.364  0.8145  0.8413  0.4350
12727TIP3    H259597   3.763   3.946  15.504  0.6069 -0.5256 -0.0091
12728TIP3   OH259598   0.717   6.351   2.701 -0.0506  0.0241  0.5892
12728TIP3    H159599   0.636   6.353   2.651  0.4768 -1.0615 -0.3654
12728TIP3    H259600   0.742   6.443   2.709 -1.2004  0.3496  0.6259
12729TIP3   OH259601   6.020   5.433   1.952  0.4266  0.0402  0.2332
12729TIP3    H159602   5.929   5.430   1.922  0.1010 -1.2483  1.2579
12729TIP3    H259603   6.065   5.487   1.887 -0.4084 -1.9082 -2.0862
12730TIP3   OH259604   0.894   6.255   4.011 -0.0486  0.3758  0.8092
12730TIP3    H159605   0.804   6.232   4.032  0.9631 -2.1071  2.9798
12730TIP3    H259606   0.946   6.179   4.038  2.5588  0.8332 -2.2022
12731TIP3   OH259607   3.167   3.544   4.285  0.1123 -0.0702 -0.0772
12731TIP3    H159608   3.219   3.564   4.362  0.4787 -0.9237 -0.0916
12731TIP3    H259609   3.211   3.468   4.245 -0.9093 -0.5608 -0.3017
12732TIP3   OH259610   6.573   6.744   4.023  0.1485  0.3066 -0.0706
12732TIP3    H159611   6.585   6.807   3.953  0.4921 -0.5112 -0.7660
12732TIP3    H259612   6.522   6.673   3.983  0.1975 -0.0883  0.5451
12733TIP3   OH259613   2.623   4.239   1.268  0.6154 -0.1316  0.7509
12733TIP3    H159614   2.639   4.295   1.193 -1.0987 -0.6335 -0.0504
12733TIP3    H259615   2.648   4.151   1.239 -0.1440 -0.3444  0.7063
12734TIP3   OH259616   0.637   1.682   1.001  0.3163 -0.0118  0.6693
12734TIP3    H159617   0.680   1.762   1.029 -1.5111  1.0035  0.7227
12734TIP3    H259618   0.668   1.667   0.912 -0.4216  1.5946  0.1175
12735TIP3   OH259619   6.692   5.354  14.167 -0.4892  0.6028 -0.0997
12735TIP3    H159620   6.622   5.410  14.134 -0.9968  0.7998  1.2808
12735TIP3    H259621   6.670   5.266  14.135  0.0900  1.0609 -1.9185
12736TIP3   OH259622   6.747   1.595   0.217 -0.0553  0.4254 -0.2389
12736TIP3    H159623   6.695   1.593   0.297 -0.0094  0.2004 -0.2140
12736TIP3    H259624   6.806   1.520   0.225  1.4028  1.6072  0.4755
12737TIP3   OH259625   3.581   0.617  12.510 -0.6680  0.1451  0.2875
12737TIP3    H159626   3.641   0.598  12.438 -0.1902 -1.8190  1.1097
12737TIP3    H259627   3.619   0.692  12.555  0.3886 -0.1487 -0.0835
12738TIP3   OH259628   3.371   2.803   0.848 -0.0273  0.0300  1.1707
12738TIP3    H159629   3.301   2.741   0.827  1.1159 -1.3164  1.2110
12738TIP3    H259630   3.335   2.856   0.919 -1.3563  0.0189  0.5437
12739TIP3   OH259631   2.200   1.232   1.853  0.2656 -0.3681  0.4792
12739TIP3    H159632   2.207   1.139   1.829  1.3070 -0.5202  1.2890
12739TIP3    H259633   2.117   1.238   1.900 -0.8232 -0.4565 -1.3285
12740TIP3   OH259634   2.549   3.481   0.476 -0.9441 -0.0686  0.1510
12740TIP3    H159635   2.573   3.395   0.440 -0.0283  0.1909  0.1098
12740TIP3    H259636   2.467   3.465   0.523 -1.0507 -0.8581 -0.2794
12741TIP3   OH259637   5.080   2.957  11.398 -0.6711 -0.1448  0.1687
12741TIP3    H159638   5.099   2.994  11.312  0.2781  0.5180  0.6465
12741TIP3    H259639   5.093   3.029  11.459  1.0019 -1.1657  1.1012
12742TIP3   OH259640   2.202   4.106  16.591 -0.2180  0.8847 -0.1665
12742TIP3    H159641   2.273   4.167  16.568 -0.2515  1.0080  0.0576
12742TIP3    H259642   2.168   4.138  16.674 -0.0117  0.3626  0.1288
12743TIP3   OH259643   3.316   5.380  11.322  0.0232  0.2179  0.1392
12743TIP3    H159644   3.295   5.355  11.232  1.4009 -2.1332  0.3862
12743TIP3    H259645   3.410   5.364  11.330  0.0615  1.0818  1.8113
12744TIP3   OH259646   3.022   1.989   5.424  0.1674  0.2249 -0.0906
12744TIP3    H159647   3.113   2.016   5.438  0.4828 -0.4726 -0.7344
12744TIP3    H259648   2.995   2.035   5.344 -0.7433  2.0521  1.1793
12745TIP3   OH259649   3.212   3.977   0.757 -0.4109  0.0411 -0.1968
12745TIP3    H159650   3.196   4.038   0.684  0.6672  0.7858  0.1662
12745TIP3    H259651   3.273   4.024   0.814 -1.0774 -0.6084  1.0931
12746TIP3   OH259652   3.439   6.571  12.841 -0.2366  0.8383  0.5561
12746TIP3    H159653   3.484   6.627  12.905  2.1247  0.6044 -0.8002
12746TIP3    H259654   3.357   6.618  12.823  0.4407  2.4744  1.4652
12747TIP3   OH259655   5.753   2.029   1.679  0.2637 -0.0039  0.3748
12747TIP3    H159656   5.759   1.944   1.723  1.9123 -0.9098 -1.4102
12747TIP3    H259657   5.825   2.080   1.716  0.9545 -0.3746 -0.4148
12748TIP3   OH259658   3.161   2.193   5.578 -0.5416  0.4347  0.4846
12748TIP3    H159659   3.201   2.236   5.502 -1.1153 -1.0442 -0.7190
12748TIP3    H259660   3.204   2.233   5.654  0.3199  1.7057 -0.6207
12749TIP3   OH259661   0.788   5.010   3.901 -0.2061 -0.3561  0.3698
12749TIP3    H159662   0.761   4.995   3.991 -1.1415 -0.8123  0.0327
12749TIP3    H259663   0.734   5.083   3.871 -0.7506 -0.9564 -0.1617
12750TIP3   OH259664   0.431   4.247  10.666 -0.4880  0.1751 -0.5187
12750TIP3    H159665   0.355   4.303  10.683 -0.2073  0.1528  0.9736
12750TIP3    H259666   0.394   4.159  10.660 -0.8772  0.4260 -2.4413
12751TIP3   OH259667   0.946   2.960   5.402 -0.0523 -0.0230 -0.1280
12751TIP3    H159668   0.975   3.044   5.366  0.1332  0.0352  0.1512
12751TIP3    H259669   1.019   2.901   5.385  0.4169  0.2199  0.9307
12752TIP3   OH259670   3.126   3.266   1.922 -0.4042  0.0590 -0.4322
12752TIP3    H159671   3.167   3.273   2.008 -3.7117 -1.1596  1.4254
12752TIP3    H259672   3.124   3.172   1.904 -2.3987  0.0407 -0.3407
12753TIP3   OH259673   0.822   0.751   3.002 -0.2555 -0.7377 -0.1684
12753TIP3    H159674   0.744   0.800   3.026  0.6974 -0.3410  2.5661
12753TIP3    H259675   0.812   0.732   2.909 -3.1909 -0.0375 -0.0810
12754TIP3   OH259676   0.124   0.410   2.786 -0.5284 -0.2455 -0.2042
12754TIP3    H159677   0.093   0.469   2.718 -0.3318 -0.0869 -0.1570
12754TIP3    H259678   0.166   0.339   2.738  1.4661  0.8844 -0.2296
12755TIP3   OH259679   4.473   3.862   1.843 -0.0024 -0.3789  0.7326
12755TIP3    H159680   4.492   3.869   1.749 -0.4238  0.7233  0.7216
12755TIP3    H259681   4.380   3.837   1.846  0.1938 -1.1018  0.8506
12756TIP3   OH259682   6.337   4.246   0.664  0.0247 -0.3097  0.0493
12756TIP3    H159683   6.324   4.177   0.599 -0.4023 -0.5264  0.3631
12756TIP3    H259684   6.397   4.207   0.728  0.1466 -0.2259 -0.0122
12757TIP3   OH259685   6.698   2.477   0.518  0.2212 -0.2731 -0.5743
12757TIP3    H159686   6.617   2.499   0.473  0.2072 -1.6901 -1.3093
12757TIP3    H259687   6.685   2.387   0.549  0.2501  0.6154  2.3006
12758TIP3   OH259688   1.731   2.133   3.768 -0.1692 -0.4963  0.2820
12758TIP3    H159689   1.776   2.087   3.697 -1.0222  0.3977 -0.8866
12758TIP3    H259690   1.650   2.084   3.780  0.7892 -1.7687  1.9922
12759TIP3   OH259691   4.894   1.472   1.894  0.3496 -0.2274 -0.4345
12759TIP3    H159692   4.874   1.417   1.969 -0.6058  1.1255  0.3494
12759TIP3    H259693   4.914   1.411   1.823  3.8551 -1.5657  1.5002
12760TIP3   OH259694   3.894   5.751   0.462  0.1666 -0.1804 -0.0602
12760TIP3    H159695   3.866   5.809   0.533 -1.0056  0.5877 -1.0962
12760TIP3    H259696   3.870   5.663   0.491 -0.2947  0.1264  0.5002
12761TIP3   OH259697   6.361   1.926   4.916  0.2339 -0.3737  0.2814
12761TIP3    H159698   6.363   1.971   5.000 -0.2382 -1.1401  0.7044
12761TIP3    H259699   6.367   1.997   4.851  0.0652  0.2529  0.9415
12762TIP3   OH259700   0.270   2.725  14.586 -0.3383 -0.8220  0.3513
12762TIP3    H159701   0.200   2.789  14.569  1.0260  0.1325 -2.3421
12762TIP3    H259702   0.346   2.761  14.540  0.6227 -4.1941 -0.9496
12763TIP3   OH259703   4.466   6.409   6.282  0.4745 -0.2053 -0.2409
12763TIP3    H159704   4.505   6.357   6.212  0.3694 -0.7334  0.0879
12763TIP3    H259705   4.482   6.358   6.362 -2.1065 -1.1714 -0.2374
12764TIP3   OH259706   2.773   3.267   0.241  0.6678  0.2354  0.1417
12764TIP3    H159707   2.712   3.297   0.174  0.6913  0.2642  0.1329
12764TIP3    H259708   2.719   3.217   0.302  0.5418  0.6851  0.4022
12765TIP3   OH259709   4.567   6.691   3.583 -0.1510  0.3271  0.2484
12765TIP3    H159710   4.596   6.603   3.559  1.1952  1.2113 -1.6084
12765TIP3    H259711   4.568   6.690   3.679  0.8032 -1.3706  0.2732
12766TIP3   OH259712   3.945   1.930   4.260 -0.6702 -1.0878 -0.2318
12766TIP3    H159713   3.912   1.987   4.330  1.6922  1.8384 -1.3034
12766TIP3    H259714   3.881   1.941   4.189  0.0230  0.8156 -0.6287
12767TIP3   OH259715   4.972   4.863   1.837 -0.0650  0.2349  0.8004
12767TIP3    H159716   4.910   4.905   1.897 -1.4794  2.4724 -1.9821
12767TIP3    H259717   5.057   4.901   1.860 -0.1808 -0.4797  2.6065
12768TIP3   OH259718   3.825   2.581  16.097 -0.3163 -0.5221 -0.6046
12768TIP3    H159719   3.907   2.560  16.141 -0.2562 -0.8825 -0.8840
12768TIP3    H259720   3.851   2.626  16.017 -0.3514 -1.3011 -1.0651
12769TIP3   OH259721   2.279   6.248   2.805  0.0301 -0.0343  1.0949
12769TIP3    H159722   2.335   6.259   2.727 -1.9176  4.2483 -0.0154
12769TIP3    H259723   2.340   6.225   2.875  2.1063 -2.4205 -1.2921
12770TIP3   OH259724   0.752   1.978  10.839  0.1742 -0.4787 -0.7429
12770TIP3    H159725   0.697   2.032  10.896  0.9145  0.1719 -0.6437
12770TIP3    H259726   0.689   1.923  10.792 -0.5275 -0.1622 -0.1996
12771TIP3   OH259727   3.100   5.134   0.833  0.2064  0.2485 -0.3104
12771TIP3    H159728   3.181   5.153   0.881 -0.0455  1.2982 -0.2970
12771TIP3    H259729   3.082   5.213   0.783 -0.8821  0.0616 -0.2311
12772TIP3   OH259730   4.123   2.542   1.707  0.2351 -0.4345  0.7767
12772TIP3    H159731   4.165   2.571   1.626 -0.2489  2.1245  1.3567
12772TIP3    H259732   4.192   2.545   1.772  0.0611 -0.0134  0.9471
12773TIP3   OH259733   4.765   3.430  16.880  0.1670  0.0265  1.4105
12773TIP3    H159734   4.739   3.512  16.922  1.7701  0.2399  2.0473
12773TIP3    H259735   4.682   3.389  16.855 -0.6988  1.4574  1.7887
12774TIP3   OH259736   3.490   2.669   2.772  0.3950 -0.1062 -0.2244
12774TIP3    H159737   3.507   2.577   2.794  0.8824 -0.1501 -0.7678
12774TIP3    H259738   3.414   2.692   2.825  0.0894 -0.9102 -0.2918
12775TIP3   OH259739   5.742   4.142  10.760 -0.1647 -0.2504  0.1998
12775TIP3    H159740   5.688   4.127  10.837  0.2575 -1.2370  0.3250
12775TIP3    H259741   5.690   4.198  10.703 -1.2376 -1.0093  0.4075
12776TIP3   OH259742   0.973   3.392   2.767  0.5531 -0.5238  1.0251
12776TIP3    H159743   1.008   3.305   2.783  0.8849 -0.7615 -0.7030
12776TIP3    H259744   1.044   3.439   2.724 -0.7754 -0.6514 -1.5375
12777TIP3   OH259745   2.642   3.285  11.777 -0.3890 -0.4396 -0.1132
12777TIP3    H159746   2.700   3.360  11.788  1.1031 -1.2518 -1.8618
12777TIP3    H259747   2.627   3.253  11.867  1.5923  0.0364  0.4406
12778TIP3   OH259748   0.400   3.809   4.432 -0.0944 -0.5010 -0.0422
12778TIP3    H159749   0.486   3.793   4.395  0.5022 -1.8695  1.7546
12778TIP3    H259750   0.414   3.879   4.496 -0.3853 -0.4595 -0.0212
12779TIP3   OH259751   5.076   5.869  17.110  0.0035  0.0018  0.3299
12779TIP3    H159752   5.135   5.923  17.057 -0.0569 -0.9247 -0.7196
12779TIP3    H259753   5.135   5.819  17.167  0.1342  0.2525  0.4149
12780TIP3   OH259754   1.072   1.167  14.723 -0.0485  0.4300 -0.2307
12780TIP3    H159755   1.019   1.128  14.792  0.2482 -0.7534 -0.6558
12780TIP3    H259756   1.010   1.183  14.652  0.0304 -0.2683 -0.4558
12781TIP3   OH259757   5.573   1.513  15.143  0.0409 -0.6843 -0.2284
12781TIP3    H159758   5.525   1.571  15.202  1.5687 -0.2092  0.5953
12781TIP3    H259759   5.505   1.455  15.106 -1.2032  0.2008  0.5773
12782TIP3   OH259760   0.678   5.505  10.931  0.2405  0.4956  0.3076
12782TIP3    H159761   0.770   5.490  10.955  0.1229 -1.1977 -0.1671
12782TIP3    H259762   0.628   5.466  11.003 -0.0970  0.3967  0.0227
12783TIP3   OH259763   3.140   6.478  10.841 -0.2523 -0.0953  0.2851
12783TIP3    H159764   3.154   6.384  10.831  0.2278  0.0171 -0.1304
12783TIP3    H259765   3.227   6.517  10.832 -0.6664  0.5437 -1.3851
12784TIP3   OH259766   0.604   2.711  16.429  0.1406  0.3458  0.6848
12784TIP3    H159767   0.557   2.794  16.418 -1.4080 -0.6472 -0.5179
12784TIP3    H259768   0.574   2.677  16.513 -0.6554  0.1209  0.3119
12785TIP3   OH259769   1.979   2.114  12.458  0.9186  0.0030 -0.0062
12785TIP3    H159770   1.984   2.164  12.376 -1.8104  2.8246  1.3086
12785TIP3    H259771   2.018   2.171  12.523  2.6274 -2.0083  0.8415
12786TIP3   OH259772   4.440   2.024  16.725 -0.2219 -0.1906 -0.1017
12786TIP3    H159773   4.444   1.940  16.771 -1.4643  0.3055  0.9731
12786TIP3    H259774   4.347   2.036  16.705 -0.1647  1.2838  0.4397
12787TIP3   OH259775   6.311   3.385  10.501  0.4402 -0.3859  0.0004
12787TIP3    H159776   6.359   3.345  10.428  0.9934 -2.1745  1.2660
12787TIP3    H259777   6.262   3.312  10.539 -0.3547  0.6515  1.0174
12788TIP3   OH259778   1.277   6.324   4.498 -0.4207 -0.0288 -0.5085
12788TIP3    H159779   1.294   6.401   4.444 -0.2399  0.4751  0.2494
12788TIP3    H259780   1.339   6.258   4.466  0.2531  0.5289 -0.3939
12789TIP3   OH259781   0.632   5.751  12.132 -0.0933 -0.0854  0.1473
12789TIP3    H159782   0.616   5.675  12.189 -3.0369 -0.1089 -0.5649
12789TIP3    H259783   0.581   5.733  12.053  2.7290  0.6115 -2.0106
12790TIP3   OH259784   5.718   1.416  16.840  0.1111  0.4874 -0.0408
12790TIP3    H159785   5.704   1.446  16.930  2.2587 -3.6124  1.9868
12790TIP3    H259786   5.813   1.400  16.835 -0.2035 -1.0890 -2.3994
12791TIP3   OH259787   1.604   4.645   1.019 -0.1870 -0.2294 -0.2167
12791TIP3    H159788   1.678   4.620   0.964  0.0691 -0.9395  0.4401
12791TIP3    H259789   1.532   4.659   0.958  0.4031  0.1561 -0.8314
12792TIP3   OH259790   6.771   2.329  16.253 -0.2985 -0.3889 -0.9633
12792TIP3    H159791   6.714   2.365  16.321 -1.0227 -1.1326 -1.1589
12792TIP3    H259792   6.849   2.301  16.301 -0.3078  0.1747 -0.6124
12793TIP3   OH259793   6.621   0.762  11.902 -0.2602 -0.0557 -0.2012
12793TIP3    H159794   6.666   0.806  11.830 -1.1587  0.4848 -0.4499
12793TIP3    H259795   6.542   0.725  11.862 -0.7387  0.1949  0.4821
12794TIP3   OH259796   6.468   3.635   3.709  0.0708  0.2662  0.0212
12794TIP3    H159797   6.443   3.606   3.621 -0.1725  0.5068  0.0114
12794TIP3    H259798   6.557   3.600   3.721 -0.1647 -0.3601 -0.0434
12795TIP3   OH259799   1.987   5.269   3.734 -0.4038  0.1136  0.4639
12795TIP3    H159800   1.982   5.267   3.638  1.0952  2.3034  0.2721
12795TIP3    H259801   2.047   5.199   3.757  1.4595  1.3140 -0.4834
12796TIP3   OH259802   1.072   4.889   4.510 -0.5630  0.4164  0.4759
12796TIP3    H159803   1.069   4.813   4.567  1.3621  0.7053  1.0267
12796TIP3    H259804   1.164   4.915   4.508 -1.0246  2.2033 -0.4087
12797TIP3   OH259805   1.890   0.325  10.965  0.1180 -0.2666 -0.2191
12797TIP3    H159806   1.861   0.259  10.902  0.5048  0.4088 -1.1236
12797TIP3    H259807   1.934   0.391  10.912 -0.4759  0.8533  0.6379
12798TIP3   OH259808   3.581   4.278   4.859 -0.3679 -0.5083  0.7573
12798TIP3    H159809   3.600   4.293   4.952  1.3766  0.0143  0.3547
12798TIP3    H259810   3.648   4.328   4.813 -3.2507  2.1639 -0.8957
12799TIP3   OH259811   6.099   2.239   5.130  0.1355  0.2182 -0.3230
12799TIP3    H159812   6.114   2.155   5.173  1.0991  1.3217  1.6437
12799TIP3    H259813   6.184   2.283   5.132 -0.5375  1.6002 -0.4508
12800TIP3   OH259814   0.669   1.945  14.364  0.1296 -0.4534 -0.0417
12800TIP3    H159815   0.732   1.898  14.309  1.8469  0.8262  0.7443
12800TIP3    H259816   0.723   2.003  14.417 -1.3944 -1.8825  3.3141
12801TIP3   OH259817   1.284   5.461  14.419  0.1141  0.1631 -0.3626
12801TIP3    H159818   1.371   5.445  14.457 -0.2961 -0.4411  0.3574
12801TIP3    H259819   1.276   5.398  14.348 -0.2352 -0.6963  0.4136
12802TIP3   OH259820   2.507   2.747  13.723  0.1433  0.2683  0.3463
12802TIP3    H159821   2.459   2.673  13.685  0.3515  0.5518 -0.4665
12802TIP3    H259822   2.537   2.714  13.808 -0.5123 -0.2922  0.3689
12803TIP3   OH259823   3.541   5.816   5.136 -0.0031 -0.1661  0.1627
12803TIP3    H159824   3.513   5.759   5.065  1.4538  0.0361 -0.6130
12803TIP3    H259825   3.590   5.758   5.195  0.8278  0.1210 -0.2363
12804TIP3   OH259826   3.279   3.414  13.685  0.4272  0.5463 -0.1078
12804TIP3    H159827   3.247   3.384  13.600 -0.2330 -0.5989  0.5221
12804TIP3    H259828   3.215   3.380  13.748  1.3035  0.7321  0.9087
12805TIP3   OH259829   3.115   4.469  12.124 -0.5396  0.9405  0.4104
12805TIP3    H159830   3.198   4.501  12.087 -0.1454  0.4864  0.8754
12805TIP3    H259831   3.049   4.531  12.093 -0.1125  0.9805 -0.4486
12806TIP3   OH259832   6.494   3.336   4.066 -0.2630  0.4248  0.0287
12806TIP3    H159833   6.473   3.243   4.072 -1.8179  0.7251 -0.2845
12806TIP3    H259834   6.586   3.342   4.093 -0.0453 -1.2286 -0.2513
12807TIP3   OH259835   5.576   0.943   5.567  0.0755  0.0823 -0.2618
12807TIP3    H159836   5.483   0.960   5.553  0.3474  1.3076 -0.6913
12807TIP3    H259837   5.610   0.919   5.481  0.4296  1.0196 -0.3869
12808TIP3   OH259838   1.837   0.498  13.257 -0.2542 -0.5214 -0.3297
12808TIP3    H159839   1.904   0.530  13.197  1.9823 -0.6308  1.9354
12808TIP3    H259840   1.825   0.569  13.320  1.7695 -2.3532  2.3681
12809TIP3   OH259841   3.091   5.890   6.146 -0.7335  0.1786 -0.5977
12809TIP3    H159842   3.170   5.942   6.161  0.6020 -1.9350  0.3215
12809TIP3    H259843   3.027   5.925   6.208  0.0880  0.7927 -0.0681
12810TIP3   OH259844   1.367   4.679   4.028  0.6452 -1.0006 -0.3650
12810TIP3    H159845   1.383   4.715   3.941  1.1518 -1.1645 -0.3434
12810TIP3    H259846   1.315   4.600   4.012 -0.9148 -0.0151 -0.3764
12811TIP3   OH259847   5.408   6.679   3.464  0.8399  0.6565 -0.3105
12811TIP3    H159848   5.477   6.714   3.520  1.4028  1.7937 -1.6680
12811TIP3    H259849   5.444   6.597   3.430  0.8151  0.3702  0.3378
12812TIP3   OH259850   3.086   2.270   0.252 -0.0192 -0.2923  1.0470
12812TIP3    H159851   3.125   2.327   0.186 -1.7364  0.6114  0.7740
12812TIP3    H259852   3.157   2.254   0.314  1.0986  0.3618 -0.0103
12813TIP3   OH259853   3.279   4.912  15.144 -0.5445  0.1698 -0.2577
12813TIP3    H159854   3.233   4.868  15.073 -1.3105  0.2386  0.1826
12813TIP3    H259855   3.366   4.872  15.146 -0.3969  0.4156 -1.4587
12814TIP3   OH259856   1.108   0.985   5.980  0.2291  0.1423  0.0329
12814TIP3    H159857   1.050   1.005   5.906  0.4431 -1.1928 -0.5287
12814TIP3    H259858   1.132   0.893   5.967  1.0546  0.1684  1.2369
12815TIP3   OH259859   0.305   0.748  17.051 -0.2186  0.6899  0.4305
12815TIP3    H159860   0.333   0.670  17.100 -1.4447 -0.1915 -0.2268
12815TIP3    H259861   0.358   0.819  17.088  1.4409 -0.5529  0.5720
12816TIP3   OH259862   5.623   5.226  13.851 -0.2509 -0.3132  0.0538
12816TIP3    H159863   5.638   5.199  13.761  1.6089 -0.2643  0.3203
12816TIP3    H259864   5.645   5.319  13.853 -1.2923 -0.0552  0.3538
12817TIP3   OH259865   2.676   2.166  11.623 -0.4794  0.0803 -0.0655
12817TIP3    H159866   2.749   2.133  11.570 -0.3406  0.4399 -0.1013
12817TIP3    H259867   2.629   2.088  11.650 -0.8042 -0.0845 -1.0716
12818TIP3   OH259868   4.627   4.143   5.347  0.4481  0.3774  0.8879
12818TIP3    H159869   4.616   4.214   5.411 -0.3564  0.1386  1.0186
12818TIP3    H259870   4.589   4.177   5.267 -2.2366 -0.7822  1.5733
12819TIP3   OH259871   3.680   5.547  11.993 -0.2170  0.5301  0.1092
12819TIP3    H159872   3.683   5.546  12.089  2.0683 -0.6162  0.0944
12819TIP3    H259873   3.739   5.618  11.968  0.7328 -0.4220 -0.4295
12820TIP3   OH259874   2.380   4.410   3.258 -0.7190  0.4584 -0.2981
12820TIP3    H159875   2.437   4.464   3.203 -0.8867  0.9408 -0.0132
12820TIP3    H259876   2.292   4.435   3.232 -0.8008  0.7933  0.2710
12821TIP3   OH259877   5.402   4.733  15.652 -0.3754 -0.0165 -0.4559
12821TIP3    H159878   5.451   4.811  15.624 -0.3425 -0.2245 -0.9976
12821TIP3    H259879   5.425   4.667  15.587  0.1993 -0.7045  0.4331
12822TIP3   OH259880   6.675   0.507   3.497  0.9257 -0.1205 -0.7996
12822TIP3    H159881   6.662   0.578   3.435 -0.4706 -1.2307 -1.8653
12822TIP3    H259882   6.586   0.476   3.517  1.3955 -0.3717  1.0893
12823TIP3   OH259883   4.813   5.403   2.623  0.5632  0.0584 -0.3046
12823TIP3    H159884   4.733   5.380   2.577 -0.3812 -0.6668  1.5749
12823TIP3    H259885   4.783   5.444   2.704  2.1391  1.3709 -0.3316
12824TIP3   OH259886   2.770   0.126   1.184  0.5632 -0.1436  0.0362
12824TIP3    H159887   2.690   0.078   1.205  0.0507  0.3559 -0.7128
12824TIP3    H259888   2.763   0.144   1.090  2.3901 -1.6121 -0.4326
12825TIP3   OH259889   6.612   6.251   0.702 -0.1773  0.0436  0.3008
12825TIP3    H159890   6.599   6.164   0.740  0.5055 -0.6860 -1.0822
12825TIP3    H259891   6.651   6.302   0.773 -1.2932 -0.5312  1.3719
12826TIP3   OH259892   1.312   2.926   4.173 -0.6519 -0.4997  0.4298
12826TIP3    H159893   1.269   2.932   4.088  0.2443 -0.8614 -0.0724
12826TIP3    H259894   1.392   2.978   4.163 -0.0225 -1.3935  0.7050
12827TIP3   OH259895   6.797   3.317   6.367  0.1954  0.1246 -0.0440
12827TIP3    H159896   6.777   3.404   6.334  0.6544  0.0756 -0.4537
12827TIP3    H259897   6.761   3.316   6.456 -1.6630  0.0206 -0.7490
12828TIP3   OH259898   3.594   3.738  11.083  0.0010 -0.1006 -0.0234
12828TIP3    H159899   3.603   3.814  11.140 -0.2558  0.8676 -1.2462
12828TIP3    H259900   3.516   3.692  11.116 -0.1239  0.4272  0.4240
12829TIP3   OH259901   2.733   5.151  10.925  0.3288  0.4765 -0.7062
12829TIP3    H159902   2.802   5.159  10.990  1.1405  1.1727 -1.6213
12829TIP3    H259903   2.742   5.062  10.891  0.0577  0.1949 -0.0638
12830TIP3   OH259904   6.051   2.141  16.115  0.3153 -0.0612  0.5314
12830TIP3    H159905   6.029   2.075  16.048  0.4913  1.2956 -0.9338
12830TIP3    H259906   5.999   2.116  16.191  1.4897 -2.7508  0.5912
12831TIP3   OH259907   1.144   4.124   4.220 -0.5325 -0.3507  0.0237
12831TIP3    H159908   1.131   4.114   4.126  0.2481 -1.9580  0.0403
12831TIP3    H259909   1.164   4.035   4.250  1.4840  0.4895  1.3278
12832TIP3   OH259910   1.531   3.984  17.084 -0.3318  0.6370 -0.4810
12832TIP3    H159911   1.477   3.909  17.060  2.7823 -3.0523  2.5831
12832TIP3    H259912   1.606   3.981  17.024  1.0600 -0.4955  1.1975
12833TIP3   OH259913   0.629   0.700  16.934  0.5516  0.0006 -0.2962
12833TIP3    H159914   0.579   0.776  16.906  0.7951  0.8258  1.4005
12833TIP3    H259915   0.715   0.736  16.959  0.3983 -0.6886  1.3087
12834TIP3   OH259916   6.459   4.943  14.516 -0.4628 -0.2147  0.1041
12834TIP3    H159917   6.541   4.987  14.493 -0.9408  0.0608 -1.1128
12834TIP3    H259918   6.396   5.013  14.528 -1.0563 -0.5097 -1.1475
12835TIP3   OH259919   5.233   6.758  14.844 -0.1830  0.0478  0.1650
12835TIP3    H159920   5.258   6.670  14.817 -1.0105  0.6288 -2.9113
12835TIP3    H259921   5.315   6.804  14.858  0.3026 -0.5099 -0.7936
12836TIP3   OH259922   0.010   2.174   2.727  0.3089  0.2343 -0.2455
12836TIP3    H159923  -0.076   2.214   2.712 -0.3469 -1.7551 -2.3531
12836TIP3    H259924  -0.005   2.106   2.792 -0.2576 -1.4521 -2.0244
12837TIP3   OH259925   3.681   1.848   3.790 -0.0349  0.7741 -0.1697
12837TIP3    H159926   3.711   1.760   3.769 -1.6961  0.4463 -1.4041
12837TIP3    H259927   3.589   1.849   3.762 -0.0929  2.8442 -0.0433
12838TIP3   OH259928   1.808   4.787  15.984  0.2819 -1.1284  0.8093
12838TIP3    H159929   1.799   4.809  15.891 -1.8742 -1.5802  0.8512
12838TIP3    H259930   1.777   4.866  16.030 -3.0241 -2.3862  1.0130
12839TIP3   OH259931   4.587   4.813   0.363 -0.6399  0.9556 -0.4242
12839TIP3    H159932   4.548   4.835   0.279 -2.3039  2.3373  0.6485
12839TIP3    H259933   4.518   4.767   0.410 -0.0910  1.1547  0.6052
12840TIP3   OH259934   3.241   0.119   1.730 -0.3899 -0.4630  0.5205
12840TIP3    H159935   3.310   0.076   1.782  1.0271  0.4388 -0.5372
12840TIP3    H259936   3.215   0.194   1.783  0.2818 -0.1613  0.4431
12841TIP3   OH259937   5.135   0.473   4.604 -0.3529 -0.0111  0.1564
12841TIP3    H159938   5.121   0.567   4.594  0.3640  0.0052 -0.8248
12841TIP3    H259939   5.228   0.464   4.626 -0.1090 -0.5383 -0.9900
12842TIP3   OH259940   4.959   5.876   1.324 -0.0939  0.2352 -0.4611
12842TIP3    H159941   4.907   5.802   1.294 -1.2859  1.9340 -2.9059
12842TIP3    H259942   4.916   5.903   1.406 -3.8292  2.0517 -2.7510
12843TIP3   OH259943   1.987   2.931   2.589 -0.5161 -0.5682 -0.4823
12843TIP3    H159944   2.064   2.987   2.580 -0.7109 -0.2465 -0.1687
12843TIP3    H259945   1.987   2.877   2.511 -1.7255  1.5913 -2.0842
12844TIP3   OH259946   3.517   3.374  16.880  0.3690 -0.2363  0.3423
12844TIP3    H159947   3.466   3.383  16.799 -1.8284  2.5295  1.8554
12844TIP3    H259948   3.473   3.304  16.928  0.2754 -0.3657  0.0699
12845TIP3   OH259949   3.989   2.936  13.987 -0.1679  0.4830  0.2313
12845TIP3    H159950   4.022   3.020  13.957  0.1177  1.0314  1.9445
12845TIP3    H259951   4.053   2.906  14.052  0.3716 -1.6686 -1.1879
12846TIP3   OH259952   5.159   2.023   0.437 -0.2649 -0.2839 -0.3374
12846TIP3    H159953   5.217   1.964   0.390  0.6451  0.4163 -0.1237
12846TIP3    H259954   5.083   1.969   0.460  0.0404 -1.0675 -1.1089
12847TIP3   OH259955   2.378   1.605  16.828  0.1063 -0.1625 -0.6598
12847TIP3    H159956   2.386   1.598  16.733  1.2178  1.4114 -0.7159
12847TIP3    H259957   2.305   1.665  16.841  0.7534  0.6108 -0.5578
12848TIP3   OH259958   1.706   0.567  16.811  0.7210 -0.0554 -0.1827
12848TIP3    H159959   1.763   0.492  16.789  0.3642 -0.1347 -0.8749
12848TIP3    H259960   1.716   0.626  16.736 -2.2490 -1.3339 -1.7620
12849TIP3   OH259961   3.129   2.033  12.921 -0.3102  0.3350 -0.3246
12849TIP3    H159962   3.035   2.025  12.937 -0.7519  1.8788 -1.8386
12849TIP3    H259963   3.145   1.972  12.848 -0.3610  0.8294 -0.7555
12850TIP3   OH259964   6.360   0.537   4.263  0.1437  0.2709  0.3421
12850TIP3    H159965   6.427   0.469   4.250  1.0249  1.4085 -1.4364
12850TIP3    H259966   6.402   0.618   4.235 -0.9448  1.5771  2.2524
12851TIP3   OH259967   1.211   0.780   5.272  0.0996 -0.8658 -0.4287
12851TIP3    H159968   1.227   0.691   5.242  0.2589 -0.6759 -0.9100
12851TIP3    H259969   1.126   0.804   5.236  1.4520  0.3444 -3.1009
12852TIP3   OH259970   2.073   4.258  11.052  0.4703 -1.0009 -0.2227
12852TIP3    H159971   2.081   4.231  11.144  2.0988 -2.0647 -0.6213
12852TIP3    H259972   2.121   4.341  11.048  1.0669 -1.3356 -0.2358
12853TIP3   OH259973   5.851   5.718  12.285  0.0024 -0.2942 -0.2813
12853TIP3    H159974   5.819   5.655  12.350  2.1679 -0.4602  0.6936
12853TIP3    H259975   5.885   5.664  12.213  1.7608 -0.2982  0.5075
12854TIP3   OH259976   5.655   0.294   1.553  0.2166 -0.0784 -0.2390
12854TIP3    H159977   5.669   0.340   1.636 -0.3852 -0.5196  0.1129
12854TIP3    H259978   5.714   0.218   1.557 -0.7872 -0.8425  0.3795
12855TIP3   OH259979   0.225   3.899   3.855  0.3967  0.2177  0.1051
12855TIP3    H159980   0.177   3.817   3.865  0.6609  0.2283  1.7686
12855TIP3    H259981   0.270   3.911   3.939  0.4830  1.9846 -0.1518
12856TIP3   OH259982   2.497   4.733   5.918  0.1035  0.6494  0.4509
12856TIP3    H159983   2.488   4.639   5.907  0.9673  0.4370  1.3782
12856TIP3    H259984   2.502   4.746   6.013  0.5668  1.5626  0.3183
12857TIP3   OH259985   5.857   1.678   3.069  0.9507 -0.4228  0.2892
12857TIP3    H159986   5.946   1.643   3.058 -0.2545 -4.0474  0.6002
12857TIP3    H259987   5.828   1.643   3.153 -0.8087  0.6113  0.1605
12858TIP3   OH259988   3.066   5.834  13.539 -0.3637  0.3894 -0.1672
12858TIP3    H159989   2.985   5.823  13.489 -0.7866  2.6644 -0.1164
12858TIP3    H259990   3.134   5.797  13.483 -1.2778 -0.3342 -0.8266
12859TIP3   OH259991   0.575   4.476  10.939 -0.6383 -0.0381 -0.0216
12859TIP3    H159992   0.509   4.525  10.889  0.4329 -0.1030 -1.5643
12859TIP3    H259993   0.627   4.543  10.982 -0.5000  0.1091 -0.4084
12860TIP3   OH259994   2.980   2.216   6.297  0.3143  0.5387  0.2427
12860TIP3    H159995   3.021   2.281   6.355  0.6093  0.1517  0.4702
12860TIP3    H259996   3.047   2.148   6.286 -0.7560 -0.8374  1.8045
12861TIP3   OH259997   1.953   3.310  16.540 -0.1273 -0.4524  0.7144
12861TIP3    H159998   1.949   3.368  16.464 -1.5166 -0.7553  0.5223
12861TIP3    H259999   1.969   3.368  16.614  1.7729 -0.2079  0.1627
12862TIP3   OH260000   5.693   3.314   0.183 -0.1032 -0.1897  0.0318
12862TIP3    H160001   5.632   3.240   0.188 -0.9349  0.4396 -0.4748
12862TIP3    H260002   5.646   3.380   0.132  1.2942  0.0406 -1.0271
12863TIP3   OH260003   3.213   0.193  13.390 -0.3090 -0.3447 -0.7151
12863TIP3    H160004   3.223   0.098  13.381  1.2146 -0.0841 -2.4153
12863TIP3    H260005   3.273   0.217  13.461  1.0845 -0.4299 -1.8145
12864TIP3   OH260006   1.743   4.133  11.883 -0.0831 -0.2673 -0.1736
12864TIP3    H160007   1.759   4.134  11.977  1.8590 -0.4810 -0.4526
12864TIP3    H260008   1.651   4.109  11.874 -0.6577  1.0039  1.6885
12865TIP3   OH260009   5.069   5.121   1.373 -0.4779 -0.6116 -0.5233
12865TIP3    H160010   5.158   5.135   1.404 -0.0502  0.0418 -1.9709
12865TIP3    H260011   5.047   5.032   1.404 -0.1274 -0.0275  1.5998
12866TIP3   OH260012   6.061   4.789  12.305  0.1920  0.1190  0.3264
12866TIP3    H160013   6.112   4.781  12.224  0.4463 -0.3806  0.5351
12866TIP3    H260014   6.081   4.876  12.338  0.1858  0.2774 -0.0832
12867TIP3   OH260015   0.063   1.856  11.747  0.3631  0.2863 -0.0532
12867TIP3    H160016   0.115   1.919  11.796  0.4114 -0.4085  0.8295
12867TIP3    H260017   0.067   1.885  11.656  0.2321  1.6431  0.3584
12868TIP3   OH260018   6.244   1.153   2.212  0.0620 -0.6050 -0.2533
12868TIP3    H160019   6.228   1.059   2.204  0.2001 -0.6604  0.1152
12868TIP3    H260020   6.272   1.180   2.125 -0.2230 -0.8572 -0.4265
12869TIP3   OH260021   0.684   2.590   4.845 -0.3153  1.0805  0.0034
12869TIP3    H160022   0.681   2.498   4.818  1.7195 -0.2849  3.8150
12869TIP3    H260023   0.754   2.628   4.791 -0.4805  0.1740 -0.8910
12870TIP3   OH260024   3.056   5.350   0.396  0.3363 -0.4392 -0.2471
12870TIP3    H160025   3.050   5.357   0.301 -0.0447 -0.4600 -0.2234
12870TIP3    H260026   2.982   5.401   0.429 -0.3371 -1.5436  0.0022
12871TIP3   OH260027   2.363   1.971  15.454 -0.0689  0.0496 -0.1024
12871TIP3    H160028   2.393   2.048  15.503 -1.8227  0.3069  0.6179
12871TIP3    H260029   2.434   1.908  15.465  0.8114  1.0916  0.4116
12872TIP3   OH260030   3.150   6.087  10.413 -0.0391  0.3711  0.4681
12872TIP3    H160031   3.243   6.104  10.399 -0.5200  1.5895 -1.7072
12872TIP3    H260032   3.144   5.991  10.416  1.1998  0.2521 -0.0516
12873TIP3   OH260033   0.439   5.601  15.273  0.2030 -0.3972 -0.0307
12873TIP3    H160034   0.408   5.691  15.266 -1.4671 -1.0528 -1.8476
12873TIP3    H260035   0.364   5.552  15.305  1.2431 -1.1330  1.4366
12874TIP3   OH260036   1.308   5.499   0.419 -0.8059  0.6227 -0.1080
12874TIP3    H160037   1.241   5.538   0.363  0.2969  2.2103 -0.3987
12874TIP3    H260038   1.361   5.573   0.449  0.5718 -0.5233  0.4520
12875TIP3   OH260039   1.190   1.293   0.049  0.0912 -0.1248  0.2651
12875TIP3    H160040   1.266   1.347   0.068  0.7492 -1.3195  1.1602
12875TIP3    H260041   1.121   1.355   0.025  1.2311  0.9915 -0.1677
12876TIP3   OH260042   1.781   4.299  17.172 -0.3559 -0.1005  0.0871
12876TIP3    H160043   1.764   4.373  17.115  0.7353 -0.8483 -1.2549
12876TIP3    H260044   1.700   4.288  17.222 -1.1546  0.8987 -0.9443
12877TIP3   OH260045   2.679   1.801   5.554 -0.3341  0.1985  0.3342
12877TIP3    H160046   2.726   1.874   5.595  2.5930 -1.1855 -0.3261
12877TIP3    H260047   2.639   1.840   5.476  1.8521  0.9832 -0.4567
12878TIP3   OH260048   4.989   0.285  16.211 -0.1721  0.2184 -0.1820
12878TIP3    H160049   5.044   0.354  16.174 -2.3077  1.1931 -1.8336
12878TIP3    H260050   4.912   0.284  16.154 -0.9443 -2.4614  0.7702
12879TIP3   OH260051   2.847   5.919  16.528  0.2879 -0.1071 -0.3625
12879TIP3    H160052   2.798   5.996  16.558  0.3137  0.0843 -0.7979
12879TIP3    H260053   2.938   5.949  16.524  0.1625  0.1731 -1.5571
12880TIP3   OH260054   2.574   5.606   1.414 -0.1138 -0.2021  0.3649
12880TIP3    H160055   2.487   5.571   1.395 -0.2207 -0.4195  1.2140
12880TIP3    H260056   2.601   5.648   1.333 -1.2747  0.4163  0.2764
12881TIP3   OH260057   3.350   5.473   5.485 -0.2860 -0.0724  0.1073
12881TIP3    H160058   3.353   5.542   5.551  0.2456  0.2930 -0.2884
12881TIP3    H260059   3.432   5.481   5.438  0.6372 -2.1686  1.2222
12882TIP3   OH260060   1.869   2.199  16.927  0.1144  0.5246 -0.2097
12882TIP3    H160061   1.926   2.124  16.915 -0.7303 -0.1707  0.0542
12882TIP3    H260062   1.926   2.275  16.911  0.8342 -0.1719 -1.0696
12883TIP3   OH260063   4.879   2.812   5.819  0.2128 -0.0838 -0.2643
12883TIP3    H160064   4.802   2.778   5.773 -1.0152 -0.3569  1.8742
12883TIP3    H260065   4.941   2.833   5.749 -0.9021 -1.9931 -1.9424
12884TIP3   OH260066   0.828   6.455   5.730 -0.4564  0.5878  0.0152
12884TIP3    H160067   0.909   6.426   5.688 -0.8809 -0.4275 -0.1265
12884TIP3    H260068   0.843   6.547   5.749  0.7012  0.4402 -0.0915
12885TIP3   OH260069   5.818   1.498   3.297 -0.4241  0.6649 -0.0974
12885TIP3    H160070   5.748   1.432   3.299 -0.9188  1.1871  0.1290
12885TIP3    H260071   5.893   1.455   3.338  0.0337 -0.6071 -2.1284
12886TIP3   OH260072   5.076   3.172  10.887 -0.2716  0.0868 -0.5459
12886TIP3    H160073   5.004   3.152  10.827  1.2912 -0.9001 -2.2025
12886TIP3    H260074   5.137   3.223  10.834  0.2736  0.9067  0.8165
12887TIP3   OH260075   2.746   3.643   4.018 -0.0711  0.0730 -0.8068
12887TIP3    H160076   2.786   3.615   4.100  0.1772 -0.1299 -0.9940
12887TIP3    H260077   2.690   3.717   4.042 -0.9580 -0.7620 -0.2607
12888TIP3   OH260078   6.741   0.086   6.390  0.4395  0.6397 -0.3137
12888TIP3    H160079   6.694   0.167   6.370 -2.1809  0.4113  3.7453
12888TIP3    H260080   6.777   0.101   6.478  1.6590 -1.8990 -0.3130
12889TIP3   OH260081   5.067   4.699   0.579 -0.4651  0.2184  0.3638
12889TIP3    H160082   5.035   4.633   0.639  0.9098 -0.3430  0.5215
12889TIP3    H260083   4.992   4.721   0.524 -0.6647 -2.4223 -0.5525
12890TIP3   OH260084   6.738   5.066  12.729 -0.3557  0.0884  0.4271
12890TIP3    H160085   6.653   5.057  12.686  0.2772 -0.7459 -0.7252
12890TIP3    H260086   6.775   4.978  12.727 -0.0015  0.1614  2.1178
12891TIP3   OH260087   0.228   2.104  11.105 -0.4156  0.2225 -0.4484
12891TIP3    H160088   0.296   2.042  11.078 -0.9424  0.0742 -1.4948
12891TIP3    H260089   0.149   2.072  11.062 -0.5173  2.1345 -1.8196
12892TIP3   OH260090   5.264   5.695   3.572  0.0414  0.0488  0.0797
12892TIP3    H160091   5.244   5.721   3.482  1.8658  0.6652 -0.1919
12892TIP3    H260092   5.232   5.767   3.626  0.3623  0.4303 -0.2303
12893TIP3   OH260093   1.814   3.323  12.078 -0.6556 -0.3980 -0.6370
12893TIP3    H160094   1.906   3.350  12.083 -0.5791 -0.6024 -0.8610
12893TIP3    H260095   1.768   3.401  12.048 -0.9316  0.4286  1.7654
12894TIP3   OH260096   5.797   2.601  16.395 -0.4790  0.4056 -0.4864
12894TIP3    H160097   5.723   2.592  16.455  0.0101 -2.2706 -0.1525
12894TIP3    H260098   5.848   2.674  16.430 -1.9223  1.0308  0.3964
12895TIP3   OH260099   5.835   3.289  11.769 -0.2275 -0.1426  0.4959
12895TIP3    H160100   5.848   3.211  11.714  1.2064 -0.0004  0.5886
12895TIP3    H260101   5.829   3.255  11.858  0.1121 -0.1785  0.5075
12896TIP3   OH260102   3.555   0.608  16.655 -0.0799  0.0331  0.2176
12896TIP3    H160103   3.491   0.651  16.599  0.1483 -0.2292 -0.2468
12896TIP3    H260104   3.618   0.569  16.595 -1.0125 -2.1278  0.5430
12897TIP3   OH260105   0.685   1.771  11.378 -0.2569  0.0506  0.5046
12897TIP3    H160106   0.643   1.700  11.330  1.4934  0.2753 -1.5391
12897TIP3    H260107   0.664   1.755  11.470 -1.6935 -1.8503 -0.1031
12898TIP3   OH260108   2.877   4.806   2.834  0.1879  0.1541  0.2685
12898TIP3    H160109   2.862   4.711   2.831 -1.2664  0.3479  0.8095
12898TIP3    H260110   2.894   4.830   2.743 -2.5981 -0.1749 -0.4218
12899TIP3   OH260111   2.778   4.914   3.528  0.2236  0.1341  0.0493
12899TIP3    H160112   2.764   5.007   3.546 -0.2239  0.0094  0.3848
12899TIP3    H260113   2.723   4.895   3.452 -1.7527 -0.4120  1.5194
12900TIP3   OH260114   4.056   4.399  14.139  0.0773  0.2956  0.3868
12900TIP3    H160115   4.079   4.469  14.200 -0.1631  0.7872 -0.0781
12900TIP3    H260116   4.059   4.319  14.192 -1.4647  0.8677  1.3985
12901TIP3   OH260117   0.536   0.423   1.398  0.3487 -0.1415  0.0707
12901TIP3    H160118   0.451   0.379   1.405  0.2999 -0.0174  0.2555
12901TIP3    H260119   0.528   0.478   1.320 -0.4116  1.3384  1.1587
12902TIP3   OH260120   2.620   6.246   0.918  0.0269 -0.0975  0.1129
12902TIP3    H160121   2.613   6.151   0.919  1.8106 -0.2556  1.2549
12902TIP3    H260122   2.530   6.276   0.936 -0.6106 -1.5277 -0.5092
12903TIP3   OH260123   2.041   1.934  16.982  0.2903  0.2462  0.4121
12903TIP3    H160124   2.058   1.886  17.064  2.1586  1.4983  0.8416
12903TIP3    H260125   2.028   1.865  16.917  0.0675 -0.8027  1.5062
12904TIP3   OH260126   0.808   3.450  15.155 -0.5211 -0.1787  0.2937
12904TIP3    H160127   0.859   3.379  15.193  0.6680  0.0142 -0.8723
12904TIP3    H260128   0.805   3.516  15.224  0.9608 -0.1431  0.3624
12905TIP3   OH260129   5.311   4.616   2.481 -0.4017  0.1163  0.2492
12905TIP3    H160130   5.359   4.537   2.460 -0.5568 -0.0639  0.5638
12905TIP3    H260131   5.229   4.585   2.520 -0.3386  0.4364  0.6414
12906TIP3   OH260132   4.907   1.680  15.962 -0.0760 -0.2738 -0.4341
12906TIP3    H160133   4.849   1.695  15.886  0.3987  2.0694 -0.4220
12906TIP3    H260134   4.847   1.667  16.035 -0.6132  0.6179 -0.6913
12907TIP3   OH260135   0.613   4.891   5.605 -0.3031 -0.5142 -0.0384
12907TIP3    H160136   0.658   4.823   5.654 -2.2917 -0.9802  1.2322
12907TIP3    H260137   0.678   4.922   5.542  1.0994 -2.5705  0.3132
12908TIP3   OH260138   1.419   6.542   4.246  0.0187  0.1997  0.0416
12908TIP3    H160139   1.343   6.484   4.237  1.6551 -2.2401  0.8727
12908TIP3    H260140   1.491   6.493   4.205  1.4764  1.7119  0.6946
12909TIP3   OH260141   2.986   4.214  15.929 -0.0591  0.1944  0.2456
12909TIP3    H160142   3.007   4.237  16.019  0.0337  0.4181  0.1704
12909TIP3    H260143   2.893   4.232  15.920 -0.2961 -0.8078  0.5827
12910TIP3   OH260144   4.026   2.913  15.419 -0.0051 -1.0010 -0.2635
12910TIP3    H160145   4.080   2.837  15.401 -4.1275 -3.4878 -4.3522
12910TIP3    H260146   4.027   2.964  15.338 -0.3604  1.3350  1.0906
12911TIP3   OH260147   0.490   2.828  15.295 -0.0557  0.8308  0.4125
12911TIP3    H160148   0.568   2.798  15.340  0.4979  1.7013  0.0537
12911TIP3    H260149   0.464   2.754  15.240  1.4363  1.0630 -0.6578
12912TIP3   OH260150   4.287   3.936  12.184  0.1898 -0.2687 -0.2182
12912TIP3    H160151   4.216   3.890  12.227 -0.0090  1.7635  1.8093
12912TIP3    H260152   4.291   4.021  12.228  3.7836 -0.2266 -0.3329
12913TIP3   OH260153   0.472   6.077  14.114  0.0571  0.1733 -0.3752
12913TIP3    H160154   0.522   6.009  14.159 -0.3140  1.1952  1.7023
12913TIP3    H260155   0.531   6.152  14.111  0.0530  0.1451 -1.6027
12914TIP3   OH260156   0.607   2.621  14.982  0.2807 -0.3749  0.2578
12914TIP3    H160157   0.520   2.646  15.013  0.4599  0.0251  0.4368
12914TIP3    H260158   0.661   2.618  15.061  0.2387 -1.4264  0.2532
12915TIP3   OH260159   3.399   1.839  10.979 -0.1019 -0.4254 -0.6022
12915TIP3    H160160   3.383   1.931  10.958  1.0805  0.3006  1.4369
12915TIP3    H260161   3.312   1.801  10.988 -0.6135  0.2739 -2.1596
12916TIP3   OH260162   2.736   5.165   1.782  0.7408  0.0424 -0.1218
12916TIP3    H160163   2.688   5.141   1.861  1.8838 -1.4222  0.1772
12916TIP3    H260164   2.702   5.251   1.758 -1.5329 -0.6313  0.4358
12917TIP3   OH260165   6.563   5.976  10.732  0.0857 -0.5482 -0.4742
12917TIP3    H160166   6.656   5.954  10.744 -0.1577 -0.5236  2.1427
12917TIP3    H260167   6.563   6.070  10.717  0.4494 -0.1817  1.4873
12918TIP3   OH260168   2.818   1.512  15.828 -0.1094 -0.0248  0.6374
12918TIP3    H160169   2.905   1.546  15.810  0.0130 -0.3986  0.5004
12918TIP3    H260170   2.833   1.425  15.864 -0.4263 -0.1165  0.5581
12919TIP3   OH260171   4.306   3.441  13.413 -0.1594  0.1887  0.1688
12919TIP3    H160172   4.377   3.504  13.403 -1.4870  1.8392  0.7494
12919TIP3    H260173   4.319   3.405  13.501 -0.3642  0.9109  0.4995
12920TIP3   OH260174   4.775   6.248  11.395 -0.1806  0.2211  0.3373
12920TIP3    H160175   4.839   6.186  11.361  0.7494  1.6054 -0.5016
12920TIP3    H260176   4.784   6.242  11.490  0.0499 -0.7286  0.2703
12921TIP3   OH260177   4.124   0.043  16.083  0.2747  0.0370 -0.4453
12921TIP3    H160178   4.156  -0.013  16.012 -0.4471  0.0845 -0.8118
12921TIP3    H260179   4.203   0.090  16.113  0.5191  0.3602 -1.5236
12922TIP3   OH260180   6.162   5.126  14.017  0.1848 -0.3055  0.0539
12922TIP3    H160181   6.243   5.143  14.065  0.0126 -0.6770  0.4812
12922TIP3    H260182   6.150   5.031  14.022  0.2297 -0.3727 -0.8450
12923TIP3   OH260183   4.114   2.813  12.307 -0.0805  0.3499  0.3571
12923TIP3    H160184   4.148   2.902  12.310  2.2702 -0.4989  0.9688
12923TIP3    H260185   4.160   2.772  12.234  0.6327 -1.0047  1.5183
12924TIP3   OH260186   0.320   4.840  13.766 -0.0423  0.5794  0.4786
12924TIP3    H160187   0.232   4.831  13.729 -0.1047  0.8162  0.5691
12924TIP3    H260188   0.365   4.759  13.740 -0.5188  0.1154  1.0523
12925TIP3   OH260189   5.421   5.388   4.488  0.1387 -0.0293  0.2793
12925TIP3    H160190   5.347   5.449   4.494  0.1196  0.0637 -0.6871
12925TIP3    H260191   5.499   5.444   4.494  0.1192  0.0307  0.0237
12926TIP3   OH260192   2.101   2.633  11.478  0.6914 -0.1892 -0.4360
12926TIP3    H160193   2.037   2.609  11.544 -0.3712 -0.8463 -1.6538
12926TIP3    H260194   2.064   2.601  11.396  1.9675  0.5855 -1.3581
12927TIP3   OH260195   6.779   5.187  10.876 -0.0521 -0.1012  0.0198
12927TIP3    H160196   6.705   5.126  10.875 -0.2450  0.1139  0.7177
12927TIP3    H260197   6.808   5.190  10.785 -1.2139  0.1878 -0.3633
12928TIP3   OH260198   5.201   4.988   4.203 -0.0250  0.4120 -0.2093
12928TIP3    H160199   5.169   4.898   4.200  0.6614  0.0010  2.2907
12928TIP3    H260200   5.126   5.042   4.180 -0.6051 -0.7701 -1.1647
12929TIP3   OH260201   2.541   2.358  16.333  0.3028  0.0436  0.4831
12929TIP3    H160202   2.560   2.432  16.275 -0.5000 -1.5688 -1.9890
12929TIP3    H260203   2.603   2.368  16.406  0.3092  3.0229  0.1885
12930TIP3   OH260204   0.501   4.757  11.674  0.0928  0.2181 -0.1412
12930TIP3    H160205   0.557   4.770  11.750 -0.1913  1.4920 -0.1361
12930TIP3    H260206   0.534   4.819  11.609  0.1832 -0.6900 -0.9836
12931TIP3   OH260207   0.808   6.017  11.362  0.8080  0.5922  0.1455
12931TIP3    H160208   0.856   5.994  11.282 -0.7964  2.3444 -1.4273
12931TIP3    H260209   0.833   6.107  11.380 -1.1888  1.2790 -0.2504
12932TIP3   OH260210   4.526   6.717  11.832  0.6110  0.2448  0.3587
12932TIP3    H160211   4.443   6.683  11.799  0.1429 -0.4514  2.1107
12932TIP3    H260212   4.501   6.791  11.888  1.4951  2.5566 -2.0594
12933TIP3   OH260213   3.178   2.152  14.204  0.8121 -0.3473 -0.1238
12933TIP3    H160214   3.139   2.203  14.133  0.2912 -2.2005 -1.2559
12933TIP3    H260215   3.269   2.139  14.177  1.2645  0.8773  0.7190
12934TIP3   OH260216   5.950   3.537  16.402  0.5869  0.2848  0.7011
12934TIP3    H160217   5.969   3.496  16.318  0.5799  0.9787  0.3591
12934TIP3    H260218   5.860   3.570  16.393  0.5619  0.3056  1.0018
12935TIP3   OH260219   3.218   3.637  14.346  0.1204  0.4717 -0.5121
12935TIP3    H160220   3.305   3.610  14.374  0.0742  0.4469 -0.3947
12935TIP3    H260221   3.206   3.595  14.260  1.3437  2.6719 -1.8669
12936TIP3   OH260222   6.289   5.386   0.936  0.0688 -0.2650  0.0380
12936TIP3    H160223   6.203   5.428   0.927 -0.3177 -0.9777  0.3093
12936TIP3    H260224   6.314   5.401   1.027  1.3916  2.0760 -0.6354
12937TIP3   OH260225   2.301   5.288  15.793 -0.2870 -0.5188 -0.3280
12937TIP3    H160226   2.238   5.241  15.740  0.5996 -1.2279 -0.7661
12937TIP3    H260227   2.386   5.269  15.754  0.3575 -0.7812  1.1263
12938TIP3   OH260228   4.549   1.666   3.811 -0.2390 -0.0799  0.2241
12938TIP3    H160229   4.600   1.625   3.881 -0.0008 -0.1730 -0.0036
12938TIP3    H260230   4.466   1.617   3.811 -0.5249  0.3774  0.9085
12939TIP3   OH260231   2.341   4.124   5.039  0.3890  0.2304  0.4887
12939TIP3    H160232   2.368   4.036   5.067 -0.6541 -0.2061  0.1809
12939TIP3    H260233   2.280   4.152   5.107  1.1077  0.9463  0.8566
12940TIP3   OH260234   1.324   4.444   6.565  0.3365 -0.6255  0.0201
12940TIP3    H160235   1.286   4.517   6.615  1.6272 -0.7953  1.3356
12940TIP3    H260236   1.326   4.475   6.475 -0.2668  0.4765  0.3648
12941TIP3   OH260237   4.415   4.568  16.445 -0.4899 -0.0765 -0.1686
12941TIP3    H160238   4.402   4.661  16.431 -1.0453 -0.3047 -1.2528
12941TIP3    H260239   4.365   4.548  16.524  0.5604  0.7468  0.7238
12942TIP3   OH260240   5.586   6.139   2.939 -0.8489  0.2877  0.1700
12942TIP3    H160241   5.570   6.107   2.851 -0.8680  0.3608  0.1465
12942TIP3    H260242   5.631   6.222   2.927 -0.6720  0.2003  0.2328
12943TIP3   OH260243   6.622   6.488  11.275 -0.1795  0.0977 -0.3507
12943TIP3    H160244   6.676   6.565  11.255 -0.1280  0.6522  1.6315
12943TIP3    H260245   6.685   6.418  11.289 -0.2572 -0.5987 -2.9846
12944TIP3   OH260246   2.985   4.813   0.078  0.0915  0.0976  0.2181
12944TIP3    H160247   2.931   4.769   0.144 -0.3861 -0.0481 -0.2689
12944TIP3    H260248   3.025   4.742   0.028 -0.0033  0.2147 -0.0222
12945TIP3   OH260249   6.158   4.954   2.523 -0.2816  0.5232  0.5400
12945TIP3    H160250   6.134   5.025   2.464  0.4209  0.9355  0.7486
12945TIP3    H260251   6.074   4.922   2.557 -0.7040  0.2194 -0.7421
12946TIP3   OH260252   6.638   4.363   0.418  0.1302 -0.8330 -0.0189
12946TIP3    H160253   6.709   4.425   0.404  0.0275 -0.7959 -0.3739
12946TIP3    H260254   6.573   4.412   0.469 -0.2334 -0.4394 -0.8347
12947TIP3   OH260255   3.671   0.667  15.065 -0.1648  0.3545 -0.2085
12947TIP3    H160256   3.645   0.751  15.028 -0.2914  1.5413  2.3304
12947TIP3    H260257   3.764   0.659  15.043 -0.6706 -0.0620 -2.4901
12948TIP3   OH260258   6.712   6.488  12.038  0.4718  0.5373 -0.7488
12948TIP3    H160259   6.806   6.493  12.050  0.5680  1.3401 -1.6815
12948TIP3    H260260   6.680   6.575  12.061  0.2485  0.9663 -2.5113
12949TIP3   OH260261   3.357   0.810   5.563 -0.7295  0.2033  0.1359
12949TIP3    H160262   3.301   0.886   5.577  0.6270  1.2736  0.0150
12949TIP3    H260263   3.412   0.834   5.489 -0.9187 -1.3034 -0.5192
12950TIP3   OH260264   1.838   3.034   1.253 -1.1736  0.2175  0.3201
12950TIP3    H160265   1.834   3.068   1.163 -0.9021 -1.0724 -0.2002
12950TIP3    H260266   1.840   2.939   1.243 -0.7291  0.0579  1.6781
12951TIP3   OH260267   2.857   3.495  11.739 -0.4223  0.2631  0.2773
12951TIP3    H160268   2.866   3.590  11.732 -0.7226  0.3402  0.8885
12951TIP3    H260269   2.883   3.475  11.829 -3.4078  0.1573  1.2183
12952TIP3   OH260270   6.781   6.723  17.138 -0.1155 -0.0143  0.0782
12952TIP3    H160271   6.789   6.689  17.227 -1.4048  0.6774  0.4795
12952TIP3    H260272   6.821   6.655  17.083 -0.0382 -0.8248  1.1036
12953TIP3   OH260273   5.529   3.872   5.903 -0.1410 -0.0865 -0.0374
12953TIP3    H160274   5.571   3.896   5.986  0.4108  1.3344 -0.7085
12953TIP3    H260275   5.561   3.784   5.886 -1.7581 -1.2272  2.1939
12954TIP3   OH260276   6.498   0.335  13.731  0.3693 -0.1390  0.6803
12954TIP3    H160277   6.443   0.300  13.660  0.4778 -0.2550  0.6530
12954TIP3    H260278   6.551   0.260  13.758  0.4658 -0.0434  0.7521
12955TIP3   OH260279   0.029   2.486  15.281 -0.1725  0.6019  0.1572
12955TIP3    H160280  -0.061   2.464  15.302  0.2079 -1.2991 -0.0573
12955TIP3    H260281   0.069   2.509  15.365 -0.4255 -0.2322  0.5130
12956TIP3   OH260282   5.626   0.674  13.748 -0.1234  0.2039 -0.3932
12956TIP3    H160283   5.547   0.723  13.725 -1.2675 -1.1463  0.4720
12956TIP3    H260284   5.614   0.589  13.705  0.3797 -0.3511  0.5417
12957TIP3   OH260285   0.674   1.053  12.896  0.2510  0.1872 -0.0656
12957TIP3    H160286   0.619   1.073  12.972 -2.5443  0.7035 -2.0683
12957TIP3    H260287   0.702   0.963  12.909 -1.6442 -0.3218  0.7373
12958TIP3   OH260288   0.515   0.595  15.287  0.0405  0.2813  0.1927
12958TIP3    H160289   0.486   0.582  15.377  1.0431 -2.1505  0.2509
12958TIP3    H260290   0.532   0.689  15.280 -1.8365  0.8248  1.9338
12959TIP3   OH260291   4.383   2.029  14.696  0.2909 -0.9508 -0.1638
12959TIP3    H160292   4.452   2.008  14.634  0.3072 -0.4313 -0.3277
12959TIP3    H260293   4.426   2.030  14.781  0.1642 -2.1982 -0.0610
12960TIP3   OH260294   6.288   5.141  15.967  0.4767  0.6895  0.0252
12960TIP3    H160295   6.356   5.176  16.023  0.6760 -0.7694  0.7418
12960TIP3    H260296   6.334   5.085  15.904  0.7269  4.7707 -3.9534
12961TIP3   OH260297   5.474   1.957   2.898 -0.0335  0.0591  0.0513
12961TIP3    H160298   5.444   1.935   2.986  2.0153 -1.1010  0.5325
12961TIP3    H260299   5.557   1.910   2.889  0.8484  1.8161 -1.7327
12962TIP3   OH260300   3.573   1.822   0.414 -0.0752 -0.0821 -0.0907
12962TIP3    H160301   3.506   1.766   0.453 -1.6888  1.6778 -0.1598
12962TIP3    H260302   3.558   1.816   0.320 -0.3519  0.5486 -0.0923
12963TIP3   OH260303   3.066   5.845   4.439 -0.1354 -0.0248 -0.3749
12963TIP3    H160304   3.091   5.766   4.392  0.1403 -0.1260 -0.0600
12963TIP3    H260305   3.147   5.876   4.481  0.3975  1.8868 -2.5966
12964TIP3   OH260306   5.160   0.949  13.667 -0.0479  0.2875 -0.3302
12964TIP3    H160307   5.125   1.038  13.678 -1.4175 -0.2324 -0.3147
12964TIP3    H260308   5.084   0.892  13.681  0.9200 -0.9075  0.1317
12965TIP3   OH260309   6.272   2.438  13.879 -0.2416  0.3333 -0.5160
12965TIP3    H160310   6.186   2.401  13.897 -0.3967  0.9128 -0.0169
12965TIP3    H260311   6.328   2.362  13.863 -0.4854 -0.1349  0.7682
12966TIP3   OH260312   0.917   2.542  12.873 -0.0256  0.0648 -0.2020
12966TIP3    H160313   0.900   2.595  12.795 -1.5556  1.7703  1.2071
12966TIP3    H260314   0.841   2.485  12.880  0.5425 -0.7462 -0.4245
12967TIP3   OH260315   2.047   3.174   1.019 -0.4726  0.0777  0.2156
12967TIP3    H160316   2.061   3.093   1.069  0.0486 -1.2262 -1.9185
12967TIP3    H260317   1.956   3.170   0.992 -0.4038  0.1400 -0.0221
12968TIP3   OH260318   2.456   2.715   3.381  0.3366  0.3483 -0.3516
12968TIP3    H160319   2.430   2.632   3.341  1.1342 -0.3312  0.4879
12968TIP3    H260320   2.551   2.717   3.373  0.6768 -0.4013  2.5247
12969TIP3   OH260321   6.426   2.707  17.166  0.1308 -0.2279  0.1504
12969TIP3    H160322   6.473   2.788  17.188  1.6549 -1.1528  0.4942
12969TIP3    H260323   6.432   2.654  17.245  0.6453 -1.3232 -0.5972
12970TIP3   OH260324   4.562   1.693  14.648 -0.2754  0.2286 -0.4423
12970TIP3    H160325   4.479   1.719  14.610 -0.1037  0.4836 -0.6472
12970TIP3    H260326   4.616   1.668  14.573 -0.5683 -1.1150 -0.2324
12971TIP3   OH260327   2.382   0.841  13.643  0.0905 -1.4621  0.2658
12971TIP3    H160328   2.425   0.914  13.688  1.8330 -0.8151 -2.2654
12971TIP3    H260329   2.295   0.875  13.620  0.5440 -0.5044 -0.0717
12972TIP3   OH260330   0.354   5.700  14.985 -0.4309  0.1702 -0.1198
12972TIP3    H160331   0.346   5.731  15.075 -1.1721  1.3483 -0.5761
12972TIP3    H260332   0.445   5.720  14.961 -0.7963  1.6790 -0.2881
12973TIP3   OH260333   5.445   3.370  16.336 -0.0053  0.2106 -0.6826
12973TIP3    H160334   5.413   3.404  16.419 -1.1646 -0.4353 -0.8440
12973TIP3    H260335   5.366   3.359  16.283  0.6457 -0.0563 -1.6133
12974TIP3   OH260336   3.005   4.606  11.100 -0.2268  0.0440  0.2679
12974TIP3    H160337   2.979   4.639  11.014  1.8240  1.0016 -0.0328
12974TIP3    H260338   3.030   4.684  11.150 -0.4424 -0.5924  1.4178
12975TIP3   OH260339   5.251   5.788  11.100 -0.1399  0.0885  0.0132
12975TIP3    H160340   5.204   5.756  11.022 -0.1722 -3.4712  1.3003
12975TIP3    H260341   5.339   5.810  11.067 -0.4533 -0.3735 -1.2027
12976TIP3   OH260342   5.348   1.648  16.776  0.1865  0.1500  0.2468
12976TIP3    H160343   5.428   1.664  16.826  0.6128 -0.6322 -0.1606
12976TIP3    H260344   5.286   1.714  16.808  0.8485  0.4822  0.8833
12977TIP3   OH260345   6.197   1.034  16.004  0.3633 -0.4064 -0.0861
12977TIP3    H160346   6.258   0.985  15.949  0.4435  0.1702 -0.5150
12977TIP3    H260347   6.241   1.117  16.021 -0.6008  0.3254 -1.0205
12978TIP3   OH260348   0.335   2.688   0.261 -0.1840 -0.0915 -0.2053
12978TIP3    H160349   0.249   2.657   0.289 -0.4383  0.1490 -0.7137
12978TIP3    H260350   0.319   2.733   0.178  0.2183  1.2071  0.3945
12979TIP3   OH260351   5.532   3.807  16.005  0.7754 -0.1936 -0.0921
12979TIP3    H160352   5.463   3.766  16.058 -0.6097 -0.5457 -2.0582
12979TIP3    H260353   5.529   3.760  15.921  1.3945  1.7407 -1.2613
12980TIP3   OH260354   4.982   3.392   2.241 -0.2489 -0.5809  0.0085
12980TIP3    H160355   5.045   3.449   2.285 -2.0441  0.0985  1.8684
12980TIP3    H260356   4.897   3.426   2.267 -1.4006 -2.9087 -0.4514
12981TIP3   OH260357   0.811   1.447   1.099  0.2191  0.4034 -0.2372
12981TIP3    H160358   0.820   1.398   1.180 -1.4676 -1.1276 -0.9069
12981TIP3    H260359   0.747   1.515   1.118 -0.9404 -0.5859 -0.5257
12982TIP3   OH260360   4.373   4.716   3.513  0.0867  0.4126 -0.4208
12982TIP3    H160361   4.384   4.796   3.462 -1.5729  1.8537  1.2911
12982TIP3    H260362   4.278   4.708   3.523  0.3212 -0.0985  1.8850
12983TIP3   OH260363   2.566   4.793   3.407 -0.2161  0.2307 -0.6358
12983TIP3    H160364   2.569   4.791   3.312  1.0275 -2.8145 -0.6485
12983TIP3    H260365   2.511   4.719   3.431 -1.2107  1.4366  1.0617
12984TIP3   OH260366   3.063   0.740  14.664 -0.1324 -0.8841 -0.7389
12984TIP3    H160367   2.980   0.707  14.700 -0.2198  1.3264  1.3509
12984TIP3    H260368   3.039   0.777  14.579 -1.3714 -0.0407 -0.0564
12985TIP3   OH260369   3.229   6.085  15.176  0.4204  0.5191 -0.3024
12985TIP3    H160370   3.226   6.076  15.080  2.2516  0.0136 -0.3449
12985TIP3    H260371   3.195   6.173  15.192 -0.9573  0.2143 -1.3137
12986TIP3   OH260372   1.485   5.494  13.871  0.3035  0.0658  0.2652
12986TIP3    H160373   1.425   5.511  13.798  2.5766 -1.7933 -2.1842
12986TIP3    H260374   1.538   5.574  13.877 -1.0218  0.9257  1.1398
12987TIP3   OH260375   3.167   1.244  14.245  0.1593  0.6757 -0.3991
12987TIP3    H160376   3.076   1.242  14.274  0.2131 -0.0839 -0.2643
12987TIP3    H260377   3.174   1.170  14.185  1.1473 -0.4002  0.9906
12988TIP3   OH260378   3.661   6.625   5.627 -0.1210  0.2839  0.1371
12988TIP3    H160379   3.645   6.554   5.689  0.6010  0.5212  0.6061
12988TIP3    H260380   3.673   6.702   5.683 -0.7853  0.7621 -0.3622
12989TIP3   OH260381   4.513   4.970   3.620 -0.0923 -0.3394  0.0487
12989TIP3    H160382   4.518   5.064   3.638  0.0954 -0.1387 -0.9839
12989TIP3    H260383   4.488   4.964   3.528  0.6789 -1.2977 -0.1240
12990TIP3   OH260384   6.712   1.603  12.657 -0.5781 -0.1352 -0.3907
12990TIP3    H160385   6.709   1.683  12.710 -1.1585  0.2939 -1.0491
12990TIP3    H260386   6.714   1.532  12.721 -0.6972  0.3909  0.2081
12991TIP3   OH260387   6.693   4.081   2.653  0.2399 -0.5860 -0.1057
12991TIP3    H160388   6.654   4.012   2.600 -1.3955 -0.1093  0.4055
12991TIP3    H260389   6.689   4.048   2.743  2.0289 -0.9576 -0.1215
12992TIP3   OH260390   1.447   1.393  16.918 -0.2885 -0.4530  0.2854
12992TIP3    H160391   1.384   1.388  16.845  0.8627 -1.9177 -0.6536
12992TIP3    H260392   1.464   1.302  16.941  0.1872 -0.0204  1.6953
12993TIP3   OH260393   0.855   5.904   2.791 -0.3473 -0.0055 -0.4514
12993TIP3    H160394   0.784   5.944   2.742 -0.4042 -0.8912 -1.1302
12993TIP3    H260395   0.920   5.973   2.801 -1.2618  0.7970  0.1184
12994TIP3   OH260396   4.886   4.874   5.770 -0.8098  1.0350 -0.1888
12994TIP3    H160397   4.868   4.781   5.784 -0.8481  1.1428  0.5682
12994TIP3    H260398   4.967   4.890   5.820 -0.0309  1.1144 -1.4384
12995TIP3   OH260399   0.022   3.413  15.860 -0.7116 -0.5773  0.8422
12995TIP3    H160400   0.065   3.490  15.823 -0.3629 -1.5798 -0.9634
12995TIP3    H260401  -0.038   3.448  15.925 -1.0965  1.2944 -0.4375
12996TIP3   OH260402   1.586   2.679   4.183 -0.0447  0.1349 -0.2131
12996TIP3    H160403   1.645   2.706   4.253 -0.6981  1.4950 -0.1508
12996TIP3    H260404   1.516   2.631   4.228 -0.0278  0.2777 -0.0322
12997TIP3   OH260405   6.274   5.717   2.972 -0.2416 -0.2085  0.3849
12997TIP3    H160406   6.255   5.671   2.890 -1.4456 -0.3543  0.7228
12997TIP3    H260407   6.196   5.703   3.026  0.4507  0.0506  1.4842
12998TIP3   OH260408   3.400   4.090   5.612 -0.2614 -0.7447 -0.2664
12998TIP3    H160409   3.419   4.103   5.519  0.5268 -3.4804 -0.5743
12998TIP3    H260410   3.463   4.025   5.641 -0.1551  0.3921  2.3679
12999TIP3   OH260411   0.430   0.959  17.167 -0.1344 -0.0231  0.2478
12999TIP3    H160412   0.519   0.962  17.132 -0.3841 -0.0002 -0.4142
12999TIP3    H260413   0.410   1.049  17.192  0.6746 -0.3173  2.1345
13000TIP3   OH260414   1.619   3.667  15.961 -0.4259 -0.0695 -0.3106
13000TIP3    H160415   1.610   3.703  15.873  0.3077  1.9876  0.4143
13000TIP3    H260416   1.713   3.653  15.971 -0.3781  0.8136  0.5518
13001TIP3   OH260417   6.388   3.851   3.897 -0.4291 -0.6115 -1.1124
13001TIP3    H160418   6.294   3.854   3.915 -0.0706 -0.0096  0.9860
13001TIP3    H260419   6.425   3.920   3.953  1.1558 -0.0647 -2.7526
13002TIP3   OH260420   4.496   2.197  15.418 -0.3590 -0.3716  0.0792
13002TIP3    H160421   4.542   2.192  15.502  1.4422  0.5976 -0.7915
13002TIP3    H260422   4.470   2.107  15.399 -0.4584 -0.6540  1.4832
13003TIP3   OH260423   5.484   2.025   0.536  0.6515  0.6442 -0.4353
13003TIP3    H160424   5.398   2.062   0.557 -0.0624  1.5120 -4.1736
13003TIP3    H260425   5.464   1.950   0.480  2.3674 -0.3549  0.1989
13004TIP3   OH260426   4.502   6.185   5.809 -0.3996  0.5200  0.3630
13004TIP3    H160427   4.539   6.097   5.804 -0.3159  0.5527  0.4135
13004TIP3    H260428   4.538   6.230   5.732 -1.4098  0.1380 -0.3510
13005TIP3   OH260429   6.268   5.968  13.992  0.0832 -0.4652 -0.3621
13005TIP3    H160430   6.303   5.938  13.908 -0.3972 -0.5214 -0.5488
13005TIP3    H260431   6.222   6.050  13.970  0.8957  0.1106  0.0383
13006TIP3   OH260432   3.898   3.659   4.294  0.8544  0.0429  0.0651
13006TIP3    H160433   3.827   3.597   4.310  1.3488 -0.5470  0.0019
13006TIP3    H260434   3.888   3.725   4.362  1.2756 -0.9505  1.1264
13007TIP3   OH260435   3.915   6.775  12.867 -0.1934 -0.0590  0.1637
13007TIP3    H160436   3.893   6.859  12.907 -0.3203  0.3841 -0.8057
13007TIP3    H260437   4.003   6.787  12.832 -0.4806 -0.0698 -0.6028
13008TIP3   OH260438   0.361   4.938   5.764  0.4018  0.1535  0.2861
13008TIP3    H160439   0.423   4.911   5.695  0.8082 -0.5026  0.8870
13008TIP3    H260440   0.377   5.031   5.776  0.1560  0.3370 -0.6681
13009TIP3   OH260441   3.777   1.647  17.089  0.0895  0.1474 -0.3494
13009TIP3    H160442   3.684   1.639  17.114 -0.3016  0.5084 -1.6061
13009TIP3    H260443   3.775   1.699  17.008  1.5682  2.2848  0.8741
13010TIP3   OH260444   0.566   0.654   5.964 -0.3459 -0.0656 -0.1705
13010TIP3    H160445   0.580   0.594   6.038  0.3221  1.1158  0.6846
13010TIP3    H260446   0.628   0.725   5.978 -0.4856  0.3926 -1.6671
13011TIP3   OH260447   0.374   1.249   0.085 -0.1704  0.1169  0.2489
13011TIP3    H160448   0.285   1.274   0.109  0.4625  2.6136  0.2338
13011TIP3    H260449   0.420   1.239   0.169  0.1867  1.4722  0.2226
13012TIP3   OH260450   1.339   6.469  16.622  0.0519 -0.0895  0.4797
13012TIP3    H160451   1.275   6.409  16.585 -0.9630 -1.0654  3.4992
13012TIP3    H260452   1.328   6.550  16.572 -1.8790 -0.9647 -0.6235
13013TIP3   OH260453   2.923   1.515   1.141  0.7559  0.5787  0.2636
13013TIP3    H160454   2.920   1.564   1.222 -0.1318  0.2040  0.4708
13013TIP3    H260455   2.849   1.454   1.147  0.2480  1.0097 -1.1122
13014TIP3   OH260456   5.122   6.244   0.912  0.1353 -0.2615 -0.7562
13014TIP3    H160457   5.189   6.188   0.874  0.2626 -0.3413 -0.4194
13014TIP3    H260458   5.152   6.259   1.002 -0.0681  0.0693 -0.7422
13015TIP3   OH260459   0.719   2.708  15.451  0.4191 -0.0301  0.6164
13015TIP3    H160460   0.770   2.630  15.471 -0.8860 -0.9891  0.3667
13015TIP3    H260461   0.761   2.778  15.500  1.5385 -0.9204  0.9556
13016TIP3   OH260462   6.793   1.355  16.804 -0.3226 -0.1730 -0.3937
13016TIP3    H160463   6.859   1.344  16.872  1.5692  0.9433 -1.9434
13016TIP3    H260464   6.720   1.399  16.848  2.5212  4.6781  0.2219
13017TIP3   OH260465   5.456   6.591  16.638  0.5549  0.3460 -1.0426
13017TIP3    H160466   5.468   6.655  16.568 -0.8218  0.3229 -1.3214
13017TIP3    H260467   5.390   6.629  16.696  0.7806 -0.1845 -0.4119
13018TIP3   OH260468   2.811   1.612  12.368  0.3405  0.1968  0.2053
13018TIP3    H160469   2.802   1.520  12.395  0.2088  0.0395 -0.3554
13018TIP3    H260470   2.882   1.611  12.304  2.2074  0.9187  2.1445
13019TIP3   OH260471   2.306   3.748   5.185  0.0546 -0.0716 -0.4858
13019TIP3    H160472   2.285   3.725   5.094 -0.1471 -1.0182 -0.2117
13019TIP3    H260473   2.270   3.676   5.236  1.9065 -0.5702  0.1952
13020TIP3   OH260474   2.891   5.920  13.837  0.4732  0.8336  0.5296
13020TIP3    H160475   2.901   6.011  13.863 -0.8856  1.9200 -2.2760
13020TIP3    H260476   2.897   5.922  13.741 -0.0805 -1.9667  0.3532
13021TIP3   OH260477   4.756   3.327  15.382 -0.3179 -0.2215  0.7629
13021TIP3    H160478   4.695   3.256  15.405  0.1863 -0.7998  0.3594
13021TIP3    H260479   4.816   3.287  15.319  0.4854  0.3345  1.1646
13022TIP3   OH260480   2.064   2.853  11.984 -0.0470  0.3225  1.0301
13022TIP3    H160481   2.123   2.883  12.053 -1.3687 -1.4943  3.1182
13022TIP3    H260482   2.094   2.898  11.905  2.8149  1.0077  2.3584
13023TIP3   OH260483   3.759   3.349  11.603  0.1627 -0.8351  0.1653
13023TIP3    H160484   3.712   3.360  11.521 -1.4179  1.7605  1.2960
13023TIP3    H260485   3.720   3.271  11.643  1.2007 -2.3508 -1.5923
13024TIP3   OH260486   0.921   0.197   4.609 -0.2581 -0.2703  0.2095
13024TIP3    H160487   0.845   0.159   4.652 -2.6921 -0.0896 -3.4819
13024TIP3    H260488   0.888   0.275   4.565  1.7825 -0.6393 -2.2400
13025TIP3   OH260489   3.158   5.896  16.462 -0.5201  0.0752  0.8351
13025TIP3    H160490   3.244   5.931  16.484 -1.1316  2.6232 -0.4525
13025TIP3    H260491   3.131   5.944  16.384 -1.6433 -3.1754 -0.9846
13026TIP3   OH260492   4.842   3.082  12.088  0.0387 -0.9649 -0.7189
13026TIP3    H160493   4.811   3.133  12.012 -0.1643 -2.7859 -1.9328
13026TIP3    H260494   4.928   3.051  12.062  1.7942  1.6210  1.4636
13027TIP3   OH260495   2.060   1.382   2.320  0.0213  0.0614 -0.3704
13027TIP3    H160496   1.997   1.310   2.332 -0.0385  0.1158 -0.3576
13027TIP3    H260497   2.073   1.386   2.226 -1.6887  1.4890 -0.6012
13028TIP3   OH260498   4.802   2.133  12.998  0.2836  0.0270  0.1034
13028TIP3    H160499   4.895   2.123  13.015  0.4049  0.4723 -0.2796
13028TIP3    H260500   4.772   2.198  13.062  0.2463 -0.0806  0.1958
13029TIP3   OH260501   6.241   1.912  15.235 -0.1089 -0.1991  0.4268
13029TIP3    H160502   6.271   1.915  15.144  0.3422  1.9294  0.5797
13029TIP3    H260503   6.146   1.903  15.229  0.0408 -1.6083 -0.1902
13030TIP3   OH260504   1.114   2.339  15.563 -0.3185 -0.1796  0.3799
13030TIP3    H160505   1.155   2.425  15.574 -2.3012  0.5908  2.6284
13030TIP3    H260506   1.072   2.321  15.648 -0.7260 -2.9748 -0.3104
13031TIP3   OH260507   4.323   4.953   4.120  0.4808  0.0685  0.0601
13031TIP3    H160508   4.331   4.998   4.204  0.7662  0.3307 -0.1036
13031TIP3    H260509   4.235   4.974   4.090  0.6803  0.6801 -0.1053
13032TIP3   OH260510   5.076   0.509   1.767 -0.5352  0.3124 -0.1256
13032TIP3    H160511   5.074   0.485   1.859 -2.4541  0.0270 -0.2086
13032TIP3    H260512   5.000   0.566   1.755 -0.4659  0.1421 -1.5834
13033TIP3   OH260513   0.872   4.025   4.006  0.1643  0.1809  0.1934
13033TIP3    H160514   0.798   3.975   3.970  1.1100  1.0138 -3.2881
13033TIP3    H260515   0.873   4.106   3.955  2.2023  1.1521  1.6433
13034TIP3   OH260516   3.917   1.289   2.165 -0.4279 -0.7280  0.0758
13034TIP3    H160517   3.919   1.292   2.261 -0.6908  1.2224  0.0638
13034TIP3    H260518   3.915   1.381   2.138  1.2015 -1.1834 -1.8625
13035TIP3   OH260519   5.275   2.609  11.822  0.1699  0.0256  0.0549
13035TIP3    H160520   5.305   2.558  11.897 -3.5139 -2.5868  0.0267
13035TIP3    H260521   5.323   2.573  11.747  1.1254  0.0106  0.6652
13036TIP3   OH260522   6.025   2.890   2.966  0.5469  0.0634 -0.5512
13036TIP3    H160523   5.945   2.899   3.017  0.9519 -2.1511  0.6156
13036TIP3    H260524   6.059   2.979   2.958 -0.4730  0.7025  1.5170
13037TIP3   OH260525   4.954   5.927   3.294  0.4909  0.3914 -0.0988
13037TIP3    H160526   5.013   5.923   3.369 -1.1865 -1.2010  1.2442
13037TIP3    H260527   4.999   5.879   3.225  0.8640 -0.6686  0.8444
13038TIP3   OH260528   4.146   0.091   5.031  0.3427 -0.0459  0.9452
13038TIP3    H160529   4.098   0.080   4.949  1.1785  3.0250 -0.1091
13038TIP3    H260530   4.102   0.034   5.094 -0.3220 -2.5398 -1.5903
13039TIP3   OH260531   0.774   2.362  13.649  0.3189 -0.2182  0.1818
13039TIP3    H160532   0.705   2.394  13.591 -0.2588 -0.6745  0.6086
13039TIP3    H260533   0.798   2.277  13.613  0.1379 -0.3890  0.4678
13040TIP3   OH260534   0.002   5.177   3.876 -0.4061  0.5956  0.2005
13040TIP3    H160535   0.028   5.269   3.876 -0.0113  0.4922 -0.8171
13040TIP3    H260536  -0.015   5.157   3.968 -0.8242  1.7719  0.3917
13041TIP3   OH260537   5.834   5.858   1.396 -0.2591 -0.0318  0.7561
13041TIP3    H160538   5.849   5.909   1.475  0.8610  1.2858 -0.2438
13041TIP3    H260539   5.895   5.785   1.402 -0.5578 -0.2318  1.3506
13042TIP3   OH260540   5.862   4.766   1.914 -0.4479 -0.0252 -0.3139
13042TIP3    H160541   5.853   4.679   1.875  1.5477 -0.1997 -0.4794
13042TIP3    H260542   5.945   4.799   1.880 -1.7174  2.4788 -1.2253
13043TIP3   OH260543   5.348   6.359  16.970 -0.3817 -0.1166  0.2678
13043TIP3    H160544   5.277   6.342  17.031 -0.5050 -1.3844 -0.2009
13043TIP3    H260545   5.314   6.333  16.884  0.7401 -1.1505  0.0915
13044TIP3   OH260546   1.687   2.926   0.367  0.2353 -0.1201 -0.2253
13044TIP3    H160547   1.603   2.883   0.383 -0.0147  1.0113  1.9439
13044TIP3    H260548   1.711   2.902   0.278 -1.0199 -2.7686  0.0769
13045TIP3   OH260549   3.432   2.461  16.339 -0.7812 -0.0559  0.3263
13045TIP3    H160550   3.467   2.467  16.250  1.0771 -0.2845  1.0225
13045TIP3    H260551   3.370   2.388  16.336 -0.7987 -0.0079 -0.7792
13046TIP3   OH260552   6.265   1.560  13.583  0.5693 -0.3879 -0.0721
13046TIP3    H160553   6.224   1.496  13.641  0.9624 -0.7132 -0.1427
13046TIP3    H260554   6.265   1.518  13.497 -0.0718  0.1206 -0.3233
13047TIP3   OH260555   0.944   4.190   3.257 -0.4540 -0.1457  0.3660
13047TIP3    H160556   0.990   4.172   3.339  1.3882  1.2522 -0.2812
13047TIP3    H260557   0.960   4.283   3.240 -2.0556 -0.0425 -0.8412
13048TIP3   OH260558   6.104   6.398  15.590 -0.0993  0.6747  0.2125
13048TIP3    H160559   6.090   6.459  15.518 -0.5251 -0.4363 -0.6856
13048TIP3    H260560   6.017   6.362  15.608  0.0685  0.6642  1.0353
13049TIP3   OH260561   4.205   0.251  14.513 -0.2345 -0.3617 -0.1653
13049TIP3    H160562   4.243   0.322  14.564  0.1738 -0.1710 -0.7107
13049TIP3    H260563   4.139   0.212  14.569 -1.3303  1.2302 -0.3025
13050TIP3   OH260564   6.742   6.535  15.347 -0.5902  0.1296  0.7778
13050TIP3    H160565   6.705   6.485  15.274 -2.0270  1.4188  0.5608
13050TIP3    H260566   6.767   6.619  15.308  0.9465 -0.0692  1.3008
13051TIP3   OH260567   3.808   2.294  15.191 -0.0174 -0.1845 -0.0164
13051TIP3    H160568   3.808   2.342  15.108 -1.7712  4.2389  2.2022
13051TIP3    H260569   3.716   2.270  15.204  0.0923 -0.1140  0.9513
13052TIP3   OH260570   6.407   4.349  12.558 -0.4788  0.2009  0.0968
13052TIP3    H160571   6.375   4.338  12.468  0.6029  0.3552 -0.3259
13052TIP3    H260572   6.347   4.412  12.597 -0.6939  0.4910 -0.6797
13053TIP3   OH260573   2.372   6.337   5.418  0.2991  0.4708  0.0058
13053TIP3    H160574   2.289   6.308   5.457 -0.2750  0.6515 -1.0499
13053TIP3    H260575   2.381   6.429   5.444 -0.8429  1.0344 -1.5225
13054TIP3   OH260576   5.435   2.222   2.363  0.2152 -0.8403 -0.1076
13054TIP3    H160577   5.389   2.197   2.283 -0.7295 -0.1198  0.1832
13054TIP3    H260578   5.519   2.256   2.332  0.5161 -2.0601 -0.6657
13055TIP3   OH260579   5.524   5.535   3.804 -0.0662  0.2128  0.2734
13055TIP3    H160580   5.571   5.554   3.886  0.2783 -1.3732  0.4749
13055TIP3    H260581   5.581   5.569   3.735  1.5054 -1.7118  0.5066
13056TIP3   OH260582   6.786   6.613  14.612 -0.4857  0.7178 -0.0903
13056TIP3    H160583   6.785   6.549  14.541 -1.2048  0.5148  0.0982
13056TIP3    H260584   6.875   6.609  14.646 -1.5003 -3.5278  2.8808
13057TIP3   OH260585   2.412   3.163   1.719 -0.2904 -0.3381 -0.1453
13057TIP3    H160586   2.341   3.100   1.735 -0.0134 -0.1688  2.0091
13057TIP3    H260587   2.376   3.247   1.748 -0.1492  0.2884 -1.6658
13058TIP3   OH260588   3.304   6.551   5.545 -0.0793 -0.0086  0.0694
13058TIP3    H160589   3.227   6.594   5.510 -0.3900 -0.4515  0.2061
13058TIP3    H260590   3.367   6.550   5.473  0.4595  1.9006  0.4440
13059TIP3   OH260591   3.083   1.488   2.495 -0.4047  0.8175  0.2907
13059TIP3    H160592   3.028   1.516   2.421  0.0012  0.5787 -0.1119
13059TIP3    H260593   3.068   1.553   2.563 -1.4737  0.5419  0.3248
13060TIP3   OH260594   6.739   5.244   0.407  0.0893  0.0800  0.3363
13060TIP3    H160595   6.698   5.255   0.493 -1.9690  0.5180 -0.6389
13060TIP3    H260596   6.699   5.165   0.371  1.3929 -0.4541 -0.0073
13061TIP3   OH260597   0.077   1.893  16.850  0.3692 -0.1810  0.2584
13061TIP3    H160598   0.098   1.849  16.932 -0.8303 -2.1861 -0.4221
13061TIP3    H260599   0.155   1.880  16.796  1.1947  1.2190  1.0625
13062TIP3   OH260600   5.739   5.956  12.908 -0.3358  0.1912 -0.1382
13062TIP3    H160601   5.802   5.965  12.836 -1.5986 -0.5637 -1.3962
13062TIP3    H260602   5.684   6.035  12.902 -1.3814 -0.5576 -1.0158
13063TIP3   OH260603   0.906   5.139   2.662 -0.0830  0.8127 -0.1711
13063TIP3    H160604   0.901   5.097   2.576 -0.3111 -0.9953  0.6749
13063TIP3    H260605   0.843   5.210   2.657 -1.7155 -0.6042 -0.8249
13064TIP3   OH260606   5.311   1.722  14.492  0.0481 -0.4213 -0.4215
13064TIP3    H160607   5.260   1.787  14.444  0.5238 -0.3871 -0.8887
13064TIP3    H260608   5.250   1.686  14.557 -0.8221 -1.0040 -1.5319
13065TIP3   OH260609   1.538   4.914  16.667 -0.3950  0.3605 -0.1917
13065TIP3    H160610   1.444   4.915  16.646 -0.4323  2.2745 -0.0770
13065TIP3    H260611   1.547   4.842  16.729 -1.5305 -0.7631 -1.2733
13066TIP3   OH260612   6.035   3.731  10.581  0.5712 -0.0475 -0.1512
13066TIP3    H160613   5.944   3.745  10.609  0.4593  0.3560 -0.7133
13066TIP3    H260614   6.032   3.736  10.486  1.2811  0.5431 -0.1516
13067TIP3   OH260615   4.441   5.076  16.046  0.4809 -0.1587 -0.1161
13067TIP3    H160616   4.478   5.008  15.990  0.4305 -0.6734  0.4622
13067TIP3    H260617   4.383   5.125  15.989  0.1034 -0.9432 -0.4226
13068TIP3   OH260618   4.777   5.749  11.270  0.3316 -0.4180 -0.1408
13068TIP3    H160619   4.794   5.730  11.178 -0.7153 -1.1704 -0.1975
13068TIP3    H260620   4.700   5.806  11.268 -4.1351 -5.5776  0.3244
13069TIP3   OH260621   5.315   0.776  14.904  0.4190 -0.7152  0.5040
13069TIP3    H160622   5.249   0.740  14.964  0.2689  0.2623  0.9339
13069TIP3    H260623   5.265   0.827  14.840  0.7543  0.1152  0.8928
13070TIP3   OH260624   0.070   6.287   3.812 -0.0241 -0.3484  0.1685
13070TIP3    H160625  -0.001   6.257   3.755 -0.5177 -1.0990  1.1599
13070TIP3    H260626   0.103   6.207   3.853  0.5202  0.1571  0.7277
13071TIP3   OH260627   2.145   1.933  16.261 -0.2066 -0.1141 -0.0499
13071TIP3    H160628   2.205   1.900  16.195 -0.1540  0.5288 -0.3230
13071TIP3    H260629   2.103   1.854  16.296  1.1489 -0.6140  0.5007
13072TIP3   OH260630   5.573   4.275   4.508 -0.6387 -0.3085  0.4741
13072TIP3    H160631   5.480   4.263   4.486 -0.4241  1.9338 -2.3043
13072TIP3    H260632   5.572   4.315   4.595 -2.1342 -1.7306  1.1728
13073TIP3   OH260633   3.216   4.730  10.605 -0.1964 -0.1344  0.1632
13073TIP3    H160634   3.264   4.658  10.564  0.5894  1.0795 -1.1336
13073TIP3    H260635   3.263   4.748  10.686 -0.0197 -0.6499  0.1769
13074TIP3   OH260636   0.176   1.514   2.039  0.1179 -0.0718  0.5867
13074TIP3    H160637   0.097   1.557   2.070 -0.5452  0.0960 -1.2414
13074TIP3    H260638   0.247   1.556   2.087 -0.8687 -0.1106  2.1347
13075TIP3   OH260639   2.199   3.095   2.521 -0.6196  0.5122  0.5172
13075TIP3    H160640   2.196   3.077   2.427 -1.4874  2.5749  0.0979
13075TIP3    H260641   2.263   3.166   2.530  0.8997 -0.9444  1.7668
13076TIP3   OH260642   2.538   0.123   0.492 -0.0238 -0.2972 -0.2004
13076TIP3    H160643   2.509   0.032   0.485 -1.0795 -0.0803  1.1051
13076TIP3    H260644   2.586   0.127   0.575  1.9318 -0.1290 -1.2613
13077TIP3   OH260645   6.294   6.325  12.402  0.6350 -0.0974  0.5841
13077TIP3    H160646   6.244   6.311  12.322  0.9419  1.0038  0.1840
13077TIP3    H260647   6.333   6.240  12.421  1.3591 -0.1542 -0.9872
13078TIP3   OH260648   0.248   5.391   4.717  0.5485 -0.0088 -0.3396
13078TIP3    H160649   0.300   5.396   4.797 -0.0037  2.3621 -0.0534
13078TIP3    H260650   0.162   5.426   4.742 -1.2238 -3.4747 -0.8752
13079TIP3   OH260651   3.609   1.078   6.020  0.5240  0.0336 -0.0871
13079TIP3    H160652   3.618   1.094   5.926 -0.3468  0.2616 -0.1462
13079TIP3    H260653   3.596   1.165   6.058 -1.6792 -0.2251 -0.0937
13080TIP3   OH260654   3.918   5.867   2.967  0.1718  0.3341  0.3187
13080TIP3    H160655   3.952   5.783   2.999 -0.1094  0.5766  1.3089
13080TIP3    H260656   3.984   5.931   2.994 -0.0591  0.5429  0.3894
13081TIP3   OH260657   0.544   1.821  11.942 -0.3927  0.5313  0.3354
13081TIP3    H160658   0.491   1.743  11.927 -0.9752  1.1553 -0.9917
13081TIP3    H260659   0.620   1.789  11.991 -1.4726 -0.5516  1.3624
13082TIP3   OH260660   5.800   2.129  14.078 -0.7528  0.1270  0.1168
13082TIP3    H160661   5.828   2.220  14.065  0.2020 -0.4108 -2.1421
13082TIP3    H260662   5.882   2.080  14.088 -1.0335 -0.8753 -1.9721
13083TIP3   OH260663   5.875   0.682   5.294 -0.0520  0.3392 -0.1668
13083TIP3    H160664   5.947   0.698   5.233  0.5345 -1.3873 -0.0045
13083TIP3    H260665   5.901   0.601   5.340 -0.9967  0.9551  1.5589
13084TIP3   OH260666   2.851   0.558   4.757  0.4345 -0.0756  0.1181
13084TIP3    H160667   2.840   0.557   4.662  0.2226 -1.1893  0.1343
13084TIP3    H260668   2.894   0.475   4.777  0.7017  0.2567  0.9777
13085TIP3   OH260669   2.018   0.469   3.020 -0.2527 -0.3059  0.5609
13085TIP3    H160670   2.108   0.462   2.988  0.1405  1.5046  1.1824
13085TIP3    H260671   2.002   0.563   3.027 -2.3529 -0.5909  0.0831
13086TIP3   OH260672   2.920   0.174  15.606 -0.4697  0.3079  0.1524
13086TIP3    H160673   2.990   0.235  15.632  0.0362 -0.3808  0.4336
13086TIP3    H260674   2.932   0.098  15.663 -0.1322 -0.7060 -1.2163
13087TIP3   OH260675   2.587   1.028   6.525  0.7194 -0.2540  0.0924
13087TIP3    H160676   2.607   0.964   6.593 -1.2118  0.0427  1.0224
13087TIP3    H260677   2.508   0.994   6.483 -0.5860  1.6332  0.8729
13088TIP3   OH260678   3.707   0.198  10.820  0.3959  0.4806 -0.5147
13088TIP3    H160679   3.687   0.290  10.838  1.1024  0.1494  2.6154
13088TIP3    H260680   3.708   0.191  10.725 -3.0615  2.9400 -0.9114
13089TIP3   OH260681   3.100   0.939  14.455 -0.2923  0.0293  0.7934
13089TIP3    H160682   3.195   0.946  14.446 -0.1738 -0.1347  1.7984
13089TIP3    H260683   3.071   1.026  14.482 -0.5424  0.3028 -0.3006
13090TIP3   OH260684   6.429   5.288  14.764  0.5945 -0.7526 -0.1169
13090TIP3    H160685   6.341   5.321  14.781  0.8054 -0.4192  0.3485
13090TIP3    H260686   6.440   5.296  14.669  0.7850  0.8900  0.0247
13091TIP3   OH260687   2.820   5.920   4.843  0.2103  0.3758  0.0992
13091TIP3    H160688   2.826   5.939   4.749 -0.6196 -0.2578 -0.0907
13091TIP3    H260689   2.906   5.945   4.878  0.2081  1.5066 -0.6552
13092TIP3   OH260690   5.833   5.821  14.816  0.5276 -0.2665  0.4502
13092TIP3    H160691   5.761   5.768  14.782  0.7907  0.1365 -0.7881
13092TIP3    H260692   5.801   5.911  14.811  1.7335  0.1219 -1.9200
13093TIP3   OH260693   4.922   0.167   0.942  0.1312  0.1564  0.2403
13093TIP3    H160694   4.933   0.220   1.021  2.7544 -0.1567  0.1607
13093TIP3    H260695   4.966   0.217   0.873 -0.3410 -0.5530 -0.5976
13094TIP3   OH260696   1.222   3.440  15.388 -0.4532 -0.2523  0.3435
13094TIP3    H160697   1.318   3.439  15.393 -0.3817  0.4045 -0.5504
13094TIP3    H260698   1.203   3.421  15.296 -1.1918 -0.6539  0.5764
13095TIP3   OH260699   2.679   0.616   2.018  0.6493  0.2150  0.4805
13095TIP3    H160700   2.704   0.694   2.068  0.3676  1.1610 -0.8288
13095TIP3    H260701   2.623   0.648   1.948  0.2086 -1.2192  0.1403
13096TIP3   OH260702   4.007   3.417   3.319  0.2050  0.2589 -0.1793
13096TIP3    H160703   4.073   3.364   3.363  1.3247  0.5250 -1.4896
13096TIP3    H260704   4.042   3.505   3.318  0.3489  0.2162 -1.8142
13097TIP3   OH260705   0.317   1.077   0.687  0.4772 -0.0534  0.4638
13097TIP3    H160706   0.284   1.033   0.608  3.3026 -2.7514  0.5917
13097TIP3    H260707   0.301   1.015   0.758  3.2176 -0.3926  0.9235
13098TIP3   OH260708   2.781   5.345  13.240 -0.8440 -0.2732 -0.6718
13098TIP3    H160709   2.756   5.263  13.197 -0.6431 -0.8006  0.1930
13098TIP3    H260710   2.809   5.319  13.327 -0.5641  0.6999 -0.4569
13099TIP3   OH260711   2.834   4.379   1.641 -0.1905 -0.0855  0.0342
13099TIP3    H160712   2.892   4.324   1.694 -0.2341  0.8611  1.1040
13099TIP3    H260713   2.746   4.355   1.669 -0.3446 -1.3278 -1.3978
13100TIP3   OH260714   2.028   5.044   5.348 -0.4317 -0.1834 -0.9026
13100TIP3    H160715   2.054   5.134   5.329  0.2391  0.0443  0.8801
13100TIP3    H260716   1.932   5.047   5.347 -0.4510  0.8809  0.3355
13101TIP3   OH260717   2.952   5.749  15.600 -0.1230  0.3809 -0.1544
13101TIP3    H160718   2.869   5.712  15.569 -0.6109 -0.4813  1.9804
13101TIP3    H260719   2.929   5.834  15.636  0.0533  0.4580 -0.2223
13102TIP3   OH260720   0.135   0.977   4.377  0.1526  0.2748  0.0092
13102TIP3    H160721   0.080   0.972   4.299  0.5173  1.1257 -0.3169
13102TIP3    H260722   0.073   0.975   4.450 -0.2988  0.8334 -0.3414
13103TIP3   OH260723   2.342   6.361  12.899  0.0831  0.5641 -0.3251
13103TIP3    H160724   2.359   6.453  12.879  1.5944  0.0692 -1.5430
13103TIP3    H260725   2.347   6.317  12.814 -1.2272 -0.5702  0.1512
13104TIP3   OH260726   2.728   6.289  15.557  0.5177 -0.0830 -0.6742
13104TIP3    H160727   2.763   6.344  15.487  0.3870  0.5953 -0.2264
13104TIP3    H260728   2.633   6.293  15.545  0.4098  1.1797  0.3416
13105TIP3   OH260729   0.926   2.740   0.014  0.8631 -0.2851  0.1239
13105TIP3    H160730   0.998   2.678   0.010  0.4022 -0.7797 -1.1187
13105TIP3    H260731   0.962   2.821  -0.022  1.5143  0.2612  1.9040
13106TIP3   OH260732   6.232   1.584  15.193  0.2848 -0.3884 -0.5160
13106TIP3    H160733   6.275   1.520  15.135  1.3453  0.4791 -0.7267
13106TIP3    H260734   6.155   1.612  15.145 -0.3726 -1.7211 -0.2923
13107TIP3   OH260735   6.461   2.769   5.364  0.1690 -0.4449  0.3545
13107TIP3    H160736   6.396   2.708   5.396 -0.6360 -0.1949 -0.7462
13107TIP3    H260737   6.489   2.819   5.441 -1.5893  0.0436  0.7089
13108TIP3   OH260738   1.667   1.030  15.117  0.6693 -0.2245  0.0413
13108TIP3    H160739   1.652   1.060  15.206 -2.2787  0.0351 -0.4212
13108TIP3    H260740   1.689   0.937  15.126 -0.4686 -0.4322  1.0504
13109TIP3   OH260741   1.064   1.347  15.056 -0.1368 -0.3413  0.2156
13109TIP3    H160742   1.011   1.273  15.024 -2.8195  1.7156 -0.4871
13109TIP3    H260743   1.014   1.382  15.130  0.0412  1.8728 -0.6467
13110TIP3   OH260744   2.134   5.819  13.102  0.3448  0.8488  0.3119
13110TIP3    H160745   2.155   5.763  13.027 -0.4192 -1.4685  1.7343
13110TIP3    H260746   2.041   5.804  13.118  0.4068  1.5897  1.4987
13111TIP3   OH260747   3.294   0.141   2.865 -0.5106 -0.0298  0.5856
13111TIP3    H160748   3.226   0.204   2.842  0.0460  0.1324 -0.7315
13111TIP3    H260749   3.376   0.184   2.841  0.0894 -0.1600  2.2831
13112TIP3   OH260750   0.732   4.122   4.216  0.6748  0.1053  0.1537
13112TIP3    H160751   0.752   4.215   4.202 -1.3194  0.5058 -0.4316
13112TIP3    H260752   0.772   4.078   4.141 -0.0628  0.7738 -0.6563
13113TIP3   OH260753   6.178   1.045   5.297 -0.2330  0.1946 -0.1709
13113TIP3    H160754   6.101   1.037   5.354 -0.5663 -2.5063 -0.8532
13113TIP3    H260755   6.160   1.121   5.242 -2.0608  0.0631  0.1902
13114TIP3   OH260756   0.820   6.404  12.080 -0.1465 -0.4423 -0.3137
13114TIP3    H160757   0.822   6.488  12.125  0.2063 -0.6338  0.0406
13114TIP3    H260758   0.822   6.426  11.987 -0.3008 -0.0569 -0.2260
13115TIP3   OH260759   3.941   6.660   0.674  0.3236  0.1823 -0.3360
13115TIP3    H160760   3.929   6.646   0.580  2.2067  1.4408 -0.8027
13115TIP3    H260761   3.851   6.665   0.709 -0.4617 -3.0201 -1.5685
13116TIP3   OH260762   1.079   0.570  16.053  0.0908  0.1659 -0.1027
13116TIP3    H160763   1.108   0.655  16.087 -0.9805 -0.3306  2.2980
13116TIP3    H260764   1.004   0.546  16.108 -1.4957 -1.0355 -2.5942
13117TIP3   OH260765   3.489   4.544  14.462 -0.3807  0.4889  0.1575
13117TIP3    H160766   3.500   4.476  14.394  1.5703 -0.2117  1.0939
13117TIP3    H260767   3.414   4.596  14.432 -0.6670 -0.8504 -1.6308
13118TIP3   OH260768   0.939   1.461   4.877  0.0908  0.0618 -0.4357
13118TIP3    H160769   1.019   1.415   4.902 -0.8086 -0.9592  0.6899
13118TIP3    H260770   0.942   1.543   4.926  0.6484  0.2224 -0.7356
13119TIP3   OH260771   2.727   1.888   1.472 -0.6152  0.3925  0.3690
13119TIP3    H160772   2.765   1.911   1.557 -2.1933  0.6508  1.0315
13119TIP3    H260773   2.694   1.971   1.438  0.9268  0.4953 -1.0222
13120TIP3   OH260774   6.733   5.875   5.555  0.2586 -0.0183 -0.2545
13120TIP3    H160775   6.744   5.858   5.648 -0.6078 -0.0915 -0.1537
13120TIP3    H260776   6.661   5.817   5.528 -0.1177  0.6650 -0.7576
13121TIP3   OH260777   1.345   0.905  13.615 -0.4482 -0.4632 -0.4526
13121TIP3    H160778   1.394   0.825  13.631 -1.2086 -0.6927  0.7574
13121TIP3    H260779   1.372   0.965  13.685  0.1536  0.3813 -1.3685
13122TIP3   OH260780   2.226   2.609  13.105  0.3654  0.5076  0.7453
13122TIP3    H160781   2.150   2.579  13.155 -1.3987 -1.0026 -2.5506
13122TIP3    H260782   2.287   2.535  13.107 -0.5718 -0.3584 -0.8552
13123TIP3   OH260783   1.400   4.849  17.014  0.2125 -0.0457  0.2933
13123TIP3    H160784   1.467   4.780  17.021 -0.5393 -0.8963 -0.6565
13123TIP3    H260785   1.344   4.836  17.090  1.2013  0.7721  1.1841
13124TIP3   OH260786   5.696   3.934   2.441  0.2824 -0.2664 -0.5015
13124TIP3    H160787   5.765   3.925   2.507  0.4541 -1.2425 -0.8076
13124TIP3    H260788   5.742   3.936   2.357  0.2125  2.6178 -0.5797
13125TIP3   OH260789   4.387   1.492  12.171  0.5579 -0.3738  0.2825
13125TIP3    H160790   4.402   1.586  12.160  2.7260 -0.5211  1.4769
13125TIP3    H260791   4.419   1.453  12.090 -0.0994 -0.1201 -0.1076
13126TIP3   OH260792   2.707   0.862  10.634 -0.1051  0.1422 -0.6388
13126TIP3    H160793   2.777   0.821  10.585 -0.3410  0.6066 -1.3821
13126TIP3    H260794   2.628   0.813  10.609 -0.0248 -0.5068  0.3445
13127TIP3   OH260795   3.832   2.441  12.349  0.2089 -0.0168  0.3548
13127TIP3    H160796   3.867   2.354  12.329 -0.2512 -0.2079  0.3840
13127TIP3    H260797   3.905   2.485  12.394  0.8753  0.0527 -0.7651
13128TIP3   OH260798   3.059   1.404   2.208  0.7028 -0.2651 -0.0069
13128TIP3    H160799   3.148   1.395   2.242  1.5582  2.0507 -1.4459
13128TIP3    H260800   3.063   1.372   2.118 -0.2259 -1.1910  0.2550
13129TIP3   OH260801   0.344   6.412  15.656 -0.1453 -0.0117 -0.7862
13129TIP3    H160802   0.306   6.365  15.730  2.8630 -1.1677  0.2149
13129TIP3    H260803   0.279   6.406  15.587 -2.0169 -1.1471  0.9750
13130TIP3   OH260804   2.698   1.196  12.084  0.2310  0.2817  0.5736
13130TIP3    H160805   2.725   1.286  12.065 -0.9046  0.6455  0.6278
13130TIP3    H260806   2.666   1.163  12.000 -0.3852  0.3011  0.8015
13131TIP3   OH260807   4.672   1.339   6.093  0.4912 -0.3729  0.8505
13131TIP3    H160808   4.616   1.266   6.121  1.5022 -1.0171  1.2669
13131TIP3    H260809   4.637   1.415   6.138  1.1042 -1.1117  2.6752
13132TIP3   OH260810   2.906   1.365  14.989  0.2392  0.1737  0.1757
13132TIP3    H160811   2.893   1.271  15.004  1.0507  0.1359  0.7451
13132TIP3    H260812   2.820   1.404  15.004 -0.3290 -0.5752 -0.9837
13133TIP3   OH260813   3.001   2.271   2.479 -1.0417  0.0120  0.4934
13133TIP3    H160814   3.024   2.297   2.390  2.1689 -3.7654 -0.1012
13133TIP3    H260815   3.052   2.329   2.535 -3.7544  3.0019  0.0858
13134TIP3   OH260816   6.651   5.442  12.166 -0.4376  0.0793 -0.8005
13134TIP3    H160817   6.628   5.383  12.238 -0.1385  0.1434 -0.6546
13134TIP3    H260818   6.590   5.515  12.175 -1.0584 -0.3784 -1.2021
13135TIP3   OH260819   2.652   1.499   5.840 -0.1366  0.2769  0.1600
13135TIP3    H160820   2.651   1.403   5.837 -1.1044  0.2760  0.2178
13135TIP3    H260821   2.745   1.522   5.839  0.1193 -0.5700 -2.3012
13136TIP3   OH260822   0.588   4.303  13.799  0.0627  0.6253  0.4339
13136TIP3    H160823   0.510   4.299  13.743 -0.7534  1.4415  1.4562
13136TIP3    H260824   0.633   4.383  13.772 -1.1404  1.8610  1.8910
13137TIP3   OH260825   4.597   0.612  14.759  0.2713 -0.3242  0.1920
13137TIP3    H160826   4.519   0.665  14.776  0.0413 -0.3732 -0.6981
13137TIP3    H260827   4.649   0.620  14.839 -0.0210  0.7793  0.2777
13138TIP3   OH260828   3.371   3.123  14.183  0.0644 -0.5938 -0.2968
13138TIP3    H160829   3.397   3.146  14.272 -2.3119 -3.1256  1.2034
13138TIP3    H260830   3.383   3.029  14.178 -0.4683 -0.6066 -2.4914
13139TIP3   OH260831   0.117   5.429   3.519 -0.3310 -0.1710 -0.0194
13139TIP3    H160832   0.043   5.475   3.480  0.7272  0.8062 -0.9687
13139TIP3    H260833   0.194   5.470   3.479  0.8801  1.1040  3.2788
13140TIP3   OH260834   5.225   3.172   3.110 -0.3062  0.2510 -0.8918
13140TIP3    H160835   5.145   3.191   3.061 -0.0830  1.8612 -0.6828
13140TIP3    H260836   5.251   3.085   3.080 -1.9870 -0.1993 -1.1551
13141TIP3   OH260837   3.461   3.986  14.367  0.0104 -0.3610  0.9657
13141TIP3    H160838   3.555   3.967  14.366  0.2417  0.7101  1.2613
13141TIP3    H260839   3.452   4.062  14.425 -0.4083  2.6804 -2.6962
13142TIP3   OH260840   1.096   3.409   2.142 -0.0682 -0.5605 -0.4259
13142TIP3    H160841   1.012   3.456   2.148  0.4604  0.2824  0.8203
13142TIP3    H260842   1.145   3.457   2.076  0.5671  0.8791  1.0241
13143TIP3   OH260843   4.741   3.333   3.862 -0.1455 -0.3479  0.1735
13143TIP3    H160844   4.681   3.406   3.846 -1.3160 -0.7845  2.2168
13143TIP3    H260845   4.808   3.369   3.920 -0.2601 -0.6904  0.5176
13144TIP3   OH260846   2.236   2.073  13.232 -0.1430  1.0578  0.0129
13144TIP3    H160847   2.299   2.110  13.170 -0.4047 -0.1681 -1.0312
13144TIP3    H260848   2.281   1.997  13.269 -0.8238  0.4370 -0.4028
13145TIP3   OH260849   1.716   4.851  17.075  0.1571 -0.4148 -0.6441
13145TIP3    H160850   1.773   4.778  17.097 -1.2007 -1.1840  0.4962
13145TIP3    H260851   1.698   4.841  16.981  1.6881 -0.2736 -0.9723
13146TIP3   OH260852   6.100   3.473   2.381 -0.0875 -0.1757  0.6698
13146TIP3    H160853   6.054   3.429   2.453 -0.1793  1.2106  1.4956
13146TIP3    H260854   6.035   3.533   2.344 -0.2210 -1.2681 -0.9822
13147TIP3   OH260855   5.730   0.448   1.224  0.0826  0.0887  0.0245
13147TIP3    H160856   5.790   0.448   1.299 -2.2467  1.5447  2.0303
13147TIP3    H260857   5.740   0.534   1.185  1.2739 -0.6582 -1.4358
13148TIP3   OH260858   5.692   3.491  16.698  0.2325 -0.7905  0.2633
13148TIP3    H160859   5.675   3.510  16.606  1.9245 -1.0676 -0.1428
13148TIP3    H260860   5.624   3.539  16.746  1.4590  2.4215 -0.9312
13149TIP3   OH260861   4.707   3.144  14.862  0.9463 -0.2987  0.6861
13149TIP3    H160862   4.672   3.204  14.928 -0.5168 -0.8261  0.4258
13149TIP3    H260863   4.666   3.060  14.882  1.8765 -0.8916  0.1856
13150TIP3   OH260864   4.904   6.291   6.009  0.5844 -0.2013  0.1622
13150TIP3    H160865   4.925   6.199   6.026  1.4405 -0.2264 -0.8817
13150TIP3    H260866   4.983   6.339   6.034  0.1350  0.2637  0.7159
13151TIP3   OH260867   2.267   3.563  10.473  0.1983  0.0466 -0.2288
13151TIP3    H160868   2.351   3.599  10.444 -0.6031  2.0877 -0.2195
13151TIP3    H260869   2.227   3.634  10.523 -3.1389  0.7065 -3.3549
13152TIP3   OH260870   3.162   4.755  11.866  0.0331  0.1022  0.1511
13152TIP3    H160871   3.241   4.757  11.812 -1.1943  1.8314 -1.7537
13152TIP3    H260872   3.125   4.669  11.850  0.3517  0.1264 -0.7928
13153TIP3   OH260873   5.960   1.653   3.643 -0.0995  0.3462  0.1205
13153TIP3    H160874   5.926   1.647   3.732  0.3557  1.1090  0.3521
13153TIP3    H260875   6.049   1.687   3.654 -0.0246  0.3992 -0.6215
13154TIP3   OH260876   1.558   6.712  13.780 -0.0224 -0.1888  0.0151
13154TIP3    H160877   1.516   6.700  13.865 -1.1120  2.2376 -0.0962
13154TIP3    H260878   1.492   6.755  13.726  1.6494  1.1666 -1.0731
13155TIP3   OH260879   3.865   0.632   2.558  0.2498  0.1705 -0.0331
13155TIP3    H160880   3.940   0.574   2.575  0.5376  0.6267  0.2964
13155TIP3    H260881   3.816   0.633   2.640 -1.7901 -2.4462 -1.1006
13156TIP3   OH260882   2.992   0.015   1.830 -0.6593  0.1962 -0.8727
13156TIP3    H160883   2.999  -0.080   1.838 -0.7699  0.2733  0.4624
13156TIP3    H260884   3.079   0.043   1.801  0.2688 -0.0985  1.4150
13157TIP3   OH260885   1.731   2.568  17.073 -0.1673 -0.0309  0.0445
13157TIP3    H160886   1.696   2.478  17.075 -0.8322  0.2226  0.1149
13157TIP3    H260887   1.689   2.608  16.997  0.6067  0.0372 -0.3582
13158TIP3   OH260888   6.478   0.109   2.711 -0.4714  0.5900 -0.3287
13158TIP3    H160889   6.424   0.147   2.641 -0.6197 -1.6471 -1.5522
13158TIP3    H260890   6.479   0.015   2.691  1.6092  0.2012  1.2613
13159TIP3   OH260891   0.903   1.180  13.993 -0.3546 -0.1038 -0.2802
13159TIP3    H160892   0.975   1.153  13.935  0.8603  0.8803  0.6976
13159TIP3    H260893   0.945   1.191  14.078 -1.3315  2.0068 -0.0162
13160TIP3   OH260894   4.785   2.757  16.973 -0.0964 -0.7481  0.2388
13160TIP3    H160895   4.822   2.792  17.054 -1.3616 -0.7052  0.8204
13160TIP3    H260896   4.744   2.832  16.931  0.3872 -0.8120 -0.3598
13161TIP3   OH260897   5.259   2.812   5.085 -0.7695 -0.3949  0.4376
13161TIP3    H160898   5.195   2.740   5.076 -1.6076  0.4505 -0.6614
13161TIP3    H260899   5.281   2.836   4.995  0.2608  0.0845  0.8024
13162TIP3   OH260900   3.383   3.628   2.869 -0.0258 -0.0377  0.2297
13162TIP3    H160901   3.322   3.567   2.826  2.4254 -1.3171 -1.7689
13162TIP3    H260902   3.429   3.574   2.933  0.6352  0.2466  0.0088
13163TIP3   OH260903   0.410   6.514   2.801 -0.0616  0.3335  0.0482
13163TIP3    H160904   0.350   6.485   2.869  1.8524 -1.3096  1.1422
13163TIP3    H260905   0.401   6.610   2.801 -0.9537  0.2976  1.8033
13164TIP3   OH260906   0.258   3.317   4.643  0.0712  0.0706  0.2840
13164TIP3    H160907   0.286   3.266   4.567  0.4853  3.3405 -1.9612
13164TIP3    H260908   0.162   3.317   4.638  0.0656 -0.5262  0.3501
13165TIP3   OH260909   2.218   1.044   5.074  0.0974 -0.4138  0.8714
13165TIP3    H160910   2.179   0.959   5.053  1.3023 -1.1311  1.4310
13165TIP3    H260911   2.183   1.103   5.008 -1.9454 -0.9975  1.3636
13166TIP3   OH260912   1.034   5.066  10.523 -0.2013 -0.3990 -0.4724
13166TIP3    H160913   1.122   5.103  10.524  0.0350 -0.9550  0.5138
13166TIP3    H260914   1.040   4.990  10.466 -0.2274 -0.0233 -0.9842
13167TIP3   OH260915   3.899   3.436   4.883 -0.3621 -0.1712 -0.1868
13167TIP3    H160916   3.888   3.379   4.807 -0.0933  0.7361 -0.9088
13167TIP3    H260917   3.880   3.524   4.851  2.4506  0.6199  0.0916
13168TIP3   OH260918   4.682   3.962  13.714  0.6491  0.3240  0.0966
13168TIP3    H160919   4.623   3.894  13.748  1.5414 -0.6131 -0.1498
13168TIP3    H260920   4.699   3.935  13.624  0.9070  0.9678 -0.0514
13169TIP3   OH260921   1.825   6.535   3.954  0.6992 -0.2630 -0.3253
13169TIP3    H160922   1.812   6.483   3.875  0.1843  1.4748 -1.4361
13169TIP3    H260923   1.919   6.549   3.959  0.7698 -0.6916 -0.4095
13170TIP3   OH260924   6.638   5.709  13.868  0.7874  0.2333  0.0715
13170TIP3    H160925   6.727   5.705  13.833  0.6603 -2.4164 -0.1626
13170TIP3    H260926   6.645   5.669  13.955 -0.1776 -0.0839  0.0154
13171TIP3   OH260927   4.608   6.045  15.460  0.4242  0.8173 -0.3460
13171TIP3    H160928   4.513   6.046  15.472  0.4521 -2.5983  1.2797
13171TIP3    H260929   4.622   6.082  15.373 -2.4693  0.4213 -1.0754
13172TIP3   OH260930   2.810   0.079   5.528  0.4491 -0.3111  0.1906
13172TIP3    H160931   2.819   0.122   5.443 -1.2056 -1.9609 -0.9130
13172TIP3    H260932   2.721   0.101   5.556  0.6624 -0.5248  1.0554
13173TIP3   OH260933   4.831   2.805   4.755  0.1852 -0.2631 -0.1386
13173TIP3    H160934   4.738   2.796   4.778  0.3702 -2.3320  0.0269
13173TIP3    H260935   4.831   2.843   4.668 -0.7748  0.7907  0.2946
13174TIP3   OH260936   1.209   0.093  13.912  0.2384 -0.4825  0.3178
13174TIP3    H160937   1.126   0.057  13.882 -0.3792 -0.0871  1.4836
13174TIP3    H260938   1.256   0.116  13.832 -0.1500 -2.0624 -0.3924
13175TIP3   OH260939   5.369   0.130   4.219  0.0382 -0.4149 -0.1157
13175TIP3    H160940   5.339   0.055   4.168 -0.0772 -2.5948  2.8691
13175TIP3    H260941   5.291   0.158   4.268  0.4526  0.6550 -0.0467
13176TIP3   OH260942   5.869   4.564  15.610 -0.0992  0.9728  0.0480
13176TIP3    H160943   5.847   4.474  15.636  0.1103  1.0095  0.3473
13176TIP3    H260944   5.949   4.584  15.657  0.5098  0.9015 -0.9305
13177TIP3   OH260945   2.419   6.489  12.037  0.0969  0.7876  0.1491
13177TIP3    H160946   2.452   6.431  12.106  0.5390 -0.6452 -1.2032
13177TIP3    H260947   2.335   6.450  12.012  1.4179 -0.7308 -2.3384
13178TIP3   OH260948   0.183   2.150  15.365  0.3747  0.2132 -0.4537
13178TIP3    H160949   0.197   2.085  15.297  1.7936  0.8376 -0.8141
13178TIP3    H260950   0.219   2.231  15.328 -0.1152  0.8815  0.4914
13179TIP3   OH260951   1.204   5.043  14.530  0.1305 -0.6116 -0.0892
13179TIP3    H160952   1.228   5.033  14.622 -1.5645 -1.8043  0.2837
13179TIP3    H260953   1.237   4.965  14.488 -0.8252 -1.0511 -0.0606
13180TIP3   OH260954   3.428   0.436   1.573  0.2171 -0.7245 -0.1671
13180TIP3    H160955   3.446   0.426   1.666  2.6654 -0.1547 -0.5105
13180TIP3    H260956   3.333   0.422   1.565 -0.2219  0.1723  2.5137
13181TIP3   OH260957   4.909   3.517  15.779  0.2968 -0.3373  0.3279
13181TIP3    H160958   4.913   3.612  15.789 -1.7400 -0.2747  0.9481
13181TIP3    H260959   4.897   3.483  15.868  0.8279 -1.1849  0.0982
13182TIP3   OH260960   5.276   4.756   0.837 -0.1985 -0.5819  0.5449
13182TIP3    H160961   5.181   4.745   0.849 -0.1857  1.1798  3.1959
13182TIP3    H260962   5.290   4.850   0.847  1.8965 -0.8832  0.8434
13183TIP3   OH260963   1.977   0.956   2.618  0.3123 -0.2097  0.2174
13183TIP3    H160964   2.058   1.005   2.605  0.3776  0.0027  1.3151
13183TIP3    H260965   1.914   1.021   2.648  0.3209 -0.7259  1.4113
13184TIP3   OH260966   0.706   3.525   3.578  0.1974  0.1614  0.0600
13184TIP3    H160967   0.764   3.460   3.538  0.9478  0.3323  0.8185
13184TIP3    H260968   0.709   3.600   3.519  0.3115 -0.0390 -0.1917
13185TIP3   OH260969   0.491   4.957  14.971  0.3648  0.3999 -0.0428
13185TIP3    H160970   0.443   4.904  15.035 -2.7450  1.5191 -1.2983
13185TIP3    H260971   0.479   4.911  14.888  0.5832  1.2720 -0.5644
13186TIP3   OH260972   0.156   6.287   0.165 -0.4849  0.5826  0.0819
13186TIP3    H160973   0.083   6.238   0.202 -0.6687  1.6282  1.1732
13186TIP3    H260974   0.122   6.321   0.082 -0.4023 -0.9613 -0.6108
13187TIP3   OH260975   4.721   4.046  12.903  0.0506 -0.1412 -0.6017
13187TIP3    H160976   4.692   4.061  12.994  0.4241 -0.0840 -0.4912
13187TIP3    H260977   4.801   4.098  12.895  1.2154 -1.8012 -0.3076
13188TIP3   OH260978   0.129   3.240  10.493  0.2827 -0.0973  0.0189
13188TIP3    H160979   0.200   3.303  10.505  0.6714 -0.6349  0.5823
13188TIP3    H260980   0.172   3.162  10.458  0.0489 -0.5785  0.7844
13189TIP3   OH260981   0.243   2.532   5.058  0.1111  0.3617 -0.2133
13189TIP3    H160982   0.227   2.589   4.983 -0.0748 -0.3064 -0.6897
13189TIP3    H260983   0.338   2.530   5.067  0.1099  0.9282 -0.0482
13190TIP3   OH260984   3.532   4.190  11.104 -0.2029  0.0111  0.2548
13190TIP3    H160985   3.560   4.129  11.172 -0.1339  0.0347  0.2476
13190TIP3    H260986   3.462   4.241  11.144 -0.1337  0.0534  0.3216
13191TIP3   OH260987   4.722   0.582  16.184 -1.0114  0.2562  0.0443
13191TIP3    H160988   4.664   0.634  16.129  0.4139  1.9681  0.0847
13191TIP3    H260989   4.810   0.600  16.150 -0.3418 -0.8476  1.1226
13192TIP3   OH260990   0.066   0.669  16.479  0.0067 -0.1702  0.3626
13192TIP3    H160991   0.124   0.744  16.489  0.8678 -0.8958  1.0984
13192TIP3    H260992   0.060   0.632  16.567 -0.7937 -0.6755  0.1050
13193TIP3   OH260993   4.282   0.562  12.764  0.0287 -0.3212 -0.2833
13193TIP3    H160994   4.373   0.580  12.788  0.4905 -1.9383 -0.6401
13193TIP3    H260995   4.277   0.585  12.671 -0.1014  0.3561 -0.1090
13194TIP3   OH260996   1.376   1.239  15.918 -0.3751 -0.5000 -0.1506
13194TIP3    H160997   1.297   1.191  15.893 -0.9607  0.0474  0.5912
13194TIP3    H260998   1.426   1.176  15.971 -0.3240 -0.8405 -0.6040
13195TIP3   OH260999   4.495   0.247   4.644 -0.6171 -0.0058 -0.5628
13195TIP3    H161000   4.487   0.170   4.700 -2.8155  1.8524  1.9506
13195TIP3    H261001   4.430   0.234   4.574  0.1413 -1.0706 -1.0925
13196TIP3   OH261002   4.001   6.182   4.917  0.0598 -0.2761  0.6830
13196TIP3    H161003   4.022   6.249   4.983  0.8602 -0.5541  0.7245
13196TIP3    H261004   4.030   6.100   4.957 -2.6065 -0.9521  1.4356
13197TIP3   OH261005   1.493   4.317  15.962 -0.6602 -0.8523 -0.3575
13197TIP3    H161006   1.420   4.370  15.930 -0.2268  0.5514  0.8588
13197TIP3    H261007   1.452   4.240  16.001 -1.3150 -1.3846 -2.0026
13198TIP3   OH261008   4.022   3.393  12.729 -0.3537  0.6961  0.0491
13198TIP3    H161009   4.093   3.390  12.664  0.9330 -3.9825  1.2860
13198TIP3    H261010   3.945   3.359  12.683  0.6172 -2.8632  0.6998
13199TIP3   OH261011   2.353   2.106   1.516 -0.1681 -0.4924  0.1535
13199TIP3    H161012   2.347   2.026   1.568  0.1233 -0.6995 -0.1218
13199TIP3    H261013   2.275   2.156   1.539 -0.5518 -1.0265  0.0539
13200TIP3   OH261014   5.765   2.015   2.102  0.1214 -0.3221 -0.0367
13200TIP3    H161015   5.805   2.076   2.040 -1.0898  0.0742 -0.4681
13200TIP3    H261016   5.839   1.973   2.146  0.9967  0.1126 -1.0443
13201TIP3   OH261017   3.545   3.152   2.052  0.3686 -0.4348  0.2071
13201TIP3    H161018   3.606   3.094   2.007  0.0138 -0.6917  0.0545
13201TIP3    H261019   3.470   3.097   2.072  1.4016 -0.9545  3.1585
13202TIP3   OH261020   1.499   3.933   1.716  0.1946  0.1114 -0.6915
13202TIP3    H161021   1.441   3.981   1.775  2.3911  1.1288  0.7843
13202TIP3    H261022   1.488   3.976   1.631 -0.0245  1.3406 -0.0603
13203TIP3   OH261023   6.165   4.373   4.204 -0.4649 -0.1683 -0.3734
13203TIP3    H161024   6.218   4.444   4.241  0.8389 -1.0770 -0.4384
13203TIP3    H261025   6.202   4.293   4.241 -1.2140 -0.8976 -1.1469
13204TIP3   OH261026   0.112   0.023   4.844 -0.1496 -0.2851  0.2716
13204TIP3    H161027   0.120  -0.066   4.809  1.9539 -0.1364  0.2828
13204TIP3    H261028   0.079   0.075   4.771  1.0654 -0.5991 -0.5179
13205TIP3   OH261029   5.397   0.779  13.528  0.2656  0.1522 -0.2967
13205TIP3    H161030   5.333   0.741  13.588  1.7488 -1.3043  0.4111
13205TIP3    H261031   5.371   0.871  13.521 -1.2007 -0.1342  0.8815
13206TIP3   OH261032   3.235   6.766   1.509 -0.2684 -0.6218  0.0139
13206TIP3    H161033   3.225   6.814   1.592 -0.9605 -0.0765 -0.3735
13206TIP3    H261034   3.310   6.807   1.467  0.2726 -1.0963  0.4936
13207TIP3   OH261035   1.380   0.202   1.194 -0.3720  0.5506  0.5045
13207TIP3    H161036   1.297   0.198   1.242  0.6695 -1.7871  2.3413
13207TIP3    H261037   1.361   0.258   1.119 -2.8936  2.1480  2.1538
13208TIP3   OH261038   0.224   5.276  14.773  0.2291  0.2756 -0.1273
13208TIP3    H161039   0.248   5.357  14.729  0.0961  1.3257  1.6335
13208TIP3    H261040   0.281   5.271  14.850  0.4651 -1.4826 -0.3665
13209TIP3   OH261041   3.412   2.824  16.935  0.9893 -0.6530  0.4440
13209TIP3    H161042   3.454   2.866  17.010 -0.0283 -0.1141  0.7333
13209TIP3    H261043   3.485   2.790  16.882  1.7668  0.1056  1.0035
13210TIP3   OH261044   1.167   5.562   1.391  0.4648 -0.5514 -0.4310
13210TIP3    H161045   1.259   5.583   1.403  0.0197  1.3553  0.0664
13210TIP3    H261046   1.121   5.630   1.440 -1.2595  0.1979 -2.8773
13211TIP3   OH261047   5.177   1.779   5.762  0.4037  0.2923 -0.1913
13211TIP3    H161048   5.157   1.702   5.815  0.9003  1.1103  1.2236
13211TIP3    H261049   5.112   1.844   5.787  1.6695  1.2608  0.7103
13212TIP3   OH261050   1.902   2.893  16.577 -0.6113  0.1854  0.1031
13212TIP3    H161051   1.860   2.813  16.611 -2.5929  0.6817 -1.0485
13212TIP3    H261052   1.867   2.963  16.632 -0.2686  0.4648 -0.0348
13213TIP3   OH261053   1.244   3.543   1.951 -0.4865  0.2627  0.4504
13213TIP3    H161054   1.232   3.638   1.947 -0.3954  0.2579  0.0492
13213TIP3    H261055   1.314   3.525   1.889  0.7337  0.1311  1.8199
13214TIP3   OH261056   1.198   6.390  13.828  0.0761  0.2374 -0.2655
13214TIP3    H161057   1.253   6.313  13.819  0.0722  0.2857 -0.7262
13214TIP3    H261058   1.252   6.463  13.796  1.4539  1.0613  3.4887
13215TIP3   OH261059   0.675   1.913   3.392 -0.1208  0.8384 -0.3121
13215TIP3    H161060   0.672   2.008   3.407  2.4840  1.2421 -1.8361
13215TIP3    H261061   0.748   1.883   3.447  1.5288  0.4005 -2.6173
13216TIP3   OH261062   6.175   2.828  14.306  0.3205 -0.2950 -0.0053
13216TIP3    H161063   6.254   2.794  14.264  0.0609 -0.8842 -0.0230
13216TIP3    H261064   6.106   2.769  14.278 -0.0630 -0.0022  0.3163
13217TIP3   OH261065   4.910   2.067   1.756  0.3541 -0.4143 -0.2712
13217TIP3    H161066   4.937   2.049   1.846 -2.1029 -3.4216  0.0012
13217TIP3    H261067   4.817   2.086   1.763 -0.1697 -2.0002 -2.2748
13218TIP3   OH261068   0.811   4.565  15.873  0.4780 -0.2223  0.0398
13218TIP3    H161069   0.792   4.483  15.919 -2.3706 -0.4318 -1.2904
13218TIP3    H261070   0.799   4.633  15.939 -1.9756 -0.6202  0.1063
13219TIP3   OH261071   4.394   5.839   3.598  0.2582 -0.1890 -0.5206
13219TIP3    H161072   4.307   5.835   3.559 -0.4259 -2.5700  1.0465
13219TIP3    H261073   4.441   5.766   3.559  0.9607 -0.0219 -0.0002
13220TIP3   OH261074   0.721   0.419  10.159 -0.1905  0.0780  0.2087
13220TIP3    H161075   0.668   0.408  10.239 -0.8655  0.5456 -0.1624
13220TIP3    H261076   0.805   0.452  10.190 -1.4072  3.1525  0.5398
13221TIP3   OH261077   2.860   2.984   5.191  0.6807 -0.1830  0.0783
13221TIP3    H161078   2.830   3.069   5.225 -1.4272 -0.1695 -1.5928
13221TIP3    H261079   2.955   2.993   5.186  0.6216  1.6220  1.1151
13222TIP3   OH261080   6.710   3.962  15.126 -0.2180  0.3007 -0.0797
13222TIP3    H161081   6.773   3.947  15.196 -1.6835 -2.0912  0.8329
13222TIP3    H261082   6.722   3.889  15.066 -2.8982 -1.0489  0.8289
13223TIP3   OH261083   6.035   1.810   5.983 -0.2656 -0.1201 -0.4869
13223TIP3    H161084   6.109   1.760   6.017  0.3031 -0.1117 -1.6755
13223TIP3    H261085   5.963   1.789   6.042  0.7567  0.1613  0.9279
13224TIP3   OH261086   5.572   1.243   1.494  0.0834 -0.4966  0.5043
13224TIP3    H161087   5.568   1.153   1.527 -1.0176 -0.4042  0.6742
13224TIP3    H261088   5.566   1.297   1.572 -1.4360 -0.2834  0.2829
13225TIP3   OH261089   2.391   5.344  12.611  0.0265  0.2318 -0.1444
13225TIP3    H161090   2.351   5.259  12.628  0.2443  0.1663  0.0446
13225TIP3    H261091   2.388   5.354  12.516  0.0298  0.0024 -0.1676
13226TIP3   OH261092   2.375   6.306  14.415 -0.3652 -0.0197 -0.3732
13226TIP3    H161093   2.434   6.266  14.352 -0.0031 -0.3978  0.1995
13226TIP3    H261094   2.356   6.237  14.478  1.7528  1.1558  1.6942
13227TIP3   OH261095   4.269   0.883   0.614 -0.1857  0.0195 -0.3581
13227TIP3    H161096   4.273   0.788   0.626  2.4044 -0.1742 -1.9801
13227TIP3    H261097   4.176   0.903   0.610 -0.7931 -2.5638 -0.7709
13228TIP3   OH261098   0.732   1.837   2.206  0.3767 -0.1201 -0.5863
13228TIP3    H161099   0.820   1.812   2.232  0.2424 -0.7954 -0.7642
13228TIP3    H261100   0.713   1.916   2.258  0.3973 -1.0106  0.8229
13229TIP3   OH261101   2.868   2.074  10.559  0.0039  0.4005 -0.3765
13229TIP3    H161102   2.927   2.149  10.560  0.2978  0.2478 -2.4398
13229TIP3    H261103   2.905   2.014  10.495  0.0312 -1.7978  1.5434
13230TIP3   OH261104   3.264   0.043  10.707 -0.4144  0.0976  0.5085
13230TIP3    H161105   3.284   0.050  10.614 -0.6596 -1.9895  0.2402
13230TIP3    H261106   3.173   0.014  10.710 -0.1814 -0.5860  1.3564
13231TIP3   OH261107   2.288   2.999   2.899 -0.2999  0.1244 -0.5187
13231TIP3    H161108   2.202   3.037   2.914 -0.9251 -1.3547 -0.1933
13231TIP3    H261109   2.293   2.925   2.959  1.5152  0.6321  0.0314
13232TIP3   OH261110   0.510   3.204  13.270  0.0173  0.2234 -0.3447
13232TIP3    H161111   0.605   3.200  13.260 -0.1003  0.4610 -1.7174
13232TIP3    H261112   0.481   3.113  13.266  0.2363  0.0788  0.8783
13233TIP3   OH261113   4.026   0.526   2.988 -0.1740 -0.9298 -0.8917
13233TIP3    H161114   3.938   0.492   3.005 -0.3903 -0.2574 -0.6522
13233TIP3    H261115   4.038   0.517   2.893 -0.6513 -0.6655 -0.9777
13234TIP3   OH261116   6.564   2.635   4.272  0.2424 -0.1994  0.5235
13234TIP3    H161117   6.658   2.616   4.269  0.2112 -0.2525 -1.3259
13234TIP3    H261118   6.523   2.562   4.225 -0.7197 -0.1286  1.2322
13235TIP3   OH261119   4.263   3.188  16.636 -0.0542  0.9502  0.0575
13235TIP3    H161120   4.269   3.259  16.700 -0.4073 -1.1473  2.5848
13235TIP3    H261121   4.190   3.134  16.666  2.7010 -2.7476  0.8014
13236TIP3   OH261122   0.415   4.650  17.053 -0.4258 -0.1918 -0.3050
13236TIP3    H161123   0.359   4.723  17.079  0.0955 -0.0798  0.5402
13236TIP3    H261124   0.402   4.585  17.122  1.4085  0.3364  0.5977
13237TIP3   OH261125   3.361   6.396  15.070  0.1665 -0.1114  0.1466
13237TIP3    H161126   3.296   6.417  15.003  0.8553  1.5236 -0.0606
13237TIP3    H261127   3.310   6.367  15.146 -0.6020 -2.5338 -1.1990
13238TIP3   OH261128   4.217   2.437  11.889 -0.1925 -0.3941 -0.4198
13238TIP3    H161129   4.189   2.348  11.867  2.1098 -0.9326 -1.5626
13238TIP3    H261130   4.250   2.430  11.979 -0.8709 -0.4698 -0.1737
13239TIP3   OH261131   0.839   3.577   4.720 -0.3398  0.0541  0.3701
13239TIP3    H161132   0.845   3.517   4.646 -1.3352  0.3673  0.0151
13239TIP3    H261133   0.877   3.659   4.689 -0.3155  0.0407  0.3649
13240TIP3   OH261134   3.445   5.815  13.982 -0.0288  0.5057  0.1807
13240TIP3    H161135   3.433   5.907  13.961  2.2948  1.1777  1.3671
13240TIP3    H261136   3.540   5.803  13.986 -0.2229 -2.1996 -0.9100
13241TIP3   OH261137   2.983   5.161  11.072 -0.5142 -0.2806 -0.2662
13241TIP3    H161138   3.029   5.233  11.115 -1.0814  0.5988 -1.0665
13241TIP3    H261139   3.052   5.105  11.038 -0.0242  0.4484 -0.5143
13242TIP3   OH261140   6.152   4.655   1.261  0.5387  0.1357  0.1560
13242TIP3    H161141   6.144   4.650   1.165 -0.0249  0.8945  0.1516
13242TIP3    H261142   6.208   4.581   1.284  1.3301  0.3889 -0.8422
13243TIP3   OH261143   6.085   2.193   3.711 -0.3349  0.2486 -0.5630
13243TIP3    H161144   6.084   2.268   3.652  0.9224  1.6776  1.1306
13243TIP3    H261145   6.178   2.170   3.720 -0.1608  1.6672  2.6638
13244TIP3   OH261146   0.246   0.005  16.075  0.1815  0.1176  0.1493
13244TIP3    H161147   0.279   0.064  16.008  0.5543 -0.6200 -0.3350
13244TIP3    H261148   0.303  -0.072  16.069 -0.9212 -0.7219  0.0550
13245TIP3   OH261149   1.862   2.339   5.427 -0.1799 -0.4691  0.2539
13245TIP3    H161150   1.900   2.372   5.508 -0.8640  0.9045  0.0501
13245TIP3    H261151   1.830   2.417   5.382 -1.0037 -1.3296 -0.7191
13246TIP3   OH261152   6.274   5.222  13.690 -0.2732  0.1271  0.1104
13246TIP3    H161153   6.348   5.180  13.732 -0.0134  1.7550  1.3799
13246TIP3    H261154   6.203   5.216  13.755 -0.1857  1.7055  0.3871
13247TIP3   OH261155   0.852   5.119   0.281 -0.2255 -0.1654  0.2060
13247TIP3    H161156   0.827   5.139   0.372  0.2896 -2.2107  0.8343
13247TIP3    H261157   0.772   5.083   0.242 -0.9786  2.3145 -0.7531
13248TIP3   OH261158   6.103   0.083  15.803 -0.5567 -0.3012 -0.0766
13248TIP3    H161159   6.125   0.171  15.832 -0.5804 -0.8065  1.6144
13248TIP3    H261160   6.047   0.095  15.726 -1.2185  1.1631  0.6047
13249TIP3   OH261161   4.416   1.060   0.784  0.2289 -0.3291  0.3291
13249TIP3    H161162   4.398   1.029   0.695  1.3146 -0.0578  0.0015
13249TIP3    H261163   4.463   1.142   0.773 -3.5092  2.1859  1.1852
13250TIP3   OH261164   6.353   1.937   3.300 -0.0766 -0.4619  0.0070
13250TIP3    H161165   6.308   1.979   3.373 -0.3357 -1.7139  0.6024
13250TIP3    H261166   6.345   1.999   3.228 -1.0243  0.2097  0.6600
13251TIP3   OH261167   0.200   3.383  11.906  0.1975  0.0694 -0.0800
13251TIP3    H161168   0.236   3.453  11.960 -0.0766  3.1602 -3.5486
13251TIP3    H261169   0.277   3.345  11.862 -0.0212  1.6101 -1.8771
13252TIP3   OH261170   0.793   1.771   5.833 -1.0918  0.1124  0.0180
13252TIP3    H161171   0.843   1.709   5.780 -0.8776  0.7476 -0.5472
13252TIP3    H261172   0.803   1.740   5.923  1.6526  1.0755  0.1420
13253TIP3   OH261173   5.496   2.891   5.715 -0.2696 -0.2642 -0.1284
13253TIP3    H161174   5.499   2.982   5.686  1.4475 -0.5684 -0.9780
13253TIP3    H261175   5.463   2.843   5.639 -2.7677 -0.2242  0.8201
13254TIP3   OH261176   5.360   2.191  16.405  0.6811 -0.1912 -0.1519
13254TIP3    H161177   5.444   2.235  16.393  0.6263 -0.1953 -0.5680
13254TIP3    H261178   5.316   2.200  16.320  0.0286  0.2899  0.2293
13255TIP3   OH261179   2.999   3.952  13.094 -0.1282  0.3438 -0.1448
13255TIP3    H161180   2.951   4.007  13.156  0.0736  0.3364  0.0221
13255TIP3    H261181   3.032   4.013  13.028 -1.7721  0.1482 -1.2011
13256TIP3   OH261182   1.782   3.446   4.189 -0.2184 -0.0685 -0.2890
13256TIP3    H161183   1.733   3.395   4.125 -1.5719  0.6051  0.1791
13256TIP3    H261184   1.730   3.440   4.269  1.3816 -0.8164  0.7589
13257TIP3   OH261185   4.164   3.608  13.820  0.6965 -0.1081 -0.3474
13257TIP3    H161186   4.153   3.661  13.741 -1.5366  0.1301  0.0710
13257TIP3    H261187   4.102   3.645  13.883  0.6894 -1.8023  0.6943
13258TIP3   OH261188   4.303   6.124   3.416  0.1072  0.0691  0.1830
13258TIP3    H161189   4.294   6.034   3.445 -1.3147  0.4805  1.1288
13258TIP3    H261190   4.342   6.170   3.491  0.4163  0.3315 -0.1325
13259TIP3   OH261191   6.361   4.852   1.413  0.3081 -0.2161  0.5106
13259TIP3    H161192   6.413   4.780   1.377 -0.7158 -0.1770 -1.1616
13259TIP3    H261193   6.270   4.828   1.395 -0.0413  1.9274 -1.0728
13260TIP3   OH261194   6.562   6.398   3.641  0.0615 -0.7045  0.0317
13260TIP3    H161195   6.544   6.304   3.639  1.0411 -0.9184  0.6391
13260TIP3    H261196   6.645   6.408   3.594  1.7785 -0.6264  2.8215
13261TIP3   OH261197   6.474   0.145  15.152  0.3243  0.0483  0.1064
13261TIP3    H161198   6.462   0.122  15.245 -1.8766  0.5493 -0.0012
13261TIP3    H261199   6.523   0.227  15.154 -1.0933  0.9074  0.9180
13262TIP3   OH261200   5.394   3.370   5.427  0.3348  0.1313  0.8886
13262TIP3    H161201   5.333   3.443   5.418 -2.1833 -1.9028  0.1758
13262TIP3    H261202   5.439   3.386   5.510  0.2638  2.6910  0.5131
13263TIP3   OH261203   0.934   5.218  11.467  0.2450 -0.0722  0.5347
13263TIP3    H161204   0.940   5.271  11.546  4.0113 -0.1783  0.5183
13263TIP3    H261205   0.962   5.277  11.396 -0.0575 -0.8154 -0.2183
13264TIP3   OH261206   1.487   6.533   0.483  0.0170 -0.0767  0.4900
13264TIP3    H161207   1.560   6.528   0.544  0.5892 -0.7167 -0.2228
13264TIP3    H261208   1.422   6.472   0.517 -0.1067  0.3267  1.0008
13265TIP3   OH261209   6.698   1.518  17.005 -0.6244  0.0440  0.2003
13265TIP3    H161210   6.724   1.608  17.025 -0.1785 -0.2981  1.2166
13265TIP3    H261211   6.648   1.490  17.082  0.6534 -1.1246  0.6296
13266TIP3   OH261212   4.091   0.089   0.580  0.7219 -0.3054 -0.0308
13266TIP3    H161213   4.068   0.005   0.620  1.6829 -0.2634  0.6340
13266TIP3    H261214   4.131   0.139   0.651  1.3529  0.2304 -0.7568
13267TIP3   OH261215   0.450   4.439  11.278 -0.4135 -0.1393  0.1143
13267TIP3    H161216   0.443   4.421  11.372 -0.6121  0.4523  0.2160
13267TIP3    H261217   0.396   4.370  11.237 -1.4653  0.4158  0.5198
13268TIP3   OH261218   0.787   3.786  15.769 -0.4471  0.3896 -0.0998
13268TIP3    H161219   0.725   3.770  15.840  0.6042 -0.8361  0.5694
13268TIP3    H261220   0.871   3.804  15.813 -0.0937  1.0892 -1.0047
13269TIP3   OH261221   6.527   4.395   5.217 -0.3963 -0.4087 -0.6520
13269TIP3    H161222   6.461   4.346   5.168 -1.5486 -0.9394  1.2968
13269TIP3    H261223   6.493   4.398   5.307  1.7977  0.0959  0.2412
13270TIP3   OH261224   4.674   5.496  16.738 -0.4267 -0.3945  0.0583
13270TIP3    H161225   4.677   5.400  16.744  0.8518 -0.6558 -2.8574
13270TIP3    H261226   4.764   5.521  16.714 -0.2430  1.7808  2.6088
13271TIP3   OH261227   0.054   4.457  14.374 -0.1359  0.1734 -0.2961
13271TIP3    H161228  -0.032   4.496  14.385 -1.0692 -1.5077 -1.2036
13271TIP3    H261229   0.068   4.453  14.280  0.0593 -1.2927 -0.2393
13272TIP3   OH261230   5.107   3.057   1.869 -0.3525 -0.2641  0.5862
13272TIP3    H161231   5.037   3.002   1.833  0.3723 -0.7094 -0.1784
13272TIP3    H261232   5.154   3.090   1.793 -0.4734  1.0482  1.0558
13273TIP3   OH261233   4.926   0.520   5.800 -0.0366 -0.0523  0.8378
13273TIP3    H161234   4.871   0.588   5.839 -0.0006 -0.1172  1.0024
13273TIP3    H261235   4.938   0.456   5.870  1.5683  0.7400  1.3274
13274TIP3   OH261236   4.636   5.425  12.670  0.4437 -0.3189 -0.2997
13274TIP3    H161237   4.680   5.443  12.587 -0.0429  1.9574 -0.1201
13274TIP3    H261238   4.699   5.449  12.737  0.7946 -2.0439  0.0409
13275TIP3   OH261239   6.182   3.547  12.709 -0.2882  0.5179 -0.3348
13275TIP3    H161240   6.163   3.619  12.649  0.8933  0.6015 -0.6454
13275TIP3    H261241   6.200   3.589  12.793 -2.2723  0.3781  0.1928
13276TIP3   OH261242   0.111   3.374  16.311 -0.0102  0.5112  0.5478
13276TIP3    H161243   0.042   3.341  16.254 -0.6482 -1.3229  2.2639
13276TIP3    H261244   0.099   3.469  16.312 -2.4858  0.2426  0.7263
13277TIP3   OH261245   1.892   4.090   0.661  0.8665 -0.5244 -0.0266
13277TIP3    H161246   1.851   4.068   0.577  0.3985  0.7808 -0.1534
13277TIP3    H261247   1.873   4.015   0.717  0.2851 -0.9460 -0.7700
13278TIP3   OH261248   6.288   1.936  15.509  0.0039 -0.3238  0.2304
13278TIP3    H161249   6.276   1.929  15.414  1.8727  0.0888 -0.0871
13278TIP3    H261250   6.258   2.025  15.530 -1.5415 -0.8195  0.2676
13279TIP3   OH261251   4.107   3.175   4.817  0.1535  0.2388 -0.1617
13279TIP3    H161252   4.024   3.196   4.775  0.0205 -4.2267 -2.7692
13279TIP3    H261253   4.164   3.249   4.796 -2.4081  2.3631 -0.2518
13280TIP3   OH261254   6.026   5.108   3.498  0.2813  0.5184  0.0256
13280TIP3    H161255   6.101   5.161   3.472  0.3651  1.3253  1.7780
13280TIP3    H261256   5.984   5.158   3.568 -2.2958  0.4264 -1.3144
13281TIP3   OH261257   4.683   5.396  14.924 -0.7663 -0.3162  0.3153
13281TIP3    H161258   4.771   5.392  14.887 -0.2027 -3.3761  1.6668
13281TIP3    H261259   4.692   5.452  15.001  0.2603 -1.2845  0.9302
13282TIP3   OH261260   3.169   3.481  13.176  0.1248 -0.7180  0.0242
13282TIP3    H161261   3.169   3.571  13.142 -0.3318  0.0917  2.0309
13282TIP3    H261262   3.256   3.471  13.214 -0.4184 -0.4482  1.3945
13283TIP3   OH261263   1.161   6.769  15.202 -0.1025 -0.2375  0.1239
13283TIP3    H161264   1.154   6.750  15.296  1.0616  1.1689  0.5343
13283TIP3    H261265   1.129   6.860  15.195  1.9076  0.4643 -0.4576
13284TIP3   OH261266   1.650   4.331  14.005 -0.1121  0.8859 -0.7232
13284TIP3    H161267   1.692   4.252  13.971 -1.0906 -1.0120  2.0904
13284TIP3    H261268   1.722   4.381  14.045  0.0986 -0.4718  0.7188
13285TIP3   OH261269   3.570   2.733   1.790 -0.6871 -0.1074  0.0051
13285TIP3    H161270   3.647   2.760   1.740 -0.8790 -1.8357 -1.3253
13285TIP3    H261271   3.605   2.707   1.876 -0.1800  1.5965  0.3559
13286TIP3   OH261272   0.113   4.999  16.021  0.5058 -0.2295  0.3724
13286TIP3    H161273   0.183   5.031  16.077 -0.9402  1.9575  1.0879
13286TIP3    H261274   0.122   5.051  15.940  0.7929 -1.2541 -0.2728
13287TIP3   OH261275   0.334   1.651   3.233  0.1655  0.8058 -0.8178
13287TIP3    H161276   0.427   1.632   3.221  0.3200  0.7810  0.3083
13287TIP3    H261277   0.327   1.746   3.218  0.8445  1.2860  1.5337
13288TIP3   OH261278   5.572   1.681   0.596 -0.4043  0.9747  0.1389
13288TIP3    H161279   5.593   1.608   0.538 -0.3157  1.1411 -0.0397
13288TIP3    H261280   5.535   1.748   0.539  0.9171  1.6632  0.0516
13289TIP3   OH261281   2.269   2.269  16.388  0.5426  0.4367  0.0821
13289TIP3    H161282   2.269   2.292  16.481  0.7286  1.5145 -0.1748
13289TIP3    H261283   2.357   2.290  16.358  0.6906 -0.5383 -0.1982
13290TIP3   OH261284   2.458   5.737   3.500 -0.6099 -0.2063  0.1008
13290TIP3    H161285   2.480   5.660   3.551 -0.2706  0.8995  1.7174
13290TIP3    H261286   2.362   5.743   3.505 -0.8366 -1.5797 -1.7137
13291TIP3   OH261287   3.956   0.624   3.485 -0.0928 -0.4349 -0.6621
13291TIP3    H161288   3.916   0.537   3.479  1.7688 -1.3675 -0.2258
13291TIP3    H261289   4.004   0.635   3.403 -0.2614  0.1670 -0.6884
13292TIP3   OH261290   4.312   6.690   1.390 -0.0757 -0.1475  0.7356
13292TIP3    H161291   4.315   6.714   1.483  0.7549 -2.2542  1.3227
13292TIP3    H261292   4.222   6.708   1.363 -0.8040 -1.0122  2.4194
13293TIP3   OH261293   2.159   0.802  16.571  0.0021  0.1192 -0.9123
13293TIP3    H161294   2.232   0.779  16.513  0.8005  2.6231 -1.0169
13293TIP3    H261295   2.199   0.811  16.657 -0.0677  1.8352 -1.0327
13294TIP3   OH261296   0.870   4.422  14.437 -0.2435  0.1597 -0.4810
13294TIP3    H161297   0.905   4.508  14.416 -0.7670  0.4728 -0.0834
13294TIP3    H261298   0.893   4.408  14.529  0.7905 -0.5932 -0.8423
13295TIP3   OH261299   0.039   4.946  14.738  0.3834 -0.3608 -0.2731
13295TIP3    H161300   0.082   5.027  14.710 -1.1671  1.7568  2.8617
13295TIP3    H261301   0.088   4.918  14.815  0.2509 -1.8833 -0.6990
13296TIP3   OH261302   1.686   4.083  14.494  0.1092  0.6272  0.1618
13296TIP3    H161303   1.621   4.015  14.509  0.4117  0.2801 -0.0754
13296TIP3    H261304   1.653   4.132  14.418  0.4401  0.0476 -0.3673
13297TIP3   OH261305   3.212   1.956   1.531  0.0386 -0.0352  0.3530
13297TIP3    H161306   3.289   1.923   1.576  0.4632  1.9326  1.1916
13297TIP3    H261307   3.182   1.884   1.476  1.6640 -1.2803  1.0546
13298TIP3   OH261308   1.073   1.335  13.061 -0.7075 -0.3395  0.1511
13298TIP3    H161309   1.083   1.373  13.149 -0.3817  1.9068 -0.7819
13298TIP3    H261310   1.158   1.296  13.042  0.3622  2.0703 -0.3861
13299TIP3   OH261311   6.615   3.738  15.787  0.1488 -0.2629 -0.0781
13299TIP3    H161312   6.549   3.705  15.847  0.3161  0.2529  0.4051
13299TIP3    H261313   6.698   3.711  15.826  0.2254 -1.5763 -1.0801
13300TIP3   OH261314   4.351   1.767  14.472  0.2168 -0.5606 -0.4930
13300TIP3    H161315   4.351   1.737  14.381 -2.1496 -1.5410 -0.2215
13300TIP3    H261316   4.336   1.861  14.466  1.6958 -0.3399 -1.1413
13301TIP3   OH261317   1.806   5.079   1.360 -0.1228  0.6726  0.3998
13301TIP3    H161318   1.830   5.163   1.401  1.6650 -0.0087  0.8254
13301TIP3    H261319   1.761   5.031   1.430 -1.2189  1.2634  0.1343
13302TIP3   OH261320   0.803   5.846   5.610 -0.4076 -0.1378  0.2776
13302TIP3    H161321   0.764   5.928   5.641  0.8010  0.9665 -1.0042
13302TIP3    H261322   0.779   5.842   5.517  0.9201 -0.3791 -0.0678
13303TIP3   OH261323   3.235   4.300   5.618 -0.3825  0.3950 -0.1071
13303TIP3    H161324   3.268   4.345   5.696 -0.6643  0.8922 -0.2739
13303TIP3    H261325   3.293   4.224   5.609  0.2548  0.8591  0.0308
13304TIP3   OH261326   2.292   6.211  12.059  0.0664 -0.1616  0.3423
13304TIP3    H161327   2.378   6.178  12.085 -0.1443 -1.9595 -1.0524
13304TIP3    H261328   2.232   6.140  12.078 -1.1154  0.9894  1.0729
13305TIP3   OH261329   5.431   5.994   4.235  0.1160 -0.4201 -0.3871
13305TIP3    H161330   5.339   6.000   4.261  0.5493 -1.7255  1.6854
13305TIP3    H261331   5.442   6.062   4.169 -1.8966  1.0016  0.6445
13306TIP3   OH261332   6.524   2.708  13.077 -0.0037 -0.2262  0.0264
13306TIP3    H161333   6.501   2.795  13.110 -0.0214 -0.2257  0.0131
13306TIP3    H261334   6.478   2.701  12.994  2.7144  1.1051 -1.7163
13307TIP3   OH261335   2.981   6.622  11.550 -0.0657  0.5236  0.4104
13307TIP3    H161336   3.012   6.565  11.480  0.4206  1.3044 -0.0274
13307TIP3    H261337   3.051   6.619  11.616 -0.0753  0.5547  0.4218
13308TIP3   OH261338   4.377   3.625  16.139  0.7539  0.3896 -0.3221
13308TIP3    H161339   4.417   3.709  16.163  0.2909  0.4811  0.1381
13308TIP3    H261340   4.409   3.564  16.205  0.5899  0.3404 -0.2874
13309TIP3   OH261341   6.414   4.177   5.022  0.4886  0.4494  0.0347
13309TIP3    H161342   6.361   4.134   4.955  0.6089  2.5183 -1.5087
13309TIP3    H261343   6.504   4.156   4.997  0.6332 -3.1327  2.6997
13310TIP3   OH261344   5.591   4.785   3.329  0.2185 -0.0317 -0.0485
13310TIP3    H161345   5.643   4.866   3.327 -0.2510  0.3161  0.9007
13310TIP3    H261346   5.654   4.717   3.351  0.6103  0.0817 -0.7953
13311TIP3   OH261347   5.861   1.778   4.374 -0.6009 -0.0894 -0.2063
13311TIP3    H161348   5.891   1.856   4.327 -1.7351 -0.0708 -0.9641
13311TIP3    H261349   5.814   1.812   4.450  0.1612 -0.0825  0.2658
13312TIP3   OH261350   5.978   5.179   3.922  0.1588 -0.1013 -0.1248
13312TIP3    H161351   5.949   5.209   3.836 -0.6367  0.6606  0.3940
13312TIP3    H261352   5.934   5.095   3.935 -1.7848  0.9724  0.5917
13313TIP3   OH261353   5.730   2.504  11.478  0.2921  0.0576 -0.5114
13313TIP3    H161354   5.771   2.418  11.481  2.4151  1.0316 -0.2204
13313TIP3    H261355   5.719   2.529  11.570 -0.3299  0.1226 -0.5950
13314TIP3   OH261356   3.266   5.660  14.094  0.7299 -0.4547 -0.3984
13314TIP3    H161357   3.299   5.722  14.028  0.5096 -0.9691 -1.0004
13314TIP3    H261358   3.345   5.619  14.130  0.8473 -0.2426 -0.4151
13315TIP3   OH261359   0.649   1.560   2.797  0.5664  0.2429  0.4848
13315TIP3    H161360   0.736   1.599   2.791  0.3329  0.7401  0.2626
13315TIP3    H261361   0.590   1.629   2.767 -0.0037  0.2915  1.6640
13316TIP3   OH261362   0.292   4.776  12.396  0.0502 -0.6163 -0.4601
13316TIP3    H161363   0.237   4.852  12.378 -1.2229 -1.6217 -1.0088
13316TIP3    H261364   0.377   4.798  12.360  0.1062  1.0699  0.5928
13317TIP3   OH261365   1.582   1.341   3.415 -0.4066 -0.3661  0.1350
13317TIP3    H161366   1.624   1.427   3.421 -0.6878 -0.3197  2.7201
13317TIP3    H261367   1.499   1.358   3.370  0.1904  0.4373 -0.6889
13318TIP3   OH261368   2.649   2.411   3.516 -0.6806 -0.2905 -0.0652
13318TIP3    H161369   2.604   2.448   3.592 -1.0968  1.1076 -0.9571
13318TIP3    H261370   2.735   2.454   3.515 -1.2288  0.8608 -1.2029
13319TIP3   OH261371   4.582   6.528  11.413  0.0284  0.0118  0.1910
13319TIP3    H161372   4.613   6.619  11.405  0.3618 -0.0404  0.8455
13319TIP3    H261373   4.633   6.492  11.485  1.6553 -1.4275 -1.5750
13320TIP3   OH261374   6.748   2.894  11.943 -0.3909 -0.2167 -0.2028
13320TIP3    H161375   6.662   2.919  11.975  0.1161  0.1469  0.9382
13320TIP3    H261376   6.800   2.878  12.023  0.6113 -0.3646 -0.8595
13321TIP3   OH261377   6.553   1.795  12.502  0.1465  0.1662 -0.9207
13321TIP3    H161378   6.623   1.731  12.517  0.3516  0.5214 -0.3222
13321TIP3    H261379   6.525   1.778  12.412  0.3861 -0.5805 -0.8696
13322TIP3   OH261380   5.319   3.270   6.117 -0.3946  0.5568 -0.2837
13322TIP3    H161381   5.360   3.229   6.193 -1.5788  2.0218  1.1979
13322TIP3    H261382   5.258   3.334   6.153  0.4932  2.7955 -2.4820
13323TIP3   OH261383   4.969   4.768  16.847  0.3221  0.4364  0.2981
13323TIP3    H161384   4.979   4.805  16.760 -0.3719  0.7366  0.3450
13323TIP3    H261385   4.936   4.679  16.832 -0.5142  0.7451  0.2759
13324TIP3   OH261386   3.478   5.742  16.927  0.8723 -0.8368 -0.0449
13324TIP3    H161387   3.500   5.818  16.982  0.3666  0.2640 -1.2851
13324TIP3    H261388   3.407   5.774  16.871  0.1268 -2.4836 -0.0903
13325TIP3   OH261389   0.630   0.905  12.207 -0.2150  0.3421  0.2418
13325TIP3    H161390   0.721   0.928  12.192 -0.1528  0.6889  1.0506
13325TIP3    H261391   0.611   0.941  12.294 -1.3275  0.9194 -0.2195
13326TIP3   OH261392   4.968   0.469  14.307  0.2174 -0.5087 -0.4234
13326TIP3    H161393   5.001   0.443  14.393 -1.8480 -0.8699  0.3178
13326TIP3    H261394   4.993   0.560  14.298 -2.2556  0.5667  2.0554
13327TIP3   OH261395   0.128   1.230   2.114  0.5484 -0.7140 -0.1129
13327TIP3    H161396   0.201   1.252   2.172  0.0176  0.1084  0.2660
13327TIP3    H261397   0.129   1.297   2.046 -1.8759  1.4910  1.7708
13328TIP3   OH261398   6.596   3.039  13.432  0.4565 -0.4679  0.4053
13328TIP3    H161399   6.640   3.124  13.435  1.6028 -1.0425  0.2336
13328TIP3    H261400   6.503   3.060  13.444  0.7613  0.7701  0.7292
13329TIP3   OH261401   6.241   1.244  15.685  0.1289 -0.3162 -0.3071
13329TIP3    H161402   6.200   1.162  15.658 -1.0922 -0.4591  1.7610
13329TIP3    H261403   6.297   1.269  15.611 -0.7416 -2.1344 -1.6439
13330TIP3   OH261404   4.625   4.815  11.068  0.0564 -0.0850  0.0444
13330TIP3    H161405   4.572   4.847  11.141  0.7113 -0.9406  0.9202
13330TIP3    H261406   4.572   4.831  10.991 -0.6974  0.7504  0.7145
13331TIP3   OH261407   1.172   2.213   2.164  0.2435  0.2110  0.2230
13331TIP3    H161408   1.215   2.173   2.240 -0.6716  1.5648  1.5025
13331TIP3    H261409   1.204   2.162   2.089  1.6922 -0.7427  1.4253
13332TIP3   OH261410   5.775   3.462   2.461  0.1355 -1.0187 -0.9622
13332TIP3    H161411   5.697   3.467   2.516 -0.6817  0.6408 -2.1887
13332TIP3    H261412   5.844   3.431   2.520 -0.7290  0.5242  0.9687
13333TIP3   OH261413   0.682   5.480  15.207  0.6530  0.4526  0.2610
13333TIP3    H161414   0.600   5.515  15.240  0.6576  0.4517  0.2734
13333TIP3    H261415   0.695   5.523  15.122  0.8894  0.8208  0.4834
13334TIP3   OH261416   3.121   1.565   5.163  0.3131 -0.5945  0.2411
13334TIP3    H161417   3.116   1.472   5.141  0.7365 -0.5648 -0.0119
13334TIP3    H261418   3.082   1.609   5.088 -2.2444 -0.6471  1.4465
13335TIP3   OH261419   5.885   6.175   4.821 -0.5220  0.4250  0.1134
13335TIP3    H161420   5.973   6.197   4.789 -0.7528  2.2602  0.6401
13335TIP3    H261421   5.836   6.257   4.815 -1.7138 -0.1466  1.4393
13336TIP3   OH261422   0.068   2.176  13.870  0.1969 -0.2935 -0.0425
13336TIP3    H161423   0.118   2.164  13.790  0.4801  1.2083 -0.1235
13336TIP3    H261424   0.126   2.146  13.940  1.0689  1.0026 -0.1752
13337TIP3   OH261425   3.394   5.262  14.919 -0.6471  0.0950 -0.1979
13337TIP3    H161426   3.469   5.314  14.891 -0.0420 -1.3610 -1.4057
13337TIP3    H261427   3.403   5.179  14.872 -2.2479 -0.6471  0.7194
13338TIP3   OH261428   2.759   6.004  13.564 -0.0939 -0.3364 -0.1109
13338TIP3    H161429   2.790   5.941  13.499 -1.1576  0.3454 -1.3095
13338TIP3    H261430   2.678   5.965  13.598  0.5133 -0.7453  0.9335
13339TIP3   OH261431   6.692   0.780  13.433 -0.2734  0.7438  0.3237
13339TIP3    H161432   6.630   0.848  13.462 -0.7440  0.8587 -0.8839
13339TIP3    H261433   6.655   0.748  13.350  1.6283  1.2778 -0.7842
13340TIP3   OH261434   1.080   5.629   0.290  0.2825  0.3851 -0.1568
13340TIP3    H161435   0.995   5.629   0.333  0.7794  0.5181  0.8566
13340TIP3    H261436   1.085   5.545   0.245  1.2159 -1.4669  3.0797
13341TIP3   OH261437   0.429   0.541  12.871 -0.5937 -0.3743 -0.3540
13341TIP3    H161438   0.490   0.606  12.905 -1.2083 -0.4409  0.9064
13341TIP3    H261439   0.343   0.583  12.877 -0.8893 -0.9683 -0.3689
13342TIP3   OH261440   0.436   2.993  14.948  0.4156 -0.3896  0.4268
13342TIP3    H161441   0.469   3.073  14.989 -0.5989 -0.3453  1.2022
13342TIP3    H261442   0.427   3.015  14.855 -0.1184  0.5076  0.6742
13343TIP3   OH261443   3.711   5.696   2.865  0.1063  0.2553  0.1708
13343TIP3    H161444   3.787   5.750   2.886 -0.7891  1.8261 -0.4715
13343TIP3    H261445   3.672   5.675   2.950  0.4445  0.6579  0.4308
13344TIP3   OH261446   3.345   1.078   2.000  0.3736  0.6496  0.5826
13344TIP3    H161447   3.415   1.044   2.056  0.5705 -0.1124 -0.1122
13344TIP3    H261448   3.388   1.096   1.917 -0.2834  0.0390  0.1012
13345TIP3   OH261449   3.404   3.650  12.232 -0.2067  0.2886  0.1313
13345TIP3    H161450   3.415   3.562  12.196 -0.4760  0.0582  0.6016
13345TIP3    H261451   3.431   3.642  12.324 -0.4398  0.6405  0.2343
13346TIP3   OH261452   0.036   1.026  12.720 -0.0978 -0.5214  0.2726
13346TIP3    H161453  -0.029   1.097  12.713 -0.2000 -0.6718 -0.3526
13346TIP3    H261454   0.043   0.991  12.631 -0.3411 -1.5662  0.6510
13347TIP3   OH261455   5.315   6.002  13.345 -0.4878 -0.2596 -0.0983
13347TIP3    H161456   5.294   6.057  13.270 -1.6988 -1.5801 -0.7545
13347TIP3    H261457   5.382   6.053  13.393  2.5928 -0.6123 -3.5494
13348TIP3   OH261458   0.069   6.574   5.242  0.1200 -0.0096  0.3717
13348TIP3    H161459   0.133   6.592   5.311 -0.1308  1.8150  0.1707
13348TIP3    H261460   0.077   6.648   5.182  0.7190 -1.7806 -1.9108
13349TIP3   OH261461   3.210   5.622  12.708 -0.2508  0.3453  0.6046
13349TIP3    H161462   3.212   5.593  12.799 -0.8574 -0.9824  0.2202
13349TIP3    H261463   3.301   5.616  12.680 -0.0140  1.0267  1.1843
13350TIP3   OH261464   4.596   3.622   0.961  0.2097  0.1068 -0.1156
13350TIP3    H161465   4.598   3.670   0.878 -3.0607 -0.5697 -0.6995
13350TIP3    H261466   4.578   3.531   0.937 -1.9293  0.0801  1.2991
13351TIP3   OH261467   0.510   0.802  13.489 -0.2783  0.0811 -0.4905
13351TIP3    H161468   0.517   0.708  13.475 -1.6756  0.1399 -1.8189
13351TIP3    H261469   0.443   0.811  13.557 -0.5145  0.1343 -0.7299
13352TIP3   OH261470   3.319   2.410  16.858  0.9654 -0.0788  0.4827
13352TIP3    H161471   3.223   2.408  16.852  0.9268  1.2331  0.4303
13352TIP3    H261472   3.337   2.452  16.942  1.4922  0.1298  0.2686
13353TIP3   OH261473   5.067   1.350   5.098  0.7279  0.2631 -0.1340
13353TIP3    H161474   5.080   1.407   5.174  0.0737 -0.7463  0.7788
13353TIP3    H261475   5.138   1.287   5.103  1.1916  0.7159 -0.8825
13354TIP3   OH261476   6.467   0.425  16.650  1.1666 -0.0391  0.1299
13354TIP3    H161477   6.513   0.440  16.733  2.1533 -0.2322 -0.3668
13354TIP3    H261478   6.537   0.421  16.585  0.4782 -0.9587 -0.5623
13355TIP3   OH261479   1.280   0.513  10.758  0.0871  0.6203  0.1846
13355TIP3    H161480   1.218   0.468  10.701 -0.4447  1.5714  0.0091
13355TIP3    H261481   1.352   0.538  10.700  1.2252 -1.4913  0.5880
13356TIP3   OH261482   0.749   4.194   0.966 -0.2085 -0.1854  0.1063
13356TIP3    H161483   0.686   4.233   1.026 -3.2683 -2.4201 -1.4135
13356TIP3    H261484   0.753   4.253   0.892  0.0612  0.3029  0.5039
13357TIP3   OH261485   2.584   2.935  11.701 -0.3141  0.4431  0.3038
13357TIP3    H161486   2.643   2.892  11.640 -0.8036  1.9954 -1.3206
13357TIP3    H261487   2.612   2.903  11.787  0.6035 -1.5378 -0.6619
13358TIP3   OH261488   1.825   4.955   3.370 -0.2783 -0.4673 -0.1863
13358TIP3    H161489   1.791   4.871   3.338 -2.1377  0.6572 -1.3286
13358TIP3    H261490   1.845   4.939   3.463  1.5613 -2.7520 -0.8827
13359TIP3   OH261491   3.085   2.967  13.549  0.2697 -0.6096  0.2785
13359TIP3    H161492   3.143   3.034  13.585 -2.1389  1.5591  0.4258
13359TIP3    H261493   3.097   2.892  13.606  1.2838  0.5337  1.6558
13360TIP3   OH261494   1.321   3.230  11.418 -0.5549  0.1418 -0.7725
13360TIP3    H161495   1.385   3.262  11.355 -1.4737 -1.3573 -2.5716
13360TIP3    H261496   1.374   3.192  11.488  0.5434 -0.0304 -1.6562
13361TIP3   OH261497   0.201   3.900  16.085 -0.1783  0.4996 -0.4283
13361TIP3    H161498   0.192   3.823  16.142  1.9421 -1.8587 -2.9559
13361TIP3    H261499   0.290   3.932  16.102 -0.8268  2.1169  0.1505
13362TIP3   OH261500   1.181   3.460  13.841 -0.3588  0.6307  0.1535
13362TIP3    H161501   1.111   3.396  13.859  0.1927  0.0796  0.3609
13362TIP3    H261502   1.262   3.412  13.856  0.0637  1.5817  0.9694
13363TIP3   OH261503   1.656   5.206   5.252 -0.0365 -0.4444 -0.2759
13363TIP3    H161504   1.672   5.262   5.176 -2.2516  0.1326 -0.3973
13363TIP3    H261505   1.572   5.164   5.233 -0.5265 -0.4603  1.7465
13364TIP3   OH261506   1.256   6.794  12.744  0.4920  0.2991 -0.1046
13364TIP3    H161507   1.322   6.782  12.812 -0.0013 -0.7598  0.2171
13364TIP3    H261508   1.275   6.727  12.679  0.7200  1.0485 -0.8310
13365TIP3   OH261509   4.995   3.175  12.735  0.0484 -0.0430 -0.0071
13365TIP3    H161510   5.056   3.155  12.806  0.0882 -0.2538 -0.1010
13365TIP3    H261511   4.988   3.270  12.737  0.0910 -0.0430  0.2445
13366TIP3   OH261512   2.942   0.393   6.737 -0.8757 -0.3054 -0.3706
13366TIP3    H161513   3.014   0.407   6.798 -1.8311  0.7607  0.5589
13366TIP3    H261514   2.976   0.422   6.652 -0.4526  0.9280  0.2018
13367TIP3   OH261515   3.922   3.512   2.774 -0.5869  0.1325  0.2066
13367TIP3    H161516   3.886   3.425   2.789  0.4165 -0.3292 -0.0467
13367TIP3    H261517   3.925   3.521   2.679 -1.0430  0.5989  0.2306
13368TIP3   OH261518   6.498   1.501   2.053 -0.2675  0.6931  0.1836
13368TIP3    H161519   6.474   1.414   2.087  1.6665 -1.2153 -2.8950
13368TIP3    H261520   6.424   1.525   1.997 -0.2978  0.4716  0.1258
13369TIP3   OH261521   1.960   1.133   1.152  0.7707 -0.0991  0.3215
13369TIP3    H161522   2.050   1.120   1.121  0.3131 -0.9120 -0.7410
13369TIP3    H261523   1.951   1.072   1.225  1.2634  0.4131  0.8164
13370TIP3   OH261524   2.278   5.451   5.906  0.1999  0.6446  0.2851
13370TIP3    H161525   2.356   5.404   5.877  0.4931  0.6561  1.0445
13370TIP3    H261526   2.309   5.540   5.924  0.2880  0.3436  1.7702
13371TIP3   OH261527   0.246   2.049   2.603 -0.0703  0.1966 -0.3024
13371TIP3    H161528   0.163   2.091   2.626 -0.3103  0.1270 -1.0131
13371TIP3    H261529   0.307   2.075   2.673 -0.3746  1.2022 -0.3950
13372TIP3   OH261530   3.755   2.231  14.787  0.2937 -0.1233  0.0729
13372TIP3    H161531   3.741   2.280  14.705  1.7805 -0.0431 -0.1531
13372TIP3    H261532   3.773   2.298  14.852  0.0177 -0.2402  0.2690
13373TIP3   OH261533   4.006   6.522  15.266 -0.0546 -0.5482 -0.0916
13373TIP3    H161534   4.084   6.574  15.284 -0.9494  0.3075  1.6086
13373TIP3    H261535   3.979   6.489  15.352 -1.1789 -1.3913 -0.7368
13374TIP3   OH261536   0.127   5.591  10.852  0.5153 -0.0353  0.1291
13374TIP3    H161537   0.188   5.665  10.859  1.2214 -0.7247  1.6576
13374TIP3    H261538   0.057   5.624  10.795  1.1746  1.5538  0.1713
13375TIP3   OH261539   6.531   5.420   0.839  0.1813  0.4444 -0.1277
13375TIP3    H161540   6.450   5.378   0.867  0.0777 -0.0119 -1.0634
13375TIP3    H261541   6.600   5.358   0.862  0.0513 -0.1594 -1.2833
13376TIP3   OH261542   1.819   6.131  11.867  0.4078  0.1480 -0.0091
13376TIP3    H161543   1.883   6.075  11.910 -0.4752 -1.1929 -0.3570
13376TIP3    H261544   1.751   6.146  11.933 -1.8623 -3.4037 -1.2638
13377TIP3   OH261545   5.798   5.490  15.752  0.3375 -0.1079 -0.2820
13377TIP3    H161546   5.755   5.412  15.717  1.8257 -1.1833  0.1830
13377TIP3    H261547   5.757   5.504  15.838 -1.4161  0.9360 -1.2263
13378TIP3   OH261548   5.189   1.429  12.469 -0.0776  0.0868  0.4804
13378TIP3    H161549   5.148   1.507  12.507 -1.1770  0.3678 -1.2062
13378TIP3    H261550   5.241   1.462  12.396 -0.1671 -0.7238  0.0429
13379TIP3   OH261551   2.034   2.114  13.763  0.4900 -0.0758 -0.2637
13379TIP3    H161552   2.046   2.020  13.753  0.2462 -0.1232 -0.1086
13379TIP3    H261553   1.947   2.132  13.726  1.3363  0.3916 -2.1451
13380TIP3   OH261554   4.261   0.626  15.113 -0.6522 -0.2366 -0.1614
13380TIP3    H161555   4.310   0.697  15.154 -1.3425  0.0699  0.1324
13380TIP3    H261556   4.172   0.660  15.102 -0.9777 -1.0296 -0.0740
13381TIP3   OH261557   2.541   0.730   3.070  1.0014 -0.4444  0.4596
13381TIP3    H161558   2.527   0.733   3.164  0.2404 -0.6722  0.3590
13381TIP3    H261559   2.508   0.814   3.038  1.2480 -0.3718  0.3886
13382TIP3   OH261560   2.965   1.596   3.401  0.4812  0.4179  0.0869
13382TIP3    H161561   2.927   1.543   3.331  0.8880  0.0363  0.1430
13382TIP3    H261562   2.957   1.541   3.479 -1.0955  1.3346  0.6099
13383TIP3   OH261563   2.536   3.516   6.334 -0.4241  0.2492  0.9104
13383TIP3    H161564   2.463   3.565   6.372 -0.6330 -0.3205  1.2450
13383TIP3    H261565   2.612   3.572   6.350 -0.9354  1.3766 -0.4468
13384TIP3   OH261566   3.750   2.069  10.531 -0.0723  0.2786 -0.4455
13384TIP3    H161567   3.685   2.053  10.462 -2.4634 -2.3831  2.1519
13384TIP3    H261568   3.808   1.993  10.527  1.4499  1.4290 -1.1366
13385TIP3   OH261569   5.734   0.634   3.807  0.6833 -0.4985  0.4150
13385TIP3    H161570   5.735   0.571   3.735 -0.3570 -0.9214  0.7552
13385TIP3    H261571   5.782   0.590   3.877  2.1954  0.1400 -0.1724
13386TIP3   OH261572   5.358   2.476   2.433 -0.0707 -0.4005  0.1706
13386TIP3    H161573   5.395   2.391   2.456 -1.0036 -0.0973  3.1765
13386TIP3    H261574   5.316   2.461   2.348  0.6598 -2.6320  0.1181
13387TIP3   OH261575   1.524   2.838   3.713  0.2781  0.3960  0.4151
13387TIP3    H161576   1.589   2.816   3.779  0.5115 -0.3587 -0.0487
13387TIP3    H261577   1.529   2.766   3.650 -0.0587  1.0089 -0.3308
13388TIP3   OH261578   0.464   2.517   1.254 -0.2949 -0.2768  0.7198
13388TIP3    H161579   0.484   2.523   1.161  0.7154 -1.2750  0.8531
13388TIP3    H261580   0.421   2.600   1.275  2.0205  1.1763 -0.0283
13389TIP3   OH261581   1.261   3.496   0.097  0.0234  0.0627 -0.0212
13389TIP3    H161582   1.247   3.425   0.034  0.8548 -0.3333  0.2154
13389TIP3    H261583   1.299   3.452   0.174 -1.6198  0.4203  1.0429
13390TIP3   OH261584   1.454   5.788  14.638 -0.0257 -0.5637  0.3469
13390TIP3    H161585   1.532   5.820  14.682  1.3023  0.8363 -2.7407
13390TIP3    H261586   1.487   5.741  14.561 -2.1483  0.7960 -1.5246
13391TIP3   OH261587   6.517   1.782   2.642  0.5878 -0.5140 -0.0517
13391TIP3    H161588   6.592   1.819   2.596 -1.0639 -0.2913 -2.7968
13391TIP3    H261589   6.494   1.848   2.707  0.5404  1.2059 -1.7240
13392TIP3   OH261590   0.881   2.625  13.379 -0.0184 -0.2955  0.2001
13392TIP3    H161591   0.969   2.630  13.342  0.0786 -1.5529  0.2297
13392TIP3    H261592   0.863   2.531  13.385 -0.0209 -0.1999  3.2937
13393TIP3   OH261593   5.690   5.006   2.695 -0.2683 -0.4995  0.4354
13393TIP3    H161594   5.619   5.027   2.634 -0.3520 -0.9911  0.3646
13393TIP3    H261595   5.670   4.918   2.725  0.2759 -0.6076  0.4771
13394TIP3   OH261596   2.945   4.398  13.889  0.1584  0.6568  0.8306
13394TIP3    H161597   2.869   4.344  13.866  0.3377  0.1122  1.4920
13394TIP3    H261598   2.916   4.448  13.966  0.4614  0.4422  1.0886
13395TIP3   OH261599   0.273   6.180  14.239 -0.3293 -0.4239 -0.2226
13395TIP3    H161600   0.352   6.163  14.187  0.7267  0.8636  0.9017
13395TIP3    H261601   0.238   6.093  14.258  0.6661 -1.0025 -0.9565
13396TIP3   OH261602   5.073   6.751  13.135  0.0584  0.0863 -0.0764
13396TIP3    H161603   5.132   6.813  13.092  0.3774  0.0261  0.2648
13396TIP3    H261604   5.123   6.720  13.211  0.2618 -1.2572 -0.7205
13397TIP3   OH261605   6.706   5.918   5.999 -0.6994 -0.7691  0.2090
13397TIP3    H161606   6.676   6.006   6.022 -0.2587 -0.6025  0.1567
13397TIP3    H261607   6.707   5.870   6.081 -1.6707 -0.9502  0.1239
13398TIP3   OH261608   5.099   1.434   2.824 -0.0937 -0.6950 -0.2152
13398TIP3    H161609   5.102   1.338   2.822 -0.6516 -0.7324  0.4355
13398TIP3    H261610   5.191   1.461   2.818  0.1142 -1.2863  0.2122
13399TIP3   OH261611   2.639   2.444   5.667  0.2392  0.1962  0.0993
13399TIP3    H161612   2.614   2.482   5.583  0.2549  0.8605  0.3868
13399TIP3    H261613   2.561   2.397   5.696 -0.8406  2.4081  1.0815
13400TIP3   OH261614   4.146   5.076  12.505 -0.0309  0.4660  0.4613
13400TIP3    H161615   4.203   5.022  12.559  1.3265  1.2345 -0.1418
13400TIP3    H261616   4.146   5.161  12.548 -0.1630  0.6608  0.0816
13401TIP3   OH261617   4.369   1.521  14.085  0.2282  0.6273  0.4232
13401TIP3    H161618   4.418   1.521  14.002 -0.9434  0.2397 -0.3066
13401TIP3    H261619   4.421   1.466  14.143  0.3238 -0.3622 -0.5578
13402TIP3   OH261620   3.137   4.130   2.549 -0.1059  0.8152  0.5162
13402TIP3    H161621   3.175   4.094   2.629  0.8232  1.1644  0.2369
13402TIP3    H261622   3.164   4.069   2.480  0.7261  1.5472  0.1803
13403TIP3   OH261623   6.771   4.543   1.449  0.0158  0.0017 -0.2902
13403TIP3    H161624   6.756   4.636   1.466 -0.1422 -0.3137  1.5022
13403TIP3    H261625   6.710   4.522   1.379 -1.1595  0.8949  0.4069
13404TIP3   OH261626   1.188   0.601  13.550 -0.1777  0.3453  0.4735
13404TIP3    H161627   1.173   0.651  13.470  0.9676  0.2152  0.1518
13404TIP3    H261628   1.283   0.592  13.555 -0.3169 -1.4206  0.7403
13405TIP3   OH261629   1.851   1.842   3.055  0.0519 -0.0239 -0.3127
13405TIP3    H161630   1.907   1.783   3.106 -1.6564 -1.1378  0.3761
13405TIP3    H261631   1.872   1.929   3.088  1.4662 -0.3827 -0.1919
13406TIP3   OH261632   5.428   6.354   2.178 -0.7352 -0.2435  0.0167
13406TIP3    H161633   5.377   6.435   2.183  0.5793  0.5192  2.5625
13406TIP3    H261634   5.517   6.379   2.201  0.4095 -1.9340 -2.1644
13407TIP3   OH261635   1.271   6.174  14.414 -0.4918  0.0624 -0.2228
13407TIP3    H161636   1.254   6.104  14.476  0.8063 -0.5912 -0.5616
13407TIP3    H261637   1.333   6.232  14.458  0.2505 -0.2762 -0.7959
13408TIP3   OH261638   4.868   4.401  15.228 -0.6497 -0.0761  0.0855
13408TIP3    H161639   4.954   4.443  15.231 -0.6298 -0.0395 -0.8450
13408TIP3    H261640   4.861   4.355  15.312  0.2252  0.0172  0.2173
13409TIP3   OH261641   3.164   2.610   6.702  0.6718  0.0875 -0.4806
13409TIP3    H161642   3.212   2.582   6.625  4.2069  3.5598  0.1626
13409TIP3    H261643   3.211   2.571   6.776  1.2021  1.6698  0.0699
13410TIP3   OH261644   3.264   0.992   4.213  0.5340  0.3376 -0.6745
13410TIP3    H161645   3.326   0.985   4.139  0.1731 -0.0609 -0.9455
13410TIP3    H261646   3.255   0.902   4.245  0.3933  0.4534 -0.3873
13411TIP3   OH261647   1.821   4.284  10.948 -0.2433  0.3568 -0.0558
13411TIP3    H161648   1.794   4.201  10.909 -1.0067  0.3682  0.4357
13411TIP3    H261649   1.906   4.265  10.989 -1.1867 -0.6464  1.5400
13412TIP3   OH261650   1.297   4.067   1.834  0.1313 -0.5723  0.2226
13412TIP3    H161651   1.344   4.131   1.887  0.8425 -0.4671 -0.5264
13412TIP3    H261652   1.209   4.102   1.827  0.2356 -0.2034  0.6812
13413TIP3   OH261653   2.231   3.376  12.663 -0.5360 -0.0126  0.4476
13413TIP3    H161654   2.185   3.408  12.586  0.3967 -0.8656 -0.4911
13413TIP3    H261655   2.168   3.317  12.706 -0.8881  0.0941  0.0801
13414TIP3   OH261656   1.472   1.876  16.575  0.3234  0.8103 -0.6884
13414TIP3    H161657   1.557   1.843  16.607  0.4354  1.5460 -0.2146
13414TIP3    H261658   1.426   1.797  16.546 -0.3342 -0.1312  2.5368
13415TIP3   OH261659   1.022   5.794  13.097  0.1309 -0.6119  0.2396
13415TIP3    H161660   0.970   5.754  13.027 -0.8867 -2.0906  1.7497
13415TIP3    H261661   0.971   5.776  13.177  2.1440 -0.6124  1.5880
13416TIP3   OH261662   5.395   1.229   5.914 -0.1154 -0.1044 -0.8002
13416TIP3    H161663   5.398   1.323   5.934  0.7296 -0.5409  1.4288
13416TIP3    H261664   5.486   1.202   5.910 -0.3532 -0.8586 -1.2951
13417TIP3   OH261665   5.693   5.770   4.155 -0.0133 -0.0604  0.6949
13417TIP3    H161666   5.655   5.683   4.143 -1.7474  0.5397  1.4890
13417TIP3    H261667   5.668   5.818   4.076 -0.3873  0.1684  0.9535
13418TIP3   OH261668   6.066   6.530   2.522 -0.4139 -0.6803  0.3125
13418TIP3    H161669   6.150   6.575   2.515  0.9450 -2.7399  2.1651
13418TIP3    H261670   6.039   6.543   2.613 -2.0753 -0.2158 -0.1949
13419TIP3   OH261671   2.278   0.556   4.752  0.6244  0.3180  0.2675
13419TIP3    H161672   2.373   0.556   4.741  0.5533  0.4102 -0.3910
13419TIP3    H261673   2.260   0.483   4.810  1.2531  1.3214  1.7985
13420TIP3   OH261674   0.755   6.097   5.715  0.1707  0.1984 -0.1695
13420TIP3    H161675   0.844   6.130   5.706 -0.0492  1.3402  1.4779
13420TIP3    H261676   0.749   6.068   5.806 -0.8352 -0.8514 -0.5415
13421TIP3   OH261677   1.171   6.697   2.022  0.2937 -0.0859  0.0072
13421TIP3    H161678   1.163   6.696   2.117 -0.8960 -2.1273 -0.0477
13421TIP3    H261679   1.264   6.688   2.005  0.4187 -0.7773  1.0033
13422TIP3   OH261680   1.744   2.692  16.659  0.2747  0.1878  0.0909
13422TIP3    H161681   1.689   2.691  16.737 -0.4491 -1.9851 -0.3854
13422TIP3    H261682   1.689   2.656  16.589  1.6329 -0.1058 -0.8792
13423TIP3   OH261683   3.396   2.061  14.451 -0.4408 -0.2072 -0.3250
13423TIP3    H161684   3.436   2.037  14.534 -2.3355  0.8030  0.9460
13423TIP3    H261685   3.330   1.994  14.435 -1.3694  0.5980 -0.0101
13424TIP3   OH261686   3.428   4.283   1.367  0.1606 -0.1310 -0.5889
13424TIP3    H161687   3.512   4.320   1.396 -0.5788 -0.0691  1.6788
13424TIP3    H261688   3.393   4.240   1.445 -1.2692 -1.4065 -1.8827
13425TIP3   OH261689   1.901   6.759   3.582  0.0142 -0.5494  0.0615
13425TIP3    H161690   1.849   6.836   3.559 -2.0788 -1.6508  0.8315
13425TIP3    H261691   1.980   6.795   3.623 -1.4822  1.2288  1.5981
13426TIP3   OH261692   1.491   4.180  12.300  0.2810 -0.2209  0.4155
13426TIP3    H161693   1.424   4.245  12.319  0.5472  0.0525  0.4334
13426TIP3    H261694   1.460   4.100  12.342  0.3140  0.0890  1.0368
13427TIP3   OH261695   6.409   3.944   5.840  0.0246 -0.7456  0.0842
13427TIP3    H161696   6.315   3.962   5.829 -0.3247 -2.4067  0.0687
13427TIP3    H261697   6.415   3.901   5.926  1.2525  2.2470  1.6282
13428TIP3   OH261698   4.132   4.423  13.706  0.0829 -0.3483 -0.5205
13428TIP3    H161699   4.215   4.470  13.696  0.0559 -0.3660 -0.8470
13428TIP3    H261700   4.114   4.388  13.619 -0.2593 -0.3571 -0.4478
13429TIP3   OH261701   0.149   3.958  13.281 -0.2773 -0.3210  0.1736
13429TIP3    H161702   0.098   3.946  13.361 -1.2817 -2.9383 -0.7676
13429TIP3    H261703   0.219   4.018  13.307 -1.5042  0.2116  2.5634
13430TIP3   OH261704   0.246   5.747  11.392 -0.4190  0.0642  0.1403
13430TIP3    H161705   0.300   5.744  11.313 -0.4491  1.5927  0.0376
13430TIP3    H261706   0.300   5.707  11.460 -0.0859 -0.5458 -0.4705
13431TIP3   OH261707   5.077   6.312  13.289 -0.4118  0.3800 -0.0664
13431TIP3    H161708   5.103   6.238  13.345 -1.2240  0.6296  0.6643
13431TIP3    H261709   5.063   6.384  13.350 -0.4065  0.9250 -0.6991
13432TIP3   OH261710   3.454   5.486   4.649 -0.2977 -0.0803  0.6682
13432TIP3    H161711   3.491   5.399   4.634 -2.7571 -1.1310  0.2021
13432TIP3    H261712   3.526   5.546   4.632  1.5509 -2.0202  1.2545
13433TIP3   OH261713   2.159   5.711  14.996  0.1466  0.6486  0.2844
13433TIP3    H161714   2.151   5.661  15.077 -1.0618 -1.1473 -0.8842
13433TIP3    H261715   2.070   5.721  14.964  0.6508  0.7457 -1.1759
13434TIP3   OH261716   5.966   6.654   4.110  0.0163 -0.5917  0.1789
13434TIP3    H161717   5.954   6.567   4.070  1.9341 -1.2394  0.8805
13434TIP3    H261718   6.047   6.646   4.160 -0.1470  1.4211  0.8516
13435TIP3   OH261719   1.507   6.503   3.550  0.1559  0.3043 -0.1824
13435TIP3    H161720   1.446   6.481   3.621  0.2715 -3.3215 -0.9994
13435TIP3    H261721   1.592   6.508   3.594 -0.3027  2.8792  0.5691
13436TIP3   OH261722   0.751   2.053   5.815 -0.2132 -0.3792 -0.3869
13436TIP3    H161723   0.779   1.963   5.828 -0.1874 -0.2617  0.4033
13436TIP3    H261724   0.782   2.100   5.892 -1.3846  0.0305 -0.1369
13437TIP3   OH261725   5.724   4.590   4.930 -0.1524 -0.1762  0.0398
13437TIP3    H161726   5.744   4.506   4.890 -0.4419 -0.3501  0.2606
13437TIP3    H261727   5.741   4.577   5.023  2.0480  0.6713 -0.1746
13438TIP3   OH261728   0.074   2.438   0.087  0.1803 -0.0600 -0.3504
13438TIP3    H161729   0.063   2.471   0.176  2.7948  1.1610 -0.3911
13438TIP3    H261730   0.079   2.516   0.032  0.2285 -0.7408 -1.3407
13439TIP3   OH261731   5.845   4.155  15.412  0.3937 -0.4096  0.7422
13439TIP3    H161732   5.918   4.094  15.399 -0.3093 -0.9040 -1.1106
13439TIP3    H261733   5.769   4.109  15.378 -0.0597  1.7249 -1.3811
13440TIP3   OH261734   1.423   4.593  12.374  0.3810 -0.5867  0.6131
13440TIP3    H161735   1.347   4.651  12.367  1.3589  0.6192 -0.6875
13440TIP3    H261736   1.388   4.505  12.358 -0.3221  0.2690 -4.3843
13441TIP3   OH261737   5.030   3.758   1.653  0.5140  0.0623 -0.0085
13441TIP3    H161738   5.114   3.802   1.664  1.1613 -1.1404  0.0102
13441TIP3    H261739   5.053   3.666   1.637 -0.8075 -0.3637  0.4339
13442TIP3   OH261740   1.211   6.046   3.415  0.0051  0.0623  0.1551
13442TIP3    H161741   1.123   6.016   3.440 -0.0211 -0.8824 -0.9772
13442TIP3    H261742   1.200   6.080   3.326  0.7546  0.0829  0.0668
13443TIP3   OH261743   2.568   2.551  14.255 -0.1236  0.1087 -0.9303
13443TIP3    H161744   2.572   2.492  14.330 -1.0193 -1.2062 -1.8591
13443TIP3    H261745   2.653   2.595  14.254  0.5645 -1.1348 -0.1576
13444TIP3   OH261746   0.100   4.642   6.091  0.4132  0.6136 -1.2113
13444TIP3    H161747   0.152   4.659   6.170  0.2012  0.4640 -1.0381
13444TIP3    H261748   0.158   4.666   6.019  0.6603  0.6169 -1.0142
13445TIP3   OH261749   1.538   2.291   3.603  0.2579  0.2817 -0.2227
13445TIP3    H161750   1.579   2.314   3.519  0.3504 -0.7106 -0.4655
13445TIP3    H261751   1.611   2.267   3.660  0.0760 -1.5480 -0.6743
13446TIP3   OH261752   6.505   6.789   1.124  0.3569 -0.2900  0.5029
13446TIP3    H161753   6.506   6.837   1.207  0.5264 -0.7460  0.7707
13446TIP3    H261754   6.536   6.701   1.147 -0.0162 -0.5476  0.0353
13447TIP3   OH261755   0.831   0.827  12.892 -0.0321  0.3977 -0.0013
13447TIP3    H161756   0.795   0.742  12.866 -0.1404  0.6116 -0.5749
13447TIP3    H261757   0.913   0.806  12.935 -0.0756 -0.0032 -0.1094
13448TIP3   OH261758   1.467   4.409  12.979  0.0487 -0.2242  0.5207
13448TIP3    H161759   1.472   4.480  13.043  1.4602  0.6299 -0.5038
13448TIP3    H261760   1.495   4.331  13.027  1.3297  0.4537  0.9072
13449TIP3   OH261761   1.524   5.464   2.337 -0.4395  0.6089  0.2871
13449TIP3    H161762   1.519   5.488   2.430 -0.3784  1.0209  0.1878
13449TIP3    H261763   1.577   5.384   2.336 -2.1563 -0.5860  0.7970
13450TIP3   OH261764   3.846   0.742   1.048 -0.4861  0.4880 -0.3504
13450TIP3    H161765   3.817   0.712   0.962 -1.4837 -0.3314  0.2501
13450TIP3    H261766   3.783   0.810   1.072 -1.3409 -0.5774  0.5145
13451TIP3   OH261767   0.278   4.990   6.186  0.4856 -0.7340  0.0477
13451TIP3    H161768   0.208   5.015   6.247 -0.2651  0.1309 -1.1221
13451TIP3    H261769   0.358   5.019   6.230  0.1683 -1.8591  1.4718
13452TIP3   OH261770   6.155   4.228   0.222 -0.3211  0.5297 -0.2068
13452TIP3    H161771   6.078   4.281   0.247  0.9177  0.9785  3.2272
13452TIP3    H261772   6.213   4.290   0.178 -0.0008  1.4855  1.4523
13453TIP3   OH261773   2.015   4.474   2.339 -0.0671  0.2745 -0.3626
13453TIP3    H161774   2.035   4.558   2.379 -0.0820 -0.5844  1.5858
13453TIP3    H261775   1.920   4.476   2.325 -1.0233 -1.1292  4.2969
13454TIP3   OH261776   4.518   4.951  14.154  0.0902  0.1470 -0.4845
13454TIP3    H161777   4.480   4.975  14.069 -0.1979 -0.0096 -0.3991
13454TIP3    H261778   4.604   4.914  14.132 -0.0665 -0.0786 -0.7241
13455TIP3   OH261779   6.347   3.445  12.059 -0.1331 -0.1634 -0.4273
13455TIP3    H161780   6.412   3.381  12.030 -1.2175 -1.2376 -0.5823
13455TIP3    H261781   6.263   3.407  12.033 -0.8682  0.8883  0.3243
13456TIP3   OH261782   2.298   4.888  10.327 -0.0031 -0.1265  0.4860
13456TIP3    H161783   2.216   4.905  10.280  0.3475 -1.1630 -0.5414
13456TIP3    H261784   2.346   4.971  10.321 -0.9898  0.5185  1.1687
13457TIP3   OH261785   2.195   0.701   3.235 -0.1205 -0.3548 -0.4523
13457TIP3    H161786   2.255   0.713   3.308 -1.5603  0.5714  0.6209
13457TIP3    H261787   2.222   0.768   3.171 -0.7681  0.9280  0.5638
13458TIP3   OH261788   2.828   2.953   4.182  0.5870 -0.2554 -0.2939
13458TIP3    H161789   2.793   2.954   4.272 -0.6108 -2.2977 -0.6789
13458TIP3    H261790   2.769   3.012   4.134  0.0407 -0.6421 -0.1152
13459TIP3   OH261791   0.017   0.643  16.979 -0.1255  0.4071 -0.2068
13459TIP3    H161792  -0.042   0.664  17.052  1.9409  2.3872  1.0294
13459TIP3    H261793   0.082   0.584  17.016  1.8040  2.5770  0.1119
13460TIP3   OH261794   4.626   5.253  11.362  0.1419 -0.1445  0.1143
13460TIP3    H161795   4.669   5.338  11.349 -1.9502  1.0535  0.4485
13460TIP3    H261796   4.544   5.275  11.407 -0.3454 -2.3980  0.4451
13461TIP3   OH261797   2.568   0.390  12.701  0.3354 -0.4271  0.5140
13461TIP3    H161798   2.568   0.399  12.606  1.2556 -0.9733  0.4412
13461TIP3    H261799   2.556   0.296  12.716  0.7787 -0.4273  0.9068
13462TIP3   OH261800   2.131   2.933  15.251  0.5195 -0.0722  0.4109
13462TIP3    H161801   2.224   2.931  15.229  0.2486  0.9177 -0.9333
13462TIP3    H261802   2.093   2.997  15.191 -1.2543 -1.3603  0.0745
13463TIP3   OH261803   1.310   2.610   0.966 -0.0922 -0.1833 -0.0459
13463TIP3    H161804   1.359   2.601   0.884  1.2910 -0.5960  0.7866
13463TIP3    H261805   1.235   2.665   0.944 -0.0432 -0.7331 -1.7033
13464TIP3   OH261806   4.243   4.109   0.952 -0.5249 -0.3329  0.3689
13464TIP3    H161807   4.267   4.084   1.041  0.9606 -0.6237 -0.0927
13464TIP3    H261808   4.173   4.048   0.928 -2.1420  0.8071  1.8946
13465TIP3   OH261809   6.200   3.136  14.954 -0.4158 -0.2676  0.2314
13465TIP3    H161810   6.107   3.122  14.967 -0.6533  0.7053 -0.3440
13465TIP3    H261811   6.208   3.164  14.863  0.5315 -1.1531  0.0296
13466TIP3   OH261812   4.298   1.963  16.062  0.1919  0.4803 -0.4156
13466TIP3    H161813   4.353   2.021  16.115  0.7955 -0.3728 -0.0851
13466TIP3    H261814   4.301   2.001  15.974  0.7107  0.8540 -0.2383
13467TIP3   OH261815   2.984   2.348  11.820  0.0867  0.5313 -0.0204
13467TIP3    H161816   2.999   2.441  11.834  3.4317 -0.0096  0.9047
13467TIP3    H261817   3.026   2.329  11.736  1.4398 -0.4428  0.8260
13468TIP3   OH261818   3.584   4.044  13.104 -0.3820 -0.4401 -0.0539
13468TIP3    H161819   3.509   4.069  13.051 -0.0594  0.9670  0.1349
13468TIP3    H261820   3.648   4.010  13.041 -0.0174  1.1711 -0.5899
13469TIP3   OH261821   5.481   3.156   0.249 -0.1286  0.2433  0.9393
13469TIP3    H161822   5.463   3.128   0.338  0.4074 -0.7544  0.7478
13469TIP3    H261823   5.504   3.075   0.202  0.6080  0.8892  0.1518
13470TIP3   OH261824   4.921   4.507  16.719  0.1289 -0.6621  0.0328
13470TIP3    H161825   4.947   4.580  16.663 -0.2954 -0.6297 -0.1194
13470TIP3    H261826   4.936   4.429  16.666 -1.0630 -0.5876 -0.4408
13471TIP3   OH261827   0.348   0.488  14.228  0.3492 -0.4173 -0.9036
13471TIP3    H161828   0.361   0.394  14.216 -1.8235 -1.0586  0.9156
13471TIP3    H261829   0.253   0.499  14.221  0.5483  1.6090 -0.8468
13472TIP3   OH261830   4.725   2.906   3.864  0.2319 -0.0405  0.3038
13472TIP3    H161831   4.630   2.916   3.861  0.2959  0.9243  1.1785
13472TIP3    H261832   4.741   2.837   3.928  0.2094  2.1434  2.8526
13473TIP3   OH261833   3.605   4.816   5.301 -0.2255  0.1323 -0.2359
13473TIP3    H161834   3.544   4.793   5.371 -0.9924 -0.4097 -1.0528
13473TIP3    H261835   3.651   4.893   5.333  0.6238 -1.0654  1.5540
13474TIP3   OH261836   5.384   5.326   4.141 -0.2707  0.1612  0.7078
13474TIP3    H161837   5.392   5.232   4.155 -0.7474  0.1367  0.8464
13474TIP3    H261838   5.363   5.362   4.228  0.0836  0.4174  0.6904
13475TIP3   OH261839   4.142   5.767  15.059  0.0450 -0.1759 -0.0396
13475TIP3    H161840   4.070   5.762  14.996  0.6665 -0.3974 -0.7603
13475TIP3    H261841   4.124   5.698  15.122 -0.1348 -0.5457 -0.4859
13476TIP3   OH261842   4.024   5.225  13.604 -0.7836  0.3253 -0.3780
13476TIP3    H161843   4.016   5.240  13.698  1.5853 -1.3689  0.1855
13476TIP3    H261844   4.085   5.292  13.574  2.3579 -1.9227  0.3690
13477TIP3   OH261845   1.854   0.085  17.014  0.3653 -0.3512 -0.8431
13477TIP3    H161846   1.857   0.040  17.098  1.1064 -0.1868 -0.7686
13477TIP3    H261847   1.892   0.023  16.952  2.2561  0.4568 -0.5778
13478TIP3   OH261848   3.939   1.872   2.388  0.2250  0.2845  0.1691
13478TIP3    H161849   3.887   1.812   2.442 -1.2183  1.8404  0.5800
13478TIP3    H261850   4.027   1.835   2.389 -0.5050 -1.5804  0.7620
13479TIP3   OH261851   1.621   4.738  13.639  0.3270 -0.4412  0.5070
13479TIP3    H161852   1.674   4.706  13.712  0.7085 -1.7652 -0.2949
13479TIP3    H261853   1.539   4.768  13.679  1.1097  0.2791  1.6126
13480TIP3   OH261854   3.989   2.908  10.565 -0.3108  0.1245  0.0522
13480TIP3    H161855   3.942   2.825  10.567  1.2881 -0.8046  0.2887
13480TIP3    H261856   3.924   2.972  10.535 -2.1482 -0.7992  1.8846
13481TIP3   OH261857   0.523   0.411   4.797  0.1744 -0.2497 -0.6097
13481TIP3    H161858   0.434   0.404   4.833  0.5153  0.2400  0.3358
13481TIP3    H261859   0.544   0.321   4.770 -0.2191 -0.5662  0.1020
13482TIP3   OH261860   4.320   1.519   3.722 -0.0231 -0.2420 -0.1624
13482TIP3    H161861   4.262   1.588   3.692 -0.9930 -1.0490 -0.2134
13482TIP3    H261862   4.290   1.499   3.810  0.6569 -0.1715  0.0907
13483TIP3   OH261863   6.532   4.418   4.003  0.6222  0.1000  0.5484
13483TIP3    H161864   6.609   4.411   3.946  0.0996  1.3690 -0.3563
13483TIP3    H261865   6.470   4.471   3.953  0.3824  1.8401  2.5500
13484TIP3   OH261866   3.235   6.418   1.235 -0.4855  0.4944  0.3188
13484TIP3    H161867   3.226   6.508   1.265  0.6986  0.3928  1.0184
13484TIP3    H261868   3.147   6.380   1.244 -1.0194  1.5987 -0.1000
13485TIP3   OH261869   4.345   4.121   2.578  0.2817  0.1207  0.0650
13485TIP3    H161870   4.383   4.082   2.656  1.1958 -0.1270 -0.4866
13485TIP3    H261871   4.340   4.215   2.597  0.3662  0.0433  0.4717
13486TIP3   OH261872   3.175   1.407   4.789 -0.2775 -0.3808  0.0070
13486TIP3    H161873   3.170   1.500   4.809  0.9648 -0.1675 -0.5279
13486TIP3    H261874   3.158   1.402   4.695 -1.6932 -0.8619  0.2717
13487TIP3   OH261875   2.976   3.680   2.971  0.0445  0.2340  0.7803
13487TIP3    H161876   3.029   3.639   3.040  2.4286  0.1664 -0.9693
13487TIP3    H261877   2.982   3.774   2.989 -0.4716  0.1566  1.4018
13488TIP3   OH261878   6.472   4.736   3.460  0.0201  1.0974 -0.3793
13488TIP3    H161879   6.396   4.720   3.404  0.2686 -0.4703 -0.3074
13488TIP3    H261880   6.543   4.686   3.419 -0.4439 -2.6707  2.8419
13489TIP3   OH261881   0.509   5.635  11.434  0.1580 -0.0970 -0.5850
13489TIP3    H161882   0.501   5.649  11.340  1.3505 -1.0753 -0.8626
13489TIP3    H261883   0.553   5.714  11.466  0.2910 -0.0203 -0.9537
13490TIP3   OH261884   3.959   6.362   2.395  0.2454 -0.0110 -0.1844
13490TIP3    H161885   3.980   6.421   2.323  2.1622  0.5184  0.7411
13490TIP3    H261886   3.994   6.277   2.368 -0.4776 -0.2003 -0.5452
13491TIP3   OH261887   5.996   0.517  15.369 -0.0014 -0.3697 -0.0021
13491TIP3    H161888   6.020   0.605  15.339 -0.6224 -0.0375  0.4314
13491TIP3    H261889   5.945   0.533  15.449  1.5668 -1.2192  1.2301
13492TIP3   OH261890   0.152   3.625  10.464  0.3845 -0.4050  0.2226
13492TIP3    H161891   0.062   3.612  10.492  0.3404 -0.4032  0.0784
13492TIP3    H261892   0.168   3.719  10.477 -0.1293 -0.0929 -1.2200
13493TIP3   OH261893   6.177   6.205   5.404 -0.0293  0.4226 -0.1478
13493TIP3    H161894   6.234   6.154   5.461 -0.0758  1.0790  0.4951
13493TIP3    H261895   6.116   6.142   5.366  0.8308 -0.2158 -0.4883
13494TIP3   OH261896   2.380   2.993  13.853 -0.3559 -0.0150  0.6897
13494TIP3    H161897   2.381   2.923  13.787 -0.9728 -0.2693  0.9376
13494TIP3    H261898   2.341   2.952  13.931 -0.4015  0.5087  0.9484
13495TIP3   OH261899   3.863   6.296  10.588  0.3477 -0.0570  0.0713
13495TIP3    H161900   3.873   6.201  10.581 -0.9479 -0.1727 -0.5257
13495TIP3    H261901   3.878   6.328  10.500  1.2330  0.3502  0.3649
13496TIP3   OH261902   1.385   2.016  15.504 -0.1447 -0.0912  0.3224
13496TIP3    H161903   1.359   2.095  15.455 -2.5501 -1.5645 -0.9627
13496TIP3    H261904   1.469   1.990  15.464  0.0049  1.0478 -0.1511
13497TIP3   OH261905   2.670   2.047   3.138 -0.1171  0.0784 -0.6156
13497TIP3    H161906   2.667   2.059   3.233  0.4689  1.0969 -0.7078
13497TIP3    H261907   2.695   1.955   3.126  0.7219  0.1768  0.2326
13498TIP3   OH261908   5.751   6.035  10.538  0.1485 -0.0915  0.3713
13498TIP3    H161909   5.807   5.962  10.512  0.2468 -0.2612  1.0515
13498TIP3    H261910   5.662   6.005  10.517  0.3167  0.3074 -1.0094
13499TIP3   OH261911   6.067   3.224   4.290  0.3166  0.2042 -0.1112
13499TIP3    H161912   6.135   3.157   4.301 -0.6032 -0.4758  2.1030
13499TIP3    H261913   6.018   3.197   4.212  0.1776 -1.5440  0.5511
13500TIP3   OH261914   1.563   5.469  16.056 -0.2683  0.0763 -0.1508
13500TIP3    H161915   1.625   5.408  16.096 -1.4674  0.0002  1.7404
13500TIP3    H261916   1.577   5.551  16.103 -1.9849 -0.1099  0.7915
13501TIP3   OH261917   6.081   5.133   0.798 -0.4348  0.3604  0.5859
13501TIP3    H161918   6.050   5.191   0.728 -0.2515  0.0734  0.2657
13501TIP3    H261919   6.042   5.169   0.878  1.4094  2.2425  0.7212
13502TIP3   OH261920   2.708   2.925   0.326  0.2756  0.1441  0.0063
13502TIP3    H161921   2.701   2.830   0.324 -1.9157  0.2049  1.2643
13502TIP3    H261922   2.765   2.944   0.401  0.1164 -0.1958  0.2169
13503TIP3   OH261923   4.688   4.711  15.525 -0.1848  0.1182  0.4272
13503TIP3    H161924   4.628   4.785  15.524 -1.2595 -0.7325  0.1358
13503TIP3    H261925   4.660   4.655  15.452  2.6103  0.9339 -1.4576
13504TIP3   OH261926   6.494   0.833  16.375  0.0990 -0.3238  0.5946
13504TIP3    H161927   6.539   0.846  16.459 -0.3425  0.1479  0.7627
13504TIP3    H261928   6.511   0.914  16.327  0.1097 -0.4769  0.3416
13505TIP3   OH261929   1.804   2.343   3.123 -0.4124  0.0522  0.0336
13505TIP3    H161930   1.803   2.258   3.078  0.5789  0.3783 -0.6389
13505TIP3    H261931   1.879   2.389   3.086 -1.5905  1.6860 -0.4539
13506TIP3   OH261932   0.251   3.172   6.403  0.0254 -0.3178 -0.6452
13506TIP3    H161933   0.242   3.166   6.498  0.6774  1.2450 -0.4541
13506TIP3    H261934   0.167   3.206   6.373  0.3506  0.7179 -0.4290
13507TIP3   OH261935   5.591   3.063  12.535  0.1087  0.2134 -0.2457
13507TIP3    H161936   5.638   3.086  12.614  0.6864 -1.1286 -0.1620
13507TIP3    H261937   5.530   3.135  12.521  1.5131  1.5502  0.1761
13508TIP3   OH261938   2.724   0.734  11.647 -0.6045  0.1044 -0.3426
13508TIP3    H161939   2.778   0.656  11.658  0.5379  0.6410 -1.8795
13508TIP3    H261940   2.676   0.719  11.566 -1.1190  0.6054 -0.1435
13509TIP3   OH261941   5.345   1.175  10.602 -0.2241 -0.1612 -0.2609
13509TIP3    H161942   5.379   1.086  10.593  1.9954  0.6320 -0.3853
13509TIP3    H261943   5.251   1.164  10.617  0.2980 -2.6097  1.8592
13510TIP3   OH261944   0.711   4.248  11.468  0.2088  0.6064  0.7580
13510TIP3    H161945   0.759   4.198  11.402 -1.5351 -0.0054 -0.1303
13510TIP3    H261946   0.778   4.282  11.526  1.7234  0.1700 -0.6546
13511TIP3   OH261947   6.336   3.127   0.993  0.2025  0.0111 -0.4692
13511TIP3    H161948   6.423   3.101   0.963 -0.3780 -1.0519 -1.3294
13511TIP3    H261949   6.317   3.069   1.066  0.4755  0.7037  0.1654
13512TIP3   OH261950   0.261   4.828  11.801  0.5182 -0.6966 -0.0976
13512TIP3    H161951   0.328   4.805  11.736 -0.7893 -1.9341 -1.0755
13512TIP3    H261952   0.207   4.894  11.757 -1.3937 -2.7524 -1.0441
13513TIP3   OH261953   3.975   4.710   1.307  0.7068 -0.0375 -0.0201
13513TIP3    H161954   3.924   4.753   1.375  2.2434  0.9119  0.5940
13513TIP3    H261955   3.930   4.627   1.291 -1.0819  0.8122  0.3543
13514TIP3   OH261956   4.086   2.120   5.267  0.2485 -0.5729 -0.2316
13514TIP3    H161957   4.143   2.046   5.285  1.0657  0.0722 -0.1116
13514TIP3    H261958   4.073   2.119   5.172 -0.2882 -1.2456 -0.1600
13515TIP3   OH261959   6.265   3.343  15.357  0.0092  0.4968  0.0283
13515TIP3    H161960   6.318   3.380  15.286 -0.4364  0.8643 -0.1112
13515TIP3    H261961   6.289   3.393  15.434 -0.1864  0.7104 -0.0500
13516TIP3   OH261962   0.275   2.261   2.834 -0.4423  0.4505 -0.5502
13516TIP3    H161963   0.214   2.247   2.906  0.7310  0.1645  0.4082
13516TIP3    H261964   0.227   2.318   2.773 -0.1573  4.0253  2.2300
13517TIP3   OH261965   0.961   2.185   4.652  0.6693 -0.4324  0.2186
13517TIP3    H161966   1.047   2.200   4.614  0.4658  1.0620  0.2923
13517TIP3    H261967   0.951   2.254   4.717 -1.2141  0.4133 -0.8941
13518TIP3   OH261968   1.546   5.682  14.177 -0.1404 -0.3805  0.0309
13518TIP3    H161969   1.459   5.641  14.176  0.9070 -2.7244  0.2239
13518TIP3    H261970   1.544   5.743  14.103 -1.7824 -0.7579 -0.2785
13519TIP3   OH261971   0.318   4.433   4.545  0.2226 -0.1566 -0.5242
13519TIP3    H161972   0.227   4.410   4.564  0.0799 -0.4522 -1.5033
13519TIP3    H261973   0.356   4.454   4.630 -1.0261  0.9246 -0.2127
13520TIP3   OH261974   3.567   5.088   4.394  0.3487  0.3009 -0.2565
13520TIP3    H161975   3.545   5.000   4.362 -0.2508  0.5202 -0.4615
13520TIP3    H261976   3.568   5.079   4.489 -1.6299  0.4881 -0.1679
13521TIP3   OH261977   3.277   2.303  14.424 -0.2733  0.1104 -0.2261
13521TIP3    H161978   3.225   2.288  14.345 -0.3254  0.0974 -0.1898
13521TIP3    H261979   3.337   2.228  14.428 -1.2830 -0.6951  0.5601
13522TIP3   OH261980   1.422   5.592  14.847  0.2855 -0.8826  0.2576
13522TIP3    H161981   1.498   5.536  14.828  2.0331  1.2425  0.5204
13522TIP3    H261982   1.439   5.672  14.797 -1.6755 -0.2135  0.5749
13523TIP3   OH261983   1.445   3.991   4.594 -0.3429  0.0569 -0.5825
13523TIP3    H161984   1.491   3.953   4.668 -0.6194  0.3289 -0.2622
13523TIP3    H261985   1.352   3.981   4.616 -0.4283  1.6499 -0.0838
13524TIP3   OH261986   5.065   1.404   1.134  0.2321 -0.0339  0.1846
13524TIP3    H161987   5.102   1.364   1.055 -5.1421 -0.2130 -2.6457
13524TIP3    H261988   5.028   1.331   1.183  0.1502  0.4629  0.8814
13525TIP3   OH261989   1.443   4.494   4.602  0.6584  1.0717 -0.2979
13525TIP3    H161990   1.422   4.519   4.512  0.9109 -0.2946 -0.7508
13525TIP3    H261991   1.412   4.568   4.655  1.0561  2.1783 -1.5392
13526TIP3   OH261992   3.242   0.707  11.105 -0.1105 -0.0606 -0.0189
13526TIP3    H161993   3.219   0.677  11.017  1.7059  0.4349 -0.7044
13526TIP3    H261994   3.240   0.803  11.099 -0.5206 -0.0198  0.6428
13527TIP3   OH261995   0.036   0.830   0.705 -0.3976  0.4216 -0.0672
13527TIP3    H161996   0.062   0.751   0.656  1.1720  0.3409  0.8399
13527TIP3    H261997   0.073   0.817   0.792 -1.6222  1.3893  0.6167
13528TIP3   OH261998   0.851   4.585  12.843  0.5396 -0.0096  0.4694
13528TIP3    H161999   0.933   4.578  12.891  1.2047  2.7261 -0.1431
13528TIP3    H262000   0.811   4.666  12.872  0.2038  0.9723 -2.3609
13529TIP3   OH262001   3.082   6.369  16.692  0.2745 -0.0004 -0.0424
13529TIP3    H162002   3.127   6.372  16.776  2.4666  0.2145 -1.1249
13529TIP3    H262003   3.097   6.456  16.654  1.8424 -0.9733 -1.7993
13530TIP3   OH262004   6.617   3.161   0.774  0.2657  0.2774  0.4954
13530TIP3    H162005   6.662   3.184   0.855  1.4576 -1.0379  0.2479
13530TIP3    H262006   6.686   3.165   0.707 -0.5162  0.5146 -0.3034
13531TIP3   OH262007   3.634   6.308  14.162 -0.4334 -0.0948 -0.0899
13531TIP3    H162008   3.569   6.238  14.149 -2.8614  2.2717 -1.9014
13531TIP3    H262009   3.611   6.347  14.246 -1.1180  0.4670 -0.5291
13532TIP3   OH262010   3.935   6.463   3.206  0.4154 -0.0555  0.1785
13532TIP3    H162011   3.970   6.475   3.118  0.5523  0.2196  0.2699
13532TIP3    H262012   4.012   6.455   3.262  0.3345 -1.0020  0.1781
13533TIP3   OH262013   4.382   6.197  10.998  0.1296  0.1284  0.0504
13533TIP3    H162014   4.417   6.264  10.939  0.4618  0.8802  1.0818
13533TIP3    H262015   4.303   6.166  10.953  1.4678 -0.8246 -1.7884
13534TIP3   OH262016   4.240   4.711  11.074 -0.7585 -0.8709 -0.3215
13534TIP3    H162017   4.225   4.730  10.981 -0.0747  2.0310  0.0837
13534TIP3    H262018   4.317   4.762  11.097 -1.9703 -0.0750  2.2695
13535TIP3   OH262019   4.240   0.614   0.625  0.1246  0.1421 -0.1797
13535TIP3    H162020   4.196   0.575   0.549 -1.8017  2.0829 -0.1655
13535TIP3    H262021   4.223   0.552   0.696 -1.3973  0.1143 -0.5195
13536TIP3   OH262022   3.981   6.594  12.526 -0.1709 -0.4889 -0.6968
13536TIP3    H162023   3.950   6.520  12.473  0.0820 -0.5027 -0.8252
13536TIP3    H262024   3.960   6.569  12.616 -1.0885 -0.2337 -0.8250
13537TIP3   OH262025   3.562   4.352   5.112  0.3789 -0.0588  0.4823
13537TIP3    H162026   3.566   4.270   5.162  3.4885 -0.0372  0.4762
13537TIP3    H262027   3.601   4.417   5.170 -1.2703  1.2830  0.1511
13538TIP3   OH262028   2.035   3.769   4.340  0.1414 -0.1390 -0.0295
13538TIP3    H162029   1.942   3.771   4.317 -0.0935  1.5735  0.8604
13538TIP3    H262030   2.079   3.810   4.265  0.0208  0.2646  0.1181
13539TIP3   OH262031   3.101   2.405  17.165 -0.0122 -0.2733  0.1505
13539TIP3    H162032   3.133   2.486  17.126 -0.4567 -0.1950 -0.0551
13539TIP3    H262033   3.082   2.348  17.091  0.6838 -0.7156  0.3045
13540TIP3   OH262034   4.008   1.189   3.143 -0.1676  0.6392 -0.4067
13540TIP3    H162035   3.971   1.155   3.225  0.1762 -1.5856 -1.0876
13540TIP3    H262036   3.931   1.213   3.090 -0.4133  1.3602  0.2601
13541TIP3   OH262037   5.076   5.507  13.314 -0.0864  0.2238 -0.4332
13541TIP3    H162038   5.114   5.589  13.347  1.3545 -0.9545  0.9674
13541TIP3    H262039   5.032   5.468  13.389  0.1338 -0.7792 -0.8063
13542TIP3   OH262040   6.189   4.847  16.889 -0.1464  0.2435 -0.2119
13542TIP3    H162041   6.176   4.775  16.828  0.9265  0.8961 -1.2382
13542TIP3    H262042   6.192   4.806  16.975  1.9592 -1.1389 -0.8891
13543TIP3   OH262043   6.341   1.420   6.040  0.4177  0.3140 -0.0421
13543TIP3    H162044   6.410   1.416   5.974  1.9651  0.2558  1.5004
13543TIP3    H262045   6.367   1.492   6.097 -0.0120 -0.6324  1.4036
13544TIP3   OH262046   1.775   4.405   1.869 -0.0932 -0.1511 -0.0512
13544TIP3    H162047   1.717   4.330   1.855 -1.4699  1.1338 -1.7358
13544TIP3    H262048   1.760   4.429   1.961 -1.4967 -0.4634 -0.1697
13545TIP3   OH262049   0.049   5.253  15.042  0.5943  0.2218 -0.1328
13545TIP3    H162050   0.068   5.233  14.950 -1.3981  0.5765 -0.6753
13545TIP3    H262051   0.018   5.344  15.041  1.3664  0.5235  1.0357
13546TIP3   OH262052   4.552   5.518   0.061 -0.1157 -0.1352 -0.1887
13546TIP3    H162053   4.517   5.437   0.025  0.8321 -1.0149  0.8431
13546TIP3    H262054   4.574   5.570  -0.017 -3.4612  0.4420 -0.9273
13547TIP3   OH262055   1.880   1.590  14.039  0.6450  0.2216 -0.2006
13547TIP3    H162056   1.804   1.541  14.007  0.1621  0.0624  1.1070
13547TIP3    H262057   1.902   1.649  13.967 -0.6079  0.1466 -0.6821
13548TIP3   OH262058   1.245   1.470   3.778 -0.5555 -0.2216 -0.6165
13548TIP3    H162059   1.293   1.526   3.718  0.1941  0.8382  0.8967
13548TIP3    H262060   1.305   1.458   3.852 -1.4020 -1.5595 -0.1057
13549TIP3   OH262061   6.626   5.096  15.386 -0.1253  0.4498 -0.7916
13549TIP3    H162062   6.660   5.093  15.476  0.2177  1.3522 -0.8820
13549TIP3    H262063   6.681   5.160  15.342 -0.6744  0.4439 -1.4925
13550TIP3   OH262064   1.477   0.177   3.397 -0.1058 -0.5813 -0.3155
13550TIP3    H162065   1.498   0.131   3.478  1.9796  0.6806 -0.0758
13550TIP3    H262066   1.538   0.141   3.332  1.4596  1.6261 -0.1546
13551TIP3   OH262067   3.258   0.169  15.382  0.7637  0.1139  0.2740
13551TIP3    H162068   3.299   0.218  15.311  1.3842 -1.1386 -0.2609
13551TIP3    H262069   3.209   0.099  15.338 -0.4998  0.5021  0.9968
13552TIP3   OH262070   0.511   0.444   2.442 -0.2488 -0.3201  0.2685
13552TIP3    H162071   0.573   0.378   2.410 -0.9416 -0.2999 -1.1833
13552TIP3    H262072   0.498   0.503   2.368 -2.6927 -0.8273  0.2184
13553TIP3   OH262073   4.930   3.382   0.880 -0.1460  0.2111  0.1484
13553TIP3    H162074   5.013   3.345   0.849  0.7185  1.8978  0.3430
13553TIP3    H262075   4.883   3.406   0.800  0.1014  0.3971  0.0576
13554TIP3   OH262076   2.811   1.989   0.081 -0.7172  0.1836 -0.5315
13554TIP3    H162077   2.766   2.016   0.161  1.4198  3.5402 -0.2925
13554TIP3    H262078   2.810   2.066   0.025  2.6353 -0.2471 -1.4105
13555TIP3   OH262079   3.722   3.598   3.746  0.5968 -0.5110  0.4636
13555TIP3    H162080   3.806   3.640   3.765 -0.0854  0.5322  1.3683
13555TIP3    H262081   3.736   3.550   3.665  1.5154  1.3181 -0.5284
13556TIP3   OH262082   0.253   4.847   2.264  0.1019  0.1747  0.5430
13556TIP3    H162083   0.334   4.824   2.308 -0.5634 -1.5580  0.9381
13556TIP3    H262084   0.262   4.940   2.243  1.3280  0.5264  2.4183
13557TIP3   OH262085   4.315   6.113  16.267 -0.1598 -0.8212  0.0637
13557TIP3    H162086   4.252   6.126  16.196  0.2735  0.7794 -0.0698
13557TIP3    H262087   4.280   6.165  16.339 -0.1365 -1.7303  0.7517
13558TIP3   OH262088   4.123   1.537   5.123  0.2829  0.2548 -0.8194
13558TIP3    H162089   4.124   1.442   5.130 -0.1374  0.3124  0.2176
13558TIP3    H262090   4.202   1.558   5.072  0.3148 -0.6448 -1.1593
13559TIP3   OH262091   3.434   5.650   0.368  0.1571  0.6449 -0.1104
13559TIP3    H162092   3.422   5.739   0.400  2.2275  0.8140  0.3212
13559TIP3    H262093   3.494   5.659   0.294 -0.1093 -0.3427 -0.4597
13560TIP3   OH262094   5.256   4.171   5.665 -0.1272  0.2125  0.5565
13560TIP3    H162095   5.252   4.168   5.761  0.2338 -0.0685  0.5663
13560TIP3    H262096   5.211   4.252   5.642  0.9324  0.9677  1.0424
13561TIP3   OH262097   2.225   4.307   2.704  0.0334 -0.2161  0.3891
13561TIP3    H162098   2.249   4.344   2.619  0.9999 -0.0990  0.7010
13561TIP3    H262099   2.130   4.292   2.698  0.4597 -2.8106 -1.7290
13562TIP3   OH262100   6.584   1.288  13.682  0.1694 -0.0630  0.0112
13562TIP3    H162101   6.573   1.324  13.594 -0.3151  0.4044  0.2646
13562TIP3    H262102   6.568   1.361  13.741  0.5263 -0.3662  0.4929
13563TIP3   OH262103   3.069   0.806   5.260 -0.1526 -0.0621 -1.4951
13563TIP3    H162104   3.123   0.884   5.246  0.6187 -0.1409  0.7161
13563TIP3    H262105   2.979   0.840   5.258  0.1877  1.0098 -0.0757
13564TIP3   OH262106   2.095   1.542   3.856  0.3598  0.3946  0.1618
13564TIP3    H162107   2.184   1.530   3.821  0.3201 -1.0266  0.4980
13564TIP3    H262108   2.046   1.467   3.823 -1.0857  1.7845 -1.0342
13565TIP3   OH262109   6.527   5.032  10.819 -0.2199  0.9735  0.4233
13565TIP3    H162110   6.480   5.113  10.839  0.2299  1.3230  0.0682
13565TIP3    H262111   6.517   5.021  10.725  0.7802  1.2884  0.2696
13566TIP3   OH262112   2.691   2.760  12.662  0.1953  0.4622  0.7368
13566TIP3    H162113   2.686   2.695  12.591  1.1946 -0.1487  1.1978
13566TIP3    H262114   2.761   2.820  12.635  2.3172 -1.1539  2.2309
13567TIP3   OH262115   1.452   3.145   2.339 -1.1189  0.2361 -0.4924
13567TIP3    H162116   1.440   3.116   2.429 -1.9739  0.3751 -0.5532
13567TIP3    H262117   1.501   3.074   2.297 -0.7590  0.1513  0.0617
13568TIP3   OH262118   5.868   1.882   6.457  0.4127 -0.1518  0.1095
13568TIP3    H162119   5.863   1.802   6.510 -0.3694  0.4165  0.9260
13568TIP3    H262120   5.796   1.873   6.395 -0.2516  0.3187  0.7965
13569TIP3   OH262121   6.248   2.293  12.696  0.1614 -0.3309 -0.1300
13569TIP3    H162122   6.205   2.367  12.739 -0.6261 -0.5353 -0.5494
13569TIP3    H262123   6.227   2.304  12.603  1.0916 -0.3924 -0.3592
13570TIP3   OH262124   3.488   0.408  15.794  0.0139 -0.4351 -0.5864
13570TIP3    H162125   3.545   0.464  15.741 -0.5288  0.9384  0.2238
13570TIP3    H262126   3.548   0.367  15.857  0.2128  0.6972  0.0085
13571TIP3   OH262127   0.720   6.465  15.675  0.1586  0.3204 -0.3379
13571TIP3    H162128   0.703   6.373  15.693 -1.4397  0.4852 -0.7846
13571TIP3    H262129   0.800   6.465  15.622 -0.4525 -0.9243 -1.3311
13572TIP3   OH262130   3.914   1.124   3.423  0.0630  0.7925  0.1762
13572TIP3    H162131   3.890   1.113   3.515 -1.5368 -0.5882 -0.3693
13572TIP3    H262132   3.972   1.050   3.405  0.3142  1.0209  0.0390
13573TIP3   OH262133   2.293   4.631   5.070 -0.1370  0.2427 -0.0461
13573TIP3    H162134   2.337   4.595   5.147  3.9829  1.4100 -1.5823
13573TIP3    H262135   2.293   4.726   5.084 -0.5029  0.3817 -0.9323
13574TIP3   OH262136   5.745   2.841  12.203 -0.0829  0.2440 -0.7703
13574TIP3    H162137   5.663   2.823  12.159 -0.0175 -3.0893  0.2405
13574TIP3    H262138   5.806   2.774  12.171  0.9014 -0.2090  1.7949
13575TIP3   OH262139   6.239   2.974   5.560  0.1322 -0.7465 -0.0478
13575TIP3    H162140   6.196   3.026   5.627  0.2106 -0.5274 -0.1677
13575TIP3    H262141   6.177   2.904   5.540 -0.5180  0.0397 -0.8108
13576TIP3   OH262142   0.384   2.685  15.550  0.3598  0.1949 -0.4150
13576TIP3    H162143   0.347   2.707  15.464  0.7501  2.1545 -0.1368
13576TIP3    H262144   0.347   2.600  15.571 -2.4405  1.1511 -1.0362
13577TIP3   OH262145   4.522   3.668  14.163 -0.1870  0.0070 -0.5511
13577TIP3    H162146   4.545   3.687  14.072  0.9178  0.6118 -0.1656
13577TIP3    H262147   4.599   3.693  14.213 -1.0964  0.5191  0.6510
13578TIP3   OH262148   5.125   6.075   4.964  0.3061 -0.2147 -0.0653
13578TIP3    H162149   5.088   5.989   4.942 -1.6884  0.8484 -1.1774
13578TIP3    H262150   5.128   6.122   4.880  2.3735  0.4652  0.3412
13579TIP3   OH262151   0.676   6.216  10.191 -0.1331 -0.4574  0.1339
13579TIP3    H162152   0.598   6.271  10.182 -1.0047 -1.5576  0.5986
13579TIP3    H262153   0.740   6.254  10.131 -0.5531  1.2675  0.7244
13580TIP3   OH262154   6.188   2.123  15.787 -0.0503 -0.3017 -0.6803
13580TIP3    H162155   6.109   2.085  15.748 -0.0413 -1.9158  0.7642
13580TIP3    H262156   6.235   2.048  15.823 -0.2578  1.0549  2.7665
13581TIP3   OH262157   2.453   4.972   2.223 -0.0234 -0.1592 -0.3593
13581TIP3    H162158   2.443   5.007   2.135 -1.2090 -1.9092 -0.9831
13581TIP3    H262159   2.465   4.878   2.210 -0.7533 -0.5259  1.3489
13582TIP3   OH262160   1.385   5.799  12.725  0.6969 -0.1412  0.8124
13582TIP3    H162161   1.382   5.723  12.783  3.3306 -0.8753  0.1004
13582TIP3    H262162   1.448   5.859  12.765 -1.5145  1.8792  1.4923
13583TIP3   OH262163   2.552   3.834  13.898 -0.6416 -0.0629  0.0732
13583TIP3    H162164   2.616   3.877  13.955 -0.9124  0.6637 -0.1542
13583TIP3    H262165   2.593   3.751  13.875  0.6883  0.7858 -0.8471
13584TIP3   OH262166   5.628   1.238   0.656  0.2282  0.3536  0.1138
13584TIP3    H162167   5.721   1.262   0.656  0.5659 -0.8298  0.6860
13584TIP3    H262168   5.629   1.142   0.658 -1.0301  0.2226 -2.5085
13585TIP3   OH262169   6.111   4.214  14.288 -0.4277 -0.9161  0.0094
13585TIP3    H162170   6.045   4.172  14.344  2.7944 -2.3437  3.0783
13585TIP3    H262171   6.118   4.303  14.323 -0.8339 -0.6689 -0.5097
13586TIP3   OH262172   6.419   1.800  13.426 -0.4120 -0.0555 -0.4852
13586TIP3    H162173   6.407   1.893  13.406  0.4545  0.0364 -0.6108
13586TIP3    H262174   6.335   1.760  13.404  0.0701  0.2304 -3.2502
13587TIP3   OH262175   3.386   0.218   2.507  0.4494  0.0853  0.6757
13587TIP3    H162176   3.380   0.200   2.414 -0.3680  0.1139  0.7127
13587TIP3    H262177   3.477   0.197   2.531  0.9106  0.9122 -0.2964
13588TIP3   OH262178   5.471   1.099  16.310  1.0007  0.2222  1.2488
13588TIP3    H162179   5.531   1.031  16.340  0.6039 -0.1685  1.1652
13588TIP3    H262180   5.385   1.070  16.340  0.6852  0.1601  0.3339
13589TIP3   OH262181   5.191   0.718   4.710 -0.5463 -0.1921 -0.1156
13589TIP3    H162182   5.221   0.804   4.680 -0.0630 -0.7227 -1.2266
13589TIP3    H262183   5.272   0.674   4.737 -0.9828  0.3155  2.1754
13590TIP3   OH262184   5.808   0.772  12.083 -0.2020  0.2778 -0.6379
13590TIP3    H162185   5.837   0.725  12.161  0.6225  2.5750  0.5271
13590TIP3    H262186   5.872   0.842  12.071 -2.9724  3.0964 -0.3543
13591TIP3   OH262187   6.222   4.211   0.948  0.2802 -0.4385 -0.1273
13591TIP3    H162188   6.194   4.292   0.904 -0.9929 -0.0270  1.3325
13591TIP3    H262189   6.295   4.239   1.004 -1.7016  0.3343  2.2484
13592TIP3   OH262190   3.949   2.818   3.309  0.2767  0.2354  0.0581
13592TIP3    H162191   3.886   2.747   3.304  0.2717  0.3156 -1.2202
13592TIP3    H262192   3.981   2.830   3.220 -0.1423  2.2094  0.1138
13593TIP3   OH262193   2.851   3.291  10.975 -0.4089 -0.1515 -0.0975
13593TIP3    H162194   2.868   3.347  10.899  1.2404  0.3132  0.5779
13593TIP3    H262195   2.923   3.229  10.976 -2.1310 -2.2903 -0.7470
13594TIP3   OH262196   1.585   5.611   5.235 -0.5282  0.5221 -0.6259
13594TIP3    H162197   1.561   5.528   5.276  1.6789 -0.1157 -0.4662
13594TIP3    H262198   1.517   5.672   5.263 -2.0821 -1.1544 -0.5578
13595TIP3   OH262199   5.959   0.125  15.567  0.2082 -0.9179  0.0747
13595TIP3    H162200   5.910   0.204  15.544  2.9844  0.5916 -1.1410
13595TIP3    H262201   5.965   0.076  15.485  1.4794 -0.6153 -0.0265
13596TIP3   OH262202   1.476   2.135   0.370 -0.0349 -0.4218  0.6700
13596TIP3    H162203   1.418   2.163   0.441 -0.3465 -0.6293  0.5009
13596TIP3    H262204   1.500   2.217   0.326  1.3856 -0.1325  1.9270
13597TIP3   OH262205   0.013   0.284   5.535  0.6795 -0.1780 -0.3965
13597TIP3    H162206   0.104   0.283   5.505  0.6203 -1.5624 -0.5768
13597TIP3    H262207  -0.038   0.262   5.457 -0.0207  2.4278 -0.7995
13598TIP3   OH262208   3.335   6.315  10.626  0.2300  0.1719  0.2586
13598TIP3    H162209   3.351   6.222  10.611 -0.2341 -0.1503  1.6133
13598TIP3    H262210   3.242   6.320  10.647  0.2396  0.9501  0.1222
13599TIP3   OH262211   6.061   6.231  12.194 -0.5334 -0.2866 -0.4450
13599TIP3    H162212   6.020   6.305  12.239 -0.6629 -0.5888 -0.0639
13599TIP3    H262213   5.993   6.197  12.136 -0.8644 -0.8704  0.2851
13600TIP3   OH262214   5.380   1.492   3.760 -0.2718 -0.1306  0.2359
13600TIP3    H162215   5.446   1.523   3.697 -1.9047  0.5392 -1.2540
13600TIP3    H262216   5.414   1.409   3.792  0.8456 -0.2716 -1.2140
13601TIP3   OH262217   5.458   1.407  12.199  0.0831 -0.0426  0.1894
13601TIP3    H162218   5.439   1.495  12.231 -2.0307 -0.4375  0.1507
13601TIP3    H262219   5.527   1.420  12.134  1.1687  1.3261  1.5333
13602TIP3   OH262220   4.875   1.062   2.939 -0.3446  1.0933  0.0981
13602TIP3    H162221   4.884   0.995   3.006  0.1327 -0.4435 -1.4378
13602TIP3    H262222   4.781   1.068   2.924 -0.6060  2.6038  1.9586
13603TIP3   OH262223   4.231   6.135  14.548  0.0930  0.0548  0.2709
13603TIP3    H162224   4.305   6.077  14.563 -0.8103 -1.2225 -0.0547
13603TIP3    H262225   4.154   6.080  14.561 -0.7957  0.7253 -1.7159
13604TIP3   OH262226   3.416   6.134  14.021 -0.3969  0.2414  0.3846
13604TIP3    H162227   3.434   6.191  13.946 -0.8569  0.3356  0.3412
13604TIP3    H262228   3.325   6.153  14.044 -0.1572  0.4788  1.1938
13605TIP3   OH262229   2.731   3.438   5.466 -0.4197  0.2486  0.1146
13605TIP3    H162230   2.733   3.393   5.550 -0.0410  0.6561  0.3273
13605TIP3    H262231   2.741   3.531   5.488 -0.4838  0.3741 -0.3681
13606TIP3   OH262232   0.979   0.483  15.421  0.6448 -0.2892 -0.5869
13606TIP3    H162233   0.889   0.451  15.424  0.7762 -0.6346  1.9008
13606TIP3    H262234   1.032   0.405  15.410  0.6633 -0.0780 -2.1244
13607TIP3   OH262235   5.173   2.067  11.430 -0.2834 -0.0088  0.7590
13607TIP3    H162236   5.155   2.154  11.465  0.0862  0.3322  0.1268
13607TIP3    H262237   5.170   2.078  11.335  0.5880 -0.4951  0.6600
13608TIP3   OH262238   0.580   0.015  14.396  0.0955 -0.6156 -0.0390
13608TIP3    H162239   0.596   0.101  14.433 -0.9479 -0.5617  0.3040
13608TIP3    H262240   0.539   0.031  14.312 -1.0449 -0.7758  0.4724
13609TIP3   OH262241   0.317   1.373   3.009  0.1351  0.0006  0.6555
13609TIP3    H162242   0.230   1.359   3.045 -0.5266  0.7187 -0.5957
13609TIP3    H262243   0.364   1.423   3.077  0.0608 -1.5594  1.9187
13610TIP3   OH262244   0.342   0.702   3.293  0.0853 -0.6961 -0.6742
13610TIP3    H162245   0.427   0.733   3.325  0.3559 -2.8350  0.9118
13610TIP3    H262246   0.334   0.740   3.205  1.9563  0.8045 -0.2596
13611TIP3   OH262247   5.468   0.613  12.801 -0.2217 -0.1521  0.4117
13611TIP3    H162248   5.437   0.532  12.760 -1.2039  0.5991 -0.3765
13611TIP3    H262249   5.562   0.615  12.780  0.0565 -1.5832  1.3446
13612TIP3   OH262250   2.344   6.161   2.402  0.3384 -1.0242 -0.0264
13612TIP3    H162251   2.250   6.143   2.395  0.4147 -2.1337  1.3446
13612TIP3    H262252   2.367   6.201   2.318 -0.9455 -2.6070 -1.1947
13613TIP3   OH262253   4.257   0.206   0.138  0.4078  0.0032 -0.3032
13613TIP3    H162254   4.310   0.253   0.202 -1.3570  0.7100  0.7082
13613TIP3    H262255   4.221   0.132   0.186 -1.2265  0.7428 -0.3012
13614TIP3   OH262256   5.270   1.329   2.454  0.1940 -0.1773  0.2431
13614TIP3    H162257   5.194   1.270   2.448 -0.8990  1.1242  0.7203
13614TIP3    H262258   5.245   1.405   2.402  1.3006  0.1741  0.2007
13615TIP3   OH262259   3.762   1.902  16.979 -0.2237 -0.6920  0.0607
13615TIP3    H162260   3.778   1.946  17.063 -0.0963  0.7915 -0.6997
13615TIP3    H262261   3.850   1.892  16.941 -0.4489  1.6437 -1.2963
13616TIP3   OH262262   4.100   2.822  16.207  0.4154  0.2209 -1.0292
13616TIP3    H162263   4.046   2.881  16.155 -0.2081 -0.6931 -1.4532
13616TIP3    H262264   4.098   2.858  16.295 -1.0783  0.0842 -0.9927
13617TIP3   OH262265   0.863   6.077  16.506 -1.0194  0.1250  0.2245
13617TIP3    H162266   0.790   6.101  16.563 -1.3208  0.5785 -0.3451
13617TIP3    H262267   0.825   6.073  16.419 -0.4525 -0.0666 -0.0180
13618TIP3   OH262268   6.566   5.874  16.668 -0.6572  0.4035 -0.5221
13618TIP3    H162269   6.490   5.872  16.725 -0.8500 -1.2750 -0.7870
13618TIP3    H262270   6.622   5.803  16.700  0.1752  0.7428 -1.1747
13619TIP3   OH262271   3.820   0.859   3.029 -0.5332  0.8990 -0.3775
13619TIP3    H162272   3.791   0.916   3.100 -0.3736  1.1934 -0.5497
13619TIP3    H262273   3.756   0.873   2.959  0.1126  1.6815 -0.8249
13620TIP3   OH262274   1.785   2.743   3.052 -0.7446  0.5244  0.0475
13620TIP3    H162275   1.828   2.672   3.101 -1.2002  2.2535  3.2124
13620TIP3    H262276   1.846   2.763   2.981  0.4476 -1.5330  0.3987
13621TIP3   OH262277   4.023   4.483   4.103  0.3769  0.1441 -0.6346
13621TIP3    H162278   4.054   4.392   4.102  1.3071  0.3849  1.3809
13621TIP3    H262279   4.098   4.534   4.072 -0.1542  0.2529 -1.7949
13622TIP3   OH262280   3.472   4.379  14.232 -0.1885 -0.2077 -0.0881
13622TIP3    H162281   3.473   4.399  14.139 -1.7942  0.1813 -0.0506
13622TIP3    H262282   3.442   4.288  14.237  0.4989 -0.4337  0.0319
13623TIP3   OH262283   0.750   0.513   0.758  0.0163 -0.0271 -0.3974
13623TIP3    H162284   0.782   0.473   0.838 -0.6458  0.0343 -0.0919
13623TIP3    H262285   0.797   0.468   0.688 -1.6684 -2.3529 -0.1590
13624TIP3   OH262286   0.541   0.060   1.926 -0.2583  0.8553  0.2651
13624TIP3    H162287   0.584  -0.017   1.963 -0.5069  0.7700  0.3760
13624TIP3    H262288   0.458   0.066   1.973 -0.5581  0.7702 -0.2455
13625TIP3   OH262289   3.248   5.573   2.087  0.0350  0.1201  0.4617
13625TIP3    H162290   3.342   5.590   2.089  0.1689 -0.6163  1.1991
13625TIP3    H262291   3.207   5.659   2.093  0.6672  0.3902  0.9838
13626TIP3   OH262292   3.943   3.741   3.835 -0.2389  0.2413 -0.4565
13626TIP3    H162293   3.953   3.705   3.747 -0.6978 -1.1577  0.0512
13626TIP3    H262294   3.997   3.821   3.833  0.3808 -0.1677 -1.7559
13627TIP3   OH262295   4.750   4.804  12.522  0.4369  0.0149  0.1506
13627TIP3    H162296   4.783   4.750  12.450 -0.2680  0.2625 -0.3728
13627TIP3    H262297   4.673   4.756  12.553  0.5488  0.0795  0.5204
13628TIP3   OH262298   1.492   0.635   0.824 -0.4694  0.1454  0.2607
13628TIP3    H162299   1.550   0.679   0.762 -1.3272 -0.4247 -0.9845
13628TIP3    H262300   1.416   0.693   0.830  0.1930  0.9078  1.9107
13629TIP3   OH262301   3.040   2.842  15.850 -0.1019 -0.2910  0.2874
13629TIP3    H162302   3.106   2.899  15.812 -1.4133  0.0796 -1.5631
13629TIP3    H262303   3.025   2.877  15.938 -1.7411  3.1151 -1.1697
13630TIP3   OH262304   2.072   3.720  12.198  0.1964  0.5559 -0.5191
13630TIP3    H162305   2.090   3.682  12.284 -0.4059  0.2754 -0.5116
13630TIP3    H262306   2.056   3.645  12.141  0.8353  0.7309 -0.9391
13631TIP3   OH262307   0.508   2.103   4.867 -0.5849  0.3639 -0.1389
13631TIP3    H162308   0.589   2.069   4.904 -0.8032 -1.2116 -0.9898
13631TIP3    H262309   0.441   2.081   4.932 -0.7379 -0.9944 -0.7245
13632TIP3   OH262310   5.755   2.489  14.228  0.8100  0.5880  0.1902
13632TIP3    H162311   5.745   2.537  14.146 -1.9840 -0.9640 -0.5390
13632TIP3    H262312   5.670   2.498  14.271  1.7121  0.0665  2.1926
13633TIP3   OH262313   4.177   0.692   1.879  0.3699  0.3404 -0.0268
13633TIP3    H162314   4.186   0.616   1.821 -0.4307 -0.5394  0.9492
13633TIP3    H262315   4.093   0.678   1.923 -0.3599  2.3878 -0.6409
13634TIP3   OH262316   6.307   4.770  15.320 -0.5407  0.4163 -0.1473
13634TIP3    H162317   6.315   4.749  15.413  2.3652  1.3771 -0.0533
13634TIP3    H262318   6.323   4.865  15.315  0.2470  0.2474 -1.6510
13635TIP3   OH262319   6.351   0.942   5.505 -0.6868  0.3912  0.2428
13635TIP3    H162320   6.318   1.015   5.451  0.8260  0.7931 -0.1706
13635TIP3    H262321   6.274   0.912   5.554 -1.4222  2.0670  0.1841
13636TIP3   OH262322   6.425   0.376  11.723  0.6691  0.1013  0.0927
13636TIP3    H162323   6.509   0.354  11.682 -0.1893 -0.0060 -1.7232
13636TIP3    H262324   6.412   0.468  11.703 -1.2450 -0.6643 -2.8881
13637TIP3   OH262325   3.529   6.416   5.125 -0.2168 -0.1808  0.2857
13637TIP3    H162326   3.522   6.495   5.180  0.8559 -0.7383  1.2616
13637TIP3    H262327   3.619   6.415   5.096 -0.2705 -0.9548  0.1328
13638TIP3   OH262328   1.616   3.800  11.959  0.3229  0.2156  0.1551
13638TIP3    H162329   1.711   3.808  11.947  0.3664  0.0403  0.3809
13638TIP3    H262330   1.591   3.882  12.003  0.4417  0.0664  0.5102
13639TIP3   OH262331   3.550   2.455   1.478  0.2276  0.0821 -0.4189
13639TIP3    H162332   3.579   2.370   1.445 -0.0280 -0.6078  1.0367
13639TIP3    H262333   3.528   2.438   1.570 -1.3050  1.3777 -0.5027
13640TIP3   OH262334   0.141   2.277   5.048 -0.0014 -0.5287 -0.0304
13640TIP3    H162335   0.203   2.261   4.978  0.0448  0.3902 -0.2203
13640TIP3    H262336   0.161   2.366   5.078 -1.1313 -0.2549 -0.0098
13641TIP3   OH262337   3.854   3.408   2.087  0.0306  0.2943 -0.0799
13641TIP3    H162338   3.938   3.446   2.112 -0.3470  1.0726  0.0603
13641TIP3    H262339   3.871   3.363   2.004  0.5389  0.6340 -0.1654
13642TIP3   OH262340   5.677   5.085  11.658 -0.0530 -0.2471  1.1508
13642TIP3    H162341   5.687   5.030  11.735  0.5342 -0.3260  1.0202
13642TIP3    H262342   5.766   5.099  11.626 -0.1755  0.9226  1.2761
13643TIP3   OH262343   4.321   4.852  13.012  0.2106  0.1456 -0.0332
13643TIP3    H162344   4.374   4.810  12.944  0.9483 -1.1327  1.2693
13643TIP3    H262345   4.335   4.946  12.999  1.8660 -0.1313 -0.4519
13644TIP3   OH262346   6.745   3.938   5.074  0.5518 -0.2542  0.3030
13644TIP3    H162347   6.811   3.957   5.141  1.1724 -1.8666  0.1882
13644TIP3    H262348   6.789   3.878   5.013 -0.1511  0.8092 -1.3114
13645TIP3   OH262349   2.762   6.533   1.026  0.1485  0.2410  0.2654
13645TIP3    H162350   2.823   6.606   1.038  0.3341  0.0286  0.6304
13645TIP3    H262351   2.819   6.457   1.007  0.0361 -0.0722  1.1482
13646TIP3   OH262352   2.550   5.855  13.235 -0.4089  0.0203  0.3309
13646TIP3    H162353   2.472   5.906  13.257 -2.4748 -2.4607 -0.7022
13646TIP3    H262354   2.532   5.767  13.269  1.2873 -1.0122 -1.2247
13647TIP3   OH262355   2.493   0.925  11.392  0.4411  0.4315  0.3165
13647TIP3    H162356   2.539   0.842  11.403 -1.2077 -0.7812 -1.1128
13647TIP3    H262357   2.408   0.911  11.434 -0.0710  1.1847 -0.4251
13648TIP3   OH262358   2.598   3.777   1.408  0.6065 -0.1488  0.4605
13648TIP3    H162359   2.577   3.870   1.414 -2.4655 -0.7335  0.3155
13648TIP3    H262360   2.590   3.756   1.315  1.5708 -0.5239  0.4495
13649TIP3   OH262361   0.434   4.721  13.423 -0.6249  0.3048  0.1130
13649TIP3    H162362   0.385   4.803  13.425  0.3256  0.8962 -0.2144
13649TIP3    H262363   0.403   4.677  13.344 -1.3407  0.2065  0.4370
13650TIP3   OH262364   1.232   5.043   4.147 -0.3171  0.0253  0.1555
13650TIP3    H162365   1.265   5.054   4.058  1.2343 -2.0105  0.4024
13650TIP3    H262366   1.138   5.033   4.137 -0.2437  0.5055 -1.1743
13651TIP3   OH262367   3.541   0.904  15.014 -0.1962 -0.4474 -0.7752
13651TIP3    H162368   3.527   0.949  14.931  1.8898  1.4519 -0.2028
13651TIP3    H262369   3.494   0.957  15.078 -0.7303 -1.1782 -0.5474
13652TIP3   OH262370   0.834   3.484   5.451 -0.9213  0.2804  0.4503
13652TIP3    H162371   0.871   3.562   5.492 -2.3846  2.2419 -1.6495
13652TIP3    H262372   0.842   3.501   5.357  0.8248 -3.2183 -0.1761
13653TIP3   OH262373   2.372   6.258  15.698  0.2246  0.8717  0.0777
13653TIP3    H162374   2.400   6.296  15.614  0.7598  0.6844  0.1663
13653TIP3    H262375   2.365   6.334  15.756 -1.2956  1.1510 -0.4309
13654TIP3   OH262376   1.087   0.702   6.008  0.1749 -0.6197 -0.6162
13654TIP3    H162377   1.152   0.636   5.984  0.0091 -1.1973  0.4561
13654TIP3    H262378   1.064   0.680   6.098  1.7942  2.2591  0.6292
13655TIP3   OH262379   1.081   3.371   5.639  0.0291  0.5042  0.3566
13655TIP3    H162380   1.102   3.405   5.726  0.7614  1.7867 -0.2808
13655TIP3    H262381   1.030   3.441   5.598  1.3357  0.7674 -0.9079
13656TIP3   OH262382   0.615   1.749  12.721  0.2388 -0.1378 -0.6512
13656TIP3    H162383   0.570   1.798  12.651  0.5601  0.2486 -0.5869
13656TIP3    H262384   0.621   1.811  12.794 -1.1201 -0.8894  0.1428
13657TIP3   OH262385   4.727   6.628  12.419  0.7842  0.3096 -0.0754
13657TIP3    H162386   4.736   6.635  12.324 -0.9228 -0.9252 -0.3677
13657TIP3    H262387   4.686   6.710  12.446  1.1178  0.5880 -0.4015
13658TIP3   OH262388   2.469   5.823  13.952 -0.1470  0.1168  0.2872
13658TIP3    H162389   2.391   5.768  13.954 -0.7019  0.8009 -1.3738
13658TIP3    H262390   2.538   5.769  13.993 -1.3361 -0.6838  1.3079
13659TIP3   OH262391   4.930   3.669  14.670  0.3037 -0.8121  0.3217
13659TIP3    H162392   4.902   3.611  14.599 -1.0068 -0.8906  0.8728
13659TIP3    H262393   4.994   3.617  14.719  2.5710 -0.1505 -1.7237
13660TIP3   OH262394   4.595   3.921  14.491 -0.6328  0.0911 -0.1971
13660TIP3    H162395   4.660   3.975  14.535 -0.0824  0.1210 -1.0228
13660TIP3    H262396   4.538   3.984  14.447 -0.7309  0.0356 -0.1500
13661TIP3   OH262397   4.067   4.184  14.309  0.0751  0.3418  0.5942
13661TIP3    H162398   4.079   4.128  14.232 -0.1923  0.7198  0.2718
13661TIP3    H262399   4.060   4.123  14.382 -1.9403 -0.1656  0.0478
13662TIP3   OH262400   4.987   1.851   0.544  0.1546  0.6152  0.4660
13662TIP3    H162401   4.915   1.806   0.499  1.4479 -0.8226 -0.2677
13662TIP3    H262402   4.971   1.834   0.637 -0.7342  0.7714  0.3488
13663TIP3   OH262403   1.724   5.010   5.735  0.5631  0.5516  0.1415
13663TIP3    H162404   1.771   4.936   5.773 -0.5843 -0.1789  0.1649
13663TIP3    H262405   1.716   4.989   5.642 -0.0197  0.4979  0.1998
13664TIP3   OH262406   6.398   3.016  11.601  0.4250 -0.0645 -0.4951
13664TIP3    H162407   6.308   2.982  11.591 -0.6782  3.0419 -2.6954
13664TIP3    H262408   6.399   3.054  11.689 -0.1687 -0.7381 -0.1805
13665TIP3   OH262409   4.054   1.851  15.353 -0.5122  0.5712  0.2673
13665TIP3    H162410   3.965   1.885  15.356 -0.5431  0.5184  0.0222
13665TIP3    H262411   4.043   1.757  15.341 -0.4228  0.5681  0.2120
13666TIP3   OH262412   1.825   6.166  12.561  0.8333  0.2663 -0.2643
13666TIP3    H162413   1.828   6.164  12.466  0.3824  0.9480 -0.2993
13666TIP3    H262414   1.735   6.192  12.582  1.1010  0.7430  0.3323
13667TIP3   OH262415   5.902   1.591   3.905 -0.4475 -0.0822  0.2610
13667TIP3    H162416   5.847   1.655   3.949 -1.1930 -1.1734  0.9709
13667TIP3    H262417   5.916   1.521   3.970  0.2918 -0.6718 -0.4961
13668TIP3   OH262418   3.849   5.779  13.869 -0.7165  0.3873  0.8117
13668TIP3    H162419   3.917   5.730  13.823 -0.6331  1.0962  0.1771
13668TIP3    H262420   3.883   5.868  13.875 -2.1382  1.0674 -0.6772
13669TIP3   OH262421   4.081   5.781  11.769  0.3380  0.0227  0.2253
13669TIP3    H162422   3.988   5.772  11.791  0.4655  0.4916  1.0292
13669TIP3    H262423   4.125   5.778  11.854  1.0445 -0.0713 -0.1434
13670TIP3   OH262424   5.150   4.783   2.167 -0.6876  0.2871  0.1228
13670TIP3    H162425   5.067   4.739   2.183  0.3297 -1.3224  1.2387
13670TIP3    H262426   5.203   4.719   2.119  0.1227  1.0466 -0.0247
13671TIP3   OH262427   0.009   5.700   4.510 -0.4707 -0.3222 -0.0250
13671TIP3    H162428  -0.000   5.672   4.601 -0.3110 -0.7216 -0.1295
13671TIP3    H262429  -0.031   5.630   4.460 -0.8477  0.0477 -0.2511
13672TIP3   OH262430   3.966   3.669  15.065 -0.6638 -0.1472  0.8300
13672TIP3    H162431   3.989   3.600  15.127  0.4421 -0.5808 -0.0257
13672TIP3    H262432   3.880   3.643  15.031 -0.3162 -1.0497  0.6069
13673TIP3   OH262433   3.167   0.145  14.655  0.0717 -0.1580  0.4598
13673TIP3    H162434   3.191   0.110  14.569  0.0182 -0.1527  0.4432
13673TIP3    H262435   3.087   0.195  14.640  0.9427  1.2181  0.2050
13674TIP3   OH262436   2.822   3.760   4.679  0.0843  0.5967  0.2306
13674TIP3    H162437   2.778   3.684   4.719  4.1386 -1.6792  0.9327
13674TIP3    H262438   2.835   3.735   4.588 -0.6080  1.5298 -0.1370
13675TIP3   OH262439   6.188   5.870  12.487  1.2378  0.2198  0.4699
13675TIP3    H162440   6.131   5.945  12.473  1.9670  1.3966  3.0286
13675TIP3    H262441   6.173   5.845  12.579  1.7135 -2.1945 -0.0269
13676TIP3   OH262442   5.812   2.900   4.975 -0.0707 -0.1268  0.1863
13676TIP3    H162443   5.797   2.829   4.913 -1.0179  0.8811 -0.7962
13676TIP3    H262444   5.727   2.917   5.014 -0.0849  1.1299 -0.3487
13677TIP3   OH262445   5.076   2.416  17.141  0.0753  0.1891  0.1745
13677TIP3    H162446   5.090   2.330  17.180  0.5350  0.6618  1.1001
13677TIP3    H262447   5.099   2.477  17.211  3.1828  1.1542 -1.5240
13678TIP3   OH262448   2.513   4.168   2.757  0.4376  0.1371 -0.7086
13678TIP3    H162449   2.495   4.074   2.764  0.7063  0.2130  2.0124
13678TIP3    H262450   2.427   4.208   2.742  0.0353 -0.4036  0.1004
13679TIP3   OH262451   6.102   1.103   2.473  0.4237  0.0498 -0.7638
13679TIP3    H162452   6.157   1.111   2.395 -0.1011 -1.0855 -1.2714
13679TIP3    H262453   6.137   1.168   2.534  0.1150  1.8141 -2.3668
13680TIP3   OH262454   3.198   5.849   0.600  0.4049 -0.6690  0.1190
13680TIP3    H162455   3.182   5.783   0.533 -0.2321 -2.6730  2.1187
13680TIP3    H262456   3.272   5.899   0.567  2.1836 -3.5903 -0.7373
13681TIP3   OH262457   3.324   1.237   5.573 -0.0582 -0.1596  0.5913
13681TIP3    H162458   3.372   1.263   5.652 -0.7828 -1.3636  1.4606
13681TIP3    H262459   3.289   1.151   5.594 -0.9680 -0.1426 -0.7533
13682TIP3   OH262460   4.326   4.594   4.770  0.4382 -0.9466 -0.1935
13682TIP3    H162461   4.318   4.520   4.710 -0.5522 -0.1661 -1.0682
13682TIP3    H262462   4.237   4.626   4.782  0.9451  0.8864 -0.8764
13683TIP3   OH262463   0.723   2.303  14.173  0.1995 -0.6033  0.0387
13683TIP3    H162464   0.650   2.242  14.187 -0.7558  0.1655 -1.4724
13683TIP3    H262465   0.720   2.324  14.080  2.3340 -0.4958 -0.0597
13684TIP3   OH262466   3.336   4.517   1.610 -0.2550  0.1212 -0.2894
13684TIP3    H162467   3.316   4.568   1.689  0.2171  3.7464 -2.2912
13684TIP3    H262468   3.411   4.462   1.635  1.4610  2.9369  1.2274
13685TIP3   OH262469   2.646   3.214  16.784  0.5275  0.5490 -0.5066
13685TIP3    H162470   2.604   3.176  16.861 -0.7445  0.1561 -1.3698
13685TIP3    H262471   2.643   3.309  16.799  0.8850  0.4568  0.2074
13686TIP3   OH262472   0.859   2.522  16.692  0.0988 -0.4041  0.2473
13686TIP3    H162473   0.928   2.455  16.692  0.6586  0.1373  1.6319
13686TIP3    H262474   0.903   2.602  16.664 -0.7358 -0.7025 -2.1672
13687TIP3   OH262475   4.157   1.662   6.130  0.5038 -0.2640  0.2045
13687TIP3    H162476   4.226   1.624   6.183 -0.0346 -2.1071 -0.3466
13687TIP3    H262477   4.127   1.590   6.074 -2.5418  0.1220  1.1220
13688TIP3   OH262478   6.707   4.262   1.678  0.7150 -0.0576 -0.4277
13688TIP3    H162479   6.739   4.343   1.718  0.7374 -0.3709  0.2030
13688TIP3    H262480   6.704   4.281   1.584  1.2178  0.5018 -0.3359
13689TIP3   OH262481   2.288   2.833  14.049  0.0547  0.0407 -0.4712
13689TIP3    H162482   2.326   2.857  14.134  0.5434 -0.8055 -0.4459
13689TIP3    H262483   2.219   2.770  14.070  0.0322 -0.0114 -0.6952
13690TIP3   OH262484   5.287   4.948   4.717  0.2100 -0.4602  0.2889
13690TIP3    H162485   5.264   4.926   4.807 -0.0258 -1.2669  0.0444
13690TIP3    H262486   5.339   5.028   4.724  1.7306 -1.4591  1.3232
13691TIP3   OH262487   5.921   2.089  12.045 -0.2504  0.1519  0.5851
13691TIP3    H162488   5.873   2.171  12.054 -1.4010 -0.5353  0.9981
13691TIP3    H262489   5.853   2.021  12.053  0.2368 -0.8105 -2.2528
13692TIP3   OH262490   2.299   3.556  15.346  0.6440 -0.0523 -0.0428
13692TIP3    H162491   2.279   3.490  15.279 -2.0247  0.9327 -0.3125
13692TIP3    H262492   2.232   3.544  15.413 -0.8308  3.1624 -0.7410
13693TIP3   OH262493   4.686   5.210  16.667  0.2862  0.3259 -0.0040
13693TIP3    H162494   4.687   5.181  16.758 -0.1468  1.6288  0.4408
13693TIP3    H262495   4.605   5.174  16.631 -0.0245  0.6028  0.4099
13694TIP3   OH262496   3.612   3.370  15.913 -0.6592 -0.9101 -0.6371
13694TIP3    H162497   3.588   3.394  15.824  1.5645  2.0870 -0.5953
13694TIP3    H262498   3.702   3.338  15.906  0.7105  2.2067  0.6964
13695TIP3   OH262499   0.531   4.659   0.283 -0.7624  0.1640  0.0570
13695TIP3    H162500   0.567   4.705   0.359  0.3432  0.1316 -0.4311
13695TIP3    H262501   0.560   4.711   0.207 -0.7637 -0.5091 -0.4148
13696TIP3   OH262502   1.154   1.956  13.647 -0.5799  0.3507  0.3870
13696TIP3    H162503   1.221   1.889  13.659 -1.1433 -0.3146 -0.0670
13696TIP3    H262504   1.117   1.970  13.734 -0.3114  0.2271  0.5198
13697TIP3   OH262505   4.589   3.140   0.140 -0.1350 -0.2978  0.3375
13697TIP3    H162506   4.549   3.061   0.103  1.0263 -0.6591 -0.2018
13697TIP3    H262507   4.670   3.151   0.091 -0.3044  1.2861  0.3583
13698TIP3   OH262508   5.765   2.020   3.336 -0.2114 -0.3904  0.0894
13698TIP3    H162509   5.739   1.932   3.364 -0.4587 -0.0889  0.8510
13698TIP3    H262510   5.684   2.070   3.336  0.0311  0.0066  0.3395
13699TIP3   OH262511   4.461   0.728   1.484 -0.2661 -0.3144 -0.6148
13699TIP3    H162512   4.517   0.787   1.433 -0.5312 -1.4341 -2.3128
13699TIP3    H262513   4.373   0.766   1.478 -0.1529 -0.0141 -0.3216
13700TIP3   OH262514   0.319   5.839  15.567  0.8082  0.2680 -0.0680
13700TIP3    H162515   0.282   5.904  15.507  2.2592  1.5482  0.3450
13700TIP3    H262516   0.248   5.777  15.582  0.0254  0.5880 -2.1298
13701TIP3   OH262517   4.102   3.473   1.955 -0.2344  0.0107 -0.4036
13701TIP3    H162518   4.065   3.403   1.901 -0.2434  0.5310 -1.0819
13701TIP3    H262519   4.080   3.553   1.908 -0.1533  0.4669  0.3245
13702TIP3   OH262520   6.337   5.381  10.198 -0.5198  0.2907 -0.8525
13702TIP3    H162521   6.263   5.350  10.147  0.0418 -1.5309 -0.6146
13702TIP3    H262522   6.366   5.305  10.248  0.4482  1.4060  0.3535
13703TIP3   OH262523   1.216   3.610  14.138 -0.5431  0.4621 -0.7228
13703TIP3    H162524   1.207   3.683  14.199  0.4172 -0.2635  0.3109
13703TIP3    H262525   1.289   3.634  14.081  1.7439 -0.8941  1.4646
13704TIP3   OH262526   2.515   0.923  16.800  0.3618 -0.0793  0.0001
13704TIP3    H162527   2.579   0.887  16.740  1.2796  0.0011  0.8963
13704TIP3    H262528   2.554   1.006  16.830  0.1785 -0.3565  1.0680
13705TIP3   OH262529   6.664   3.013   1.159  0.5978 -0.2144 -0.4597
13705TIP3    H162530   6.654   3.101   1.124  2.1021 -0.3442 -1.2754
13705TIP3    H262531   6.574   2.981   1.169  0.0608  0.9452 -1.3217
13706TIP3   OH262532   3.723   6.334   5.603 -0.1797  0.2767  0.2415
13706TIP3    H162533   3.719   6.400   5.534 -0.6740  1.1887  1.1130
13706TIP3    H262534   3.799   6.359   5.656 -0.0058 -0.2168  0.2318
13707TIP3   OH262535   2.202   1.128  12.125 -0.0765 -0.3284 -0.0194
13707TIP3    H162536   2.144   1.062  12.088 -0.0981 -0.8731  0.9435
13707TIP3    H262537   2.214   1.101  12.216  0.2041  0.8021  0.2992
13708TIP3   OH262538   2.231   5.298  15.067 -0.3997  0.2222 -0.2815
13708TIP3    H162539   2.326   5.294  15.077 -0.3357 -0.3894 -1.0768
13708TIP3    H262540   2.217   5.320  14.975 -1.0410 -0.5465 -0.3748
13709TIP3   OH262541   4.550   2.551  13.649 -0.5455 -0.1719  0.2570
13709TIP3    H162542   4.456   2.561  13.635 -0.6763 -0.1624  1.1317
13709TIP3    H262543   4.579   2.635  13.686  0.2113  0.6330 -1.9738
13710TIP3   OH262544   1.172   0.201   5.106  0.5148 -0.1470 -0.2624
13710TIP3    H162545   1.169   0.230   5.197 -2.5761  1.0108 -0.5978
13710TIP3    H262546   1.166   0.282   5.055  1.1443 -0.8391 -1.4957
13711TIP3   OH262547   6.324   2.055  12.372  0.3864  0.3792  0.4214
13711TIP3    H162548   6.373   2.008  12.304  1.3115  1.9593 -0.0575
13711TIP3    H262549   6.259   1.992  12.403  1.5178 -1.1718 -0.2361
13712TIP3   OH262550   2.794   6.409  12.400  0.1365  0.3067  0.1163
13712TIP3    H162551   2.780   6.479  12.463  0.4089  0.0286  0.4935
13712TIP3    H262552   2.880   6.428  12.362  2.0212 -1.7726  2.8786
13713TIP3   OH262553   1.875   2.533   3.504  0.0080 -0.3544  0.2648
13713TIP3    H162554   1.851   2.578   3.585  1.1001 -0.6397  0.7675
13713TIP3    H262555   1.965   2.504   3.519  0.1701 -0.5490 -0.9982
13714TIP3   OH262556   2.165   5.816   1.176  0.4392 -0.0840  0.0382
13714TIP3    H162557   2.183   5.799   1.269 -3.1933  0.0261  0.9036
13714TIP3    H262558   2.093   5.879   1.176  0.2901 -0.1017 -2.8827
13715TIP3   OH262559   5.662   3.909   4.023  0.2855 -0.3031 -0.1291
13715TIP3    H162560   5.647   3.989   3.973 -2.0130 -0.5359  0.0938
13715TIP3    H262561   5.655   3.937   4.114 -0.9205 -0.8154 -0.0597
13716TIP3   OH262562   4.341   3.409   0.803 -0.2210 -0.1083  0.7442
13716TIP3    H162563   4.272   3.460   0.761 -0.6199 -0.3107  1.1480
13716TIP3    H262564   4.416   3.417   0.744 -0.4372  0.5157  0.5472
13717TIP3   OH262565   0.221   1.063  15.141  0.2119 -0.2509  0.0722
13717TIP3    H162566   0.231   0.979  15.185  1.5041  0.5257  1.3575
13717TIP3    H262567   0.284   1.121  15.185  0.2092  1.0795 -1.5506
13718TIP3   OH262568   4.780   2.610   0.172  0.0063  0.1905  0.6034
13718TIP3    H162569   4.707   2.670   0.155 -0.1996 -0.2983 -0.3185
13718TIP3    H262570   4.855   2.650   0.127 -0.3533 -0.6943 -0.8808
13719TIP3   OH262571   2.922   5.056  12.628 -0.0782  0.0056  0.1387
13719TIP3    H162572   2.928   5.068  12.534  1.1264  1.4329  0.3782
13719TIP3    H262573   3.012   5.060  12.660 -0.2698 -2.1861  1.1960
13720TIP3   OH262574   5.474   5.769   0.137  0.0386 -0.2965 -0.3312
13720TIP3    H162575   5.518   5.853   0.151 -0.4356 -0.0624 -0.1933
13720TIP3    H262576   5.485   5.722   0.220 -0.3890 -0.0363 -0.1207
13721TIP3   OH262577   2.414   1.855  11.173 -0.1333  0.1631 -0.5701
13721TIP3    H162578   2.424   1.849  11.078  0.5544 -1.9967 -0.4046
13721TIP3    H262579   2.495   1.895  11.203 -0.0643  0.2321 -0.8436
13722TIP3   OH262580   2.948   1.446  13.272 -0.2274  0.3290 -0.2812
13722TIP3    H162581   2.935   1.424  13.364  0.4400  1.1299  0.0226
13722TIP3    H262582   2.911   1.372  13.224 -1.6824  0.4493  0.5911
13723TIP3   OH262583   6.343   6.623  11.523 -0.3596 -0.1437 -0.1597
13723TIP3    H162584   6.340   6.717  11.509 -3.1349 -0.0799  0.3452
13723TIP3    H262585   6.318   6.584  11.439  0.4510 -0.4406 -0.2738
13724TIP3   OH262586   2.427   2.471  13.261  0.7125  0.1282 -0.5248
13724TIP3    H162587   2.433   2.564  13.279  0.1158 -0.0133  0.4544
13724TIP3    H262588   2.453   2.429  13.343 -1.2840 -0.5397 -0.1815
13725TIP3   OH262589   5.443   5.629  12.246 -0.5371 -0.3357 -0.0573
13725TIP3    H162590   5.482   5.714  12.263 -1.2471  0.3987 -1.8878
13725TIP3    H262591   5.363   5.628  12.299 -0.1595 -0.1775  0.5256
13726TIP3   OH262592   1.217   0.745   0.833 -0.0092  0.4386 -0.6895
13726TIP3    H162593   1.124   0.727   0.852  0.3954 -1.7160 -0.4584
13726TIP3    H262594   1.251   0.780   0.916 -0.1991 -0.6411 -0.1338
13727TIP3   OH262595   4.505   2.284   3.187 -0.5933 -0.2035  0.1256
13727TIP3    H162596   4.543   2.329   3.263 -2.2473  0.8443  0.3855
13727TIP3    H262597   4.574   2.284   3.122  0.4900 -0.1110  1.2378
13728TIP3   OH262598   1.160   6.711   2.311 -0.2130  0.7925 -0.0979
13728TIP3    H162599   1.204   6.750   2.386  0.9640 -0.1027 -0.2938
13728TIP3    H262600   1.200   6.625   2.301 -0.1465  0.9797 -1.9019
13729TIP3   OH262601   3.646   0.914   2.803  0.2281  0.5220  0.8173
13729TIP3    H162602   3.590   0.842   2.775 -0.2361  1.3081 -0.3207
13729TIP3    H262603   3.670   0.959   2.722  0.9596  1.3256  1.4592
13730TIP3   OH262604   4.914   6.315  16.488 -0.2241 -0.2439  0.0543
13730TIP3    H162605   4.946   6.325  16.578 -1.4079 -0.4180  0.5101
13730TIP3    H262606   4.985   6.349  16.434 -0.2313  1.6504  1.1356
13731TIP3   OH262607   3.351   6.017   2.134 -0.1922  0.3165 -0.7834
13731TIP3    H162608   3.394   6.056   2.058 -0.5626  0.4711 -0.9142
13731TIP3    H262609   3.406   6.043   2.209 -1.9028  3.4974 -0.4756
13732TIP3   OH262610   1.269   2.131  15.152 -0.4685 -0.6647 -0.0381
13732TIP3    H162611   1.356   2.107  15.120 -0.3717 -2.4765  1.3886
13732TIP3    H262612   1.286   2.183  15.230 -0.6844 -0.2905 -0.2377
13733TIP3   OH262613   5.402   1.442   2.887 -0.0215 -0.0000 -0.2874
13733TIP3    H162614   5.390   1.361   2.937 -1.6630  1.5865  2.1432
13733TIP3    H262615   5.478   1.485   2.927 -0.0566  0.3269 -0.5616
13734TIP3   OH262616   1.146   5.207   3.199 -0.1290  0.7321 -0.5553
13734TIP3    H162617   1.223   5.250   3.237 -0.7467  0.6878  0.8041
13734TIP3    H262618   1.089   5.191   3.273 -1.7571  1.3586 -1.6127
13735TIP3   OH262619   1.439   2.059   2.725 -0.4766 -0.4655  0.2148
13735TIP3    H162620   1.358   2.065   2.674 -0.1728  0.2267 -0.2047
13735TIP3    H262621   1.417   2.099   2.809 -0.8310 -1.1270  0.4421
13736TIP3   OH262622   2.513   4.885   0.411 -0.4725 -0.5753  0.2252
13736TIP3    H162623   2.607   4.868   0.398 -0.3974  0.7272 -1.2920
13736TIP3    H262624   2.474   4.798   0.420  0.6212 -1.2859 -1.3138
13737TIP3   OH262625   2.032   2.310   2.721  0.7050  0.4184 -0.1473
13737TIP3    H162626   2.113   2.260   2.708  0.2216 -0.2641 -0.6761
13737TIP3    H262627   1.964   2.256   2.680  0.3538  2.1859 -2.0521
13738TIP3   OH262628   3.327   2.578  14.871  0.3491 -0.1080  0.2206
13738TIP3    H162629   3.318   2.541  14.783 -1.1870 -0.6243  0.5570
13738TIP3    H262630   3.403   2.533  14.908 -0.0188 -1.1562 -0.2520
13739TIP3   OH262631   4.721   1.669  16.208  0.2868  0.3121  0.6410
13739TIP3    H162632   4.719   1.737  16.276 -0.4722 -2.8697  4.1811
13739TIP3    H262633   4.631   1.666  16.175 -0.0908  0.0627  1.6375
13740TIP3   OH262634   2.723   5.971  14.446  0.6482  0.2816 -0.1079
13740TIP3    H162635   2.786   5.943  14.513 -1.1634 -1.1906  1.0496
13740TIP3    H262636   2.686   5.890  14.412 -1.8336  1.0922  0.4504
13741TIP3   OH262637   5.683   3.894  12.735 -0.0791 -0.1108  0.3934
13741TIP3    H162638   5.758   3.953  12.747  0.8480 -1.3290  0.8029
13741TIP3    H262639   5.719   3.819  12.689 -1.0936 -0.6712  0.4845
13742TIP3   OH262640   5.341   5.742   4.927 -0.4319 -0.2254  0.2630
13742TIP3    H162641   5.333   5.832   4.960 -0.2291 -0.0594 -0.1373
13742TIP3    H262642   5.400   5.699   4.988  0.7204  0.3518 -0.4182
13743TIP3   OH262643   6.744   0.661   4.893 -0.0188  0.1447 -0.2933
13743TIP3    H162644   6.730   0.739   4.947  0.0137 -0.4104  0.5285
13743TIP3    H262645   6.668   0.606   4.911  0.5682 -0.5585  0.0997
13744TIP3   OH262646   5.312   4.309   4.724 -0.2256  0.2129 -0.4269
13744TIP3    H162647   5.305   4.281   4.633 -1.7538  0.2136 -0.3395
13744TIP3    H262648   5.370   4.386   4.722  1.8928 -1.3104 -1.0061
13745TIP3   OH262649   6.284   4.532  13.682 -0.3939  0.0615  0.0014
13745TIP3    H162650   6.254   4.526  13.773 -2.0071 -2.5453 -0.5879
13745TIP3    H262651   6.376   4.505  13.686 -0.3601  0.2724  0.9075
13746TIP3   OH262652   0.480   1.133  16.618  0.3375  0.4602 -0.0466
13746TIP3    H162653   0.486   1.193  16.544  1.2737 -0.8131 -1.0385
13746TIP3    H262654   0.448   1.188  16.690 -0.6915  1.7142 -1.3785
13747TIP3   OH262655   5.076   5.178   4.421  0.5290  0.1348  0.1839
13747TIP3    H162656   5.138   5.162   4.492  0.6699  0.6590  0.1785
13747TIP3    H262657   5.108   5.125   4.349  0.8508  0.2368  0.2500
13748TIP3   OH262658   5.965   5.654  13.202 -0.7448 -0.0854  0.7874
13748TIP3    H162659   5.917   5.579  13.165 -1.0514  0.5835 -0.2049
13748TIP3    H262660   6.012   5.692  13.127 -0.4336  0.6038  1.3186
13749TIP3   OH262661   3.736   1.103  11.702  0.7573  0.2247  0.1001
13749TIP3    H162662   3.725   1.115  11.607  1.9053  2.6423  0.1786
13749TIP3    H262663   3.745   1.192  11.736  2.5351 -0.6452  2.1740
13750TIP3   OH262664   1.092   3.791  15.806 -0.7479 -0.2077  0.6413
13750TIP3    H162665   1.124   3.735  15.735 -0.0489 -0.0210  0.7994
13750TIP3    H262666   1.110   3.742  15.886  0.8765  0.6514  0.8686
13751TIP3   OH262667   0.073   2.695  12.375 -0.2709 -0.5335  0.6199
13751TIP3    H162668   0.128   2.654  12.308  0.5003 -0.0831  0.9587
13751TIP3    H262669   0.118   2.676  12.458  1.1356  2.4044  0.6909
13752TIP3   OH262670   0.656   5.623   2.755 -0.7756  0.5906 -0.0256
13752TIP3    H162671   0.624   5.689   2.694 -0.8990  1.9905  1.4836
13752TIP3    H262672   0.657   5.542   2.704 -1.6555  1.5282 -1.6248
13753TIP3   OH262673   5.116   0.814  15.856 -0.1692  0.0690  0.2546
13753TIP3    H162674   5.055   0.880  15.891  0.4471  0.2550  0.9953
13753TIP3    H262675   5.202   0.846  15.881  0.2256 -0.3242 -0.5743
13754TIP3   OH262676   3.559   0.656  12.928 -0.2649 -0.2657  0.7845
13754TIP3    H162677   3.463   0.653  12.924 -0.2955 -0.1981  1.3185
13754TIP3    H262678   3.584   0.710  12.853 -0.7052  0.4632  1.1502
13755TIP3   OH262679   5.328   1.571  12.865  0.0328  0.3087  0.6568
13755TIP3    H162680   5.360   1.611  12.946  2.8850  0.0658 -0.2401
13755TIP3    H262681   5.302   1.483  12.890  1.6488 -0.0321  1.1971
13756TIP3   OH262682   6.310   0.188   4.891  0.2409 -0.1440  0.2784
13756TIP3    H162683   6.317   0.273   4.846 -1.1243 -0.4009 -0.4616
13756TIP3    H262684   6.314   0.124   4.820  2.0411 -0.7738  0.8957
13757TIP3   OH262685   2.016   1.316   2.599  0.2977  0.3614  0.3572
13757TIP3    H162686   2.000   1.341   2.508  0.3579 -0.3740  0.1400
13757TIP3    H262687   1.929   1.317   2.640  0.1253 -0.3060  0.0285
13758TIP3   OH262688   4.070   2.647  13.392  0.4397 -0.3363 -0.5985
13758TIP3    H162689   3.980   2.622  13.370  0.0773  1.5453 -1.4533
13758TIP3    H262690   4.105   2.685  13.311  0.8757  1.9517  0.5925
13759TIP3   OH262691   5.840   4.774   0.823  0.2172 -0.2954  0.1514
13759TIP3    H162692   5.909   4.816   0.875 -0.1348 -0.7887  1.0254
13759TIP3    H262693   5.769   4.839   0.821 -0.6739 -1.1279  2.2395
13760TIP3   OH262694   2.809   2.030  15.818  0.4330  0.4110 -0.2198
13760TIP3    H162695   2.791   1.942  15.784 -0.3615  0.8042 -0.8626
13760TIP3    H262696   2.745   2.085  15.774 -0.4307  1.0092  1.6912
13761TIP3   OH262697   6.391   5.271  10.920 -0.5311  0.6270  0.2969
13761TIP3    H162698   6.340   5.349  10.900 -0.5159  0.3536 -0.9008
13761TIP3    H262699   6.383   5.259  11.015  0.6341  2.8780  0.7404
13762TIP3   OH262700   6.776   3.100  11.737 -0.1944 -0.7510 -0.1870
13762TIP3    H162701   6.790   3.023  11.792  0.2907 -0.7672 -0.3271
13762TIP3    H262702   6.769   3.173  11.798 -2.2982 -1.1070  0.0508
13763TIP3   OH262703   1.889   3.372  11.491 -0.1164  0.0690  0.4743
13763TIP3    H162704   1.915   3.337  11.406  1.5675  1.2781  0.4410
13763TIP3    H262705   1.846   3.299  11.535 -0.5040 -0.7502 -1.1709
13764TIP3   OH262706   4.990   1.111   0.705 -0.6047 -0.3989  0.0286
13764TIP3    H162707   4.965   1.050   0.775  1.8439  1.2802  2.5662
13764TIP3    H262708   5.067   1.071   0.666  0.5734  0.6329  1.2169
13765TIP3   OH262709   2.537   0.757  15.384 -0.8511  0.2412 -0.0977
13765TIP3    H162710   2.618   0.803  15.362 -0.6272  0.5922  1.3407
13765TIP3    H262711   2.563   0.666  15.397 -0.9375  0.0866 -0.9364
13766TIP3   OH262712   1.597   0.463   1.741 -0.0765  0.7121 -0.2418
13766TIP3    H162713   1.581   0.420   1.658  0.4257 -0.9153  0.4653
13766TIP3    H262714   1.511   0.494   1.770 -0.5544 -0.3379 -0.5054
13767TIP3   OH262715   0.216   6.664  10.786  0.1537 -0.2727  0.1618
13767TIP3    H162716   0.180   6.743  10.745 -1.3057 -0.6878  0.5889
13767TIP3    H262717   0.304   6.655  10.749 -0.1300  0.8530 -0.8252
13768TIP3   OH262718   3.990   0.076   2.901 -0.0070 -0.4549 -0.0648
13768TIP3    H162719   3.977   0.112   2.814 -2.0098 -1.8048 -0.4041
13768TIP3    H262720   4.013  -0.016   2.886 -1.6240 -1.0461  0.7902
13769TIP3   OH262721   1.585   0.031   3.618  0.0561 -0.0262  0.6461
13769TIP3    H162722   1.619   0.011   3.705  3.0774 -2.8080 -0.9406
13769TIP3    H262723   1.642   0.101   3.586  0.7814 -0.9087 -0.0398
13770TIP3   OH262724   0.221   1.944   4.186  0.0324  0.1861 -0.4510
13770TIP3    H162725   0.300   1.894   4.163  0.3135  0.2506  0.3307
13770TIP3    H262726   0.230   1.960   4.280 -0.8762  0.2756 -0.3745
13771TIP3   OH262727   1.709   2.608   6.214 -0.2933  0.5377 -0.8937
13771TIP3    H162728   1.650   2.552   6.164  0.6106 -0.3857 -0.9372
13771TIP3    H262729   1.785   2.553   6.234  0.5684  1.7059 -0.8466
13772TIP3   OH262730   2.689   1.164   4.278  0.5280 -0.2365 -0.1498
13772TIP3    H162731   2.757   1.099   4.293 -0.7095 -2.1520 -2.1582
13772TIP3    H262732   2.611   1.128   4.322  0.1545  0.6032 -0.0980
13773TIP3   OH262733   3.972   3.773  13.066 -0.7554 -0.2332  0.2351
13773TIP3    H162734   3.877   3.759  13.062 -0.7543 -0.2444  0.2494
13773TIP3    H262735   4.007   3.716  12.997 -0.8931  0.9098 -0.8262
13774TIP3   OH262736   0.043   2.186  15.787 -0.0301 -0.3084 -0.1341
13774TIP3    H162737   0.115   2.188  15.725  0.6945  1.6604  0.6681
13774TIP3    H262738   0.083   2.210  15.871 -1.5819  0.9123  0.3125
13775TIP3   OH262739   1.541   0.293  13.059  0.1024 -0.3965 -0.3897
13775TIP3    H162740   1.461   0.327  13.099 -0.6756 -1.7067 -0.7775
13775TIP3    H262741   1.587   0.371  13.029  0.2143  0.5625  2.0662
13776TIP3   OH262742   1.485   1.220  12.599 -0.1560 -0.6864 -0.4138
13776TIP3    H162743   1.433   1.191  12.524 -3.0578 -1.3453  1.6385
13776TIP3    H262744   1.459   1.160  12.670 -0.7404  2.3023  2.1230
13777TIP3   OH262745   0.633   5.387  13.678  0.3861  0.5093 -0.1952
13777TIP3    H162746   0.702   5.447  13.703  0.8784  0.6312 -1.7049
13777TIP3    H262747   0.636   5.386  13.582 -1.3587  0.1089 -0.2836
13778TIP3   OH262748   4.391   0.880  12.597  0.1323 -0.7226  0.0362
13778TIP3    H162749   4.389   0.900  12.690  1.3238 -1.2235  0.1970
13778TIP3    H262750   4.479   0.906  12.569  0.8411 -3.2036 -0.2994
13779TIP3   OH262751   2.619   4.604   5.054  0.3967  0.2768  0.3059
13779TIP3    H162752   2.566   4.529   5.080  0.7445  0.2741  1.0402
13779TIP3    H262753   2.556   4.667   5.020  0.1898 -0.6906 -1.2185
13780TIP3   OH262754   4.985   5.729  15.905 -0.1934 -0.0448  0.0128
13780TIP3    H162755   5.022   5.751  15.990 -1.2822  0.4034  0.3835
13780TIP3    H262756   4.959   5.637  15.913  2.0359 -0.8227 -0.7104
13781TIP3   OH262757   2.224   1.175  11.424 -0.0562  0.0891 -0.0716
13781TIP3    H162758   2.277   1.253  11.441  0.2509 -0.1419  0.0290
13781TIP3    H262759   2.259   1.109  11.483  0.7849 -0.6146 -1.3304
13782TIP3   OH262760   1.153   1.708  16.537  0.3574  0.3674 -0.1079
13782TIP3    H162761   1.156   1.696  16.442 -0.6634  0.8441 -0.2121
13782TIP3    H262762   1.138   1.801  16.549 -2.0591 -0.0234  0.4390
13783TIP3   OH262763   3.332   6.027   4.244  0.1587 -0.4904  0.5131
13783TIP3    H162764   3.272   5.957   4.266 -0.0851  0.1041  1.8456
13783TIP3    H262765   3.360   6.063   4.329  1.2825  0.1691 -0.1023
13784TIP3   OH262766   6.182   5.615   1.190  0.3177 -0.0729 -0.2602
13784TIP3    H162767   6.264   5.623   1.238  1.0914 -1.2988 -1.3140
13784TIP3    H262768   6.169   5.521   1.179  0.1356  0.1335 -2.2970
13785TIP3   OH262769   1.440   6.467   6.551 -0.9288  0.3138  0.0395
13785TIP3    H162770   1.492   6.470   6.471  0.1547  0.4820  0.7356
13785TIP3    H262771   1.351   6.486   6.522 -0.4247  1.1816 -1.0150
13786TIP3   OH262772   3.852   5.743  12.705  0.0637 -0.0173 -0.5638
13786TIP3    H162773   3.780   5.779  12.757  0.5200 -0.5630  0.4634
13786TIP3    H262774   3.857   5.801  12.629 -0.6919  0.7315 -0.0651
13787TIP3   OH262775   1.093   6.336  16.092 -0.0072  0.0330  0.2467
13787TIP3    H162776   1.140   6.301  16.017  0.9754  2.1167 -0.1842
13787TIP3    H262777   1.079   6.261  16.149  1.3733 -1.1578 -0.9095
13788TIP3   OH262778   1.549   0.417  16.041  0.5819  0.1330  0.4478
13788TIP3    H162779   1.510   0.330  16.044 -0.2315  0.5012  0.6317
13788TIP3    H262780   1.623   0.407  15.980  0.2783 -0.5909  0.1823
13789TIP3   OH262781   5.093   2.177  10.634  0.4122  0.4245 -0.1143
13789TIP3    H162782   5.080   2.271  10.626 -0.4845  0.2841 -0.4625
13789TIP3    H262783   5.018   2.148  10.687  1.0823  0.0050  0.6303
13790TIP3   OH262784   1.529   2.512  15.535 -0.6620 -0.2701 -0.3573
13790TIP3    H162785   1.591   2.444  15.508  0.0239  0.2049  0.0017
13790TIP3    H262786   1.583   2.585  15.563 -1.3705 -0.1157  0.6812
13791TIP3   OH262787   4.448   2.254  14.353 -0.3069  0.1550  0.7441
13791TIP3    H162788   4.458   2.167  14.313  1.2445  0.7524 -0.2381
13791TIP3    H262789   4.503   2.311  14.300  0.6140  1.2861  2.8390
13792TIP3   OH262790   0.195   1.677  12.087  0.3476 -0.1648  0.0857
13792TIP3    H162791   0.218   1.744  12.152 -0.8718 -0.4619  0.8570
13792TIP3    H262792   0.255   1.605  12.105 -0.5094 -0.5790  1.4730
13793TIP3   OH262793   2.012   5.294   6.355 -0.1605  0.1269  0.9446
13793TIP3    H162794   1.986   5.377   6.394 -0.3209 -0.3259  1.8307
13793TIP3    H262795   1.930   5.251   6.331 -0.0478  0.9501 -1.1580
13794TIP3   OH262796   4.684   1.405  10.810  0.4347 -0.5633 -0.3290
13794TIP3    H162797   4.668   1.497  10.789 -1.0993 -0.7703 -0.1643
13794TIP3    H262798   4.622   1.385  10.880  2.6144 -1.0153  1.5980
13795TIP3   OH262799   3.719   2.400   2.522  0.3424 -0.3408  0.4004
13795TIP3    H162800   3.768   2.322   2.548 -0.3924 -0.7337  0.6338
13795TIP3    H262801   3.677   2.430   2.602  0.2874  0.0480  0.2253
13796TIP3   OH262802   0.393   1.943  13.354 -0.1721 -0.0829 -1.2335
13796TIP3    H162803   0.414   2.016  13.297 -0.3134 -0.6566 -2.0414
13796TIP3    H262804   0.449   1.871  13.323  0.7090 -0.0475  0.1959
13797TIP3   OH262805   1.687   2.264  16.341 -0.4238  0.5939 -0.2357
13797TIP3    H162806   1.633   2.226  16.410 -1.1054  1.3700 -0.3284
13797TIP3    H262807   1.743   2.192  16.312 -1.0475 -0.0851  0.2146
13798TIP3   OH262808   2.843   2.810  12.894  0.1994  0.0389 -0.0344
13798TIP3    H162809   2.833   2.719  12.922  0.9868 -0.1198 -0.2278
13798TIP3    H262810   2.789   2.818  12.816 -0.1510 -0.1678  0.1869
13799TIP3   OH262811   6.795   5.945  14.959 -0.0075 -0.4562  0.0383
13799TIP3    H162812   6.776   5.885  15.031 -2.7323 -0.1210 -0.2758
13799TIP3    H262813   6.730   6.014  14.968  2.4106  2.0303 -0.1829
13800TIP3   OH262814   3.702   4.720   4.678 -0.3323 -0.3772  0.1628
13800TIP3    H162815   3.756   4.698   4.602 -1.6432  0.2937 -1.0152
13800TIP3    H262816   3.676   4.636   4.715 -0.9143 -0.7647 -1.0693
13801TIP3   OH262817   0.813   1.295   5.387 -0.4197  0.0008 -0.1626
13801TIP3    H162818   0.756   1.365   5.417  1.1930  2.3430 -2.1646
13801TIP3    H262819   0.875   1.282   5.458 -0.4326  0.9876  0.0419
13802TIP3   OH262820   0.927   0.100  12.398 -0.0648 -0.2416 -0.2851
13802TIP3    H162821   0.968   0.087  12.313 -0.4728 -0.2883 -0.4805
13802TIP3    H262822   0.835   0.119  12.377  0.2081  1.6642  0.0317
13803TIP3   OH262823   5.478   2.895  11.388 -0.2944  0.7800 -0.1668
13803TIP3    H162824   5.451   2.921  11.300  0.0843 -1.1592 -0.9271
13803TIP3    H262825   5.570   2.870  11.377  0.1756  1.8618  1.1185
13804TIP3   OH262826   1.118   1.905   6.011  0.5939  0.2960  0.7109
13804TIP3    H162827   1.134   1.810   6.016  2.4262  0.6302  2.2988
13804TIP3    H262828   1.062   1.923   6.087  0.7665  0.5673  0.7731
13805TIP3   OH262829   0.139   5.338   4.400 -0.1073 -0.1194  0.6026
13805TIP3    H162830   0.117   5.388   4.322  0.0266 -0.4366  0.3588
13805TIP3    H262831   0.230   5.311   4.386 -0.4296 -1.1148  0.3619
13806TIP3   OH262832   0.933   5.869  13.985  0.4140  0.4784  0.2247
13806TIP3    H162833   0.953   5.902  14.073  0.0882 -0.3291  0.6108
13806TIP3    H262834   1.019   5.853  13.946  0.5923  1.9646 -0.0596
13807TIP3   OH262835   5.035   3.154  14.945 -0.3357  0.0996 -0.3729
13807TIP3    H162836   5.101   3.222  14.930  0.2507 -0.1643  0.8391
13807TIP3    H262837   4.975   3.193  15.009  0.8746 -1.0190  1.5338
13808TIP3   OH262838   3.834   2.931  14.295 -0.0036  0.1517 -0.0127
13808TIP3    H162839   3.770   2.861  14.308 -1.0599  0.8734 -1.1523
13808TIP3    H262840   3.894   2.897  14.229  0.5778 -0.3632  0.7580
13809TIP3   OH262841   0.134   5.316  14.302  0.5407 -0.5066 -0.3127
13809TIP3    H162842   0.052   5.328  14.253  1.5182 -0.2677 -1.9604
13809TIP3    H262843   0.106   5.280  14.386 -1.3510  0.6595 -0.3823
13810TIP3   OH262844   5.312   1.515  13.944  0.4188  0.0846  0.3243
13810TIP3    H162845   5.243   1.459  13.908 -0.4586  1.4254 -0.1225
13810TIP3    H262846   5.385   1.454  13.962  0.0092 -0.9968 -1.4368
13811TIP3   OH262847   3.336   0.195   3.663  0.3749 -0.7703  0.7411
13811TIP3    H162848   3.421   0.240   3.665  0.4052 -0.8608  1.7619
13811TIP3    H262849   3.329   0.162   3.573  0.8916  0.2351  0.3121
13812TIP3   OH262850   4.005   0.344   0.185 -0.1748 -0.0561  0.0031
13812TIP3    H162851   4.088   0.298   0.172 -0.5020 -0.5979 -0.2235
13812TIP3    H262852   4.024   0.435   0.165  0.4705 -0.1026  0.3676
13813TIP3   OH262853   0.820   2.793   2.732  0.1714 -0.0535 -0.3661
13813TIP3    H162854   0.761   2.788   2.657  0.8576  0.7513 -0.9831
13813TIP3    H262855   0.763   2.800   2.808 -0.5343 -0.6746 -0.8289
13814TIP3   OH262856   6.424   5.256   4.648 -0.1731  0.5699  0.0594
13814TIP3    H162857   6.365   5.193   4.606 -1.7133  1.0092  1.4628
13814TIP3    H262858   6.370   5.334   4.663  0.3952  0.5720  2.4752
13815TIP3   OH262859   5.698   1.477  13.622 -0.1456  0.6990 -0.1405
13815TIP3    H162860   5.719   1.444  13.534 -0.8144 -0.5032  0.1300
13815TIP3    H262861   5.780   1.515  13.653  0.7035 -0.7586 -0.4767
13816TIP3   OH262862   0.897   0.870  15.288  0.3014  0.7443  0.0387
13816TIP3    H162863   0.944   0.840  15.366  1.1046  0.9032 -0.3778
13816TIP3    H262864   0.849   0.793  15.258  1.9101 -0.0051 -0.7029
13817TIP3   OH262865   1.894   4.418   3.261  0.0746  0.0071  0.3746
13817TIP3    H162866   1.972   4.422   3.315  0.8362  1.5464 -0.7716
13817TIP3    H262867   1.884   4.325   3.240  3.6668  0.0224 -2.2895
13818TIP3   OH262868   4.470   0.182   3.931  0.4552  0.0561 -0.5775
13818TIP3    H162869   4.508   0.270   3.935  0.2536  0.1475 -0.6848
13818TIP3    H262870   4.448   0.162   4.022  2.3062 -0.6829 -0.2415
13819TIP3   OH262871   1.996   1.274  12.006 -0.1065 -0.1246 -0.0728
13819TIP3    H162872   2.019   1.291  11.914 -1.5490  0.7155 -0.2998
13819TIP3    H262873   2.076   1.238  12.044  0.2919 -1.2825 -1.8585
13820TIP3   OH262874   6.439   2.493   3.868  0.1260 -0.2549 -0.1471
13820TIP3    H162875   6.492   2.566   3.836  0.5082 -0.5209 -0.1266
13820TIP3    H262876   6.493   2.415   3.852 -0.9917 -0.7498 -1.8154
13821TIP3   OH262877   2.111   3.593   3.843 -0.0582 -0.2044  0.3364
13821TIP3    H162878   2.165   3.536   3.789 -0.2742  1.5831 -1.9121
13821TIP3    H262879   2.022   3.577   3.812 -0.4101 -0.3978  1.4095
13822TIP3   OH262880   0.686   5.888  12.922  0.2283 -0.0909  0.2870
13822TIP3    H162881   0.620   5.845  12.867  0.4151 -0.8146  0.6287
13822TIP3    H262882   0.717   5.820  12.981  0.0636  0.6702  1.2803
13823TIP3   OH262883   4.719   2.012   3.164  0.0367  0.6876  0.4168
13823TIP3    H162884   4.758   2.099   3.161  0.1555  0.6474  0.7235
13823TIP3    H262885   4.760   1.964   3.092  0.5457  0.6476  0.7305
13824TIP3   OH262886   6.736   1.899   5.676  0.0056  0.1088  0.4343
13824TIP3    H162887   6.668   1.918   5.740 -0.0990 -0.8521  0.6249
13824TIP3    H262888   6.690   1.858   5.603  0.2432  0.3838  0.1251
13825TIP3   OH262889   2.082   1.499   2.046  0.1430 -0.1989 -0.3904
13825TIP3    H162890   2.005   1.529   2.094  0.4678 -1.2747  0.8668
13825TIP3    H262891   2.048   1.448   1.973 -0.3650  1.5042 -1.3954
13826TIP3   OH262892   1.239   1.659   2.745  0.0783  0.4715 -0.3694
13826TIP3    H162893   1.301   1.633   2.677 -0.8300  0.4497 -1.2125
13826TIP3    H262894   1.293   1.701   2.812  0.8572  1.7986 -1.7588
13827TIP3   OH262895   1.744   4.670  12.951  0.1087  0.4302  0.0654
13827TIP3    H162896   1.751   4.621  12.870 -0.2097  1.5174 -0.6440
13827TIP3    H262897   1.828   4.715  12.959  0.6778 -0.7572  1.0912
13828TIP3   OH262898   6.479   0.241   3.476 -0.0023 -0.2244  0.4566
13828TIP3    H162899   6.505   0.161   3.431 -0.9504 -1.2562  1.6828
13828TIP3    H262900   6.477   0.308   3.407  4.4861 -0.2681 -0.0436
13829TIP3   OH262901   3.063   1.324  12.600 -0.0083 -0.5178 -0.7077
13829TIP3    H162902   2.993   1.383  12.572  0.0112 -0.2143 -0.1370
13829TIP3    H262903   3.016   1.247  12.634 -0.0344 -0.8190 -1.4052
13830TIP3   OH262904   2.780   1.210   6.424  0.2236 -0.6779  0.8235
13830TIP3    H162905   2.801   1.161   6.344 -1.6279  0.8820 -0.7269
13830TIP3    H262906   2.703   1.167   6.459 -0.2838 -0.0408  0.5076
13831TIP3   OH262907   3.129   5.826  15.248 -0.1572 -0.4220  0.2806
13831TIP3    H162908   3.133   5.857  15.338 -0.9293 -0.3692  0.3100
13831TIP3    H262909   3.141   5.904  15.194 -0.9684 -0.2374  0.3508
13832TIP3   OH262910   0.917   3.414   3.771 -0.0625  0.3883 -0.0546
13832TIP3    H162911   0.914   3.462   3.853 -1.0813 -0.8273  0.6565
13832TIP3    H262912   0.922   3.481   3.703  0.2599  1.4182  0.9771
13833TIP3   OH262913   0.640   3.494  16.122  0.2008 -0.0817 -0.3344
13833TIP3    H162914   0.619   3.455  16.207  1.8572  0.1633  0.2069
13833TIP3    H262915   0.702   3.433  16.082  0.4432  0.4638 -0.8056
13834TIP3   OH262916   6.678   4.638   3.303  0.2262 -0.2794  0.5611
13834TIP3    H162917   6.772   4.651   3.293  0.6374 -1.4032  2.3855
13834TIP3    H262918   6.640   4.672   3.222  2.3168 -1.1956 -0.9148
13835TIP3   OH262919   6.498   6.761  12.855 -0.1663  0.5439 -0.2701
13835TIP3    H162920   6.575   6.770  12.799  0.1079 -0.9019 -0.1659
13835TIP3    H262921   6.439   6.704  12.807 -0.2717 -0.0523  0.5319
13836TIP3   OH262922   0.641   5.410   1.491  0.1994 -0.1634 -0.0339
13836TIP3    H162923   0.640   5.332   1.435 -1.5765 -0.6305  0.5582
13836TIP3    H262924   0.692   5.384   1.568  1.6819  0.1056 -0.8857
13837TIP3   OH262925   5.230   5.139  10.610 -0.5911  0.0035 -0.3007
13837TIP3    H162926   5.253   5.138  10.518  2.3961  1.3493  0.3245
13837TIP3    H262927   5.167   5.211  10.619 -0.3214  0.3535 -1.1625
13838TIP3   OH262928   5.760   0.903  13.949 -0.2353  0.2197  0.1573
13838TIP3    H162929   5.708   0.860  13.881  0.7707 -0.9572  0.0959
13838TIP3    H262930   5.789   0.985  13.909 -1.3592  0.5105 -0.0862
13839TIP3   OH262931   3.269   5.839   2.971 -0.2079  0.4212  0.2655
13839TIP3    H162932   3.209   5.765   2.983  0.2308  0.0563  0.2296
13839TIP3    H262933   3.288   5.841   2.878 -0.1241  0.5073  0.2838
13840TIP3   OH262934   1.213   4.830  16.360  0.1052 -0.0037 -0.1939
13840TIP3    H162935   1.168   4.750  16.333 -0.0936 -1.4995  3.9157
13840TIP3    H262936   1.143   4.889  16.389  0.4218 -0.7929  2.4417
13841TIP3   OH262937   0.496   3.543  14.152  0.0900  0.1192 -0.1513
13841TIP3    H162938   0.437   3.473  14.127 -0.6527 -0.7414  3.4043
13841TIP3    H262939   0.576   3.526  14.102 -1.5273 -0.5552 -2.6815
13842TIP3   OH262940   4.585   5.922  11.373 -0.1543 -0.3695 -0.0927
13842TIP3    H162941   4.549   5.837  11.400  0.2210 -0.3903  0.3591
13842TIP3    H262942   4.539   5.942  11.291 -0.3047 -0.9701 -0.1654
13843TIP3   OH262943   3.034   6.553   0.699  0.2705 -0.4377  0.4789
13843TIP3    H162944   2.966   6.489   0.720  0.0422 -0.3755 -0.0457
13843TIP3    H262945   3.097   6.546   0.770  0.0525 -0.9769  0.6229
13844TIP3   OH262946   6.066   5.703   3.354  0.0245  0.3134  0.2880
13844TIP3    H162947   6.048   5.656   3.435 -1.0003  1.0731  0.5265
13844TIP3    H262948   6.153   5.740   3.366  0.3058 -0.4374  0.6119
13845TIP3   OH262949   5.764   6.540   1.176 -0.2077 -0.7546 -0.1234
13845TIP3    H162950   5.835   6.491   1.218  0.6649  0.2023 -0.4443
13845TIP3    H262951   5.798   6.561   1.089 -0.6222  0.2777 -0.0485
13846TIP3   OH262952   4.715   4.181  11.169 -0.1564 -0.3787 -0.1707
13846TIP3    H162953   4.661   4.135  11.233  0.1616  1.3210  1.4045
13846TIP3    H262954   4.653   4.217  11.107 -0.6456 -0.3842  0.3083
13847TIP3   OH262955   5.698   5.796   6.306  0.2116 -0.0465  0.3804
13847TIP3    H162956   5.708   5.891   6.314 -0.5653  0.0535  0.1807
13847TIP3    H262957   5.737   5.761   6.387 -0.4131  0.4959  0.9235
13848TIP3   OH262958   0.599   3.193  14.220  0.6933  0.0461  0.3710
13848TIP3    H162959   0.622   3.103  14.243  0.6213  0.6753  3.3284
13848TIP3    H262960   0.680   3.242  14.230  0.8905  0.2930 -1.8696
13849TIP3   OH262961   1.131   5.886   0.332  0.4328 -0.3482 -0.3323
13849TIP3    H162962   1.103   5.795   0.334 -2.3412  0.4292  0.6203
13849TIP3    H262963   1.146   5.909   0.424 -0.6268  0.5936 -0.3720
13850TIP3   OH262964   4.042   3.118  12.390 -0.2249 -0.0637  0.1769
13850TIP3    H162965   3.987   3.052  12.431  1.5162 -1.2772  0.6665
13850TIP3    H262966   4.022   3.112  12.296  0.7394 -2.2064  0.0341
13851TIP3   OH262967   4.466   5.103   4.668  0.0152 -0.5919 -0.1341
13851TIP3    H162968   4.467   5.199   4.670  0.0282 -0.6001  0.3256
13851TIP3    H262969   4.438   5.081   4.580  0.7037 -0.1640 -0.4681
13852TIP3   OH262970   0.600   2.430  13.419  0.3293  0.5662  0.1268
13852TIP3    H162971   0.623   2.467  13.334 -0.8671 -3.7350 -2.4089
13852TIP3    H262972   0.506   2.447  13.428  0.2047  0.0259 -0.0696
13853TIP3   OH262973   1.658   4.312  16.208  0.4666 -0.5053  0.0410
13853TIP3    H162974   1.741   4.286  16.168  0.6679 -0.4713  0.4341
13853TIP3    H262975   1.600   4.329  16.134  0.7658 -0.6784 -0.2332
13854TIP3   OH262976   1.590   0.091   0.816 -0.0773  0.1355  0.1720
13854TIP3    H162977   1.606   0.180   0.785  1.2472 -0.2617 -0.3621
13854TIP3    H262978   1.649   0.079   0.890 -2.1184  0.5457  1.9689
13855TIP3   OH262979   2.107   2.821   2.336  0.0617  0.6421  0.7692
13855TIP3    H162980   2.124   2.888   2.270 -0.7377  0.2505  0.1529
13855TIP3    H262981   2.190   2.773   2.342 -0.1600 -0.0150 -0.7774
13856TIP3   OH262982   0.081   3.416  14.175  0.3218 -0.9034  0.4852
13856TIP3    H162983   0.108   3.389  14.087  1.9897 -3.6342  1.6898
13856TIP3    H262984   0.163   3.417  14.226 -0.3993  1.9041  1.7661
13857TIP3   OH262985   4.572   5.937   5.727  0.2358 -0.2222 -0.2032
13857TIP3    H162986   4.653   5.891   5.750  0.4201 -0.6948 -1.7177
13857TIP3    H262987   4.535   5.887   5.655 -0.8572  0.6165 -0.2574
13858TIP3   OH262988   4.183   2.163   1.497  0.7902  0.3929  0.2458
13858TIP3    H162989   4.235   2.188   1.420  0.2430  0.7455 -0.0109
13858TIP3    H262990   4.107   2.117   1.462  0.2076  1.1216  0.5277
13859TIP3   OH262991   2.328   5.651  16.082  0.0517 -0.1833  0.1125
13859TIP3    H162992   2.244   5.691  16.060  0.3641 -0.2272 -1.2663
13859TIP3    H262993   2.314   5.557  16.069  0.6845 -0.0776 -1.5132
13860TIP3   OH262994   3.763   6.162   1.289 -0.1612  0.2444  0.3870
13860TIP3    H162995   3.799   6.202   1.210 -0.0702  0.2427  0.4284
13860TIP3    H262996   3.838   6.124   1.333 -0.5368 -2.4299 -1.0390
13861TIP3   OH262997   1.230   2.432  14.328 -0.0818 -0.5220 -0.3622
13861TIP3    H162998   1.135   2.434  14.336 -0.0492 -0.4546  0.0353
13861TIP3    H262999   1.251   2.504  14.269 -0.2009  0.2037  0.4461
13862TIP3   OH263000   5.731   6.441   0.199  0.5454 -0.4343 -0.2619
13862TIP3    H163001   5.804   6.396   0.242  0.4543 -1.4342 -1.1013
13862TIP3    H263002   5.657   6.380   0.208  0.5988 -0.8054 -2.0459
13863TIP3   OH263003   6.072   3.990   3.320  0.2775  0.3634  0.1573
13863TIP3    H163004   6.046   4.063   3.376  1.3518  0.6504  0.3219
13863TIP3    H263005   6.123   3.932   3.377 -0.8988 -0.7345  0.1234
13864TIP3   OH263006   4.221   4.367  14.782 -0.2155  0.4553  0.6649
13864TIP3    H163007   4.224   4.362  14.687  0.5455  0.6411  0.6769
13864TIP3    H263008   4.282   4.300  14.812  0.2605  1.0366  1.0073
13865TIP3   OH263009   5.240   5.601   3.111  0.3813  0.2462 -0.5521
13865TIP3    H163010   5.230   5.559   3.025  0.0639  0.0413 -0.4172
13865TIP3    H263011   5.262   5.530   3.171 -0.1240  0.2752 -0.3284
13866TIP3   OH263012   6.156   1.121  11.844  0.1044 -0.0090 -0.6961
13866TIP3    H163013   6.142   1.216  11.844 -0.0655 -0.0159  0.7555
13866TIP3    H263014   6.243   1.110  11.806  0.1516  0.7349 -0.8251
13867TIP3   OH263015   5.153   4.046  16.625 -0.0242  0.0148  0.1383
13867TIP3    H163016   5.109   3.968  16.659  0.3754 -1.1403 -1.8646
13867TIP3    H263017   5.221   4.012  16.567  0.6339  1.8572 -0.2341
13868TIP3   OH263018   2.621   5.311  15.912  0.7217  0.0915 -0.3195
13868TIP3    H163019   2.598   5.221  15.936  1.1582  0.3993  1.3870
13868TIP3    H263020   2.680   5.340  15.981  0.6209  1.6865 -0.8598
13869TIP3   OH263021   1.154   5.108   4.741 -0.5720 -0.7674 -0.1735
13869TIP3    H163022   1.225   5.151   4.694  0.7985  0.9579  3.1585
13869TIP3    H263023   1.192   5.025   4.770 -0.1137 -0.1838  0.9552
13870TIP3   OH263024   6.030   5.615  15.735 -0.2031  0.2233 -0.1703
13870TIP3    H163025   6.093   5.569  15.790  1.5702  2.1402 -0.4996
13870TIP3    H263026   5.949   5.564  15.744  0.9284 -1.4011  1.5277
13871TIP3   OH263027   6.132   2.007   3.939  0.2829 -0.1240  0.2934
13871TIP3    H163028   6.038   2.023   3.942  0.5863  2.0499 -0.0681
13871TIP3    H263029   6.164   2.060   3.866  1.6041 -2.0955 -0.6474
13872TIP3   OH263030   5.399   0.788   1.186 -0.0697 -0.8270 -0.2275
13872TIP3    H163031   5.304   0.780   1.173 -0.1848  1.5658 -1.3367
13872TIP3    H263032   5.417   0.732   1.262 -3.0075  1.4294  2.4506
13873TIP3   OH263033   5.361   5.469   6.031  0.0826  0.2585  0.0213
13873TIP3    H163034   5.334   5.382   6.059 -0.9115 -0.3478 -2.4927
13873TIP3    H263035   5.396   5.510   6.110 -1.3469 -1.6395  1.7574
13874TIP3   OH263036   3.688   2.304  12.724 -0.1103  0.0612  0.1100
13874TIP3    H163037   3.655   2.214  12.730  0.1578 -0.0512 -0.0725
13874TIP3    H263038   3.636   2.345  12.656 -0.8059  0.2984  0.7723
13875TIP3   OH263039   6.410   5.098  11.689  0.2145  0.1738  0.0903
13875TIP3    H163040   6.412   5.056  11.775  0.5205 -4.2362 -1.8084
13875TIP3    H263041   6.499   5.133  11.678  0.6513 -0.5974  0.9968
13876TIP3   OH263042   0.752   2.911  15.975 -0.3323 -0.0586  0.0635
13876TIP3    H163043   0.762   2.952  16.060 -0.0418  0.3992 -0.1932
13876TIP3    H263044   0.833   2.862  15.961  0.1663  0.9131 -0.5153
13877TIP3   OH263045   2.502   5.784  17.055  0.1258 -0.1041  0.1612
13877TIP3    H163046   2.548   5.757  17.134 -2.0111  1.9422  2.3085
13877TIP3    H263047   2.474   5.703  17.013  0.6733 -1.2627  1.9496
13878TIP3   OH263048   6.203   4.034   2.476 -0.6010  0.6019  0.0450
13878TIP3    H163049   6.276   4.082   2.514 -1.8227  2.8811 -0.3669
13878TIP3    H263050   6.192   3.958   2.534  0.8558  1.2244  1.2078
13879TIP3   OH263051   3.692   0.666   0.846  0.0667 -0.6053 -0.0545
13879TIP3    H163052   3.631   0.678   0.919 -0.8411  1.5250 -1.0492
13879TIP3    H263053   3.638   0.632   0.775  0.6083 -1.1816 -0.1977
13880TIP3   OH263054   5.982   1.201  15.890  0.3424  0.1665  0.2438
13880TIP3    H163055   6.066   1.155  15.882  0.3115  0.2420 -0.6713
13880TIP3    H263056   5.918   1.131  15.899  0.3430  0.0293 -0.7022
13881TIP3   OH263057   1.871   4.488   3.951 -0.0805  0.4625  0.3377
13881TIP3    H163058   1.809   4.467   4.021 -1.3427  0.2156 -0.8292
13881TIP3    H263059   1.874   4.409   3.897  0.7897  0.6911  0.0295
13882TIP3   OH263060   4.538   1.069   1.375 -0.0488  0.3592  0.1992
13882TIP3    H163061   4.552   1.162   1.358 -1.0340  0.8483  1.8274
13882TIP3    H263062   4.562   1.057   1.467  1.3615 -1.3059 -0.3317
13883TIP3   OH263063   0.659   2.427   2.635 -0.0805 -0.9778  0.0846
13883TIP3    H163064   0.734   2.473   2.674 -0.2319 -0.2732 -0.4387
13883TIP3    H263065   0.633   2.364   2.702 -2.0829  2.0258  2.4223
13884TIP3   OH263066   1.657   0.271   4.663 -0.4031 -0.0481 -0.3405
13884TIP3    H163067   1.703   0.276   4.747  0.5542 -1.4357 -0.7263
13884TIP3    H263068   1.711   0.212   4.611 -0.4245  1.5659 -2.3035
13885TIP3   OH263069   2.294   1.066   2.309  0.6904 -0.4185 -0.5350
13885TIP3    H163070   2.216   1.032   2.266 -0.0968  0.6360 -0.0001
13885TIP3    H263071   2.366   1.014   2.274 -0.1611 -0.9061 -1.6159
13886TIP3   OH263072   1.881   6.526   2.520  1.0276  0.0241 -0.2180
13886TIP3    H163073   1.826   6.531   2.442 -0.1711 -1.5146  0.4719
13886TIP3    H263074   1.824   6.490   2.588  1.4067  3.1973  2.0178
13887TIP3   OH263075   6.721   4.031   1.317  0.2709  0.1927  0.4138
13887TIP3    H163076   6.746   4.015   1.408 -0.3641  0.7132  0.6833
13887TIP3    H263077   6.661   4.105   1.321  0.6009  0.5119 -0.4841
13888TIP3   OH263078   2.627   6.553   0.783  0.9374 -0.2547 -0.0905
13888TIP3    H163079   2.609   6.460   0.769 -0.0127 -0.4731  2.1348
13888TIP3    H263080   2.680   6.555   0.863  0.8171  1.1250 -0.0251
13889TIP3   OH263081   5.171   0.628   4.171 -0.1339  0.1256  0.3608
13889TIP3    H163082   5.155   0.661   4.083  0.5848  0.7980  0.4667
13889TIP3    H263083   5.216   0.700   4.215  0.6767 -0.6804  0.8814
13890TIP3   OH263084   2.420   2.502   3.228 -0.0149 -0.3222 -0.5885
13890TIP3    H163085   2.407   2.537   3.140  1.5581  0.5473 -0.5079
13890TIP3    H263086   2.499   2.447   3.221  0.2335 -0.1071  0.3008
13891TIP3   OH263087   4.619   0.631  12.113 -0.2295  0.0842 -0.5480
13891TIP3    H163088   4.612   0.587  12.029  1.1324  0.5204 -0.9124
13891TIP3    H263089   4.669   0.570  12.168  1.1233  0.8837 -0.8638
13892TIP3   OH263090   0.441   3.171   6.219  0.4203 -0.2984 -0.3048
13892TIP3    H163091   0.373   3.159   6.285 -1.2995  0.7382 -1.7815
13892TIP3    H263092   0.510   3.220   6.264 -0.0439 -0.8743  1.0923
13893TIP3   OH263093   1.700   5.673   4.527 -0.0683  0.4940 -0.0165
13893TIP3    H163094   1.701   5.727   4.448 -0.8832 -0.1386 -0.4771
13893TIP3    H263095   1.780   5.620   4.521 -0.2246  0.3124 -0.5164
13894TIP3   OH263096   5.839   3.204   4.978  0.2254  0.5866  0.0662
13894TIP3    H163097   5.926   3.190   5.016  0.1193  0.0297  0.1120
13894TIP3    H263098   5.798   3.117   4.979 -0.2280  0.7935 -0.2106
13895TIP3   OH263099   4.709   0.067   4.447  0.5689  0.7295  0.0116
13895TIP3    H163100   4.652  -0.001   4.482  0.5157 -0.2821 -1.8919
13895TIP3    H263101   4.667   0.093   4.365  1.1302  2.3606  0.2053
13896TIP3   OH263102   1.008   5.521  16.771  0.5144 -0.1089 -0.3848
13896TIP3    H163103   1.075   5.578  16.734  0.6451 -0.0104  0.0055
13896TIP3    H263104   1.052   5.437  16.784  0.1747 -0.4850 -1.4981
13897TIP3   OH263105   1.211   5.796   0.902 -0.7423  0.2716 -0.0131
13897TIP3    H163106   1.118   5.791   0.925 -0.6129 -0.6927  0.3219
13897TIP3    H263107   1.227   5.890   0.890 -1.8739  0.4201 -0.5805
13898TIP3   OH263108   2.407   0.262   5.921 -0.1998 -0.0123  0.0709
13898TIP3    H163109   2.500   0.284   5.925 -0.1038 -0.2915 -0.4727
13898TIP3    H263110   2.373   0.313   5.848 -0.4410 -0.0160  0.1805
13899TIP3   OH263111   0.396   6.720   3.147  0.3602  0.6703 -0.9810
13899TIP3    H163112   0.305   6.693   3.162  1.3044 -1.6268  1.5285
13899TIP3    H263113   0.426   6.662   3.077  0.0089  1.2414 -1.6194
13900TIP3   OH263114   4.452   6.167  11.465 -0.2059  0.3483 -0.2684
13900TIP3    H163115   4.501   6.087  11.448  0.2850  0.7167 -0.5827
13900TIP3    H263116   4.475   6.226  11.393 -1.4343  0.3749 -0.6615
13901TIP3   OH263117   3.201   5.884   3.717 -0.4892  0.1580 -0.0899
13901TIP3    H163118   3.142   5.899   3.643 -0.9221 -0.6572  0.0754
13901TIP3    H263119   3.289   5.899   3.682 -0.5269 -2.0389 -1.2983
13902TIP3   OH263120   2.478   2.973   0.623  0.3267  0.4903  0.6047
13902TIP3    H163121   2.495   2.879   0.614 -0.5195  0.1496  2.0775
13902TIP3    H263122   2.383   2.980   0.615  0.3950  1.2259  0.4307
13903TIP3   OH263123   4.662   4.927  13.376  0.6772 -0.6017 -0.2943
13903TIP3    H163124   4.670   4.835  13.349 -0.3237 -0.6637 -0.4193
13903TIP3    H263125   4.569   4.946  13.369  0.9669  0.6723 -1.0683
13904TIP3   OH263126   1.915   0.060   4.721 -0.0380 -0.1289 -0.2084
13904TIP3    H163127   1.835   0.017   4.752 -0.6689 -0.9846 -2.7689
13904TIP3    H263128   1.979   0.044   4.790 -1.7954 -0.2310  1.4980
13905TIP3   OH263129   1.071   0.885   1.912 -0.5395 -0.1388  0.0890
13905TIP3    H163130   1.142   0.865   1.973 -0.0983 -2.3659 -1.0651
13905TIP3    H263131   1.013   0.943   1.962  0.5297 -0.6986  2.1148
13906TIP3   OH263132   3.306   1.442   6.008  0.3727 -0.0492  0.2740
13906TIP3    H163133   3.325   1.536   6.011 -0.3633  0.1173  0.0071
13906TIP3    H263134   3.250   1.427   6.083 -0.8679  0.0598 -0.6015
13907TIP3   OH263135   2.591   5.175  17.080  0.2041  0.2834  0.0126
13907TIP3    H163136   2.652   5.121  17.130  0.4783 -0.4382 -1.0868
13907TIP3    H263137   2.645   5.245  17.045  0.0822  0.5670  0.3768
13908TIP3   OH263138   1.418   6.588   4.969  0.0089 -0.3077 -0.0816
13908TIP3    H163139   1.502   6.577   5.013  1.0686  1.6028 -1.4615
13908TIP3    H263140   1.421   6.528   4.895  0.5591  0.3627 -0.6185
13909TIP3   OH263141   2.028   0.049   5.556  0.3271  0.3969 -0.1654
13909TIP3    H163142   2.020   0.007   5.470 -0.4264 -0.5953  0.3744
13909TIP3    H263143   1.944   0.033   5.598  0.3390  1.7376  0.3885
13910TIP3   OH263144   2.460   0.554   2.610  0.0034  0.1589  0.2610
13910TIP3    H163145   2.455   0.610   2.687  0.1897  0.4811  0.0401
13910TIP3    H263146   2.369   0.542   2.582  0.0331  1.2820 -0.3619
13911TIP3   OH263147   3.694   2.516   5.859  0.3310 -0.6924  0.1625
13911TIP3    H163148   3.717   2.476   5.775 -0.2136 -0.7513  0.0387
13911TIP3    H263149   3.736   2.459   5.925  1.7224 -0.0108 -0.0897
13912TIP3   OH263150   4.560   0.611  15.286 -0.0783 -0.1540  0.2157
13912TIP3    H163151   4.627   0.591  15.351 -0.4581 -0.2061  0.5962
13912TIP3    H263152   4.482   0.564  15.316  0.0217 -1.0248 -0.8293
13913TIP3   OH263153   4.451   2.354   0.521 -0.1975 -0.1383 -0.2857
13913TIP3    H163154   4.365   2.351   0.563  1.2698 -2.1889  3.0083
13913TIP3    H263155   4.467   2.264   0.492  0.4265  0.4509 -1.8458
13914TIP3   OH263156   5.958   0.996  12.065  0.0685 -0.2935  0.0483
13914TIP3    H163157   5.996   1.066  12.117 -0.8577 -0.8808  1.5929
13914TIP3    H263158   5.915   1.040  11.992 -1.1607  0.8395  1.4163
13915TIP3   OH263159   5.114   3.691  12.750  0.0004 -0.2343  0.1437
13915TIP3    H163160   5.195   3.737  12.769 -0.1200  0.4876 -1.0391
13915TIP3    H263161   5.055   3.717  12.821  0.5640 -0.1826  0.6006
13916TIP3   OH263162   1.695   1.413  12.329  0.0658  0.1267 -0.3529
13916TIP3    H163163   1.765   1.440  12.388 -0.1524 -3.8957  2.1344
13916TIP3    H263164   1.739   1.362  12.261 -0.2352 -0.8825  0.1920
13917TIP3   OH263165   0.704   2.823   2.979  0.3195 -0.6592 -0.5081
13917TIP3    H163166   0.643   2.891   2.950  1.9995  0.7452 -0.9339
13917TIP3    H263167   0.648   2.756   3.018 -1.3856  1.2021  0.4383
13918TIP3   OH263168   3.054   4.303  14.628  0.3175 -0.3412  0.2788
13918TIP3    H163169   3.041   4.272  14.718  0.6313 -0.8753  0.1438
13918TIP3    H263170   3.069   4.397  14.637 -3.1549  0.3478  0.5044
13919TIP3   OH263171   4.229   5.286   1.910 -0.2286 -0.1799  0.0840
13919TIP3    H163172   4.175   5.363   1.926  3.0687  1.8303  3.1468
13919TIP3    H263173   4.205   5.225   1.980  0.4529  0.1644  0.6348
13920TIP3   OH263174   6.676   0.151   5.339 -0.2871  0.6167  0.2370
13920TIP3    H163175   6.629   0.111   5.412  0.2783 -1.6802 -0.5877
13920TIP3    H263176   6.616   0.143   5.265  0.6348 -0.7187 -0.4136
13921TIP3   OH263177   4.585   0.884   0.945 -0.2543 -0.3907 -0.2012
13921TIP3    H163178   4.518   0.951   0.939 -0.8006 -0.9030  0.0984
13921TIP3    H263179   4.573   0.846   1.032  1.1683  0.2887  0.3377
13922TIP3   OH263180   0.845   0.659  14.208 -0.0516 -0.6057 -0.2913
13922TIP3    H163181   0.819   0.741  14.166  0.8282  0.7114  1.6130
13922TIP3    H263182   0.771   0.636  14.263 -0.0041 -0.6732 -0.2556
13923TIP3   OH263183   0.509   0.255   0.550  0.0349  0.2908 -0.3229
13923TIP3    H163184   0.599   0.283   0.565 -0.2923  0.7897  0.8678
13923TIP3    H263185   0.457   0.334   0.563 -0.6495 -0.1922 -0.0554
13924TIP3   OH263186   2.401   6.105  13.552  0.0755  0.0088 -0.3356
13924TIP3    H163187   2.465   6.134  13.486 -1.1323  3.4814 -0.2125
13924TIP3    H263188   2.440   6.027  13.591  3.4101  0.9488 -1.4396
13925TIP3   OH263189   3.390   2.496   4.449  0.2941  0.3556  0.2156
13925TIP3    H163190   3.353   2.422   4.400 -0.1013  0.5971  0.1453
13925TIP3    H263191   3.355   2.574   4.406 -0.7635  0.5753  1.3886
13926TIP3   OH263192   0.093   2.912  12.171 -0.2285  0.1457 -0.0805
13926TIP3    H163193   0.054   2.962  12.243  1.1845  1.1975  0.0194
13926TIP3    H263194   0.152   2.851  12.215 -1.0857 -0.8304 -0.2628
13927TIP3   OH263195   1.004   5.079  12.186 -0.7216 -0.5378 -0.0852
13927TIP3    H163196   0.981   5.080  12.093 -0.0895 -0.4586 -0.2443
13927TIP3    H263197   0.923   5.055  12.230 -1.7255  1.8366 -0.4679
13928TIP3   OH263198   6.511   6.235  13.781  0.4158  0.0696 -0.5220
13928TIP3    H163199   6.545   6.252  13.869  1.6010  0.8799 -1.0927
13928TIP3    H263200   6.479   6.145  13.784 -1.1388  0.6177  1.1839
13929TIP3   OH263201   2.784   2.625  11.801 -0.6448  0.1280  0.5455
13929TIP3    H163202   2.825   2.587  11.878  0.2755 -1.7302 -0.7658
13929TIP3    H263203   2.710   2.567  11.782 -1.5657  1.2270  0.6701
13930TIP3   OH263204   6.375   3.351   4.449 -0.1728  0.4087  0.5421
13930TIP3    H163205   6.341   3.384   4.366  0.1876  0.1631  0.2959
13930TIP3    H263206   6.429   3.423   4.483 -0.0407  0.3753  0.4000
13931TIP3   OH263207   0.831   1.522   2.012 -0.5886  0.0820 -0.2170
13931TIP3    H163208   0.753   1.561   2.051  0.4105  0.5470  1.4178
13931TIP3    H263209   0.858   1.583   1.944 -0.6940  0.7781  0.3588
13932TIP3   OH263210   5.043   2.381   4.773  0.6793  0.4165  0.2042
13932TIP3    H163211   4.980   2.425   4.829 -0.8525 -0.2823 -0.8999
13932TIP3    H263212   5.001   2.298   4.749  2.7082 -0.8539  0.7372
13933TIP3   OH263213   2.765   5.010   2.095 -0.5354 -0.0557  0.1020
13933TIP3    H163214   2.807   4.970   2.171 -0.3869  0.8713  0.5276
13933TIP3    H263215   2.713   5.082   2.132  0.7015  1.3472 -0.7873
13934TIP3   OH263216   2.061   3.233  17.115 -0.1104 -0.0037 -0.2448
13934TIP3    H163217   1.988   3.277  17.160 -0.3962 -1.3905  0.7072
13934TIP3    H263218   2.137   3.289  17.132 -0.4324  0.0727  1.0530
13935TIP3   OH263219   1.390   2.614   0.706 -0.2541  0.1111 -0.6298
13935TIP3    H163220   1.299   2.597   0.682 -0.4855 -0.4024  0.5588
13935TIP3    H263221   1.441   2.553   0.654 -0.7673 -1.1997  0.3452
13936TIP3   OH263222   6.189   4.184  11.286 -0.2313 -0.3355  0.4373
13936TIP3    H163223   6.201   4.265  11.236  1.1104 -0.9342 -0.2659
13936TIP3    H263224   6.094   4.169  11.286 -0.4140  0.7472 -0.2001
13937TIP3   OH263225   5.997   5.673   6.093 -0.5887 -0.5510  0.3671
13937TIP3    H163226   6.015   5.579   6.089 -0.4767 -0.5197  0.0903
13937TIP3    H263227   5.902   5.680   6.088 -0.5599 -0.6153 -0.3142
13938TIP3   OH263228   4.817   2.959  12.350 -0.1754 -0.1899  0.5195
13938TIP3    H163229   4.815   3.002  12.265 -0.1122  0.2418  0.7334
13938TIP3    H263230   4.744   2.999  12.398  0.1918  0.0385  0.8915
13939TIP3   OH263231   2.064   1.150   4.118 -0.2020  0.1822 -0.1203
13939TIP3    H163232   1.999   1.215   4.092 -0.3473 -0.4529 -1.4732
13939TIP3    H263233   2.014   1.084   4.167 -0.6754 -0.4475 -1.3946
13940TIP3   OH263234   1.017   2.058  10.830 -0.5546  0.0475  0.2926
13940TIP3    H163235   0.932   2.017  10.814  0.4176 -1.0616 -2.7194
13940TIP3    H263236   0.999   2.152  10.830 -2.0040 -0.1901  1.5910
13941TIP3   OH263237   6.288   4.172  17.124 -0.2388  0.1965  0.1600
13941TIP3    H163238   6.194   4.179  17.112 -0.2993  0.9747  0.9913
13941TIP3    H263239   6.315   4.258  17.156  0.8664  0.1971 -0.7181
13942TIP3   OH263240   4.873   6.731   3.418 -0.0489 -0.0762 -0.6139
13942TIP3    H163241   4.961   6.694   3.411 -0.0711 -0.3423  0.2930
13942TIP3    H263242   4.866   6.758   3.510 -1.5067 -1.6591 -0.1907
13943TIP3   OH263243   1.344   0.133  13.675  0.3394 -0.1269 -0.2563
13943TIP3    H163244   1.335   0.104  13.584 -0.8835  2.0736 -0.9166
13943TIP3    H263245   1.385   0.219  13.669  0.4012 -0.0211  1.2855
13944TIP3   OH263246   0.139   0.199  16.906 -0.1995  0.0696  0.1525
13944TIP3    H163247   0.165   0.265  16.970 -0.2157  0.9928 -0.7721
13944TIP3    H263248   0.120   0.249  16.826  0.9143 -1.1593 -0.9189
13945TIP3   OH263249   2.871   2.182   3.734 -0.8268 -0.1957  0.3719
13945TIP3    H163250   2.849   2.261   3.782  1.5240  0.1811  0.9398
13945TIP3    H263251   2.791   2.160   3.686 -1.8723  1.8621  1.0645
13946TIP3   OH263252   5.724   5.771  16.313  0.5873  0.2835 -0.4009
13946TIP3    H163253   5.663   5.707  16.348  2.0386 -1.0748 -0.2460
13946TIP3    H263254   5.800   5.720  16.287  2.5549  2.1041  1.3853
13947TIP3   OH263255   2.286   2.471  11.241 -0.2267 -0.4552 -0.2207
13947TIP3    H163256   2.304   2.558  11.276 -0.5253 -0.0398 -1.0886
13947TIP3    H263257   2.259   2.420  11.318  0.0575  0.1769  0.3118
13948TIP3   OH263258   1.863   3.038  15.742  0.2663  0.0360  0.3245
13948TIP3    H163259   1.868   3.127  15.775  0.9100  0.3063 -0.4690
13948TIP3    H263260   1.787   3.038  15.684  1.7122  0.7884 -1.6790
13949TIP3   OH263261   5.681   4.218  15.929  0.3265 -0.2070 -0.2681
13949TIP3    H163262   5.687   4.153  15.999 -0.6022 -0.1381 -0.1197
13949TIP3    H263263   5.701   4.301  15.971 -0.3941 -0.1431 -0.0394
13950TIP3   OH263264   6.294   5.471   3.583  0.1726 -0.2666  0.1985
13950TIP3    H163265   6.288   5.411   3.657  1.4253 -0.5337  0.0995
13950TIP3    H263266   6.222   5.533   3.596 -0.9229 -1.5731  0.4773
13951TIP3   OH263267   4.701   5.188  16.954 -0.5879  0.0316  0.1028
13951TIP3    H163268   4.713   5.094  16.969  0.7588  0.1655  0.0448
13951TIP3    H263269   4.781   5.227  16.990 -0.9663  1.1167 -0.2191
13952TIP3   OH263270   2.059   3.883   1.219 -0.0625 -0.7679 -0.5073
13952TIP3    H163271   1.996   3.953   1.238  0.8395 -0.3190  0.9143
13952TIP3    H263272   2.099   3.910   1.136 -0.4818 -0.1634 -0.5236
13953TIP3   OH263273   1.952   4.747  14.704 -0.2561  0.7947 -0.4049
13953TIP3    H163274   1.987   4.812  14.644 -1.0298  0.1355 -1.5936
13953TIP3    H263275   2.024   4.686  14.719 -0.2344  0.6408 -1.1289
13954TIP3   OH263276   0.870   0.741  13.437  0.5739  0.3396  0.3191
13954TIP3    H163277   0.879   0.649  13.464  0.9075  0.2186 -0.1972
13954TIP3    H263278   0.775   0.757  13.439  0.4898 -0.1126  0.0896
13955TIP3   OH263279   3.594   0.483   0.336  0.0618 -0.1388 -0.4177
13955TIP3    H163280   3.608   0.501   0.243  2.6888  0.2997 -0.0035
13955TIP3    H263281   3.657   0.415   0.358 -0.3701 -0.1041  1.1094
13956TIP3   OH263282   0.205   4.834   6.476 -0.5095 -0.5789  0.3626
13956TIP3    H163283   0.144   4.796   6.539  0.5534  1.2831  2.7176
13956TIP3    H263284   0.165   4.918   6.452  0.2496 -0.1691  0.5074
13957TIP3   OH263285   1.216   6.458  11.189 -0.2724  0.2273 -0.1927
13957TIP3    H163286   1.304   6.421  11.197 -0.0582  0.6217 -0.7385
13957TIP3    H263287   1.215   6.500  11.104 -0.8694  0.5630 -0.0235
13958TIP3   OH263288   3.169   3.162   2.310 -0.8735  0.3302  0.6435
13958TIP3    H163289   3.195   3.192   2.398 -0.6109  1.2088  0.2749
13958TIP3    H263290   3.192   3.235   2.252  1.6747 -1.3230 -0.6101
13959TIP3   OH263291   1.499   6.008  10.683 -0.3992  0.5355 -0.9860
13959TIP3    H163292   1.429   6.068  10.658 -0.4689  0.4456 -1.0074
13959TIP3    H263293   1.569   6.065  10.716 -1.1500  0.5429  0.7238
13960TIP3   OH263294   6.002   0.191  11.471  0.0782 -0.2037 -0.0615
13960TIP3    H163295   6.059   0.221  11.542  1.4951  1.8185 -1.9207
13960TIP3    H263296   5.920   0.239  11.484  1.0373  1.7639 -0.8689
13961TIP3   OH263297   6.501   1.121  15.196 -0.1848 -0.1289  0.0761
13961TIP3    H163298   6.470   1.046  15.246  1.7302 -0.5890  0.6724
13961TIP3    H263299   6.580   1.090  15.152 -0.2088  1.1113 -0.9006
13962TIP3   OH263300   6.359   2.520  11.509  0.4491  0.0319  0.0731
13962TIP3    H163301   6.445   2.480  11.493  1.4198  1.7702  0.6427
13962TIP3    H263302   6.379   2.600  11.557 -1.4215  1.0607 -0.7573
13963TIP3   OH263303   2.363   4.848  14.354  0.0125 -0.5154 -0.9374
13963TIP3    H163304   2.428   4.882  14.293  0.3276 -2.5849 -1.8385
13963TIP3    H263305   2.407   4.849  14.439  0.1006  0.9802 -0.9770
13964TIP3   OH263306   4.718   2.451   5.365  0.9961  0.4263 -0.2182
13964TIP3    H163307   4.659   2.475   5.294 -0.3176 -1.5230  0.1530
13964TIP3    H263308   4.661   2.425   5.437  2.2944 -0.3577  0.5804
13965TIP3   OH263309   1.552   3.353   5.270  0.0123 -0.3429 -0.4083
13965TIP3    H163310   1.640   3.316   5.262  1.2873  2.2042  0.6381
13965TIP3    H263311   1.543   3.410   5.194 -1.0896 -1.1753 -0.9233
13966TIP3   OH263312   6.514   3.454  13.755 -0.2460 -0.0906  0.1592
13966TIP3    H163313   6.503   3.522  13.688  3.2430  0.5169  0.0339
13966TIP3    H263314   6.582   3.488  13.813  3.0742 -4.1604 -0.9188
13967TIP3   OH263315   6.770   3.860  15.556  0.2963  0.1053  0.2223
13967TIP3    H163316   6.752   3.816  15.639 -1.8397  1.6695  0.6994
13967TIP3    H263317   6.766   3.791  15.490  1.0151 -1.0012  1.2953
13968TIP3   OH263318   5.062   0.720  14.252  0.6226 -0.2650 -0.1930
13968TIP3    H163319   5.005   0.781  14.206 -0.2021  0.4982  1.7138
13968TIP3    H263320   5.146   0.764  14.256  0.2062  0.4895  0.5989
13969TIP3   OH263321   0.042   6.259  14.642 -0.5336 -0.0741  0.1395
13969TIP3    H163322   0.042   6.168  14.613  1.3480 -0.4741  1.2021
13969TIP3    H263323   0.113   6.300  14.593  2.0585 -0.5268  3.1826
13970TIP3   OH263324   3.382   6.164  13.528  0.0382 -0.3968  0.7775
13970TIP3    H163325   3.387   6.118  13.444 -2.2592  0.2278  0.2081
13970TIP3    H263326   3.305   6.125  13.571  1.0983 -0.6243  2.5769
13971TIP3   OH263327   3.093   3.045   5.500 -0.4761  0.4279 -0.3687
13971TIP3    H163328   3.009   3.008   5.525 -0.0837  0.0250  0.4096
13971TIP3    H263329   3.116   3.103   5.573  1.4270 -1.9481  1.0723
13972TIP3   OH263330   6.206   5.458   1.728 -0.4792  0.3202  0.8826
13972TIP3    H163331   6.188   5.364   1.729  0.7733  0.0616  1.8909
13972TIP3    H263332   6.269   5.469   1.657  1.2270 -0.0211  2.2764
13973TIP3   OH263333   5.815   3.387   6.719 -0.0610 -0.1527 -0.2828
13973TIP3    H163334   5.900   3.349   6.701 -0.4779 -0.7657 -0.9708
13973TIP3    H263335   5.833   3.457   6.782  0.9476 -0.2489 -0.4583
13974TIP3   OH263336   4.967   0.113   1.328  0.1818 -0.2333 -0.2102
13974TIP3    H163337   5.043   0.167   1.308  1.3460 -0.8993  2.0549
13974TIP3    H263338   4.934   0.148   1.411  0.1256 -2.0881  0.6030
13975TIP3   OH263339   3.097   5.316  16.096 -0.5067 -0.3080  0.5927
13975TIP3    H163340   3.098   5.404  16.134  0.5250  0.5519 -1.2778
13975TIP3    H263341   3.170   5.270  16.138  0.5491  0.5841 -0.2018
13976TIP3   OH263342   2.754   1.974   4.926  0.1789 -0.1686 -0.8782
13976TIP3    H163343   2.784   1.989   5.016 -0.3926  1.8025 -0.9573
13976TIP3    H263344   2.659   1.973   4.932  0.1160  0.6464 -1.5298
13977TIP3   OH263345   0.948   3.954  14.243 -0.4609  0.2606  0.4316
13977TIP3    H163346   0.881   4.021  14.253 -0.2553  0.2839  1.9105
13977TIP3    H263347   0.993   3.951  14.328  1.3780  0.1935 -0.4865
13978TIP3   OH263348   3.794   1.313  16.833 -0.4137  0.3493 -0.1240
13978TIP3    H163349   3.713   1.363  16.838 -1.2390 -0.9355 -0.2044
13978TIP3    H263350   3.772   1.227  16.868  1.6314  0.7817  2.4877
13979TIP3   OH263351   3.101   0.459   1.208  0.1365 -0.2037 -0.0854
13979TIP3    H163352   3.058   0.468   1.123  0.1353 -2.5057 -0.3822
13979TIP3    H263353   3.046   0.397   1.257  1.1387 -0.3600  0.8886
13980TIP3   OH263354   6.306   6.704  16.239  0.5680  0.0577  0.0753
13980TIP3    H163355   6.373   6.641  16.212  1.0975  0.0296  1.3335
13980TIP3    H263356   6.300   6.766  16.166  0.5326 -1.0583 -0.8854
13981TIP3   OH263357   1.110   0.461  14.709  0.2514 -0.3430 -0.6342
13981TIP3    H163358   1.065   0.533  14.665  2.3620  2.3170  1.2234
13981TIP3    H263359   1.048   0.430  14.775 -1.8475 -2.4910 -3.3684
13982TIP3   OH263360   3.834   2.077   3.672  0.5279 -1.2061  0.2845
13982TIP3    H163361   3.768   2.009   3.688  0.9085 -1.5733  0.3021
13982TIP3    H263362   3.783   2.158   3.663  0.2297 -1.0427  2.7973
13983TIP3   OH263363   4.932   3.730   3.370  0.1102 -0.7825  0.1900
13983TIP3    H163364   4.889   3.747   3.286 -0.8960 -4.1277 -0.1151
13983TIP3    H263365   5.010   3.680   3.348  0.7320 -0.2779  1.1756
13984TIP3   OH263366   4.896   0.900   3.138  0.0380 -0.1658  0.1835
13984TIP3    H163367   4.935   0.868   3.219  0.5051 -0.1189 -0.0148
13984TIP3    H263368   4.900   0.824   3.079 -0.4005 -0.2323  0.2398
13985TIP3   OH263369   1.100   3.980  14.483 -0.0355  0.2579  0.3084
13985TIP3    H163370   1.133   4.066  14.457  0.3112  0.1634  0.4247
13985TIP3    H263371   1.022   3.998  14.535 -0.8455  0.4400 -0.9480
13986TIP3   OH263372   4.968   1.360   4.834  0.1932 -0.6037  0.5490
13986TIP3    H163373   5.024   1.409   4.774 -0.5758 -0.6334 -0.2152
13986TIP3    H263374   5.001   1.381   4.921  0.9605 -0.0990  0.1401
13987TIP3   OH263375   4.572   2.473   5.115  0.0203  0.2454  0.3649
13987TIP3    H163376   4.583   2.567   5.104 -1.3358  0.4419  0.4468
13987TIP3    H263377   4.482   2.457   5.087 -0.2376 -0.8018  1.6992
13988TIP3   OH263378   3.293   0.580  12.454 -0.2796  0.3663  0.2970
13988TIP3    H163379   3.312   0.642  12.525 -0.8442 -0.0757  0.8489
13988TIP3    H263380   3.378   0.562  12.415  0.1718 -0.0390  1.4222
13989TIP3   OH263381   0.383   4.401   6.251 -0.3236 -0.5928  0.1059
13989TIP3    H163382   0.348   4.490   6.246  0.0653 -0.4286  0.2875
13989TIP3    H263383   0.477   4.412   6.267  0.4879 -0.9749 -3.5417
13990TIP3   OH263384   3.087   2.055   3.503 -0.4328  0.3795  0.0136
13990TIP3    H163385   3.015   1.993   3.516  1.9992 -2.3647  1.1578
13990TIP3    H263386   3.090   2.068   3.408 -2.1826  0.3263 -0.0813
13991TIP3   OH263387   3.558   0.642  13.648  0.4700 -0.4896  0.0048
13991TIP3    H163388   3.540   0.713  13.709  0.3689 -0.2980 -0.2474
13991TIP3    H263389   3.489   0.649  13.581  0.1371 -1.1567  0.2703
13992TIP3   OH263390   4.366   6.007   4.341  0.0908 -0.9312 -0.3451
13992TIP3    H163391   4.385   6.050   4.424 -1.2781 -4.2642  1.9240
13992TIP3    H263392   4.449   5.965   4.317  0.4245 -0.1681 -0.5316
13993TIP3   OH263393   0.298   1.484  16.476 -0.4682  0.0092 -0.0099
13993TIP3    H163394   0.284   1.490  16.570 -3.4576 -0.9055 -0.2929
13993TIP3    H263395   0.227   1.534  16.437  0.0944 -0.4799 -1.7912
13994TIP3   OH263396   4.016   4.204  10.995  0.1653  0.2192  0.5339
13994TIP3    H163397   3.973   4.232  10.914 -1.9393  1.1834  1.8875
13994TIP3    H263398   4.066   4.280  11.023 -0.7327  0.6013  1.1410
13995TIP3   OH263399   6.156   1.393   2.327 -0.1610 -0.3611 -0.3534
13995TIP3    H163400   6.199   1.309   2.311  0.0915 -0.3170  0.0704
13995TIP3    H263401   6.207   1.433   2.398 -0.5866 -0.0787 -0.1990
13996TIP3   OH263402   4.845   3.139  13.519 -0.0674 -0.4994  0.1098
13996TIP3    H163403   4.895   3.103  13.592  0.5676  0.8602  0.3736
13996TIP3    H263404   4.781   3.071  13.498  1.5056 -2.0592  0.1404
13997TIP3   OH263405   2.017   0.141  12.606  0.3394 -0.1715 -0.2830
13997TIP3    H163406   1.994   0.182  12.689 -0.2885  0.0673 -0.5708
13997TIP3    H263407   1.997   0.048  12.620 -0.3156 -0.0451 -0.3546
13998TIP3   OH263408   1.948   0.242  12.128 -0.1122 -0.3896  0.1468
13998TIP3    H163409   1.859   0.207  12.122  0.9931 -3.2058 -1.7873
13998TIP3    H263410   1.995   0.179  12.183  0.5393  1.6031  2.0235
13999TIP3   OH263411   1.099   2.755  13.725 -0.1172  0.2982 -0.1944
13999TIP3    H163412   1.116   2.675  13.776 -0.5364 -0.3815 -1.0909
13999TIP3    H263413   1.012   2.783  13.753  0.3915  0.9670  0.7748
14000TIP3   OH263414   2.809   5.030   1.157 -0.3474  0.1646  0.3869
14000TIP3    H163415   2.799   5.012   1.250 -1.4449 -2.4728 -0.1499
14000TIP3    H263416   2.903   5.019   1.140  0.1316  2.1503  1.3581
14001TIP3   OH263417   6.347   5.458  15.312  0.1593 -0.9149 -0.3907
14001TIP3    H163418   6.289   5.524  15.275  0.7485  0.1490  0.5288
14001TIP3    H263419   6.308   5.435  15.396  0.6308 -0.7950 -0.1359
14002TIP3   OH263420   2.363   4.926   1.686 -0.2335 -0.4970 -0.2033
14002TIP3    H163421   2.371   5.018   1.712 -0.9755 -1.2985  3.2888
14002TIP3    H263422   2.271   4.915   1.665  0.1042 -0.1982 -2.0255
14003TIP3   OH263423   2.065   3.450   5.720 -0.3784  0.1485  0.3098
14003TIP3    H163424   2.001   3.398   5.768 -1.7381  0.2270 -1.3376
14003TIP3    H263425   2.082   3.398   5.641  0.2330  0.9894 -0.1210
14004TIP3   OH263426   0.025   0.911  12.991  0.0428 -0.5487 -0.2789
14004TIP3    H163427   0.036   0.928  13.084 -1.9905 -1.7033  0.2285
14004TIP3    H263428   0.060   0.989  12.947 -0.0786  0.5373  1.4839
14005TIP3   OH263429   5.133   0.496  11.284  0.1290 -0.3781 -0.0335
14005TIP3    H163430   5.079   0.523  11.209 -0.9112  0.5755  1.0180
14005TIP3    H263431   5.108   0.405  11.300  0.7483 -0.7662 -1.1528
14006TIP3   OH263432   4.047   2.437   4.682  0.0653  0.1118  0.3267
14006TIP3    H163433   4.141   2.434   4.667  0.5485  0.1950  2.8561
14006TIP3    H263434   4.027   2.354   4.726 -1.0745  0.0540 -0.2465
14007TIP3   OH263435   5.121   2.547  12.677  0.3356  0.5077 -0.1296
14007TIP3    H163436   5.181   2.582  12.743  1.2172  0.0620 -0.6775
14007TIP3    H263437   5.144   2.593  12.597  0.6384 -0.3933 -0.5684
14008TIP3   OH263438   1.684   6.725   2.380  0.3521  0.2429 -0.3626
14008TIP3    H163439   1.625   6.778   2.326  0.3411 -0.3560 -0.9471
14008TIP3    H263440   1.749   6.788   2.412  0.0040  0.7189 -0.5679
14009TIP3   OH263441   5.298   0.778  12.649 -0.5373 -0.5393  0.0097
14009TIP3    H163442   5.356   0.734  12.711  1.5483  0.6645 -0.9594
14009TIP3    H263443   5.269   0.857  12.695 -1.0964 -0.9301  0.3425
14010TIP3   OH263444   2.185   2.310   6.629 -0.2185  0.2838 -0.0683
14010TIP3    H163445   2.147   2.372   6.568  1.6368  1.1298 -0.4402
14010TIP3    H263446   2.172   2.350   6.715  0.1443  0.7416 -0.2222
14011TIP3   OH263447   2.057   3.518  16.282  0.4886 -0.5176  0.4193
14011TIP3    H163448   2.151   3.515  16.265  0.4435  0.2183 -0.0046
14011TIP3    H263449   2.021   3.448  16.227  0.9511 -1.9258  1.8569
14012TIP3   OH263450   3.695   3.977   2.399 -0.0806  0.4108  0.1173
14012TIP3    H163451   3.748   4.001   2.323 -1.7446 -2.8833 -2.3482
14012TIP3    H263452   3.690   4.057   2.451  3.1251  2.1903 -1.9752
14013TIP3   OH263453   6.296   3.645  13.675  0.0959 -0.2305  0.5387
14013TIP3    H163454   6.253   3.709  13.618  1.0688  0.5158  0.6097
14013TIP3    H263455   6.240   3.568  13.672  0.5883 -0.5833 -2.1871
14014TIP3   OH263456   6.249   3.566  12.288 -0.1988  0.3554  0.4863
14014TIP3    H163457   6.325   3.590  12.341 -1.3003  1.0698  1.8073
14014TIP3    H263458   6.285   3.514  12.216  1.4599  0.1991  1.3847
14015TIP3   OH263459   2.439   6.606  15.599 -0.3719  0.1572 -0.0255
14015TIP3    H163460   2.436   6.517  15.564 -3.0913  0.7069 -1.4504
14015TIP3    H263461   2.525   6.639  15.571 -0.3192 -1.1917 -1.6830
14016TIP3   OH263462   1.234   5.276  14.208 -0.2139  0.1728  0.3025
14016TIP3    H163463   1.145   5.241  14.200 -0.0087 -0.0286 -1.4188
14016TIP3    H263464   1.289   5.198  14.216  0.1267  0.0792 -2.3060
14017TIP3   OH263465   5.283   0.874   3.673 -0.1750  0.4532 -0.3618
14017TIP3    H163466   5.270   0.813   3.600  1.1049 -0.1106 -0.1447
14017TIP3    H263467   5.284   0.960   3.632  0.6997  0.1291 -1.0392
14018TIP3   OH263468   1.802   3.581  11.672  0.2609 -0.1511 -0.2826
14018TIP3    H163469   1.865   3.515  11.643  0.7525  0.1174  0.1647
14018TIP3    H263470   1.717   3.541  11.657  0.5214 -0.3778 -1.2436
14019TIP3   OH263471   2.889   5.009  16.768  0.1785  0.3274  0.9817
14019TIP3    H163472   2.810   5.052  16.736  0.1970 -1.0222 -1.0654
14019TIP3    H263473   2.863   4.968  16.851 -1.0296  0.6099  0.7594
14020TIP3   OH263474   3.995   0.344  13.525 -0.0143  0.1027 -0.3107
14020TIP3    H163475   4.044   0.386  13.455 -0.5478 -0.1407 -0.8354
14020TIP3    H263476   4.026   0.254  13.525 -1.0923 -0.2963 -1.2567
14021TIP3   OH263477   0.318   6.516  16.243 -0.4760 -0.3267 -0.2184
14021TIP3    H163478   0.320   6.545  16.334  0.1827 -1.5917  0.1935
14021TIP3    H263479   0.230   6.481  16.231 -0.2068 -1.2420  0.3178
14022TIP3   OH263480   2.103   5.805  16.059  0.1523  0.5564  0.6240
14022TIP3    H163481   2.113   5.776  16.150 -1.2086  0.0013  0.6190
14022TIP3    H263482   2.095   5.900  16.066 -2.4913  0.3642  1.4034
14023TIP3   OH263483   6.056   1.829   5.689 -0.1873 -0.0227  0.3852
14023TIP3    H163484   6.049   1.824   5.784  1.1117 -0.7867  0.4640
14023TIP3    H263485   6.150   1.843   5.673 -0.5781  1.5576 -0.7384
14024TIP3   OH263486   6.448   1.817  16.040 -0.4187  0.1472 -0.2996
14024TIP3    H163487   6.422   1.874  15.968 -0.3649 -0.0684 -0.4904
14024TIP3    H263488   6.366   1.802  16.089 -0.2960  0.9805  0.1793
14025TIP3   OH263489   1.093   2.503   3.887  0.3844 -0.8053 -0.3516
14025TIP3    H163490   1.002   2.478   3.901  0.5631 -4.2671 -3.6659
14025TIP3    H263491   1.088   2.572   3.820  0.2114 -0.0063  0.4667
14026TIP3   OH263492   4.675   5.314  12.168 -0.3571  0.3159 -0.3008
14026TIP3    H163493   4.705   5.233  12.125  1.2972  0.5291  0.3455
14026TIP3    H263494   4.712   5.384  12.115 -1.2664  0.6527 -0.5026
14027TIP3   OH263495   0.999   3.955  12.981  0.0099 -0.4623  0.1054
14027TIP3    H163496   1.050   3.933  12.903 -0.3266  0.6820 -0.4635
14027TIP3    H263497   1.065   3.966  13.050  0.2604 -2.0898  0.1647
14028TIP3   OH263498   6.579   4.415  14.421 -0.3167  0.3213 -0.1272
14028TIP3    H163499   6.565   4.343  14.482  2.1502 -1.1672 -1.1928
14028TIP3    H263500   6.546   4.382  14.337  0.1920  0.6904 -0.4761
14029TIP3   OH263501   4.631   5.665   5.417  0.5761  0.4946 -0.7471
14029TIP3    H163502   4.642   5.584   5.467  1.6976  0.9575 -0.2074
14029TIP3    H263503   4.625   5.637   5.326 -1.5917 -0.3735 -0.3979
14030TIP3   OH263504   5.795   4.384  13.990  0.8275 -0.5891  0.2878
14030TIP3    H163505   5.848   4.417  14.063 -0.7906  0.6619  0.9503
14030TIP3    H263506   5.782   4.291  14.010  1.5868 -0.5921  0.8346
14031TIP3   OH263507   3.751   6.698   4.736  0.0776  0.0522  0.0065
14031TIP3    H163508   3.818   6.641   4.773 -0.6634 -0.9158 -0.1222
14031TIP3    H263509   3.752   6.680   4.643 -0.3163  0.0903 -0.0061
14032TIP3   OH263510   4.328   2.902   1.989 -0.2796 -0.0755  0.0115
14032TIP3    H163511   4.261   2.852   2.037  0.7122  0.1765  1.7136
14032TIP3    H263512   4.361   2.840   1.924 -0.3951 -1.0483  0.8429
14033TIP3   OH263513   2.375   6.540   2.317 -0.5311 -0.3582 -0.2623
14033TIP3    H163514   2.303   6.481   2.337 -1.2732  0.3208 -0.8740
14033TIP3    H263515   2.398   6.580   2.400 -0.2756 -1.2040  0.0886
14034TIP3   OH263516   4.876   5.622   1.231  0.7822  0.2406 -0.5684
14034TIP3    H163517   4.887   5.639   1.138 -1.9158  0.8324 -0.8491
14034TIP3    H263518   4.914   5.535   1.244  0.3804 -0.2504 -2.4160
14035TIP3   OH263519   3.358   2.017  10.735  0.0632 -0.0725  0.1187
14035TIP3    H163520   3.394   1.929  10.724  0.1217  0.1885 -2.3835
14035TIP3    H263521   3.435   2.075  10.729 -0.2331  0.2502 -0.7365
14036TIP3   OH263522   1.863   0.461   0.745 -0.5038  0.1822  0.1470
14036TIP3    H163523   1.895   0.461   0.655  0.3792 -0.0696  0.4489
14036TIP3    H263524   1.942   0.471   0.798 -1.0241  0.4068  0.8907
14037TIP3   OH263525   5.863   5.197   2.566  0.1921 -0.0860  0.2484
14037TIP3    H163526   5.798   5.237   2.508  1.4542 -0.1714 -1.2962
14037TIP3    H263527   5.812   5.140   2.624 -1.2197  0.7665 -0.1087
14038TIP3   OH263528   1.204   5.349   5.327 -0.0788 -0.3815 -0.8778
14038TIP3    H163529   1.220   5.356   5.233 -3.6258  0.7920 -1.5528
14038TIP3    H263530   1.276   5.397   5.368  0.6848  0.4716 -3.0738
14039TIP3   OH263531   3.183   2.597   2.261 -0.0620 -0.0512 -0.2429
14039TIP3    H163532   3.276   2.617   2.275  0.1316 -0.7523 -0.5081
14039TIP3    H263533   3.181   2.503   2.242 -0.6304  0.2565 -1.8967
14040TIP3   OH263534   1.299   6.456   1.480  0.6057  0.5091  0.9489
14040TIP3    H163535   1.323   6.369   1.448 -0.0399  0.6278  0.0960
14040TIP3    H263536   1.204   6.452   1.492  0.4746  1.2792  0.2879
14041TIP3   OH263537   3.181   4.274  14.944 -0.3436 -0.3135 -1.0016
14041TIP3    H163538   3.247   4.204  14.937  1.4657  1.3384 -1.1998
14041TIP3    H263539   3.163   4.279  15.038  1.6301  0.7500 -0.6234
14042TIP3   OH263540   3.033   0.822   2.346 -0.5100  0.3768  0.6761
14042TIP3    H163541   2.961   0.826   2.409  1.0146  0.5964  2.4910
14042TIP3    H263542   3.056   0.913   2.330 -0.8790  0.3230 -0.2302
14043TIP3   OH263543   0.541   6.119   2.121  0.0353  0.0631  0.4970
14043TIP3    H163544   0.481   6.063   2.071 -0.1610  0.2994  0.4626
14043TIP3    H263545   0.487   6.154   2.192 -0.0992  0.9537 -0.0293
14044TIP3   OH263546   2.529   0.067  14.668  0.7025  0.5237 -0.2638
14044TIP3    H163547   2.557  -0.022  14.689  2.9726  1.1375 -0.3689
14044TIP3    H263548   2.558   0.081  14.578  1.2526  1.6440  0.0561
14045TIP3   OH263549   0.025   5.790  12.175 -0.3906 -0.2627 -0.3347
14045TIP3    H163550  -0.061   5.753  12.153 -0.2152 -0.4257 -0.7476
14045TIP3    H263551   0.009   5.885  12.179 -0.3419 -0.1859 -1.5913
14046TIP3   OH263552   4.603   5.101   5.670 -0.2118  0.4421 -0.1994
14046TIP3    H163553   4.633   5.130   5.584 -0.0213 -2.6234 -1.3164
14046TIP3    H263554   4.644   5.162   5.731  2.5205  0.7360 -2.0961
14047TIP3   OH263555   6.012   3.911  13.990 -0.1007  0.4593 -0.2829
14047TIP3    H163556   6.103   3.889  13.972 -0.6152 -0.9296 -1.3807
14047TIP3    H263557   5.963   3.833  13.964 -1.7579  1.7927 -1.3570
14048TIP3   OH263558   2.691   0.021  12.506 -0.3568  0.3389 -0.2519
14048TIP3    H163559   2.768   0.070  12.477  0.3823 -0.6075  0.0276
14048TIP3    H263560   2.620   0.085  12.507 -0.0266  0.8146 -2.3946
14049TIP3   OH263561   2.427   1.584  12.870  0.3299  0.3609  0.2122
14049TIP3    H163562   2.441   1.677  12.885 -0.3779  0.1230  2.7504
14049TIP3    H263563   2.514   1.548  12.857  0.5961  1.3551 -0.9919
14050TIP3   OH263564   3.743   0.256   5.621  0.7904  0.1369  0.0682
14050TIP3    H163565   3.719   0.290   5.708 -1.4443 -0.1049 -0.4046
14050TIP3    H263566   3.727   0.329   5.562  2.5170  0.3717 -0.1774
14051TIP3   OH263567   5.582   0.154  10.935  0.3646 -0.4011  0.3127
14051TIP3    H163568   5.563   0.137  10.843  3.4138 -2.8360 -0.0373
14051TIP3    H263569   5.648   0.223  10.934  2.2657 -2.1279  0.3928
14052TIP3   OH263570   1.882   2.676  12.065  0.2612 -0.0847  0.3234
14052TIP3    H163571   1.944   2.740  12.030  1.3412 -0.4673  1.4586
14052TIP3    H263572   1.896   2.678  12.160 -2.1090  0.4490  0.7047
14053TIP3   OH263573   6.568   3.491  12.655 -0.0489  0.2975  0.5685
14053TIP3    H163574   6.543   3.482  12.562  0.3092 -0.6628  0.5567
14053TIP3    H263575   6.503   3.438  12.701  1.2260 -1.2468  0.6422
14054TIP3   OH263576   4.050   6.371  13.218  0.2965 -0.3156 -0.6627
14054TIP3    H163577   4.018   6.453  13.181  0.6465  0.1990  0.1433
14054TIP3    H263578   4.041   6.382  13.312  2.8482 -0.0911 -0.3628
14055TIP3   OH263579   2.744   2.776   3.007 -0.3003  0.1049 -0.0529
14055TIP3    H163580   2.798   2.716   3.059 -1.8949 -0.3436  1.1602
14055TIP3    H263581   2.807   2.834   2.964  1.1839 -1.1312  0.3724
14056TIP3   OH263582   1.094   5.952  16.488 -0.5533 -0.1987  0.0980
14056TIP3    H163583   1.128   5.952  16.578  1.4969  1.1612 -0.6007
14056TIP3    H263584   1.007   5.990  16.495  0.4466  2.0882  1.3013
14057TIP3   OH263585   5.136   3.695  15.348  0.0696 -0.2759  0.1267
14057TIP3    H163586   5.043   3.715  15.338 -0.1370 -0.1464  1.9269
14057TIP3    H263587   5.178   3.737  15.273 -1.5589 -2.5087 -2.2034
14058TIP3   OH263588   0.424   3.937   3.446  0.2629  0.1718 -0.3798
14058TIP3    H163589   0.437   4.027   3.476 -0.9045 -0.3287  1.8480
14058TIP3    H263590   0.436   3.941   3.351 -0.6362  2.8459 -0.4484
14059TIP3   OH263591   4.559   4.119   2.818 -0.2678  0.3062  0.1078
14059TIP3    H163592   4.484   4.066   2.846 -0.4401  0.2144 -0.5178
14059TIP3    H263593   4.614   4.057   2.769 -0.2418  0.5918 -0.2268
14060TIP3   OH263594   2.166   6.298  17.116  0.0707  0.2643  0.0253
14060TIP3    H163595   2.261   6.298  17.101  0.3655 -1.3151  1.5184
14060TIP3    H263596   2.149   6.380  17.163  0.5162  1.0041 -1.0545
14061TIP3   OH263597   0.600   4.278  14.756  0.2566  0.0876  0.2833
14061TIP3    H163598   0.640   4.350  14.804  1.7580 -0.2597 -0.3911
14061TIP3    H263599   0.578   4.213  14.823 -0.8357  1.0142  0.8605
14062TIP3   OH263600   3.551   5.489  11.112 -0.1802  0.3021 -0.0003
14062TIP3    H163601   3.487   5.511  11.044  0.5990  0.5680 -0.6654
14062TIP3    H263602   3.636   5.491  11.067  0.3794  0.7241  1.0374
14063TIP3   OH263603   1.700   4.360   2.578 -0.3352  0.1814  0.6870
14063TIP3    H163604   1.613   4.325   2.600 -0.1050 -0.2770  0.8965
14063TIP3    H263605   1.690   4.398   2.491 -0.7067 -0.0255  0.6368
14064TIP3   OH263606   5.943   1.537   6.365 -0.2013  0.2436 -0.4112
14064TIP3    H163607   5.932   1.569   6.455  0.0978  0.0096 -0.2909
14064TIP3    H263608   5.903   1.450   6.366  0.8150 -0.2361 -0.2052
14065TIP3   OH263609   5.404   2.235  15.423 -0.5833 -0.6314 -0.1429
14065TIP3    H163610   5.394   2.330  15.423 -1.2733 -0.6959 -0.3224
14065TIP3    H263611   5.316   2.202  15.405  0.0119 -1.2754 -2.0966
14066TIP3   OH263612   2.657   4.126  17.073  0.2673  0.3736 -0.2299
14066TIP3    H163613   2.689   4.083  17.152  0.4738 -0.6344 -0.8384
14066TIP3    H263614   2.726   4.188  17.050 -0.9727  2.6815  1.8506
14067TIP3   OH263615   3.672   5.363   0.223 -0.6709  0.3620  0.6183
14067TIP3    H163616   3.688   5.296   0.290 -0.1072 -0.9050 -0.7224
14067TIP3    H263617   3.577   5.361   0.209 -0.7783  0.5676  1.2962
14068TIP3   OH263618   2.786   1.205   2.515  0.3498  0.4465 -0.2447
14068TIP3    H163619   2.740   1.239   2.592  0.6257  1.9208 -0.6864
14068TIP3    H263620   2.773   1.272   2.448  1.0176 -0.3041 -1.1553
14069TIP3   OH263621   5.724   3.979  16.089 -0.4653  0.0248  0.4227
14069TIP3    H163622   5.648   3.925  16.067 -1.4123  0.8899  1.4367
14069TIP3    H263623   5.797   3.938  16.044 -1.4950 -0.9776 -0.3779
14070TIP3   OH263624   0.137   0.664   2.429  0.6858  0.2820  0.2990
14070TIP3    H163625   0.065   0.610   2.395 -0.0563  0.9069  0.8320
14070TIP3    H263626   0.110   0.686   2.518  0.9316  1.5692  0.0760
14071TIP3   OH263627   6.150   1.648   4.917  0.1858 -0.1730  0.3628
14071TIP3    H163628   6.104   1.611   4.842 -0.0819  1.7693 -0.4973
14071TIP3    H263629   6.084   1.704   4.960  1.3185  1.5810 -0.0938
14072TIP3   OH263630   2.040   6.298   5.408  0.3558  0.8016  0.6008
14072TIP3    H163631   1.969   6.358   5.433  0.9399  2.3299 -1.2425
14072TIP3    H263632   2.069   6.261   5.492 -2.1437  0.5997  1.4899
14073TIP3   OH263633   0.828   4.847  13.840 -0.0102 -0.0532  0.2545
14073TIP3    H163634   0.778   4.770  13.811 -0.2166 -0.5666  1.8809
14073TIP3    H263635   0.765   4.919  13.839  0.0576  0.0141 -0.7834
14074TIP3   OH263636   4.701   4.917  11.789  0.1300  0.2604 -0.1477
14074TIP3    H163637   4.623   4.870  11.815 -0.0423  0.5037 -0.2206
14074TIP3    H263638   4.756   4.851  11.747  0.3861 -0.1205  0.7614
14075TIP3   OH263639   3.620   0.330  13.714 -0.0028 -0.1280 -0.0700
14075TIP3    H163640   3.657   0.294  13.794  0.1120  0.1578  0.0028
14075TIP3    H263641   3.611   0.423  13.731  0.5086  0.0169 -0.5780
14076TIP3   OH263642   6.620   1.897   0.500 -0.3031  0.4283  0.5537
14076TIP3    H163643   6.569   1.910   0.420 -0.3291 -1.7612  0.1581
14076TIP3    H263644   6.707   1.932   0.478 -1.1910  2.9995  0.8000
14077TIP3   OH263645   2.763   4.549   3.249  0.1579 -0.2726 -0.1537
14077TIP3    H163646   2.772   4.570   3.342  0.7903  1.8409 -0.6526
14077TIP3    H263647   2.853   4.542   3.217  0.0408 -3.9795 -0.0753
14078TIP3   OH263648   5.268   6.538   0.316  0.6651  0.0208 -0.6786
14078TIP3    H163649   5.317   6.503   0.241  1.4977  1.6448 -0.9313
14078TIP3    H263650   5.319   6.510   0.392  0.9350  0.0749 -0.8360
14079TIP3   OH263651   0.791   2.214   3.227 -0.3450 -0.3469  0.2250
14079TIP3    H163652   0.750   2.133   3.196 -0.7250 -0.6035  1.3447
14079TIP3    H263653   0.745   2.284   3.181 -0.8699 -0.7066  0.2002
14080TIP3   OH263654   5.499   2.956  13.691 -0.1210  0.2477  0.3051
14080TIP3    H163655   5.475   3.037  13.645 -0.4482 -0.2800 -0.4879
14080TIP3    H263656   5.422   2.899  13.679  1.1710 -1.2298 -1.6477
14081TIP3   OH263657   0.209   5.111   0.067 -0.5138  0.1590  0.3082
14081TIP3    H163658   0.255   5.049   0.010 -2.0866 -1.1257  0.3581
14081TIP3    H263659   0.275   5.177   0.088  0.5823 -0.2051 -1.6615
14082TIP3   OH263660   5.852   2.664  13.891 -0.2309 -0.3315 -0.1935
14082TIP3    H163661   5.760   2.636  13.887 -0.8489  1.1583  1.7969
14082TIP3    H263662   5.861   2.727  13.819 -1.0380  0.1525  0.1147
14083TIP3   OH263663   1.310   6.182  12.336  0.2626  0.1801  0.1463
14083TIP3    H163664   1.226   6.151  12.369  1.3503 -2.8341  0.3587
14083TIP3    H263665   1.337   6.250  12.399 -2.2255  1.6858 -0.2924
14084TIP3   OH263666   4.172   1.888  11.909 -0.0745  0.3789  0.3126
14084TIP3    H163667   4.163   1.958  11.844 -2.0344  1.1544  1.3384
14084TIP3    H263668   4.087   1.883  11.952 -0.1042 -2.8246  0.1486
14085TIP3   OH263669   4.456   0.085   0.648  0.1884  0.1183 -0.2548
14085TIP3    H163670   4.492   0.040   0.572  0.1805 -1.2117  0.4988
14085TIP3    H263671   4.499   0.171   0.647  2.0457 -0.7426 -0.4092
14086TIP3   OH263672   5.296   2.152   0.876  0.0101  0.5984 -0.6559
14086TIP3    H163673   5.350   2.231   0.872 -0.4780  0.9932  0.3711
14086TIP3    H263674   5.298   2.126   0.968 -0.2031 -0.3365 -0.9012
14087TIP3   OH263675   5.257   4.507   6.014  0.1810 -0.6806  0.0453
14087TIP3    H163676   5.192   4.544   6.074  0.9679  0.3894  0.2731
14087TIP3    H263677   5.265   4.573   5.944 -0.6517 -1.8595 -1.2204
14088TIP3   OH263678   0.580   1.859   1.459  0.2268 -0.1224  0.0294
14088TIP3    H163679   0.535   1.881   1.540 -1.2378  0.9859 -1.0219
14088TIP3    H263680   0.522   1.796   1.416  0.9981 -0.7179 -0.1574
14089TIP3   OH263681   6.477   6.499   3.927 -0.1367  0.1912 -0.2358
14089TIP3    H163682   6.537   6.488   3.854  0.9496  0.7039  0.5530
14089TIP3    H263683   6.392   6.473   3.892  0.3860  0.2594 -1.6204
14090TIP3   OH263684   2.127   0.028   4.908  0.1547 -0.0727  0.0126
14090TIP3    H163685   2.117   0.053   5.000  1.3179 -1.0622  0.4264
14090TIP3    H263686   2.218   0.002   4.900 -0.5984 -2.8414 -0.6693
14091TIP3   OH263687   5.769   1.070  11.816  0.5463 -0.1788  0.5618
14091TIP3    H163688   5.753   1.038  11.727 -0.4636 -0.3672  0.7988
14091TIP3    H263689   5.690   1.118  11.839  1.3145  0.9465  0.9021
14092TIP3   OH263690   1.605   1.867  13.691  0.9054  0.6659  0.5020
14092TIP3    H163691   1.583   1.796  13.630 -0.5417  0.6417  0.9965
14092TIP3    H263692   1.548   1.939  13.664  0.7267  0.8733  1.3998
14093TIP3   OH263693   4.711   6.098  14.301  0.3892  0.4032  0.1653
14093TIP3    H163694   4.627   6.141  14.314  0.6671  1.6444 -1.6797
14093TIP3    H263695   4.690   6.005  14.292 -0.9560  0.8155 -1.4269
14094TIP3   OH263696   2.886   5.261   3.623  0.2908  0.3370 -0.1760
14094TIP3    H163697   2.934   5.226   3.549  1.8308  1.7269  0.1224
14094TIP3    H263698   2.828   5.189   3.650  0.4539 -0.5483 -2.0321
14095TIP3   OH263699   3.768   1.497  12.731  0.1307  0.1064 -0.0053
14095TIP3    H163700   3.789   1.434  12.662  1.2261 -0.6746  1.0089
14095TIP3    H263701   3.692   1.461  12.775 -0.4374  0.4959 -0.6539
14096TIP3   OH263702   5.650   1.740   0.931 -0.3030 -0.5885  0.1569
14096TIP3    H163703   5.741   1.767   0.944 -0.7363  0.5688  0.9100
14096TIP3    H263704   5.606   1.818   0.898 -0.9288 -1.2805 -0.6842
14097TIP3   OH263705   2.545   6.006   1.933 -0.2859 -0.1896 -0.1601
14097TIP3    H163706   2.576   5.979   2.020 -0.3112 -1.9693 -0.6679
14097TIP3    H263707   2.474   5.945   1.913  0.5135 -0.5870 -1.9432
14098TIP3   OH263708   3.041   4.894   1.056  0.4275  0.0438 -0.4888
14098TIP3    H163709   2.986   4.898   0.977 -0.6188  0.7954  0.2520
14098TIP3    H263710   3.120   4.943   1.032 -0.2731  1.0687 -0.7873
14099TIP3   OH263711   4.654   3.044  11.089  0.3096  0.5067  0.0919
14099TIP3    H163712   4.721   3.103  11.125 -0.3819  1.6873 -0.4733
14099TIP3    H263713   4.606   3.099  11.027  0.1611 -0.8998 -1.0789
14100TIP3   OH263714   1.584   5.949   1.680  0.1649  0.2727  0.6477
14100TIP3    H163715   1.585   5.856   1.704 -0.4300  0.3100  0.8430
14100TIP3    H263716   1.607   5.995   1.761  0.9524  0.2752  0.4247
14101TIP3   OH263717   1.685   2.273   4.157 -0.1071  0.4990 -0.2549
14101TIP3    H163718   1.772   2.239   4.180 -0.2913 -0.1111 -0.4322
14101TIP3    H263719   1.696   2.307   4.068 -0.5215 -1.4393 -1.0996
14102TIP3   OH263720   3.183   2.162  13.564  0.2987  0.2212 -0.0643
14102TIP3    H163721   3.218   2.109  13.492  1.0781  0.0150  0.4538
14102TIP3    H263722   3.238   2.140  13.639  1.5619  2.7427 -0.1335
14103TIP3   OH263723   2.855   5.477  14.000  0.4451  0.9065 -0.8316
14103TIP3    H163724   2.873   5.391  13.963 -0.1741  1.5403 -2.7016
14103TIP3    H263725   2.911   5.482  14.078 -1.5999 -2.3061  1.0591
14104TIP3   OH263726   1.082   1.421  16.047  0.2856  0.0289 -0.1857
14104TIP3    H163727   1.043   1.459  16.126  1.6170  0.0759  0.4733
14104TIP3    H263728   1.068   1.327  16.056 -3.6882  0.2125 -2.1791
14105TIP3   OH263729   6.184   4.476  13.963  0.3499  0.5897  0.3761
14105TIP3    H163730   6.130   4.497  14.039 -1.1217  1.3202 -0.8315
14105TIP3    H263731   6.186   4.381  13.960  0.1695  0.5587  1.1514
14106TIP3   OH263732   2.308   6.674  16.494 -0.5804 -0.1821  0.0951
14106TIP3    H163733   2.221   6.642  16.471 -0.6067 -1.1132  1.4004
14106TIP3    H263734   2.330   6.736  16.424 -1.7710 -0.8399 -0.8919
14107TIP3   OH263735   3.980   5.439   1.065 -0.0506 -0.2566 -0.6754
14107TIP3    H163736   3.911   5.373   1.055  0.4274 -0.6739 -1.3766
14107TIP3    H263737   4.047   5.413   1.001 -0.3185  1.5268 -1.7531
14108TIP3   OH263738   3.177   6.534   0.924 -0.2274  0.4969 -0.2716
14108TIP3    H163739   3.242   6.564   0.987 -0.1498 -0.4333  0.0939
14108TIP3    H263740   3.178   6.439   0.931 -2.0710  0.4829  0.1870
14109TIP3   OH263741   1.649   3.750   1.556 -0.3268  0.3070  0.5930
14109TIP3    H163742   1.587   3.805   1.604 -0.2315  2.6163 -1.7008
14109TIP3    H263743   1.729   3.802   1.551  1.3066 -1.8969  1.9814
14110TIP3   OH263744   4.839   1.139  12.142  0.4828 -0.4489  0.3455
14110TIP3    H163745   4.799   1.052  12.146  0.3709 -0.4050  0.1669
14110TIP3    H263746   4.796   1.187  12.213 -0.5678 -0.0745 -0.5261
14111TIP3   OH263747   1.194   0.905  12.042 -0.2821  0.2958 -0.2062
14111TIP3    H163748   1.160   0.891  11.953  1.3450  1.8425 -1.1300
14111TIP3    H263749   1.259   0.836  12.054 -0.8527 -0.2156 -0.0046
14112TIP3   OH263750   1.352   0.443  12.282 -0.0261 -0.3559 -0.5292
14112TIP3    H163751   1.431   0.430  12.230  0.5461 -1.5813  0.5797
14112TIP3    H263752   1.290   0.380  12.246  0.2718 -0.9949  0.0563
14113TIP3   OH263753   5.411   3.377   1.828 -0.1595 -0.4543  0.0762
14113TIP3    H163754   5.378   3.337   1.909 -2.6130  0.9434 -0.1346
14113TIP3    H263755   5.399   3.309   1.761  0.6970 -1.1620  0.6064
14114TIP3   OH263756   4.936   1.090   3.424 -0.3445 -0.0452  0.4518
14114TIP3    H163757   4.981   1.130   3.499 -0.1983 -2.3440  1.7060
14114TIP3    H263758   4.845   1.083   3.452 -0.4959  0.0628 -0.0163
14115TIP3   OH263759   0.343   4.797  15.225  0.1316 -0.0847 -0.3303
14115TIP3    H163760   0.280   4.867  15.240  0.2554 -0.1880  0.7423
14115TIP3    H263761   0.304   4.720  15.267  0.6481 -0.3155 -0.2615
14116TIP3   OH263762   1.772   3.292   1.694 -0.5493 -0.5196 -0.2430
14116TIP3    H163763   1.793   3.358   1.629 -0.4755  0.2261  0.5179
14116TIP3    H263764   1.686   3.259   1.668 -1.8440  1.7915  0.8231
14117TIP3   OH263765   1.387   0.183   0.042  0.0696  0.5768 -0.3294
14117TIP3    H163766   1.443   0.106   0.052 -1.1970 -0.3872 -0.4189
14117TIP3    H263767   1.441   0.246  -0.006  1.1192 -0.2592 -0.2810
14118TIP3   OH263768   6.518   0.871   0.855  0.2224 -0.5790  0.1119
14118TIP3    H163769   6.532   0.805   0.923  1.0603 -2.4986 -1.8171
14118TIP3    H263770   6.537   0.826   0.773 -0.5004  1.7120 -1.4205
14119TIP3   OH263771   6.004   4.125  10.685 -0.3065 -0.5990  0.3184
14119TIP3    H163772   5.915   4.144  10.715 -1.1116 -1.6025 -1.3136
14119TIP3    H263773   6.006   4.156  10.594  0.9428 -0.8334  0.2442
14120TIP3   OH263774   6.043   5.894   6.320  0.4454 -0.1760  0.0671
14120TIP3    H163775   6.016   5.803   6.316  0.9409 -0.4779  2.2600
14120TIP3    H263776   5.962   5.943   6.333  0.2186 -0.3312 -0.7464
14121TIP3   OH263777   3.336   2.357   5.740  0.0807  0.2250  0.2048
14121TIP3    H163778   3.417   2.305   5.739  0.4358  0.6834 -2.4042
14121TIP3    H263779   3.363   2.444   5.709 -1.5676 -0.0331 -2.2455
14122TIP3   OH263780   3.260   1.083   6.522 -0.0221 -0.1669 -0.4084
14122TIP3    H163781   3.219   0.997   6.522  1.1618 -0.7797 -1.7413
14122TIP3    H263782   3.200   1.139   6.473 -0.5972 -0.3194  0.1065
14123TIP3   OH263783   0.771   0.278  15.359  0.3332 -0.8500  0.0354
14123TIP3    H163784   0.676   0.287  15.368  0.2028 -1.2181 -0.8517
14123TIP3    H263785   0.796   0.342  15.293  0.7512 -0.5755  0.4464
14124TIP3   OH263786   5.695   3.313  13.401 -0.4796 -0.2713  0.5915
14124TIP3    H163787   5.710   3.270  13.316  0.2154  0.7673  0.1736
14124TIP3    H263788   5.608   3.350  13.394 -0.5468 -0.4521  0.4459
14125TIP3   OH263789   3.104   2.562   1.140  0.5906  0.7771  0.0225
14125TIP3    H163790   3.100   2.472   1.172  0.8318  0.8357  0.2191
14125TIP3    H263791   3.161   2.607   1.202 -1.2362  1.5783  1.2087
14126TIP3   OH263792   4.763   4.156   2.552 -0.1300  0.5953  0.0298
14126TIP3    H163793   4.830   4.088   2.565  1.9674  1.6514 -3.7679
14126TIP3    H263794   4.681   4.108   2.552  1.0519 -1.5893  0.0897
14127TIP3   OH263795   2.880   1.098  16.265  0.2824 -0.2352 -0.2752
14127TIP3    H163796   2.859   1.012  16.227  0.1889 -0.1723 -0.3683
14127TIP3    H263797   2.798   1.146  16.261  0.1264 -0.4190  0.5339
14128TIP3   OH263798   3.565   3.498  14.698 -0.0871 -0.3013  0.5169
14128TIP3    H163799   3.596   3.435  14.632 -1.7396  1.9254 -2.6567
14128TIP3    H263800   3.475   3.470  14.716 -0.5661  0.6434 -0.3257
14129TIP3   OH263801   4.953   2.058  10.982 -0.6908 -0.0763 -0.0066
14129TIP3    H163802   4.923   2.071  10.892 -0.7125 -0.1417 -0.0090
14129TIP3    H263803   4.873   2.043  11.032 -0.5669 -1.9152 -0.2863
14130TIP3   OH263804   2.805   6.433  16.725 -0.2142 -0.6546 -0.0165
14130TIP3    H163805   2.869   6.404  16.660 -1.0626  0.7571 -1.5327
14130TIP3    H263806   2.725   6.449  16.676 -0.6505  1.2871  1.1947
14131TIP3   OH263807   0.734   4.209  15.337  0.1493 -0.1475  0.1182
14131TIP3    H163808   0.683   4.215  15.417  2.3920 -1.5589  1.7611
14131TIP3    H263809   0.802   4.276  15.346  2.1108 -2.1123  0.8135
14132TIP3   OH263810   3.679   4.976  14.495  0.4289 -0.4023 -0.1773
14132TIP3    H163811   3.644   4.970  14.584  0.8535 -0.9549 -0.0494
14132TIP3    H263812   3.730   5.057  14.495  0.7905 -0.6296  0.2072
14133TIP3   OH263813   5.473   6.034   1.290 -0.5044 -0.4325  0.1362
14133TIP3    H163814   5.518   5.993   1.216  0.6309  0.0842  0.5292
14133TIP3    H263815   5.470   5.966   1.357  1.1228 -0.0155  0.6829
14134TIP3   OH263816   6.584   5.843  14.201  0.1692 -0.3568  0.1011
14134TIP3    H163817   6.660   5.887  14.162  0.7175 -0.8973  0.5396
14134TIP3    H263818   6.612   5.823  14.290 -0.6191 -0.2512  0.3812
14135TIP3   OH263819   2.023   5.207   3.470 -0.0652 -0.1525 -0.1741
14135TIP3    H163820   2.055   5.281   3.419 -1.0026  1.8838  1.9917
14135TIP3    H263821   1.958   5.166   3.414 -0.8126  1.7885 -0.8108
14136TIP3   OH263822   2.457   2.272   0.453 -0.3262 -0.0874 -0.5609
14136TIP3    H163823   2.365   2.257   0.430 -1.1480  0.2603  2.0934
14136TIP3    H263824   2.454   2.300   0.545  2.4812 -0.6191 -0.2189
14137TIP3   OH263825   0.419   4.150  16.397  0.5465 -0.0756 -0.2242
14137TIP3    H163826   0.513   4.150  16.413  0.4309 -1.6860  0.7172
14137TIP3    H263827   0.389   4.064  16.429 -1.1629  0.2018 -0.9462
14138TIP3   OH263828   0.302   6.202   5.127 -0.0148 -0.5760  0.0559
14138TIP3    H163829   0.249   6.123   5.134 -1.2116  0.2739  0.7653
14138TIP3    H263830   0.380   6.183   5.180  0.2442 -1.6852 -0.6862
14139TIP3   OH263831   6.686   5.369  11.298  0.4576 -0.3284 -0.7343
14139TIP3    H163832   6.646   5.431  11.359  1.7249  0.6146 -0.8246
14139TIP3    H263833   6.708   5.422  11.221 -0.3824 -1.3365 -1.7046
14140TIP3   OH263834   5.556   2.762   5.204  0.8565 -0.2914  0.5716
14140TIP3    H163835   5.540   2.670   5.184  2.0319 -0.4039  0.0258
14140TIP3    H263836   5.476   2.807   5.178  0.5895 -1.0613  0.0374
14141TIP3   OH263837   3.675   3.169   2.529 -0.6241 -0.7975 -0.1608
14141TIP3    H163838   3.712   3.082   2.515 -0.9392 -0.9474 -0.0797
14141TIP3    H263839   3.689   3.216   2.447 -1.0341 -1.1408 -0.4291
14142TIP3   OH263840   3.215   2.962   1.040  0.1866 -0.0397  0.6848
14142TIP3    H163841   3.184   3.044   1.001 -0.6687 -0.5057  0.3596
14142TIP3    H263842   3.271   2.990   1.113  1.2370  0.8409 -0.4118
14143TIP3   OH263843   4.865   1.792   1.713 -0.4468  0.7782 -0.1339
14143TIP3    H163844   4.945   1.769   1.665  1.3434  0.7626  2.6140
14143TIP3    H263845   4.870   1.887   1.723 -0.2503  0.6799  0.8154
14144TIP3   OH263846   1.916   5.464  14.665  0.5066  0.4993 -0.0328
14144TIP3    H163847   1.919   5.384  14.718  0.4634  0.9096  0.6006
14144TIP3    H263848   1.929   5.535  14.728 -1.4442  1.1196 -0.2711
14145TIP3   OH263849   2.486   1.854   0.451  0.0563  0.1143 -0.0742
14145TIP3    H163850   2.448   1.860   0.538  0.0737  2.8050 -0.1840
14145TIP3    H263851   2.419   1.812   0.398 -0.5817 -0.1019  0.8859
14146TIP3   OH263852   1.730   0.909  12.905 -0.0603  0.3141  0.6616
14146TIP3    H163853   1.719   1.001  12.931  1.4842  0.7495 -0.0899
14146TIP3    H263854   1.755   0.864  12.985  0.0688  0.7354  0.8622
14147TIP3   OH263855   5.407   3.475  15.500  0.3556 -0.4156 -0.3741
14147TIP3    H163856   5.431   3.485  15.592 -0.9089  0.4772 -0.1216
14147TIP3    H263857   5.487   3.498  15.452  0.6833  0.2752  0.4729
14148TIP3   OH263858   0.263   5.857   1.136 -0.7211 -0.0388  0.4289
14148TIP3    H163859   0.178   5.888   1.104 -1.1139 -0.0377  1.4340
14148TIP3    H263860   0.317   5.852   1.058 -1.4154  0.7124 -0.1239
14149TIP3   OH263861   3.694   6.506  11.893 -0.1566  0.6204  0.2093
14149TIP3    H163862   3.610   6.489  11.851  0.0910 -0.7487  0.2182
14149TIP3    H263863   3.685   6.469  11.981  0.0794  1.4806  0.6084
14150TIP3   OH263864   6.258   3.842   5.136  0.3184  0.2486  0.9226
14150TIP3    H163865   6.346   3.818   5.166  0.4056 -0.4917  0.1093
14150TIP3    H263866   6.214   3.758   5.124  0.6037  0.4386 -1.9857
14151TIP3   OH263867   6.497   0.103   0.270 -0.8650 -0.2150 -0.0003
14151TIP3    H163868   6.554   0.105   0.347  0.7684 -1.5871 -1.1059
14151TIP3    H263869   6.433   0.035   0.290 -1.1022  0.1583  0.5555
14152TIP3   OH263870   3.134   5.692  14.762  0.4172 -0.4388  0.1891
14152TIP3    H163871   3.178   5.733  14.837  1.0477 -0.1855 -0.3110
14152TIP3    H263872   3.204   5.644  14.717  0.7180  1.6906 -1.8215
14153TIP3   OH263873   4.829   1.117   0.074 -0.5568 -0.5167 -0.4949
14153TIP3    H163874   4.874   1.081   0.150 -0.7675 -1.5358 -0.8214
14153TIP3    H263875   4.834   1.212   0.084  1.2930 -0.6059 -0.3144
14154TIP3   OH263876   2.004   3.363   1.235 -0.2748 -0.3037  0.9938
14154TIP3    H163877   1.984   3.335   1.146 -1.8602 -0.9657  1.5142
14154TIP3    H263878   1.961   3.449   1.244  0.7896  0.2704  0.8093
14155TIP3   OH263879   4.598   5.165   4.953 -0.0624 -0.8977  0.5564
14155TIP3    H163880   4.671   5.153   5.014 -0.5818  0.6254  1.5137
14155TIP3    H263881   4.617   5.103   4.882  2.4923 -0.1240  0.4524
14156TIP3   OH263882   0.278   5.497   5.504  0.7131 -0.4114  0.2835
14156TIP3    H163883   0.253   5.517   5.594 -0.9345  0.1490 -0.2495
14156TIP3    H263884   0.310   5.580   5.469  1.7850 -0.7364  0.4729
14157TIP3   OH263885   1.550   1.797  12.315 -0.7923  0.2923 -0.1549
14157TIP3    H163886   1.592   1.712  12.303 -0.4441  0.5610 -0.9145
14157TIP3    H263887   1.620   1.861  12.300 -1.4928  0.7582 -1.6680
14158TIP3   OH263888   2.624   0.908   5.621  0.0221 -0.0180  0.4767
14158TIP3    H163889   2.581   0.852   5.556  0.5902 -1.3510  1.2285
14158TIP3    H263890   2.565   0.908   5.696  0.1670  0.1539  0.5908
14159TIP3   OH263891   4.183   4.933  15.086 -0.1787 -0.6511 -0.5255
14159TIP3    H163892   4.093   4.942  15.056  0.0573 -0.7851 -1.2888
14159TIP3    H263893   4.232   4.908  15.008  0.4871 -0.7804 -0.0747
14160TIP3   OH263894   1.227   1.811  14.883  0.2674  0.6238 -0.4257
14160TIP3    H163895   1.322   1.824  14.871  0.1879  0.6139 -1.0947
14160TIP3    H263896   1.189   1.896  14.860 -0.0267  0.1017 -2.0267
14161TIP3   OH263897   3.519   1.183   1.799 -0.4036  0.3172 -0.0204
14161TIP3    H163898   3.502   1.197   1.706 -1.0249  0.8629  0.1676
14161TIP3    H263899   3.585   1.249   1.822 -1.4448  1.2808  0.2834
14162TIP3   OH263900   0.570   3.957   3.906 -0.1893 -0.3813 -0.2091
14162TIP3    H163901   0.536   4.036   3.863  0.7087  0.1104 -0.0397
14162TIP3    H263902   0.562   3.888   3.840  1.9332  0.5262 -1.5303
14163TIP3   OH263903   4.090   5.645  13.789 -0.2610 -0.3160 -0.2607
14163TIP3    H163904   4.143   5.569  13.769 -0.2460 -0.2965 -0.2955
14163TIP3    H263905   4.133   5.717  13.743  1.1567  0.2096  1.7435
14164TIP3   OH263906   1.019   3.507  15.865 -0.0288 -0.1173  0.2364
14164TIP3    H163907   1.010   3.578  15.929  1.0604 -0.4577  0.7879
14164TIP3    H263908   0.933   3.464  15.865 -1.2342  2.0579 -1.2077
14165TIP3   OH263909   4.921   5.566   2.167 -0.6247  0.0217  0.3509
14165TIP3    H163910   4.954   5.602   2.249 -0.2456 -0.5493  0.4549
14165TIP3    H263911   4.883   5.481   2.191  0.0118 -0.4112 -0.1486
14166TIP3   OH263912   5.303   2.854   1.499 -0.1502 -0.0941 -0.6250
14166TIP3    H163913   5.333   2.865   1.408  0.2369  3.5240 -0.2079
14166TIP3    H263914   5.375   2.888   1.552 -0.9444 -0.8224  0.9956
14167TIP3   OH263915   0.603   2.798  11.033  0.4859 -0.0388  1.2008
14167TIP3    H163916   0.625   2.784  10.941  0.5208  0.3814  1.1420
14167TIP3    H263917   0.567   2.715  11.062 -0.2111  0.0430  0.6018
14168TIP3   OH263918   0.227   2.343  12.570  1.0791 -0.0858  0.1842
14168TIP3    H163919   0.133   2.357  12.583  1.0769  0.6316 -0.5534
14168TIP3    H263920   0.261   2.428  12.540  1.8770 -0.4547  0.0034
14169TIP3   OH263921   2.992   6.529  13.953 -0.4251  0.0820 -0.4226
14169TIP3    H163922   2.929   6.555  13.886  0.2500  0.4162 -0.9487
14169TIP3    H263923   3.077   6.533  13.909  0.0969  0.8602  0.5996
14170TIP3   OH263924   1.904   5.905   1.239 -0.0457  0.1621 -0.0632
14170TIP3    H163925   1.862   5.846   1.176  1.7469 -1.8425  0.4890
14170TIP3    H263926   1.845   5.908   1.313 -0.9008  0.3448 -0.7384
14171TIP3   OH263927   1.961   5.620   1.650  0.3680 -0.4068  0.0726
14171TIP3    H163928   2.037   5.569   1.621  0.1449 -1.0152  0.5218
14171TIP3    H263929   1.901   5.618   1.576  0.7183 -0.0596 -0.2271
14172TIP3   OH263930   3.640   5.253   4.671  0.3031  0.5872  0.5988
14172TIP3    H163931   3.601   5.169   4.644  2.0901  0.3937 -1.7062
14172TIP3    H263932   3.723   5.257   4.623  0.1163  3.8397  0.3651
14173TIP3   OH263933   5.593   4.154  14.401  0.1571  0.0129  0.0701
14173TIP3    H163934   5.574   4.233  14.452 -1.3131  0.1507 -0.6269
14173TIP3    H263935   5.513   4.138  14.351 -0.4292 -3.1409  1.7485
14174TIP3   OH263936   0.141   4.829   1.782  0.1063 -0.0698  0.1098
14174TIP3    H163937   0.098   4.757   1.828 -0.7315 -0.7042 -1.5937
14174TIP3    H263938   0.088   4.906   1.802  1.1247  0.1788  2.1153
14175TIP3   OH263939   3.966   0.623   1.546 -0.1020 -0.0665  0.0236
14175TIP3    H163940   3.882   0.607   1.589 -1.3221  0.2640 -2.0969
14175TIP3    H263941   3.952   0.703   1.495  0.1834 -1.9881 -3.3751
14176TIP3   OH263942   6.220   0.545   0.858 -0.0082  0.2132 -0.0865
14176TIP3    H163943   6.195   0.455   0.836 -1.2443  0.3768  0.5981
14176TIP3    H263944   6.139   0.595   0.852  0.2577  0.8876  1.5639
14177TIP3   OH263945   1.062   2.819  16.921  0.2804 -1.0024 -0.0735
14177TIP3    H163946   1.068   2.838  16.828 -0.7333  0.3171  0.0940
14177TIP3    H263947   1.079   2.725  16.928 -0.4737 -1.2851 -1.6639
14178TIP3   OH263948   5.540   1.862  15.100  0.0012  0.5219 -0.1884
14178TIP3    H163949   5.480   1.799  15.139  0.4989  0.5223  0.5962
14178TIP3    H263950   5.524   1.943  15.148  1.1645  0.3232  0.5732
14179TIP3   OH263951   1.509   3.404  15.951 -0.5032 -0.5375  0.0157
14179TIP3    H163952   1.563   3.481  15.935 -0.4447 -0.5743  0.0375
14179TIP3    H263953   1.534   3.374  16.039  0.1428 -1.1294 -0.3640
14180TIP3   OH263954   6.752   3.790   5.450  0.3593 -0.4052  0.8070
14180TIP3    H163955   6.806   3.813   5.526  2.4848  0.7368 -0.9562
14180TIP3    H263956   6.701   3.869   5.432  2.1189  0.4470 -0.7217
14181TIP3   OH263957   2.370   1.696  15.826  0.4135 -0.2359 -0.2580
14181TIP3    H163958   2.407   1.741  15.750  1.4954 -0.3006  0.2228
14181TIP3    H263959   2.333   1.615  15.790  1.0085 -0.3174 -0.6946
14182TIP3   OH263960   4.441   0.219  13.349 -0.8261 -0.0063  0.1156
14182TIP3    H163961   4.436   0.132  13.388 -0.1337 -0.1368 -0.0785
14182TIP3    H263962   4.463   0.277  13.421  0.7310 -0.2855 -0.1034
14183TIP3   OH263963   5.358   5.993   3.112  0.2150 -0.2769 -0.0140
14183TIP3    H163964   5.441   6.016   3.070 -0.0354  2.7470  0.8878
14183TIP3    H263965   5.296   5.985   3.039  0.4082  1.9646 -0.4977
14184TIP3   OH263966   4.373   5.629   1.775 -0.1792 -0.8014  0.0255
14184TIP3    H163967   4.432   5.642   1.701  2.2178 -1.9887  1.6146
14184TIP3    H263968   4.431   5.613   1.849 -2.5263 -2.0112  1.7062
14185TIP3   OH263969   5.837   6.774  13.286 -0.6711  0.6211  0.4288
14185TIP3    H163970   5.835   6.683  13.315  1.3371  0.2153 -0.5128
14185TIP3    H263971   5.796   6.773  13.200 -0.2208  0.4890  0.2092
14186TIP3   OH263972   4.010   3.439   2.419 -0.1542 -0.6279 -0.1119
14186TIP3    H163973   4.079   3.484   2.370 -0.8812 -1.5428 -2.1152
14186TIP3    H263974   3.929   3.482   2.391 -0.4698  0.3268  2.0797
14187TIP3   OH263975   1.056   1.512   2.234 -0.2978  0.0663 -0.6040
14187TIP3    H163976   0.992   1.492   2.166 -0.4655  0.3117 -0.5197
14187TIP3    H263977   1.119   1.440   2.230  0.9433  1.1897 -2.5168
14188TIP3   OH263978   1.695   3.034  12.416  0.5018  0.0590 -0.1336
14188TIP3    H163979   1.733   3.116  12.448 -1.1361  0.3429  1.2464
14188TIP3    H263980   1.635   3.060  12.347  0.5789 -0.0596 -0.2463
14189TIP3   OH263981   0.227   5.306  16.165  0.5336 -0.0267 -0.0340
14189TIP3    H163982   0.219   5.213  16.143 -0.9638  0.0739 -0.0143
14189TIP3    H263983   0.306   5.334  16.119  1.2741 -1.3974  0.3157
14190TIP3   OH263984   5.477   0.797   2.885  0.0304  0.6782 -0.1295
14190TIP3    H163985   5.550   0.820   2.942  1.8204 -2.6463 -0.8136
14190TIP3    H263986   5.404   0.779   2.945  0.6132  1.2978  0.7855
14191TIP3   OH263987   4.227   4.025  11.668  0.6245  0.0344 -0.0825
14191TIP3    H163988   4.291   3.977  11.615  0.4952 -0.6991  0.4216
14191TIP3    H263989   4.261   4.022  11.757  0.1016  0.0069  0.1214
14192TIP3   OH263990   0.963   5.406  15.885  0.2816 -0.4445 -0.1931
14192TIP3    H163991   0.899   5.458  15.836 -0.4715 -1.4846 -0.3484
14192TIP3    H263992   0.984   5.460  15.961  1.5695  1.2747 -1.6522
14193TIP3   OH263993   6.663   2.982  11.532 -0.2773 -0.5102  0.0553
14193TIP3    H163994   6.571   2.999  11.550  0.2659  2.0132  0.8507
14193TIP3    H263995   6.708   3.011  11.612  1.2830 -0.6344 -0.7449
14194TIP3   OH263996   2.599   4.288  13.489 -0.4362 -0.5688 -0.0987
14194TIP3    H163997   2.689   4.308  13.513 -0.1448 -1.1819 -0.6740
14194TIP3    H263998   2.570   4.365  13.439 -0.4041 -0.1554  0.5104
14195TIP3   OH263999   0.519   6.397   3.027 -0.7066 -0.5661 -0.0591
14195TIP3    H164000   0.585   6.328   3.017 -1.2427 -1.2799  1.1294
14195TIP3    H264001   0.508   6.433   2.939 -0.1328 -1.7355 -0.6279
14196TIP3   OH264002   4.945   0.905  16.456 -0.2319  0.1419 -0.4558
14196TIP3    H164003   4.918   0.815  16.438  0.8663 -0.6913  1.6550
14196TIP3    H264004   5.019   0.920  16.397  0.8857 -1.1247  0.5625
14197TIP3   OH264005   5.408   3.490  12.472 -0.2568 -0.2820 -0.5813
14197TIP3    H164006   5.480   3.469  12.532 -0.6713  0.6343  0.2792
14197TIP3    H264007   5.349   3.415  12.477 -1.5684  0.7806  2.1988
14198TIP3   OH264008   3.637   1.408  13.286  0.0640  0.0671 -0.0956
14198TIP3    H164009   3.661   1.443  13.372 -1.9157 -0.0645  0.5607
14198TIP3    H264010   3.681   1.323  13.282  0.1850  0.0773  0.7914
14199TIP3   OH264011   4.138   4.543   2.930 -0.5604 -0.5901  0.1743
14199TIP3    H164012   4.143   4.619   2.987  3.7806 -0.5540  0.1139
14199TIP3    H264013   4.086   4.479   2.978  0.6650  0.3929  3.0056
14200TIP3   OH264014   4.995   5.143   4.126  0.2127 -0.1808  0.0501
14200TIP3    H164015   4.955   5.149   4.040  0.3507  0.2639  0.0142
14200TIP3    H264016   4.933   5.091   4.178 -0.4573  0.5543  0.0139
14201TIP3   OH264017   2.659   1.218   5.874  0.3226  0.0954  0.0102
14201TIP3    H164018   2.652   1.129   5.839 -0.3248  0.0098  0.3562
14201TIP3    H264019   2.691   1.206   5.963 -2.2308  0.0199  0.9853
14202TIP3   OH264020   1.518   1.755  15.606 -0.2003  0.3298 -0.2506
14202TIP3    H164021   1.545   1.672  15.567 -0.2956  0.5227 -0.7281
14202TIP3    H264022   1.427   1.740  15.632  0.0755 -0.0264  0.5465
14203TIP3   OH264023   6.759   3.964   0.325 -0.5950 -0.0998  0.0977
14203TIP3    H164024   6.708   4.041   0.299 -1.6302 -1.5040 -2.3745
14203TIP3    H264025   6.850   3.989   0.309 -0.9194  0.5970 -0.7466
14204TIP3   OH264026   4.454   2.612  12.422 -0.7367 -0.0806  0.1960
14204TIP3    H164027   4.462   2.604  12.327  0.6784 -0.2266  0.3073
14204TIP3    H264028   4.406   2.694  12.435 -1.3841 -0.3085 -0.6379
14205TIP3   OH264029   1.818   3.715   4.192  0.5416 -0.0300 -0.4582
14205TIP3    H164030   1.822   3.619   4.189  1.2653 -0.0810  1.1769
14205TIP3    H264031   1.809   3.741   4.101 -3.0685 -1.7529 -0.7770
14206TIP3   OH264032   3.348   4.396  11.160  0.3068 -0.2922  0.6723
14206TIP3    H164033   3.370   4.443  11.080  1.4276  0.2882  1.2931
14206TIP3    H264034   3.348   4.463  11.228  0.6203 -0.9745  1.3624
14207TIP3   OH264035   1.962   0.608  12.358 -0.0791 -0.0684  0.1512
14207TIP3    H164036   2.015   0.547  12.306 -0.2187  0.7716 -1.0032
14207TIP3    H264037   2.025   0.670  12.393 -0.3314  1.4035 -1.8733
14208TIP3   OH264038   6.769   4.854  15.268 -0.2378 -0.4436 -0.0168
14208TIP3    H164039   6.746   4.936  15.313  0.6524  0.1291 -0.5552
14208TIP3    H264040   6.723   4.858  15.185  1.7768  0.7854 -1.1702
14209TIP3   OH264041   3.028   6.292  10.585 -0.0281  0.0823  0.1509
14209TIP3    H164042   2.951   6.249  10.624 -1.5167  0.3917 -2.2267
14209TIP3    H264043   3.066   6.225  10.528  0.9957  0.2058  0.6727
14210TIP3   OH264044   1.388   5.244   4.672  0.2734  0.0361 -0.0534
14210TIP3    H164045   1.361   5.335   4.662 -1.4176 -0.4964 -0.7971
14210TIP3    H264046   1.476   5.248   4.710 -0.2120  1.9549  0.9967
14211TIP3   OH264047   0.783   3.979   6.326  0.4912 -0.1650  0.4589
14211TIP3    H164048   0.717   3.917   6.296 -0.9292  1.5921 -0.1978
14211TIP3    H264049   0.857   3.967   6.266  0.8416 -2.1718  1.2306
14212TIP3   OH264050   1.087   2.961  15.369 -0.9316 -0.1604  0.0469
14212TIP3    H164051   1.152   2.909  15.322 -1.9569  0.2483 -1.8892
14212TIP3    H264052   1.014   2.971  15.308 -1.8252  1.4058  1.2817
14213TIP3   OH264053   0.879   0.326   1.661 -0.8846 -0.6173 -0.0809
14213TIP3    H164054   0.901   0.235   1.641  0.8330 -0.5746  1.3620
14213TIP3    H264055   0.809   0.320   1.725  1.0202 -1.0946  2.1051
14214TIP3   OH264056   5.890   6.605   2.052  0.7710 -0.0932  0.1871
14214TIP3    H164057   5.874   6.699   2.051  0.1319 -0.1494 -2.1989
14214TIP3    H264058   5.808   6.566   2.023  1.5269 -1.2494 -0.5060
14215TIP3   OH264059   3.090   0.447  16.743  0.3551 -0.5398 -0.5537
14215TIP3    H164060   3.177   0.437  16.704 -0.1256 -0.4014 -1.6846
14215TIP3    H264061   3.079   0.541  16.755  0.0524 -0.4991 -1.1371
14216TIP3   OH264062   6.336   2.223   0.075  0.5095  0.3500  0.1868
14216TIP3    H164063   6.406   2.278   0.110  1.2313 -0.6237  0.3304
14216TIP3    H264064   6.259   2.247   0.126  0.6285  1.7463 -0.2625
14217TIP3   OH264065   2.697   5.635  16.721  0.0990  0.2892  0.7222
14217TIP3    H164066   2.719   5.567  16.784  0.4298  0.8046  1.1761
14217TIP3    H264067   2.697   5.716  16.772  0.5984  0.7425  0.0229
14218TIP3   OH264068   5.786   4.952  13.161 -0.1814 -0.5179 -0.2526
14218TIP3    H164069   5.753   5.019  13.101  1.2605  0.9515  0.4961
14218TIP3    H264070   5.767   4.986  13.248  0.4133 -1.1600  0.1438
14219TIP3   OH264071   1.466   4.882  14.686  0.0181  0.3807  0.1519
14219TIP3    H164072   1.532   4.816  14.667  0.0946  0.6182 -0.4406
14219TIP3    H264073   1.496   4.961  14.640 -0.2398  0.7349  0.5761
14220TIP3   OH264074   4.713   0.840   0.209  0.2623 -0.2677  0.1987
14220TIP3    H164075   4.667   0.827   0.292 -0.0613  0.1078  0.0759
14220TIP3    H264076   4.795   0.884   0.234  0.2133 -0.2492  0.3294
14221TIP3   OH264077   2.790   6.183  10.959  0.3473  0.0642  0.1346
14221TIP3    H164078   2.813   6.180  10.867 -0.4980 -1.0500 -0.0690
14221TIP3    H264079   2.707   6.231  10.962  0.7716  0.7947  0.4157
14222TIP3   OH264080   4.188   6.742   0.177  0.1175  0.1288  0.5327
14222TIP3    H164081   4.097   6.742   0.206  0.2032  1.8236  0.9122
14222TIP3    H264082   4.184   6.770   0.086 -0.0689 -4.3075 -1.1017
14223TIP3   OH264083   0.440   2.703   2.346 -0.4047 -0.0511  0.1843
14223TIP3    H164084   0.388   2.712   2.266  0.1644 -0.3825 -0.2329
14223TIP3    H264085   0.527   2.679   2.315  0.0966  0.8765  0.8560
14224TIP3   OH264086   2.514   0.916   5.900  0.3233  0.5934 -0.0719
14224TIP3    H164087   2.577   0.946   5.966 -0.2200  0.3326  0.5740
14224TIP3    H264088   2.442   0.880   5.951  1.0074 -1.9806 -0.7693
14225TIP3   OH264089   5.180   2.645  16.482 -0.1755  0.0647 -0.0746
14225TIP3    H164090   5.215   2.647  16.571  2.8612  2.3504 -1.1356
14225TIP3    H264091   5.129   2.726  16.475 -1.2362 -0.5961 -0.1691
14226TIP3   OH264092   5.830   5.135  11.166  0.2774  0.6345 -0.1555
14226TIP3    H164093   5.777   5.148  11.088  1.1140  0.4746 -0.7694
14226TIP3    H264094   5.768   5.109  11.234 -0.6150  1.8062 -0.4803
14227TIP3   OH264095   6.337   5.371   3.077  0.2612 -0.1223 -0.1980
14227TIP3    H164096   6.394   5.370   3.000 -1.1407 -2.1687 -1.3116
14227TIP3    H264097   6.258   5.416   3.048  0.9046  1.9841  1.0954
14228TIP3   OH264098   3.904   3.582  16.178  0.1708  0.5915 -0.8965
14228TIP3    H164099   3.918   3.672  16.206  0.1956  1.4681 -3.4581
14228TIP3    H264100   3.811   3.565  16.196  0.0159  1.3459 -0.9686
14229TIP3   OH264101   1.971   4.952  12.729 -0.2209 -0.3639  0.1605
14229TIP3    H164102   2.009   4.966  12.642  0.0035  1.2837  0.4963
14229TIP3    H264103   1.879   4.973  12.719 -0.1199  0.2033  0.4035
14230TIP3   OH264104   5.727   4.504   0.783  0.2663  0.4682  0.1444
14230TIP3    H164105   5.786   4.575   0.808 -0.4103  1.0146  0.2358
14230TIP3    H264106   5.651   4.549   0.744  0.3967 -0.2712 -0.9995
14231TIP3   OH264107   6.756   0.802   2.165 -0.0512 -0.5965 -0.2810
14231TIP3    H164108   6.823   0.775   2.101 -1.7226  0.6781 -2.6869
14231TIP3    H264109   6.679   0.749   2.142 -0.1494 -1.5661  2.0327
14232TIP3   OH264110   3.859   0.117  16.143  0.0417 -0.3905 -0.1503
14232TIP3    H164111   3.829   0.026  16.151 -0.1255 -0.5122 -1.8871
14232TIP3    H264112   3.943   0.111  16.098  0.1094  0.3156 -0.1241
14233TIP3   OH264113   3.382   2.845  13.042 -0.7514  0.1569 -0.1191
14233TIP3    H164114   3.304   2.791  13.056  0.7761 -1.9507  0.8469
14233TIP3    H264115   3.390   2.851  12.947 -1.5477 -0.4544 -0.2318
14234TIP3   OH264116   2.360   0.465   1.684 -0.4933  0.2595 -0.1652
14234TIP3    H164117   2.284   0.449   1.740 -0.4394 -0.6651 -0.3469
14234TIP3    H264118   2.321   0.488   1.599 -0.5705  1.3489  0.1451
14235TIP3   OH264119   3.154   1.250   4.307  0.0715 -0.2231  0.3096
14235TIP3    H164120   3.195   1.298   4.235 -1.9808  1.8912  0.4155
14235TIP3    H264121   3.171   1.158   4.288 -0.4457  0.2435 -2.9658
14236TIP3   OH264122   1.217   1.648   0.234 -0.2450  0.7673  0.2669
14236TIP3    H164123   1.240   1.721   0.290 -0.5603  0.7723  0.3934
14236TIP3    H264124   1.134   1.615   0.270 -0.4329  0.7513 -0.1725
14237TIP3   OH264125   0.372   1.387   4.195  0.3653  0.0884  0.2190
14237TIP3    H164126   0.309   1.459   4.204 -1.3385 -1.2040 -0.6988
14237TIP3    H264127   0.371   1.344   4.281 -1.9402 -1.3606 -0.4476
14238TIP3   OH264128   1.355   3.819  11.288 -0.4311  0.1049 -0.0176
14238TIP3    H164129   1.304   3.808  11.207 -2.5003 -0.1057  1.2546
14238TIP3    H264130   1.366   3.914  11.296  0.9644  0.0816 -1.1930
14239TIP3   OH264131   5.223   4.205   6.111 -0.5196  0.3826  0.2025
14239TIP3    H164132   5.253   4.133   6.166 -0.3281  0.8150  0.6615
14239TIP3    H264133   5.299   4.261   6.100 -0.2921 -0.1599 -1.2686
14240TIP3   OH264134   4.200   3.309  14.932  0.0276  0.5155  0.2279
14240TIP3    H164135   4.258   3.306  14.856  0.7115 -0.0041  0.7503
14240TIP3    H264136   4.118   3.272  14.901  0.5722 -0.5049 -0.0400
14241TIP3   OH264137   0.932   5.226  15.461  0.5811  0.4905  0.3314
14241TIP3    H164138   0.859   5.246  15.402  0.3811  0.0281  0.4152
14241TIP3    H264139   0.925   5.132  15.476  1.7702  0.2555 -0.4185
14242TIP3   OH264140   0.818   2.841   5.638  0.0315  0.8650 -0.3777
14242TIP3    H164141   0.785   2.770   5.584  2.0996  0.6814 -1.5249
14242TIP3    H264142   0.913   2.826   5.642  0.4046  2.9870  0.1765
14243TIP3   OH264143   4.471   6.096   5.297  0.1262  0.3840  0.4214
14243TIP3    H164144   4.548   6.151   5.306  0.6464 -0.3967  0.8657
14243TIP3    H264145   4.481   6.054   5.212 -0.2611  0.9458  0.0907
14244TIP3   OH264146   6.204   6.561   5.309 -0.1532 -0.1682 -0.2347
14244TIP3    H164147   6.153   6.485   5.337  1.1820 -0.4329  1.6415
14244TIP3    H264148   6.291   6.547   5.345  0.9012  0.9518 -2.1851
14245TIP3   OH264149   3.495   5.605   3.828  0.8109 -0.5200  0.1891
14245TIP3    H164150   3.536   5.638   3.748  0.4132 -0.1008  0.1562
14245TIP3    H264151   3.465   5.517   3.805 -0.4444  0.0672 -0.5271
14246TIP3   OH264152   2.502   3.519   2.282  0.4892 -0.0302  0.1838
14246TIP3    H164153   2.460   3.603   2.299  2.1085  0.7041  0.6603
14246TIP3    H264154   2.595   3.535   2.293  1.1029 -1.2291 -2.3701
14247TIP3   OH264155   5.918   6.423  13.907  0.1932  0.4527  0.4216
14247TIP3    H164156   5.967   6.348  13.939  1.6994  1.7767  1.4143
14247TIP3    H264157   5.829   6.409  13.938  0.6627 -0.4515  1.4159
14248TIP3   OH264158   6.515   2.490   3.227  0.2893 -0.1151  0.4245
14248TIP3    H164159   6.546   2.418   3.172  0.7701 -0.4370  1.0963
14248TIP3    H264160   6.512   2.565   3.168  2.7464  0.0337  0.3560
14249TIP3   OH264161   2.312   1.074   3.962  0.0580 -0.0697 -0.6356
14249TIP3    H164162   2.254   1.132   4.011  0.4194  1.0685 -1.5061
14249TIP3    H264163   2.280   0.986   3.982 -0.1628  0.3844  1.1440
14250TIP3   OH264164   2.418   4.878   3.665 -0.6832  0.3470  0.1387
14250TIP3    H164165   2.448   4.841   3.582  1.2669  0.6410  0.6668
14250TIP3    H264166   2.334   4.919   3.644 -0.0558  0.7507 -1.7971
14251TIP3   OH264167   1.854   4.918  11.202  0.5939 -0.6104 -0.4817
14251TIP3    H164168   1.819   4.849  11.259 -0.2805 -0.1902 -0.4947
14251TIP3    H264169   1.948   4.901  11.199  0.6186 -0.8241  0.8445
14252TIP3   OH264170   4.817   3.740   6.634 -0.4470  0.5864  0.2794
14252TIP3    H164171   4.906   3.769   6.613 -0.5570 -0.1933 -1.4257
14252TIP3    H264172   4.826   3.646   6.651 -0.9699  0.4702 -0.0623
14253TIP3   OH264173   1.872   0.928  16.918  0.1229  0.1888 -0.0475
14253TIP3    H164174   1.941   0.965  16.862  0.7185  1.7611  1.6341
14253TIP3    H264175   1.908   0.843  16.946  1.2850  0.8518  0.5671
14254TIP3   OH264176   1.225   6.028  14.647 -0.1624  0.3707 -0.0001
14254TIP3    H164177   1.177   6.083  14.709 -0.9662 -0.1135 -0.1699
14254TIP3    H264178   1.223   5.941  14.686 -1.2074 -0.0694 -0.9672
14255TIP3   OH264179   0.108   2.053   1.174 -0.1885  0.2451 -0.0522
14255TIP3    H164180   0.052   2.094   1.107 -0.5324  0.8085  0.5678
14255TIP3    H264181   0.048   2.008   1.232  0.1343 -0.4859 -0.2656
14256TIP3   OH264182   5.353   2.646   2.049  0.2839  0.1053 -0.5082
14256TIP3    H164183   5.388   2.584   1.985 -0.0866  0.3326 -0.9355
14256TIP3    H264184   5.295   2.593   2.103  0.1864  0.0214 -0.6932
14257TIP3   OH264185   4.426   5.961  11.158  0.0437 -0.7567  0.3536
14257TIP3    H164186   4.336   5.929  11.167 -0.4564  0.2157 -0.8765
14257TIP3    H264187   4.418   6.042  11.108  1.5672 -0.3674  0.6720
14258TIP3   OH264188   2.459   6.263   2.611  0.0845 -0.7743 -0.0754
14258TIP3    H164189   2.408   6.228   2.538 -1.8050  0.7372  0.4343
14258TIP3    H264190   2.511   6.333   2.571 -1.4729  0.5270  0.0792
14259TIP3   OH264191   5.643   3.126  12.793 -0.0716 -0.1512 -0.4709
14259TIP3    H164192   5.612   3.208  12.832  0.3413  0.6949 -1.8902
14259TIP3    H264193   5.721   3.104  12.845  0.0500  0.5637 -0.3321
14260TIP3   OH264194   2.141   2.048  11.978 -0.4744 -0.4860 -0.5728
14260TIP3    H164195   2.224   2.022  11.938  0.1342 -0.1983  0.4785
14260TIP3    H264196   2.121   2.133  11.939  0.2587 -0.0738 -0.0660
14261TIP3   OH264197   4.018   4.041  12.905  0.0277 -0.3635  0.1980
14261TIP3    H164198   3.969   3.977  12.958  0.5891 -0.0337  1.1492
14261TIP3    H264199   4.067   3.988  12.843  0.4142 -0.8691  0.9135
14262TIP3   OH264200   1.227   2.936  11.904  0.2198  0.5647 -0.1042
14262TIP3    H164201   1.314   2.936  11.945  0.0474  1.3715  0.2621
14262TIP3    H264202   1.225   3.016  11.852 -0.7809  1.2108  0.9019
14263TIP3   OH264203   3.289   1.995  15.856  0.6130  0.1589  0.5494
14263TIP3    H164204   3.264   2.070  15.910  0.2426 -0.4465  1.2364
14263TIP3    H264205   3.383   2.007  15.841  0.8497  0.0722  1.7920
14264TIP3   OH264206   2.019   6.397   0.756  0.6248 -0.1226  0.1634
14264TIP3    H164207   1.976   6.387   0.840  1.5005 -0.1442  0.6200
14264TIP3    H264208   2.106   6.432   0.777  0.7532  0.1483 -0.7477
14265TIP3   OH264209   2.437   1.271  14.112  0.3989  0.5629 -0.0998
14265TIP3    H164210   2.360   1.315  14.149  0.0745  1.1080 -1.3622
14265TIP3    H264211   2.404   1.227  14.034  1.1368 -0.2476  0.0259
14266TIP3   OH264212   5.262   2.867   2.326 -1.3803 -0.2936  0.2186
14266TIP3    H164213   5.183   2.919   2.336  0.1373  1.9436  1.5817
14266TIP3    H264214   5.290   2.883   2.236 -0.5819  1.9567  0.7975
14267TIP3   OH264215   1.214   1.922   4.160 -0.7055  0.1370  0.3550
14267TIP3    H164216   1.192   1.829   4.166 -1.3405  0.3271  1.1550
14267TIP3    H264217   1.139   1.962   4.117  0.1916  0.0866 -1.3521
14268TIP3   OH264218   4.280   3.911  15.761 -0.8043 -0.5958  0.2260
14268TIP3    H164219   4.336   3.835  15.745 -1.1803 -0.7294 -0.5510
14268TIP3    H264220   4.293   3.933  15.853 -0.5760 -1.5086  0.4147
14269TIP3   OH264221   4.829   6.160   1.164 -0.1419  0.1052 -0.3760
14269TIP3    H164222   4.883   6.109   1.104  1.5855  0.3594  0.9002
14269TIP3    H264223   4.797   6.095   1.227 -3.0835 -0.4142 -2.2290
14270TIP3   OH264224   0.576   3.351  13.521 -0.6196 -0.1359 -0.3714
14270TIP3    H164225   0.612   3.424  13.471 -1.4385  0.0820 -0.6541
14270TIP3    H264226   0.566   3.280  13.457 -0.6793 -0.2045 -0.2867
14271TIP3   OH264227   1.003   0.669  13.025  0.1135  0.6024 -0.4020
14271TIP3    H164228   0.945   0.632  13.092 -2.3928  2.6326 -1.3045
14271TIP3    H264229   1.024   0.595  12.969 -1.6021 -0.2352 -0.0161
14272TIP3   OH264230   4.466   1.175  16.587  0.1771  0.2661  0.3383
14272TIP3    H164231   4.483   1.182  16.493  0.0848  2.5344  0.4415
14272TIP3    H264232   4.394   1.235  16.604  1.5181  1.5052  2.1421
14273TIP3   OH264233   4.420   5.537  16.425  0.2369  0.8477 -0.7770
14273TIP3    H164234   4.340   5.564  16.470 -0.9891 -4.0537  0.5981
14273TIP3    H264235   4.390   5.511  16.338  0.5370  0.1826 -0.6887
14274TIP3   OH264236   6.620   0.669  13.094 -0.2544 -0.0604 -0.5709
14274TIP3    H164237   6.621   0.579  13.060  2.0296 -0.9749  1.5866
14274TIP3    H264238   6.545   0.671  13.153  0.6053 -1.1743  0.6374
14275TIP3   OH264239   3.921   0.699   6.201 -0.3893 -0.2830 -0.5760
14275TIP3    H164240   3.876   0.782   6.186  1.5859  1.0676  0.5041
14275TIP3    H264241   3.851   0.639   6.228 -1.5951  1.6834  0.9985
14276TIP3   OH264242   1.113   3.612  11.464  0.1734  0.1154 -0.0363
14276TIP3    H164243   1.094   3.645  11.376  0.9852 -2.8351 -1.4549
14276TIP3    H264244   1.187   3.665  11.494  0.1219  0.9395 -1.2796
14277TIP3   OH264245   3.342   3.348  12.946 -0.0342 -0.0493  0.1041
14277TIP3    H164246   3.265   3.352  12.890  0.3453 -0.9327 -0.4923
14277TIP3    H264247   3.362   3.440  12.965 -2.4512  0.1966  2.0191
14278TIP3   OH264248   5.806   4.732  12.188 -0.1639  0.6979  0.4252
14278TIP3    H164249   5.810   4.648  12.143 -1.1031  0.4113  0.8439
14278TIP3    H264250   5.897   4.753  12.208  0.1136 -0.0238 -0.0399
14279TIP3   OH264251   1.170   1.006   5.458  0.5316 -0.1055  0.4900
14279TIP3    H164252   1.214   0.937   5.410 -1.4062 -0.5954 -0.6651
14279TIP3    H264253   1.080   1.005   5.426 -0.0965  1.5198  2.0140
14280TIP3   OH264254   4.008   5.074  17.161  0.3410  0.1765 -0.0782
14280TIP3    H164255   3.928   5.058  17.211  0.0982  0.1371 -0.4793
14280TIP3    H264256   4.039   5.159  17.194  0.5249 -0.1345  0.5798
14281TIP3   OH264257   3.085   2.251  10.882  0.4280  0.2353  0.4741
14281TIP3    H164258   3.121   2.302  10.810  1.7151  0.6837  1.3809
14281TIP3    H264259   3.047   2.174  10.841  1.6688  0.1826 -0.6368
14282TIP3   OH264260   4.408   0.480  14.048  0.1312 -0.3962  0.0477
14282TIP3    H164261   4.480   0.493  13.986  0.7718  1.5054  1.1208
14282TIP3    H264262   4.346   0.551  14.029  0.0737 -0.1189  1.1856
14283TIP3   OH264263   2.867   3.264  15.525 -1.1876  0.7576  0.4740
14283TIP3    H164264   2.871   3.246  15.619  0.0521 -0.2024  0.2581
14283TIP3    H264265   2.809   3.340  15.518 -4.0705 -1.1697  1.7134
14284TIP3   OH264266   4.523   4.474   4.573  0.1235 -0.0707  0.2164
14284TIP3    H164267   4.509   4.563   4.607 -0.4784  0.1099 -0.4986
14284TIP3    H264268   4.555   4.486   4.484 -2.8100 -0.5437 -1.0285
14285TIP3   OH264269   1.262   5.088   5.420 -0.1896 -0.0584 -0.3215
14285TIP3    H164270   1.349   5.111   5.453 -0.5300  0.4796  0.2307
14285TIP3    H264271   1.234   5.165   5.370 -1.4083  0.8665  1.6805
14286TIP3   OH264272   0.056   1.790   3.149  0.3514 -0.2855  0.7950
14286TIP3    H164273  -0.010   1.760   3.086  1.8111  2.6295 -2.4394
14286TIP3    H264274   0.112   1.714   3.164 -1.1535 -1.5764  0.0798
14287TIP3   OH264275   2.665   6.172  14.953 -0.2830 -0.2442 -0.2180
14287TIP3    H164276   2.667   6.125  14.869  0.0326 -0.1890 -0.2460
14287TIP3    H264277   2.658   6.104  15.019 -1.0899 -0.2592 -0.3105
14288TIP3   OH264278   1.462   0.823  16.263 -0.0513  0.0165  0.2382
14288TIP3    H164279   1.556   0.821  16.244 -0.3180  0.6308 -1.2720
14288TIP3    H264280   1.434   0.732  16.253  0.5640 -0.3928  1.8710
14289TIP3   OH264281   4.732   5.580  15.101 -0.6757 -0.3868 -0.6364
14289TIP3    H164282   4.695   5.656  15.147  1.3387  1.5572 -2.0868
14289TIP3    H264283   4.801   5.549  15.159 -0.2498  0.0854 -0.8825
14290TIP3   OH264284   1.233   1.440  15.519 -0.3081  0.2770  0.0270
14290TIP3    H164285   1.191   1.355  15.505  1.5328 -0.6917  0.0424
14290TIP3    H264286   1.253   1.441  15.613  0.4836  0.3162 -0.1363
14291TIP3   OH264287   2.333   0.848   4.731  0.2645  0.2603  0.1836
14291TIP3    H164288   2.334   0.788   4.656  0.4086 -0.3990  0.7003
14291TIP3    H264289   2.250   0.830   4.775  1.1890 -1.0375  1.4875
14292TIP3   OH264290   5.252   3.619  13.769  0.0133 -0.3222 -0.5116
14292TIP3    H164291   5.208   3.696  13.804  0.3817 -1.1656  2.0289
14292TIP3    H264292   5.181   3.563  13.738 -0.4718 -0.1542  0.2652
14293TIP3   OH264293   5.358   4.420  14.970 -0.0675  0.3255  0.2097
14293TIP3    H164294   5.275   4.440  14.927 -0.6566 -0.6432  0.8435
14293TIP3    H264295   5.400   4.505  14.983 -1.7394  1.0298  1.4177
14294TIP3   OH264296   5.735   3.567  14.363  0.1208 -0.0227 -0.0388
14294TIP3    H164297   5.646   3.589  14.333  0.4623  1.7635  0.1666
14294TIP3    H264298   5.763   3.497  14.304 -1.2460 -0.3013 -0.4031
14295TIP3   OH264299   4.397   5.390  11.103  0.7494  0.0161  0.0078
14295TIP3    H164300   4.397   5.485  11.089  0.6682  0.0631  0.3209
14295TIP3    H264301   4.357   5.354  11.024 -1.2032  0.3700  0.7905
14296TIP3   OH264302   5.300   4.215   4.467  0.3641  0.0633  0.0904
14296TIP3    H164303   5.320   4.240   4.377 -0.6259 -0.4223 -0.2826
14296TIP3    H264304   5.254   4.131   4.459 -0.5864  0.4780  0.9712
14297TIP3   OH264305   4.510   3.700   0.403  0.3670 -0.2457  0.2033
14297TIP3    H164306   4.429   3.717   0.355 -0.7672 -0.8965  1.7913
14297TIP3    H264307   4.576   3.683   0.335 -0.5538  1.3225 -1.1571
14298TIP3   OH264308   6.693   6.491  10.413 -0.6027  0.1529 -0.5967
14298TIP3    H164309   6.751   6.528  10.347  0.3270  0.0988  0.1650
14298TIP3    H264310   6.741   6.501  10.496 -2.1826  1.2051  0.2513
14299TIP3   OH264311   2.015   2.777   1.611  0.3772  0.4128  0.5314
14299TIP3    H164312   2.056   2.704   1.566  0.2891  0.5546  0.2156
14299TIP3    H264313   1.926   2.781   1.575  0.8839  1.7070 -0.7136
14300TIP3   OH264314   0.486   2.418  10.920  0.6214  0.0127 -0.1213
14300TIP3    H164315   0.417   2.434  10.984 -0.3361 -3.7902  0.0088
14300TIP3    H264316   0.545   2.356  10.963  1.8527  0.0161 -1.7221
14301TIP3   OH264317   5.839   4.426  13.163  0.0849  0.2011 -0.4491
14301TIP3    H164318   5.866   4.516  13.182 -2.4039  0.4895  2.6544
14301TIP3    H264319   5.865   4.376  13.240 -0.0286 -1.4205 -1.4071
14302TIP3   OH264320   6.494   3.909   2.474 -0.0402  0.0836  0.1038
14302TIP3    H164321   6.400   3.926   2.468  0.0781  0.3815 -1.3374
14302TIP3    H264322   6.532   3.965   2.406  1.1506 -0.2957  0.4400
14303TIP3   OH264323   4.912   2.621   0.422  0.2505 -0.2625 -0.3643
14303TIP3    H164324   4.868   2.608   0.338 -0.8478  0.4156  0.0897
14303TIP3    H264325   4.980   2.554   0.424 -1.0894 -1.7018 -0.8746
14304TIP3   OH264326   0.843   3.534   5.165 -0.1029  0.7750 -0.3253
14304TIP3    H164327   0.773   3.537   5.099 -1.3247 -1.1642  0.7965
14304TIP3    H264328   0.899   3.462   5.136 -0.1353  0.5164  0.2421
14305TIP3   OH264329   5.863   6.526  15.888  0.1101  0.3112 -0.6628
14305TIP3    H164330   5.899   6.583  15.819  1.7354 -0.2585 -0.3158
14305TIP3    H264331   5.806   6.465  15.840 -0.8612  1.5564 -1.1596
14306TIP3   OH264332   4.459   3.848  14.985 -0.2609 -0.0913  0.2840
14306TIP3    H164333   4.472   3.943  14.989  0.2113 -0.1623  0.4947
14306TIP3    H264334   4.517   3.813  15.053 -1.9806 -0.4018  1.6497
14307TIP3   OH264335   1.054   5.859   2.069 -0.0342  0.4502  0.1783
14307TIP3    H164336   0.980   5.914   2.093 -0.0981 -0.4353  2.1573
14307TIP3    H264337   1.094   5.834   2.152  1.8408  0.0102 -0.7955
14308TIP3   OH264338   6.667   2.902  12.826  0.4713  0.5425  0.1622
14308TIP3    H164339   6.718   2.914  12.746 -0.3102  2.0843 -0.1538
14308TIP3    H264340   6.589   2.956  12.813 -1.1992 -1.6143  0.6893
14309TIP3   OH264341   5.904   0.920  12.369  0.4217 -0.2977  0.6309
14309TIP3    H164342   5.867   0.989  12.423  0.0939  0.8113 -0.9372
14309TIP3    H264343   5.916   0.961  12.283  0.7596 -2.0284 -0.1860
14310TIP3   OH264344   2.040   1.902  13.139  0.2095 -0.5026 -0.3879
14310TIP3    H164345   2.071   1.854  13.062  0.6191 -1.6520  0.4747
14310TIP3    H264346   2.080   1.989  13.131 -1.3494  0.1242 -2.5049
14311TIP3   OH264347   2.701   0.745  13.395  0.0387  0.3894 -0.4638
14311TIP3    H164348   2.638   0.721  13.327  0.1718  1.2479 -0.9032
14311TIP3    H264349   2.777   0.779  13.347  0.6243 -0.1090  0.0803
14312TIP3   OH264350   2.928   3.775   1.802 -0.3916  0.1354 -0.2973
14312TIP3    H164351   2.889   3.694   1.832 -0.1733 -0.2278 -0.9667
14312TIP3    H264352   2.965   3.816   1.881  0.8453 -1.1515 -0.1709
14313TIP3   OH264353   5.604   5.101  12.797  0.0619 -0.5708 -0.6798
14313TIP3    H164354   5.513   5.095  12.769  0.1422 -1.9454 -0.7073
14313TIP3    H264355   5.647   5.154  12.729 -0.9841  1.3737  0.0954
14314TIP3   OH264356   6.474   3.920  11.113  0.0931 -0.5758 -0.0205
14314TIP3    H164357   6.522   3.997  11.141 -0.7423  0.1344 -0.4746
14314TIP3    H264358   6.508   3.900  11.026 -1.2968  0.7338 -0.9173
14315TIP3   OH264359   2.678   5.965   1.058  0.2528 -0.1275  0.4684
14315TIP3    H164360   2.721   5.994   1.138  0.2453  0.9644  0.0991
14315TIP3    H264361   2.599   5.920   1.089 -0.0126  0.7232  1.0679
14316TIP3   OH264362   2.060   5.436  13.094  0.0342 -0.5104  0.7342
14316TIP3    H164363   2.141   5.392  13.121 -0.1873 -0.9385  0.7159
14316TIP3    H264364   2.022   5.467  13.176  0.1057 -0.5045  0.7658
14317TIP3   OH264365   3.855   6.246   2.962  0.1711 -0.0065 -0.2050
14317TIP3    H164366   3.941   6.229   2.925 -0.7016 -0.6513 -2.0659
14317TIP3    H264367   3.862   6.216   3.053  2.0304  0.4293 -0.1623
14318TIP3   OH264368   1.154   4.118   0.651  0.3017 -0.0777 -1.0204
14318TIP3    H164369   1.233   4.172   0.659 -0.0316  0.6618 -2.4845
14318TIP3    H264370   1.186   4.028   0.659  0.9510  0.2650  0.7899
14319TIP3   OH264371   1.009   3.735  17.171 -0.2060 -0.6982  0.6425
14319TIP3    H164372   1.030   3.790  17.096 -1.2320  1.7685  2.0485
14319TIP3    H264373   0.959   3.662  17.134 -0.2434  0.1782 -1.1271
14320TIP3   OH264374   6.637   2.349  14.076 -0.2922  0.4296 -0.4730
14320TIP3    H164375   6.700   2.290  14.116 -1.5740 -0.1265  0.8044
14320TIP3    H264376   6.659   2.348  13.983  2.8705  1.8609  0.1061
14321TIP3   OH264377   6.353   2.434   5.752 -1.1815  0.2893 -0.2945
14321TIP3    H164378   6.349   2.354   5.805 -0.9117 -0.5636 -1.5252
14321TIP3    H264379   6.262   2.456   5.734 -1.2652  0.4154  0.2503
14322TIP3   OH264380   0.828   4.462  13.577 -0.5750 -0.1930  0.5223
14322TIP3    H164381   0.733   4.451  13.568 -0.2399 -2.4929 -1.0150
14322TIP3    H264382   0.847   4.435  13.667 -1.2682 -0.7935  0.4991
14323TIP3   OH264383   6.451   1.997   0.306 -0.0690 -0.0285 -0.1289
14323TIP3    H164384   6.447   2.041   0.222  0.9302 -0.1224 -0.2451
14323TIP3    H264385   6.366   2.014   0.347 -0.5451  0.0559 -1.1237
14324TIP3   OH264386   0.213   0.399   0.470  0.8072  0.0728 -0.2379
14324TIP3    H164387   0.291   0.448   0.493  1.1658  0.1749 -1.5511
14324TIP3    H264388   0.211   0.326   0.531  1.3258  0.6714  0.5056
14325TIP3   OH264389   1.504   0.861  12.542 -0.6896  0.1400  0.1075
14325TIP3    H164390   1.530   0.888  12.454  0.5163  0.3375  0.4977
14325TIP3    H264391   1.563   0.789  12.563 -1.3363 -0.2673  0.5428
14326TIP3   OH264392   4.368   4.395  14.249 -0.1933  0.0757 -0.3325
14326TIP3    H164393   4.408   4.480  14.231 -1.8017  0.9052 -0.1313
14326TIP3    H264394   4.343   4.361  14.163 -1.2114  0.6632 -0.2781
14327TIP3   OH264395   2.363   2.391   5.738 -0.0456  0.3382  0.1672
14327TIP3    H164396   2.357   2.377   5.643 -1.6609  0.1467  0.2742
14327TIP3    H264397   2.382   2.484   5.747  1.5657  0.0982 -0.3472
14328TIP3   OH264398   6.082   6.475   1.449 -0.0715 -0.4620 -0.3579
14328TIP3    H164399   5.991   6.465   1.478 -0.8012 -0.7387 -2.6002
14328TIP3    H264400   6.097   6.569   1.451 -0.5897 -0.3735 -0.5100
14329TIP3   OH264401   0.327   4.614  10.866  0.0209 -0.4805 -0.0400
14329TIP3    H164402   0.289   4.689  10.820 -1.7601  1.4172  3.9893
14329TIP3    H264403   0.251   4.565  10.898  1.0516 -0.7398  2.1335
14330TIP3   OH264404   3.157   5.988  15.502 -0.7011  0.2149 -0.3855
14330TIP3    H164405   3.155   5.924  15.573 -0.9443  0.1267 -0.4722
14330TIP3    H264406   3.087   6.050  15.524 -0.4743  0.4466 -0.3061
14331TIP3   OH264407   0.953   6.162   0.415  1.0246 -0.3587  0.0029
14331TIP3    H164408   0.943   6.110   0.495  1.7110  2.4538  2.0547
14331TIP3    H264409   0.864   6.190   0.394  0.5648 -2.5856 -1.4271
14332TIP3   OH264410   3.999   4.876  11.120  0.5110  0.5828 -0.1233
14332TIP3    H164411   4.094   4.877  11.128  0.4732  1.0543  0.2653
14332TIP3    H264412   3.983   4.848  11.029  1.0009 -0.1336  0.0064
14333TIP3   OH264413   6.000   4.043   2.005 -0.2811 -0.2606  0.6130
14333TIP3    H164414   5.937   4.114   2.017 -1.1651 -0.8885 -0.1739
14333TIP3    H264415   5.948   3.969   1.973  0.9874 -0.5514 -0.9213
14334TIP3   OH264416   5.618   6.572  11.501 -0.2481 -0.2513  0.0945
14334TIP3    H164417   5.669   6.571  11.582  1.9028 -0.8808 -1.2009
14334TIP3    H264418   5.683   6.580  11.432 -2.0463  0.4451 -1.5966
14335TIP3   OH264419   6.384   4.753  14.041 -0.0107  0.6343  0.0612
14335TIP3    H164420   6.444   4.796  14.102 -0.1943  0.2805  0.4965
14335TIP3    H264421   6.401   4.659  14.053 -0.9197  0.5075  0.4840
14336TIP3   OH264422   2.126   5.098   1.459 -0.1696 -0.5085  0.1090
14336TIP3    H164423   2.044   5.120   1.504  0.2359 -2.0641  1.7326
14336TIP3    H264424   2.188   5.163   1.491 -0.2844 -0.5918  0.5120
14337TIP3   OH264425   2.461   0.819   0.424  0.0244 -0.5165  0.5966
14337TIP3    H164426   2.443   0.904   0.384 -0.1970 -0.6763  0.3513
14337TIP3    H264427   2.463   0.758   0.350 -0.5646 -0.8426  0.8392
14338TIP3   OH264428   0.269   2.042   2.331  0.0225 -0.5291 -0.1089
14338TIP3    H164429   0.180   2.053   2.298 -0.0479 -1.4572 -0.2672
14338TIP3    H264430   0.261   2.052   2.426 -0.0624  0.4687 -0.2150
14339TIP3   OH264431   5.259   1.327  11.145  0.3756  0.4097  0.7713
14339TIP3    H164432   5.319   1.261  11.109  2.0760  2.0867  0.3817
14339TIP3    H264433   5.309   1.369  11.215 -0.4772  1.6406  0.6718
14340TIP3   OH264434   3.974   4.483  17.141 -0.6964  0.0170  0.1250
14340TIP3    H164435   3.918   4.561  17.150  0.8175  1.1792 -0.0788
14340TIP3    H264436   4.033   4.487  17.217  1.0345  0.5083 -1.1692
14341TIP3   OH264437   2.567   3.203   5.098  0.1716 -0.3728  0.5249
14341TIP3    H164438   2.643   3.203   5.155  1.3234 -0.5238 -0.9576
14341TIP3    H264439   2.594   3.153   5.021 -1.9684 -1.8247  0.6417
14342TIP3   OH264440   3.950   5.169   1.656 -0.4712  0.0788  0.0986
14342TIP3    H164441   3.920   5.251   1.696 -1.4895 -0.7642  1.1287
14342TIP3    H264442   4.035   5.191   1.618 -0.5651  1.5274  0.6603
14343TIP3   OH264443   1.712   2.998   2.930 -0.2452 -0.5663 -0.3357
14343TIP3    H164444   1.724   2.907   2.959 -2.3006 -1.3213 -1.6807
14343TIP3    H264445   1.735   2.996   2.837  1.0784  0.6534 -0.0690
14344TIP3   OH264446   4.935   2.324  16.747  0.3943  0.3355  0.4561
14344TIP3    H164447   5.010   2.332  16.806  0.1263  1.1078  0.6976
14344TIP3    H264448   4.864   2.371  16.791 -0.1766 -0.2021  0.1286
14345TIP3   OH264449   1.631   0.070   3.218 -0.3726  0.7075  0.1842
14345TIP3    H164450   1.632   0.043   3.126 -0.4095 -0.8448  0.6052
14345TIP3    H264451   1.723   0.086   3.239 -0.2484  0.0440  0.1550
14346TIP3   OH264452   6.685   1.332  13.995 -0.3080  0.2783 -0.7006
14346TIP3    H164453   6.727   1.251  14.026  0.4127 -0.7474 -3.8932
14346TIP3    H264454   6.593   1.322  14.020 -0.5108 -2.2319 -2.0141
14347TIP3   OH264455   6.796   0.708   0.286  0.4417  0.5077  0.0075
14347TIP3    H164456   6.720   0.662   0.250  0.4194  0.0721  0.5994
14347TIP3    H264457   6.848   0.731   0.209  1.2342 -1.8813 -0.2499
14348TIP3   OH264458   5.161   1.347  16.516 -0.4026 -0.1256 -0.1896
14348TIP3    H164459   5.137   1.344  16.423 -1.5921 -1.7072  0.1322
14348TIP3    H264460   5.097   1.291  16.559  2.3299 -2.4634  1.1193
14349TIP3   OH264461   2.784   3.586   2.796  0.1205  0.2676  0.8936
14349TIP3    H164462   2.863   3.619   2.839 -0.6433  1.1413  1.6835
14349TIP3    H264463   2.721   3.575   2.867 -1.3216  2.1348 -0.0059
14350TIP3   OH264464   2.920   5.244  13.864 -0.1101  0.1538 -0.0009
14350TIP3    H164465   2.902   5.282  13.778 -0.2982  0.0304 -0.0177
14350TIP3    H264466   2.868   5.164  13.866 -0.6216  0.4864  0.4741
14351TIP3   OH264467   0.335   4.076  13.520  0.0913  0.1824  0.2458
14351TIP3    H164468   0.372   4.054  13.606  2.3266  0.1885 -0.6222
14351TIP3    H264469   0.365   4.005  13.463 -2.9638 -0.8747 -0.2368
14352TIP3   OH264470   1.797   0.881   2.313  0.2964  0.5074  0.0454
14352TIP3    H164471   1.731   0.907   2.249  0.0416 -0.5193 -0.1238
14352TIP3    H264472   1.755   0.896   2.398 -0.1739 -0.1753 -0.0601
14353TIP3   OH264473   4.268   0.688   6.739 -0.0499  0.2847  0.9328
14353TIP3    H164474   4.337   0.746   6.771  0.2691  0.2245  0.3737
14353TIP3    H264475   4.206   0.746   6.695  1.4292  0.0402 -1.6970
14354TIP3   OH264476   4.332   4.480  11.594  0.4177 -0.0782 -0.1623
14354TIP3    H164477   4.268   4.474  11.522  1.4728 -1.6589 -1.0350
14354TIP3    H264478   4.281   4.459  11.672 -0.8935  2.3060 -0.2964
14355TIP3   OH264479   5.985   1.430   5.044  0.3063 -0.1460  0.0548
14355TIP3    H164480   6.058   1.489   5.026  0.5832 -1.3298 -3.5867
14355TIP3    H264481   5.978   1.428   5.139  3.3654  1.9663  0.4638
14356TIP3   OH264482   6.655   1.371  13.074 -0.3545 -0.1654  0.1144
14356TIP3    H164483   6.689   1.448  13.120 -1.0749  0.6048 -0.6241
14356TIP3    H264484   6.581   1.342  13.127  0.1328 -0.5853  0.5857
14357TIP3   OH264485   1.077   4.528  15.098  0.3391 -0.5532 -0.5367
14357TIP3    H164486   1.022   4.525  15.177  0.4557 -0.7996 -0.4642
14357TIP3    H264487   1.098   4.436  15.080  2.3922 -0.3650  0.6027
14358TIP3   OH264488   0.439   1.289  14.828  0.8201 -0.4569  0.4661
14358TIP3    H164489   0.354   1.293  14.783  1.0228 -2.0080 -0.1192
14358TIP3    H264490   0.499   1.334  14.768  0.5951 -0.1522  0.4635
14359TIP3   OH264491   6.125   3.184  13.104 -0.4243  0.4143  0.2355
14359TIP3    H164492   6.195   3.152  13.161  0.0890 -0.6172 -0.9168
14359TIP3    H264493   6.171   3.219  13.027 -1.1252  0.8817  0.0164
14360TIP3   OH264494   0.385   2.973  11.686 -0.5086 -0.1430 -0.1605
14360TIP3    H164495   0.462   2.950  11.738  0.2717  0.1899 -1.1449
14360TIP3    H264496   0.320   3.000  11.751 -0.0379 -1.0780  0.7301
14361TIP3   OH264497   3.422   4.107   3.867 -0.4300 -0.0052  0.6350
14361TIP3    H164498   3.510   4.070   3.863 -0.2826  0.2929  1.0740
14361TIP3    H264499   3.373   4.059   3.800  0.2584  0.3369 -0.1403
14362TIP3   OH264500   5.766   3.090   4.256  0.0270  0.1532  0.3782
14362TIP3    H164501   5.708   3.014   4.252  1.1557 -0.7394  0.4280
14362TIP3    H264502   5.717   3.160   4.212 -0.2535 -1.1262 -1.4821
14363TIP3   OH264503   4.491   5.422   3.255  0.1154 -0.0231  0.6075
14363TIP3    H164504   4.413   5.367   3.266 -0.1915 -0.0132 -1.2412
14363TIP3    H264505   4.561   5.373   3.297 -0.2058 -1.7236 -0.7034
14364TIP3   OH264506   5.054   6.506   0.764 -0.6119  0.4499  0.7285
14364TIP3    H164507   5.098   6.422   0.779  0.2840  0.4412 -1.5501
14364TIP3    H264508   5.114   6.572   0.800  0.7820  0.3435 -1.2061
14365TIP3   OH264509   4.485   6.516  15.775  0.2835  0.1022 -0.0506
14365TIP3    H164510   4.397   6.553  15.779  0.9450  2.0067 -1.6337
14365TIP3    H264511   4.543   6.590  15.793  1.6109 -1.1625  1.2275
14366TIP3   OH264512   5.128   6.483  13.086 -0.2396  0.3095  0.2249
14366TIP3    H164513   5.122   6.427  13.164 -0.4829  0.7486  0.5206
14366TIP3    H264514   5.087   6.565  13.112 -1.8607 -0.1007 -0.8843
14367TIP3   OH264515   3.754   2.201   0.730  0.7188 -0.2488  0.2596
14367TIP3    H164516   3.711   2.230   0.810 -0.3606  1.0164 -0.7442
14367TIP3    H264517   3.782   2.111   0.749 -0.2500 -0.2626  1.7521
14368TIP3   OH264518   3.724   2.673   2.531  0.9557 -0.6541  0.1483
14368TIP3    H164519   3.808   2.691   2.573  1.1224  0.1304 -0.5082
14368TIP3    H264520   3.729   2.580   2.507  1.0208 -1.0132  1.4583
14369TIP3   OH264521   3.234   3.222   2.593  0.0688  0.1598  0.3834
14369TIP3    H164522   3.210   3.292   2.654  0.8203  0.6592  0.1242
14369TIP3    H264523   3.315   3.186   2.628 -0.4452 -0.7694  0.6523
14370TIP3   OH264524   4.286   1.510  14.705 -0.1622 -0.1579 -0.6440
14370TIP3    H164525   4.381   1.510  14.720 -0.2037  1.4318 -0.2674
14370TIP3    H264526   4.277   1.487  14.612  0.6025  0.0561 -0.7788
14371TIP3   OH264527   5.181   5.902   1.699  0.4561  0.2619  0.5294
14371TIP3    H164528   5.179   5.970   1.766  2.6557  2.0127 -1.0423
14371TIP3    H264529   5.274   5.881   1.689  0.0846 -0.7155 -1.2174
14372TIP3   OH264530   0.434   3.137   5.366  0.6374 -0.2126  0.3975
14372TIP3    H164531   0.475   3.178   5.443  2.4843  1.1549 -1.1813
14372TIP3    H264532   0.427   3.045   5.388  1.0704  0.1609  2.2310
14373TIP3   OH264533   2.681   1.549  16.137 -0.3402 -0.0424  0.0912
14373TIP3    H164534   2.652   1.476  16.192 -1.2908  0.2475 -0.0126
14373TIP3    H264535   2.701   1.510  16.052 -0.1981 -0.2783  0.2315
14374TIP3   OH264536   6.144   0.398  13.271  1.0094  0.2158 -0.1036
14374TIP3    H164537   6.112   0.408  13.182  0.3785 -0.4302  0.0441
14374TIP3    H264538   6.112   0.476  13.318 -1.6871 -1.0830  0.4162
14375TIP3   OH264539   5.308   5.225   6.144 -0.3250 -0.4338  0.5198
14375TIP3    H164540   5.322   5.195   6.234  0.4433 -0.1417  0.5060
14375TIP3    H264541   5.330   5.149   6.090  0.7160 -0.1481  0.5230
14376TIP3   OH264542   5.268   0.454  14.159 -0.1664 -0.0487 -0.0119
14376TIP3    H164543   5.243   0.393  14.228 -0.8836 -0.6095 -0.7514
14376TIP3    H264544   5.212   0.530  14.172  0.9534  0.6421  1.1135
14377TIP3   OH264545   2.797   5.955  17.089  0.0039 -0.3524 -0.5183
14377TIP3    H164546   2.766   5.903  17.014 -0.2424 -2.0671  0.7095
14377TIP3    H264547   2.780   5.899  17.165  1.3311  0.8529  0.7098
14378TIP3   OH264548   3.399   1.545  12.718 -0.0769  0.4707 -0.6488
14378TIP3    H164549   3.442   1.600  12.784 -1.3850  0.6465  0.0881
14378TIP3    H264550   3.445   1.461  12.724 -0.8562  0.1224  1.3000
14379TIP3   OH264551   5.580   0.413   2.429 -0.2614 -0.2168  0.1681
14379TIP3    H164552   5.532   0.494   2.445 -1.8530 -0.9638 -0.5868
14379TIP3    H264553   5.548   0.382   2.345  0.1476 -1.7555  0.5397
14380TIP3   OH264554   3.272   1.603  11.580  0.1761 -0.4014  0.2203
14380TIP3    H164555   3.220   1.625  11.503  0.2880 -1.4889 -0.1826
14380TIP3    H264556   3.212   1.616  11.654 -0.2703 -0.3971 -0.1412
14381TIP3   OH264557   1.286   5.838  10.165  0.1619  0.0503 -0.4576
14381TIP3    H164558   1.295   5.909  10.229 -0.9073  1.1963 -1.5130
14381TIP3    H264559   1.375   5.821  10.135  0.4740  0.7322  0.0587
14382TIP3   OH264560   0.569   5.016   1.063  0.2284  0.7596  0.4418
14382TIP3    H164561   0.520   4.945   1.023 -0.7627  1.3685  0.5486
14382TIP3    H264562   0.549   5.011   1.156  1.0648  0.4826  0.6144
14383TIP3   OH264563   2.720   2.123  15.415  0.2600 -0.4465  0.3107
14383TIP3    H164564   2.724   2.035  15.377  1.4346  0.1562 -1.0468
14383TIP3    H264565   2.756   2.112  15.504 -1.7055 -1.7093  1.0361
14384TIP3   OH264566   1.953   3.818  13.009 -0.1699  0.1328  0.4106
14384TIP3    H164567   2.002   3.873  13.069 -0.0185 -0.9174  1.2737
14384TIP3    H264568   1.877   3.788  13.059  0.0880 -0.9580  0.1778
14385TIP3   OH264569   4.838   0.287   5.012  0.3696  0.7376  0.6661
14385TIP3    H164570   4.807   0.198   5.028  0.1997  0.5288 -0.6860
14385TIP3    H264571   4.821   0.333   5.094 -1.3554  0.0205  0.7615
14386TIP3   OH264572   2.848   4.757   0.336  0.1727  0.5025  0.3193
14386TIP3    H164573   2.933   4.766   0.378  0.6727 -0.4236 -0.4579
14386TIP3    H264574   2.831   4.663   0.337  0.3965  0.3969 -1.9244
14387TIP3   OH264575   2.216   2.391  16.674 -0.1722  0.1633 -0.3535
14387TIP3    H164576   2.167   2.446  16.614  0.1123 -0.5246 -1.2463
14387TIP3    H264577   2.173   2.306  16.670  1.5407 -0.7052 -1.8240
14388TIP3   OH264578   1.531   0.411  14.486  0.4902 -0.0950 -0.0305
14388TIP3    H164579   1.497   0.412  14.576  1.3451  1.6748  0.3322
14388TIP3    H264580   1.560   0.321  14.472 -3.6188 -1.5921 -0.1577
14389TIP3   OH264581   2.887   3.965  16.272 -0.4441  0.3134 -0.1982
14389TIP3    H164582   2.917   3.885  16.229  0.9663  1.4477 -1.4296
14389TIP3    H264583   2.815   3.996  16.217  1.0484  1.5085 -1.5623
14390TIP3   OH264584   5.592   1.362  12.654  0.2208 -0.6427 -0.2165
14390TIP3    H164585   5.644   1.366  12.734  0.3907  0.9227 -0.3838
14390TIP3    H264586   5.512   1.411  12.674  0.4379  0.1135 -1.1072
14391TIP3   OH264587   4.076   2.276  15.570  0.3664 -0.2353 -0.7975
14391TIP3    H164588   4.161   2.317  15.555 -0.2272  0.5466 -2.2509
14391TIP3    H264589   4.013   2.348  15.567 -0.5067 -0.9899 -1.3841
14392TIP3   OH264590   4.277   1.240   2.985 -0.3057 -0.0296 -0.1898
14392TIP3    H164591   4.233   1.163   3.022 -0.1577 -1.1225 -2.1719
14392TIP3    H264592   4.208   1.307   2.981 -0.8401 -0.5516  0.0909
14393TIP3   OH264593   4.140   1.330  15.770 -0.1957 -0.4951  0.0335
14393TIP3    H164594   4.101   1.417  15.778  1.1238  0.0856  0.3141
14393TIP3    H264595   4.209   1.341  15.704 -0.6513 -1.5669 -0.6476
14394TIP3   OH264596   1.584   4.713  16.827 -0.1152 -0.3303  0.3113
14394TIP3    H164597   1.637   4.650  16.778  0.0909 -1.0213  1.3868
14394TIP3    H264598   1.522   4.660  16.876 -0.0900  0.3122  1.0610
14395TIP3   OH264599   1.364   4.832   4.260 -0.5412 -0.2220  0.2981
14395TIP3    H164600   1.322   4.918   4.251 -0.4403 -0.1086  0.9009
14395TIP3    H264601   1.355   4.792   4.173 -0.6963  0.3477  0.0471
14396TIP3   OH264602   4.956   4.205  14.573  0.4615  0.5271 -0.6947
14396TIP3    H164603   4.862   4.202  14.591  0.2350 -3.0790 -1.6355
14396TIP3    H264604   4.964   4.264  14.498 -0.9948  1.0463 -0.4862
14397TIP3   OH264605   5.131   3.659  11.897  0.1191  0.3770  0.7317
14397TIP3    H164606   5.101   3.692  11.981 -0.1882  0.6422  0.5193
14397TIP3    H264607   5.227   3.662  11.903  0.1187  1.9002  0.5014
14398TIP3   OH264608   0.723   4.941   2.104 -0.0878 -0.7069  0.4245
14398TIP3    H164609   0.704   4.994   2.181  0.3929 -0.9340  0.7026
14398TIP3    H264610   0.734   4.852   2.138  1.0475 -0.6499  0.2218
14399TIP3   OH264611   6.100   5.936  13.329 -0.1485 -0.3831  0.3159
14399TIP3    H164612   6.033   5.891  13.381 -0.5777 -1.1627 -0.8801
14399TIP3    H264613   6.085   5.906  13.240 -0.4277  2.0759 -0.5519
14400TIP3   OH264614   2.934   4.523  13.250  0.2928  0.0111  0.1393
14400TIP3    H164615   2.956   4.443  13.298 -2.2769 -0.4948  0.6167
14400TIP3    H264616   2.925   4.495  13.159 -1.3144 -0.4517  0.4108
14401TIP3   OH264617   6.420   6.668  11.240  0.5853  0.2276 -0.4806
14401TIP3    H164618   6.365   6.608  11.190  1.4406  0.0792 -1.2682
14401TIP3    H264619   6.496   6.616  11.265 -0.6289 -0.2892  2.6769
14402TIP3   OH264620   4.043   0.825  14.325 -0.2729  0.2346 -0.4969
14402TIP3    H164621   4.088   0.741  14.322 -0.2227 -0.0465  3.1576
14402TIP3    H264622   3.958   0.805  14.366 -0.4818  1.8417 -0.0711
14403TIP3   OH264623   1.430   2.395   2.364 -0.2121 -0.1944  0.5581
14403TIP3    H164624   1.526   2.396   2.358  0.1418 -3.9736  2.5363
14403TIP3    H264625   1.409   2.473   2.416  1.6278  1.2226 -0.6588
14404TIP3   OH264626   2.778   5.188   0.921  0.0286  0.1421 -0.4984
14404TIP3    H164627   2.789   5.253   0.990  0.5715  0.2075 -0.6436
14404TIP3    H264628   2.761   5.106   0.969  1.1256  0.0454 -0.2613
14405TIP3   OH264629   1.590   5.560  16.839 -0.0784  0.2782 -0.0445
14405TIP3    H164630   1.614   5.651  16.853 -0.4196  0.3317  0.2076
14405TIP3    H264631   1.590   5.521  16.926 -0.7127  0.2332 -0.0589
14406TIP3   OH264632   0.730   0.403   2.768  0.0546  0.0684 -0.6344
14406TIP3    H164633   0.646   0.449   2.773  0.6441  1.2326 -1.1601
14406TIP3    H264634   0.770   0.416   2.854 -0.7979 -1.5246  0.0483
14407TIP3   OH264635   5.641   2.181   2.579  0.5477  0.9043 -0.2013
14407TIP3    H164636   5.557   2.141   2.600  1.0954  0.2394  0.8286
14407TIP3    H264637   5.656   2.158   2.487  0.5003 -0.7130  0.1534
14408TIP3   OH264638   5.094   3.857  13.889  0.1529  0.7269 -0.1774
14408TIP3    H164639   5.106   3.897  13.975  0.7965  0.0188  0.0763
14408TIP3    H264640   5.117   3.925  13.827  1.9575  0.5672  0.2571
14409TIP3   OH264641   4.359   5.412   1.044  0.1914  0.0261  0.3500
14409TIP3    H164642   4.307   5.369   1.112 -1.6601  1.0850 -0.3144
14409TIP3    H264643   4.420   5.345   1.013 -1.1738 -1.4599  0.7984
14410TIP3   OH264644   2.077   0.864  15.596  0.1787  0.0593 -0.0644
14410TIP3    H164645   2.026   0.890  15.673  0.2443  0.4466 -0.1506
14410TIP3    H264646   2.146   0.808  15.631 -0.2895 -0.4540  0.0552
14411TIP3   OH264647   4.970   2.316  14.689 -0.1936 -0.4078  0.3478
14411TIP3    H164648   4.901   2.303  14.624  0.0776 -0.3330  0.0429
14411TIP3    H264649   4.984   2.230  14.727  0.1883 -0.6111 -0.2392
14412TIP3   OH264650   4.021   6.723  11.414 -0.1126 -0.0137 -0.5969
14412TIP3    H164651   3.927   6.722  11.395 -0.4420  3.7486  0.1126
14412TIP3    H264652   4.057   6.788  11.354  1.8442 -0.4555  0.0225
14413TIP3   OH264653   0.354   3.286  14.765 -0.3663 -0.0690 -0.3243
14413TIP3    H164654   0.424   3.223  14.747 -1.1199 -1.1824  0.4780
14413TIP3    H264655   0.368   3.356  14.701  1.2713 -0.4102 -0.3884
14414TIP3   OH264656   1.980   0.743  13.467  0.6781  0.0745  0.3125
14414TIP3    H164657   2.002   0.773  13.378 -1.0075  0.3012 -0.0673
14414TIP3    H264658   1.884   0.745  13.469  0.6724 -0.8435  1.8398
14415TIP3   OH264659   3.342   6.156   3.793 -0.3724 -0.2173 -0.2801
14415TIP3    H164660   3.257   6.116   3.778 -0.4071 -0.6630  0.9651
14415TIP3    H264661   3.404   6.100   3.746 -0.3598 -2.1075  1.8322
14416TIP3   OH264662   5.116   1.166   5.869  0.4216  0.5548 -0.1809
14416TIP3    H164663   5.204   1.200   5.851  0.7795  0.4150  1.1972
14416TIP3    H264664   5.101   1.102   5.800  1.9220 -0.3093  0.2274
14417TIP3   OH264665   6.154   3.299   4.614  0.1184 -0.0191 -1.1055
14417TIP3    H164666   6.223   3.319   4.551  0.7118 -1.8004 -1.0835
14417TIP3    H264667   6.082   3.264   4.562 -0.1151  0.2528 -0.9696
14418TIP3   OH264668   1.157   6.242  16.483 -0.2394 -0.5787  0.0444
14418TIP3    H164669   1.084   6.304  16.486 -0.5492 -0.9529  0.2145
14418TIP3    H264670   1.124   6.163  16.524  1.1073  0.1214  2.6844
14419TIP3   OH264671   3.404   0.031  12.580 -0.3719  1.0532 -0.2432
14419TIP3    H164672   3.366  -0.050  12.615  0.8248 -0.7748 -2.8309
14419TIP3    H264673   3.468   0.058  12.646 -0.2625 -0.5812  0.3718
14420TIP3   OH264674   0.663   1.387  14.700 -0.2477  0.2709  0.5862
14420TIP3    H164675   0.715   1.308  14.711 -0.0152  0.0506 -1.6233
14420TIP3    H264676   0.682   1.416  14.610 -2.2527  1.4083  0.4684
14421TIP3   OH264677   3.418   1.144   2.506  0.0180  0.1586  0.0458
14421TIP3    H164678   3.367   1.097   2.572  1.0216 -1.2504 -0.1266
14421TIP3    H264679   3.509   1.130   2.531  0.3739  2.3569  0.1672
14422TIP3   OH264680   2.834   0.854  16.092 -0.1320 -0.4193 -0.2572
14422TIP3    H164681   2.881   0.775  16.118  1.4453  0.3711 -0.6226
14422TIP3    H264682   2.859   0.868  16.001  0.6271  1.2008  0.1725
14423TIP3   OH264683   5.119   0.855  15.510 -0.1668  0.3328  0.0639
14423TIP3    H164684   5.082   0.928  15.560  0.9500  0.1365  1.2396
14423TIP3    H264685   5.052   0.833  15.446 -2.6768 -0.8531  2.8962
14424TIP3   OH264686   0.213   3.560  12.142  0.1873  0.0027  0.7668
14424TIP3    H164687   0.228   3.639  12.089  1.2162 -2.0987 -2.3736
14424TIP3    H264688   0.297   3.545  12.186  1.2719 -1.2357 -1.5557
14425TIP3   OH264689   3.756   0.829  16.500  0.5833  0.1450 -0.2328
14425TIP3    H164690   3.805   0.828  16.418 -1.9496 -0.8447 -1.8526
14425TIP3    H264691   3.784   0.750  16.545  2.1042  0.7703 -0.0429
14426TIP3   OH264692   2.775   0.195   3.022  0.2518 -0.3101  0.5824
14426TIP3    H164693   2.842   0.250   3.062 -0.3654  1.7383 -0.9634
14426TIP3    H264694   2.804   0.184   2.932 -1.6263  1.0602 -0.2744
14427TIP3   OH264695   6.241   6.182   5.075  0.0407  0.7201  0.0821
14427TIP3    H164696   6.242   6.149   5.165 -0.9060 -0.0749 -0.1790
14427TIP3    H264697   6.330   6.213   5.060  0.8046 -1.0663  0.6192
14428TIP3   OH264698   5.262   6.042  10.759 -0.1333  0.0138 -0.2169
14428TIP3    H164699   5.221   6.056  10.674  1.4761 -0.0777 -1.0410
14428TIP3    H264700   5.262   5.947  10.770  3.1101 -0.3372 -1.9905
14429TIP3   OH264701   2.883   3.434   2.259  0.5796 -0.0444  0.5536
14429TIP3    H164702   2.899   3.406   2.349  0.1431 -2.1980  0.0138
14429TIP3    H264703   2.951   3.389   2.208  0.5342  0.7837 -0.2736
14430TIP3   OH264704   0.501   2.212   5.887  0.2267  0.4113 -0.0358
14430TIP3    H164705   0.442   2.236   5.816 -1.4275  0.3692  1.2713
14430TIP3    H264706   0.575   2.170   5.843 -0.7329  0.3961 -1.7282
14431TIP3   OH264707   4.805   6.767  11.872  0.0313  0.5011 -0.0224
14431TIP3    H164708   4.843   6.772  11.785 -1.4359  0.0289 -0.7233
14431TIP3    H264709   4.719   6.729  11.859  0.4376 -1.2833  1.8399
14432TIP3   OH264710   3.899   3.465  15.810 -0.1268 -0.0397  0.1412
14432TIP3    H164711   3.981   3.455  15.858  0.7074  1.1838 -0.9887
14432TIP3    H264712   3.867   3.552  15.834 -0.0544  0.3047 -0.9509
14433TIP3   OH264713   3.789   1.698  16.709 -0.0867  0.1032 -0.8854
14433TIP3    H164714   3.838   1.623  16.675 -1.2549  0.2675 -3.0906
14433TIP3    H264715   3.715   1.659  16.756  0.3003 -0.1173 -0.4493
14434TIP3   OH264716   2.474   4.243  13.881 -0.4278 -0.5609 -0.4143
14434TIP3    H164717   2.391   4.264  13.839 -0.7281  0.7297  0.7371
14434TIP3    H264718   2.450   4.208  13.966  0.1638  1.2101  0.5392
14435TIP3   OH264719   4.008   3.740  12.580 -0.4716  0.3946  0.1743
14435TIP3    H164720   4.008   3.674  12.649 -0.4106  0.2916  0.0755
14435TIP3    H264721   4.045   3.818  12.621  0.1491  0.1541  0.0835
14436TIP3   OH264722   5.073   3.885   2.386  0.0622  0.4546 -0.2049
14436TIP3    H164723   5.157   3.853   2.417 -0.2335  0.4468  0.6203
14436TIP3    H264724   5.075   3.872   2.291  1.4254  1.4807 -0.3437
14437TIP3   OH264725   5.266   1.615   0.440 -0.3401 -0.1506  0.0560
14437TIP3    H164726   5.296   1.528   0.417 -1.8136 -1.2613  1.9949
14437TIP3    H264727   5.249   1.611   0.534 -0.3803  2.2585  0.2289
14438TIP3   OH264728   4.839   0.052   5.800 -0.0844 -0.3819 -0.5360
14438TIP3    H164729   4.790  -0.030   5.805 -0.3068 -0.2282 -0.1707
14438TIP3    H264730   4.928   0.028   5.824  0.2122 -0.8096 -1.9333
14439TIP3   OH264731   3.778   1.278   4.190  0.2917 -0.3560  0.3711
14439TIP3    H164732   3.789   1.301   4.282  2.2401  1.9679 -0.3137
14439TIP3    H264733   3.696   1.319   4.164  0.8485  0.9385  0.5846
14440TIP3   OH264734   5.239   2.024   1.515 -0.1024 -0.4219  0.0725
14440TIP3    H164735   5.252   2.020   1.609 -1.0467  4.0356  0.6330
14440TIP3    H264736   5.323   2.052   1.480 -0.3272  0.0821 -0.0798
14441TIP3   OH264737   0.887   2.455   4.400 -0.4860 -0.0633 -0.4919
14441TIP3    H164738   0.940   2.386   4.360 -1.4305 -0.7349 -0.6190
14441TIP3    H264739   0.912   2.455   4.492  1.3162  1.1279 -0.9230
14442TIP3   OH264740   4.723   4.851  17.085 -0.6442  0.2801 -0.0047
14442TIP3    H164741   4.643   4.814  17.124 -0.3670  0.5129  0.8050
14442TIP3    H264742   4.757   4.910  17.152 -0.0359  0.5325 -0.5279
14443TIP3   OH264743   4.390   5.784   2.609 -0.4824  0.1386 -0.2839
14443TIP3    H164744   4.350   5.869   2.628  0.2523  0.3427  0.3772
14443TIP3    H264745   4.474   5.786   2.653  0.0385 -0.4986 -1.2078
14444TIP3   OH264746   1.622   0.737  14.088 -0.2699 -0.9005  0.4857
14444TIP3    H164747   1.591   0.824  14.112 -1.0924 -0.4983 -1.7946
14444TIP3    H264748   1.553   0.678  14.117 -0.5002 -0.6074  0.5370
14445TIP3   OH264749   4.618   0.939  13.312  0.2234  0.3361 -0.2158
14445TIP3    H164750   4.618   0.952  13.407  0.4380 -1.1266  0.0102
14445TIP3    H264751   4.617   1.027  13.276 -0.4572  0.9167  1.1394
14446TIP3   OH264752   4.098   0.382   3.649  0.3591  0.0347  0.2648
14446TIP3    H164753   4.121   0.436   3.725  1.5246  2.3087 -1.5511
14446TIP3    H264754   4.177   0.334   3.628 -0.0148 -0.7304  0.5985
14447TIP3   OH264755   4.416   1.772   1.587 -0.5297 -0.2159 -0.1587
14447TIP3    H164756   4.350   1.792   1.654 -1.0393 -1.5774 -0.2181
14447TIP3    H264757   4.438   1.680   1.602  0.7563 -0.0132 -0.6764
14448TIP3   OH264758   2.322   6.144   4.130 -0.4474 -0.0833  0.4547
14448TIP3    H164759   2.310   6.120   4.038 -1.9246  2.8088 -0.2292
14448TIP3    H264760   2.417   6.155   4.140 -0.2849 -0.2262 -0.7742
14449TIP3   OH264761   2.263   3.028  15.739  0.1673  0.4967 -0.0014
14449TIP3    H164762   2.275   3.089  15.812  0.2773  2.3112 -1.4567
14449TIP3    H264763   2.212   2.956  15.776 -0.5425  1.7700  1.6491
14450TIP3   OH264764   1.942   4.903  14.288 -0.3622  0.4174 -0.0463
14450TIP3    H164765   1.952   4.870  14.198 -0.5591  1.4415 -0.4515
14450TIP3    H264766   1.942   4.998  14.279  0.2718  0.5418  1.1228
14451TIP3   OH264767   2.979   6.623  12.009 -0.0000  0.0715 -0.0607
14451TIP3    H164768   3.061   6.587  11.975  1.1099  1.5328  0.9807
14451TIP3    H264769   2.913   6.556  11.988  0.9354  0.0042 -3.2385
14452TIP3   OH264770   4.986   0.947   0.222 -0.0097 -0.2612 -0.2465
14452TIP3    H164771   5.014   0.937   0.131 -0.2549 -0.8433 -0.2674
14452TIP3    H264772   5.068   0.950   0.272  0.1202 -0.8073 -0.4108
14453TIP3   OH264773   5.553   6.502   6.581 -0.1763 -0.0607 -0.3828
14453TIP3    H164774   5.645   6.519   6.560  0.0946 -0.1780  0.6431
14453TIP3    H264775   5.505   6.522   6.501  0.3814  3.0162 -0.0740
14454TIP3   OH264776   3.197   2.070  16.458 -0.5228  0.1209  0.5497
14454TIP3    H164777   3.292   2.076  16.462 -0.5146  0.1285  0.3665
14454TIP3    H264778   3.178   1.978  16.474 -0.3718 -0.2502 -1.2268
14455TIP3   OH264779   1.823   0.617   4.099  0.7279 -0.6509  0.1699
14455TIP3    H164780   1.855   0.690   4.045 -0.2528 -1.0000 -0.9280
14455TIP3    H264781   1.882   0.545   4.078  0.4370 -0.7451 -0.3453
14456TIP3   OH264782   2.260   5.308   0.988 -0.4122 -0.1310  0.1755
14456TIP3    H164783   2.172   5.342   1.005 -0.7887 -1.4126  0.9415
14456TIP3    H264784   2.248   5.245   0.917 -0.1707 -0.5546  0.5088
14457TIP3   OH264785   0.928   4.411  15.334 -0.2306  0.0426  0.0069
14457TIP3    H164786   0.894   4.488  15.379  0.3010  1.3286 -1.6708
14457TIP3    H264787   1.003   4.384  15.386 -0.3436  0.7562  0.5478
14458TIP3   OH264788   5.643   3.646   5.763  0.3217 -0.3713 -0.1016
14458TIP3    H164789   5.706   3.709   5.799 -0.6741  1.0849 -0.8025
14458TIP3    H264790   5.676   3.626   5.676  0.2812 -0.3083 -0.1313
14459TIP3   OH264791   0.245   0.072  15.560  0.2301  0.2109 -0.5658
14459TIP3    H164792   0.156   0.107  15.558  0.6490  1.2731 -1.6797
14459TIP3    H264793   0.292   0.129  15.620 -0.4927 -2.1904  2.5929
14460TIP3   OH264794   3.420   1.771   3.757  0.2024  0.5958 -0.5636
14460TIP3    H164795   3.347   1.726   3.715 -0.2962 -0.1117  0.9575
14460TIP3    H264796   3.398   1.864   3.751 -0.2975  0.4498 -1.0609
14461TIP3   OH264797   5.053   2.218  13.817  0.2941  0.1774 -0.2583
14461TIP3    H164798   5.007   2.286  13.768  0.0818  0.2530  0.0415
14461TIP3    H264799   5.044   2.139  13.764 -2.0317 -0.3375  0.7738
14462TIP3   OH264800   1.208   3.033  12.475 -0.8265 -0.1071  0.6699
14462TIP3    H164801   1.133   3.051  12.420 -0.3190  0.6189  0.2046
14462TIP3    H264802   1.219   3.112  12.528  0.5042  0.4233 -0.3350
14463TIP3   OH264803   2.471   5.483  13.070  0.1668  0.3269 -0.7808
14463TIP3    H164804   2.540   5.544  13.096 -0.4193  0.6851  0.0061
14463TIP3    H264805   2.515   5.416  13.018  0.9149  1.1227 -1.1853
14464TIP3   OH264806   6.573   3.168  16.950  0.1262 -0.1431 -0.4147
14464TIP3    H164807   6.611   3.205  17.030  0.2990 -0.6820 -0.2468
14464TIP3    H264808   6.649   3.134  16.902  0.0327  0.2556 -0.8498
14465TIP3   OH264809   1.927   1.017  13.337 -0.1376  0.4657  0.1613
14465TIP3    H164810   1.983   1.077  13.288  0.2760 -0.0986 -0.0585
14465TIP3    H264811   1.899   1.069  13.413  0.7285  0.7367  0.3078
14466TIP3   OH264812   1.241   3.566  16.389 -0.2733  0.0912 -0.6865
14466TIP3    H164813   1.174   3.509  16.426 -1.1749  0.3993 -1.7642
14466TIP3    H264814   1.309   3.507  16.358 -1.2386 -0.4414 -1.8851
14467TIP3   OH264815   4.455   4.956   3.345 -0.1296 -0.0159  0.2089
14467TIP3    H164816   4.528   4.930   3.289  0.4157  0.1941  0.8022
14467TIP3    H264817   4.391   4.995   3.285 -0.4494 -1.6272 -0.5250
14468TIP3   OH264818   1.745   0.129  15.429  0.4873 -0.5286  0.1164
14468TIP3    H164819   1.772   0.115  15.520 -0.1212  0.7104  0.5210
14468TIP3    H264820   1.814   0.089  15.376  1.8306  0.3702  1.1134
14469TIP3   OH264821   4.140   4.987  16.568  0.3026 -0.2850  0.3589
14469TIP3    H164822   4.121   5.079  16.585  0.4058  0.1169 -1.5528
14469TIP3    H264823   4.126   4.976  16.474  1.0637 -2.0301  0.4088
14470TIP3   OH264824   6.162   6.236   1.312  0.3187 -0.0005 -0.2302
14470TIP3    H164825   6.107   6.175   1.361  0.9768  0.2505  0.8554
14470TIP3    H264826   6.153   6.319   1.360  2.0649 -0.0914  0.2962
14471TIP3   OH264827   0.090   2.738   4.629  0.1244  0.0768  0.0633
14471TIP3    H164828   0.004   2.775   4.651  0.1324 -0.1144  0.4366
14471TIP3    H264829   0.083   2.645   4.653  0.1692 -0.1214 -0.6772
14472TIP3   OH264830   0.435   0.484  11.379  0.4757  0.0654  0.8707
14472TIP3    H164831   0.502   0.527  11.325 -1.5470  1.6146 -0.5437
14472TIP3    H264832   0.355   0.533  11.362 -1.1497 -1.9436  2.2206
14473TIP3   OH264833   1.650   4.451  16.715 -0.6652 -0.3317  0.0645
14473TIP3    H164834   1.704   4.484  16.643 -0.1136 -0.7183  0.2973
14473TIP3    H264835   1.597   4.382  16.675 -0.4221 -0.4882  0.0095
14474TIP3   OH264836   0.492   4.664   4.983 -0.6410 -0.3066 -0.3074
14474TIP3    H164837   0.523   4.746   5.022  0.5465  1.0109 -3.6177
14474TIP3    H264838   0.397   4.665   4.996 -0.4276  0.5115  1.5186
14475TIP3   OH264839   4.195   4.717  14.090  0.3165  0.8248 -0.2959
14475TIP3    H164840   4.111   4.703  14.047  0.4988 -0.4242 -0.2857
14475TIP3    H264841   4.176   4.708  14.183  0.1899  2.1094 -0.1733
14476TIP3   OH264842   2.775   3.286   4.878  0.5768 -0.1521  0.3328
14476TIP3    H164843   2.868   3.274   4.857  0.3348 -2.1469  0.2668
14476TIP3    H264844   2.735   3.201   4.864 -1.6737  1.0711 -1.4323
14477TIP3   OH264845   3.859   3.882   4.453  0.4811  0.0945  0.3349
14477TIP3    H164846   3.764   3.877   4.465  0.6569 -0.9908  1.4535
14477TIP3    H264847   3.883   3.967   4.490  0.1794 -0.4940  1.9465
14478TIP3   OH264848   0.315   5.971   1.991 -0.6348 -0.2205  0.1163
14478TIP3    H164849   0.301   5.954   1.898 -1.0211  0.0945  0.1115
14478TIP3    H264850   0.233   5.943   2.032  0.0297 -1.6416  0.5359
14479TIP3   OH264851   6.469   1.349  14.660 -0.2866 -0.2521 -0.7926
14479TIP3    H164852   6.534   1.383  14.598  1.3976 -0.2619  0.8790
14479TIP3    H264853   6.504   1.371  14.746 -2.0075 -1.2044  0.2120
14480TIP3   OH264854   5.242   2.605   5.402 -0.1916  0.0988  0.0937
14480TIP3    H164855   5.228   2.698   5.382  0.3762  0.3740  0.9139
14480TIP3    H264856   5.155   2.566   5.392 -0.9611  1.1761  1.9822
14481TIP3   OH264857   1.611   3.844   5.541 -0.5135  0.2559  0.0282
14481TIP3    H164858   1.610   3.789   5.463 -0.8861  0.3922 -0.0666
14481TIP3    H264859   1.703   3.864   5.555 -0.1034 -2.1333  1.2958
14482TIP3   OH264860   4.175   2.567   4.414  0.0080  0.1214 -0.5864
14482TIP3    H164861   4.191   2.652   4.454  0.6785 -0.1804 -0.1933
14482TIP3    H264862   4.237   2.508   4.457 -0.9112 -0.7169 -0.3524
14483TIP3   OH264863   0.089   1.711   1.010  0.0667 -0.2751 -0.3312
14483TIP3    H164864   0.120   1.624   1.036  0.8959  0.0022 -0.3408
14483TIP3    H264865   0.162   1.748   0.959  0.3796  1.0177  0.9785
14484TIP3   OH264866   2.467   3.070  12.530 -0.1963  0.6072  0.2600
14484TIP3    H164867   2.411   3.146  12.516 -0.9562  0.4143  1.9913
14484TIP3    H264868   2.540   3.103  12.582  0.6345  0.5798 -0.8567
14485TIP3   OH264869   2.322   4.291  14.495  0.0315  0.1267  0.2321
14485TIP3    H164870   2.291   4.317  14.408  0.5288  0.3423  0.1119
14485TIP3    H264871   2.246   4.252  14.538 -0.2433  0.1092 -0.2664
14486TIP3   OH264872   0.196   2.576  10.476  0.6343 -0.5742  0.3091
14486TIP3    H164873   0.124   2.520  10.446 -0.5331  1.1372 -0.2493
14486TIP3    H264874   0.246   2.521  10.536 -2.1561 -1.3204  2.1351
14487TIP3   OH264875   1.285   4.134   3.253  0.4458 -0.1910 -0.3467
14487TIP3    H164876   1.370   4.102   3.282  0.4750 -0.5654 -0.8273
14487TIP3    H264877   1.252   4.184   3.327  1.1857  0.1558 -0.2408
14488TIP3   OH264878   2.905   0.336  12.647 -0.1186 -0.8822  0.6016
14488TIP3    H164879   2.960   0.414  12.649  0.1194 -1.0392  0.2980
14488TIP3    H264880   2.883   0.319  12.738 -0.9776  0.1098  0.5990
14489TIP3   OH264881   6.152   5.107  15.488 -0.0886 -0.5513 -0.1553
14489TIP3    H164882   6.176   5.199  15.500 -0.6860 -0.1286 -1.8869
14489TIP3    H264883   6.211   5.075  15.420  1.0007 -1.8623  1.3436
14490TIP3   OH264884   4.994   5.803   4.613  0.1819  0.2522 -0.2324
14490TIP3    H164885   4.968   5.748   4.539  0.7234  0.6626 -0.7407
14490TIP3    H264886   4.973   5.892   4.586  0.3510  0.4011  0.1196
14491TIP3   OH264887   0.916   6.187  16.882 -0.0074 -0.4965 -0.0528
14491TIP3    H164888   1.008   6.206  16.898 -0.1752 -0.0051  0.3533
14491TIP3    H264889   0.887   6.138  16.959  0.2525 -1.8843 -0.7938
14492TIP3   OH264890   4.789   2.752  14.596  0.1217 -0.2935  0.4102
14492TIP3    H164891   4.857   2.783  14.655 -0.6429  3.3410 -0.3947
14492TIP3    H264892   4.712   2.806  14.616 -0.2970  0.8802 -3.4672
14493TIP3   OH264893   0.452   2.203   0.026 -0.6298  0.0655 -0.2866
14493TIP3    H164894   0.476   2.285   0.068 -0.9014  0.2163 -0.4173
14493TIP3    H264895   0.392   2.230  -0.044  0.3285 -0.1136 -1.1952
14494TIP3   OH264896   1.165   5.626  15.599 -0.0820  0.2406 -0.1293
14494TIP3    H164897   1.083   5.624  15.550 -1.2509 -0.4195  1.7630
14494TIP3    H264898   1.163   5.709  15.646  0.0452 -0.0407  0.3787
14495TIP3   OH264899   1.827   1.719  12.286 -0.0122 -0.5954  0.7520
14495TIP3    H164900   1.798   1.709  12.196  0.5263 -2.2839  0.7300
14495TIP3    H264901   1.827   1.814  12.301  0.7771 -0.2115 -1.3207
14496TIP3   OH264902   2.594   0.836  11.851  0.3517 -0.2890 -0.1485
14496TIP3    H164903   2.637   0.796  11.927 -3.0370 -2.7403  0.7536
14496TIP3    H264904   2.641   0.800  11.776  1.7740 -0.3602  0.7223
14497TIP3   OH264905   4.233   5.082  15.687 -0.2432  0.3570  0.5363
14497TIP3    H164906   4.221   5.156  15.747  1.7279  0.6364  0.6568
14497TIP3    H264907   4.327   5.081  15.670 -0.2426 -2.0544  0.4406
14498TIP3   OH264908   1.027   5.397  14.450  0.3251  0.1757 -0.0512
14498TIP3    H164909   1.011   5.325  14.512 -0.6142  0.3368 -0.1070
14498TIP3    H264910   1.118   5.423  14.468  1.1312 -1.8237 -0.8554
14499TIP3   OH264911   6.787   2.877  13.271 -0.1728 -0.2668  0.4315
14499TIP3    H164912   6.710   2.901  13.321 -0.1925 -0.2555  0.3964
14499TIP3    H264913   6.858   2.871  13.335  0.1335  1.2288  0.2798
14500TIP3   OH264914   4.277   4.570  14.948 -0.1821 -0.4062 -0.2113
14500TIP3    H164915   4.278   4.658  14.909  0.7979 -0.1728  0.3187
14500TIP3    H264916   4.232   4.516  14.883 -0.6373  0.4474 -0.6242
14501TIP3   OH264917   5.568   0.902  12.040 -0.3544  0.6417  0.0428
14501TIP3    H164918   5.659   0.882  12.061 -1.0735 -0.3846  2.5325
14501TIP3    H264919   5.557   0.871  11.950  0.6847 -3.3592  1.0839
14502TIP3   OH264920   3.946   1.842  14.961  0.2543 -0.2098  0.0803
14502TIP3    H164921   4.007   1.883  15.022 -0.3055  0.8346 -0.0542
14502TIP3    H264922   3.960   1.748  14.974  1.7771 -0.0020  0.1581
14503TIP3   OH264923   3.983   1.681  12.744  0.6486 -0.4469  0.1700
14503TIP3    H164924   4.060   1.625  12.733  0.1561 -1.5780  1.9226
14503TIP3    H264925   3.910   1.619  12.751 -0.2937  0.5602 -0.5398
14504TIP3   OH264926   1.378   2.254   1.172 -0.3554  0.2564 -0.3664
14504TIP3    H164927   1.390   2.167   1.210  1.7976  0.1470 -1.1911
14504TIP3    H264928   1.422   2.313   1.233  1.8183  0.2445 -1.8217
14505TIP3   OH264929   0.949   0.047   6.151 -0.1389 -0.4919 -0.0702
14505TIP3    H164930   0.870  -0.001   6.126 -1.3955  1.0818  0.6781
14505TIP3    H264931   0.925   0.091   6.232  0.6907  1.9222 -1.0532
14506TIP3   OH264932   6.228   2.449  15.169 -0.3709  0.5372 -0.1856
14506TIP3    H164933   6.200   2.372  15.120 -0.1788  0.4537 -0.1663
14506TIP3    H264934   6.323   2.449  15.161 -0.3964  0.9888 -0.5105
14507TIP3   OH264935   2.609   0.128  16.606 -0.2623  0.3392 -0.2904
14507TIP3    H164936   2.581   0.107  16.695  1.8991 -0.0482  0.3521
14507TIP3    H264937   2.528   0.147  16.559 -1.3647  1.7763  2.0493
14508TIP3   OH264938   2.155   3.904   3.846  0.5318 -0.1687 -0.5435
14508TIP3    H164939   2.127   3.816   3.821  0.1021  0.0571 -0.8690
14508TIP3    H264940   2.235   3.919   3.796  0.3155 -0.1729 -0.8946
14509TIP3   OH264941   4.394   6.151   4.788  0.1026  0.2523 -0.3106
14509TIP3    H164942   4.429   6.185   4.705 -1.1644  0.2046 -0.8861
14509TIP3    H264943   4.313   6.107   4.763  0.0704 -0.3824  0.8741
14510TIP3   OH264944   5.153   3.196   1.042 -0.9806  0.0090 -0.3146
14510TIP3    H164945   5.071   3.194   1.090 -1.2705  0.4264 -0.7797
14510TIP3    H264946   5.194   3.279   1.066 -2.0424  1.1741 -2.2350
14511TIP3   OH264947   5.959   2.966   1.201 -0.0109  0.1068 -0.2096
14511TIP3    H164948   5.866   2.988   1.189 -0.2335 -1.5556 -2.1866
14511TIP3    H264949   5.961   2.919   1.284 -0.6995  1.2425  0.4817
14512TIP3   OH264950   3.662   6.758   0.937 -0.0652  0.2821 -0.0153
14512TIP3    H164951   3.593   6.823   0.939  0.8213  1.2445  1.5465
14512TIP3    H264952   3.667   6.730   0.846 -0.4844  2.4055 -0.7331
14513TIP3   OH264953   3.987   0.275   4.460 -0.0223 -0.3250  0.1361
14513TIP3    H164954   3.991   0.351   4.518 -0.2629 -0.4295  0.2924
14513TIP3    H264955   3.961   0.312   4.375 -0.9316 -0.3300  0.4049
14514TIP3   OH264956   4.486   6.101   6.185 -0.3472 -0.0112 -0.0479
14514TIP3    H164957   4.402   6.056   6.182 -0.0342 -0.6760  0.9102
14514TIP3    H264958   4.547   6.041   6.142 -0.2864  0.3284 -0.4468
14515TIP3   OH264959   2.554   2.305   1.584  0.6687  0.5905  0.0994
14515TIP3    H164960   2.629   2.362   1.567 -0.6573  1.8477 -1.9298
14515TIP3    H264961   2.478   2.355   1.553 -0.4688 -2.6895 -3.0547
14516TIP3   OH264962   3.363   2.217   4.968  0.8592  0.5589 -0.4285
14516TIP3    H164963   3.412   2.182   4.894  0.9244  1.4522 -0.8220
14516TIP3    H264964   3.271   2.210   4.942  0.9015  1.3449 -0.8268
14517TIP3   OH264965   5.007   4.154   5.911  0.2148  0.5646  0.1559
14517TIP3    H164966   5.018   4.197   5.826  0.7516  1.1793  0.5231
14517TIP3    H264967   5.070   4.198   5.969  0.7049 -0.6377  0.5842
14518TIP3   OH264968   5.189   0.372   0.245 -0.1461  0.0890  0.6727
14518TIP3    H164969   5.193   0.410   0.333  0.9384  0.3438  0.5301
14518TIP3    H264970   5.119   0.420   0.201  2.0741  3.0345  0.0357
14519TIP3   OH264971   1.632   4.683   1.662 -0.1549 -0.9543  0.4353
14519TIP3    H164972   1.597   4.670   1.750  3.8512 -0.4539  2.3291
14519TIP3    H264973   1.638   4.595   1.625 -2.2870 -1.1316  0.4024
14520TIP3   OH264974   4.433   4.859  10.852 -0.2389  0.2001 -0.1948
14520TIP3    H164975   4.492   4.843  10.779  0.0349 -0.6068  0.1993
14520TIP3    H264976   4.348   4.826  10.822 -0.5197  1.3597 -0.7589
14521TIP3   OH264977   6.530   2.289   2.742  0.5576 -0.0625  0.0071
14521TIP3    H164978   6.438   2.306   2.726  0.6683 -0.5428 -1.1953
14521TIP3    H264979   6.564   2.372   2.775 -0.1107  0.3718 -0.3818
14522TIP3   OH264980   2.656   0.846   6.705  0.1295 -0.0835 -0.0274
14522TIP3    H164981   2.734   0.891   6.737  0.0616 -0.0214  0.0495
14522TIP3    H264982   2.689   0.763   6.670 -0.1512 -1.8374  3.4559
14523TIP3   OH264983   0.896   4.837   1.699  0.0729  0.3580 -0.5754
14523TIP3    H164984   0.855   4.800   1.620 -1.3942  1.8141 -0.5422
14523TIP3    H264985   0.905   4.930   1.680 -1.1248  0.9053  1.2879
14524TIP3   OH264986   4.542   3.135  15.747  0.3082  0.2204  0.1383
14524TIP3    H164987   4.547   3.108  15.655  0.2862 -1.1328  0.5062
14524TIP3    H264988   4.507   3.224  15.744  0.5068  0.2803 -1.1666
14525TIP3   OH264989   1.803   4.115  13.866  0.0050 -0.3221 -0.2263
14525TIP3    H164990   1.896   4.091  13.868  0.5364  1.3608 -1.8633
14525TIP3    H264991   1.757   4.032  13.881  1.7507 -1.2500  0.2986
14526TIP3   OH264992   1.603   2.300  13.166  0.8967 -0.2394 -1.0705
14526TIP3    H164993   1.508   2.297  13.180  0.6386 -1.3111 -2.7287
14526TIP3    H264994   1.634   2.215  13.196  1.5649  0.5806  0.6753
14527TIP3   OH264995   5.033   6.250  14.002 -0.4100 -0.4402  0.6695
14527TIP3    H164996   5.125   6.269  14.018  0.4684 -1.8064 -2.1557
14527TIP3    H264997   5.021   6.160  14.033 -1.1761  0.1599  2.1997
14528TIP3   OH264998   1.923   6.786   2.888 -0.1522 -0.4486 -0.3437
14528TIP3    H164999   1.894   6.851   2.824 -0.0622 -0.6163 -0.5568
14528TIP3    H265000   1.908   6.827   2.973 -0.8156 -0.4497 -0.4517
14529TIP3   OH265001   0.750   4.670   1.507  0.4896 -0.2352 -0.1000
14529TIP3    H165002   0.738   4.577   1.492 -1.8483 -0.0015 -0.0110
14529TIP3    H265003   0.678   4.695   1.566  1.3219  1.5334  0.2364
14530TIP3   OH265004   4.385   4.576  15.695  0.3039 -0.2960  0.3240
14530TIP3    H165005   4.355   4.666  15.693  0.9812 -0.0433  1.0233
14530TIP3    H265006   4.411   4.556  15.605 -0.5570 -0.0484  0.0165
14531TIP3   OH265007   1.191   2.226   4.468  0.6827  0.2059 -0.1695
14531TIP3    H165008   1.244   2.147   4.460  1.0518  0.4821 -0.5532
14531TIP3    H265009   1.139   2.228   4.388  0.6038  0.2993 -0.1163
14532TIP3   OH265010   5.157   2.700  14.859  0.5747 -0.3433  0.1252
14532TIP3    H165011   5.068   2.706  14.894  0.1271  2.3057 -1.1523
14532TIP3    H265012   5.208   2.760  14.913  0.5401  1.4406 -1.6869
14533TIP3   OH265013   6.518   1.528  14.868  0.3499  0.2483  0.0502
14533TIP3    H165014   6.423   1.532  14.857  0.1789  1.6182  1.7438
14533TIP3    H265015   6.548   1.618  14.853  1.4252 -0.1862 -0.5762
14534TIP3   OH265016   1.764   2.216  15.430 -0.0728  0.3480  0.2320
14534TIP3    H165017   1.732   2.208  15.341  0.7780 -2.6076  0.1095
14534TIP3    H265018   1.691   2.189  15.485  0.0610  0.1860  0.3306
14535TIP3   OH265019   3.063   2.445   6.414  0.2715 -0.3755 -0.4531
14535TIP3    H165020   3.144   2.473   6.457  0.2659 -0.9774 -0.0396
14535TIP3    H265021   3.034   2.522   6.365  0.7798  0.0289 -0.1293
14536TIP3   OH265022   2.311   1.804  16.079 -0.2994 -0.2594  0.5731
14536TIP3    H165023   2.342   1.894  16.083  2.1578 -1.0501  0.9049
14536TIP3    H265024   2.328   1.777  15.989  1.1072 -1.0663  1.0623
14537TIP3   OH265025   4.596   3.251   5.802  0.2974 -0.2996  0.4630
14537TIP3    H165026   4.646   3.333   5.800  2.0318 -1.3494 -1.1987
14537TIP3    H265027   4.512   3.274   5.762  0.7777  0.6451 -0.0359
14538TIP3   OH265028   3.637   1.930  14.983  0.1221 -0.0200 -0.0768
14538TIP3    H165029   3.636   1.834  14.990 -0.3487 -0.1157 -1.1658
14538TIP3    H265030   3.705   1.948  14.918  2.1343  0.5870  2.0602
14539TIP3   OH265031   3.953   5.631   3.767 -0.0097  0.2293  0.2916
14539TIP3    H165032   4.045   5.620   3.790 -0.3077  0.9667  1.9206
14539TIP3    H265033   3.949   5.714   3.720  0.5735 -1.2117 -2.5582
14540TIP3   OH265034   2.607   3.379  13.532 -0.0439 -0.5122 -0.1743
14540TIP3    H165035   2.598   3.437  13.456 -0.4553 -0.4678 -0.0978
14540TIP3    H265036   2.662   3.307  13.501 -1.6047 -1.3807 -1.0524
14541TIP3   OH265037   5.552   4.350  11.807 -0.1138  0.0380  0.2898
14541TIP3    H165038   5.591   4.409  11.743  0.5099  0.0327  0.6501
14541TIP3    H265039   5.594   4.374  11.890 -0.8483 -0.0069  0.6845
14542TIP3   OH265040   0.392   4.175  13.079 -0.4822 -0.4220 -0.1151
14542TIP3    H165041   0.400   4.232  13.156 -1.8584 -1.1579  0.6219
14542TIP3    H265042   0.458   4.107  13.092  0.4531  0.3972 -0.4713
14543TIP3   OH265043   4.611   6.273   2.400 -0.4145  0.3362  0.2892
14543TIP3    H165044   4.542   6.293   2.337  0.6465 -1.6065 -1.6260
14543TIP3    H265045   4.600   6.338   2.469 -1.1167  3.2106 -2.2930
14544TIP3   OH265046   6.299   5.805  12.745 -0.5183  0.1270 -0.0422
14544TIP3    H165047   6.366   5.737  12.736 -1.0824 -0.3358 -0.9059
14544TIP3    H265048   6.347   5.882  12.777  0.2712 -0.4398  0.1574
14545TIP3   OH265049   0.095   3.383  12.817 -0.4533 -0.3764  0.6880
14545TIP3    H165050   0.104   3.331  12.897  2.8072 -1.2537 -0.1038
14545TIP3    H265051   0.119   3.472  12.843  1.7109 -0.8666  0.5734
14546TIP3   OH265052   2.454   4.471   1.344 -0.2122 -0.5445 -0.6584
14546TIP3    H165053   2.411   4.449   1.261  1.1511 -0.6109 -1.3711
14546TIP3    H265054   2.514   4.398   1.359 -0.3333 -0.4504  0.3190
14547TIP3   OH265055   4.357   3.829   4.113  0.2793 -0.1388  0.2325
14547TIP3    H165056   4.397   3.750   4.150  2.6143  0.5495 -0.6120
14547TIP3    H265057   4.338   3.806   4.022 -2.0031 -0.6641  0.7886
14548TIP3   OH265058   4.771   4.378   5.435  0.0748  0.1791 -0.4827
14548TIP3    H165059   4.852   4.355   5.390  0.4628  2.1515 -0.8778
14548TIP3    H265060   4.712   4.407   5.366  0.2003  1.9172  0.0934
14549TIP3   OH265061   2.704   2.579   5.114 -0.1761 -0.1266  0.5105
14549TIP3    H165062   2.643   2.536   5.053  0.0326 -1.7574  1.3795
14549TIP3    H265063   2.790   2.565   5.075 -0.1541  0.0429  0.4985
14550TIP3   OH265064   6.627   4.477  16.725  0.0224  0.2951 -0.0297
14550TIP3    H165065   6.680   4.548  16.761 -1.1597  0.3816  1.6220
14550TIP3    H265066   6.585   4.437  16.801 -0.3962 -1.3187 -1.0660
14551TIP3   OH265067   6.565   0.425  12.495 -0.4129 -0.2334  0.2549
14551TIP3    H165068   6.543   0.336  12.467  0.2411 -0.6932  1.1471
14551TIP3    H265069   6.545   0.427  12.588 -1.3826  0.8887  0.0401
14552TIP3   OH265070   5.863   0.995   2.468  0.4285 -0.1881 -0.1225
14552TIP3    H165071   5.877   0.904   2.440  0.5712  0.4337 -2.2045
14552TIP3    H265072   5.951   1.031   2.476  0.3887 -0.2990  1.0899
14553TIP3   OH265073   2.400   2.240  13.085  0.3637 -1.1235 -0.1888
14553TIP3    H165074   2.467   2.249  13.017  1.1857  1.0861  0.8187
14553TIP3    H265075   2.426   2.303  13.153 -0.6846 -2.8666  1.9738
14554TIP3   OH265076   2.010   6.580   1.927 -0.5799 -0.4792  0.2959
14554TIP3    H165077   1.976   6.499   1.965 -1.0366 -0.7650 -0.6997
14554TIP3    H265078   1.955   6.649   1.965 -1.9659 -0.8873 -0.8848
14555TIP3   OH265079   3.741   3.662  15.314  0.0565 -0.0361  0.0886
14555TIP3    H165080   3.733   3.754  15.339  0.8560 -0.0273  0.3385
14555TIP3    H265081   3.773   3.618  15.393  0.4436 -0.3862 -0.2594
14556TIP3   OH265082   6.451   6.518   3.200  0.0509 -0.7015  0.4242
14556TIP3    H165083   6.493   6.576   3.265  4.5835 -1.1059 -1.7183
14556TIP3    H265084   6.494   6.434   3.213 -0.5200 -1.3595 -1.6363
14557TIP3   OH265085   5.444   1.130  11.054  0.0514  0.1873  0.3140
14557TIP3    H165086   5.489   1.058  11.009 -0.4375 -0.7364  1.2526
14557TIP3    H265087   5.391   1.087  11.121 -1.0690  1.3543  0.2253
14558TIP3   OH265088   2.352   5.268   1.487 -0.1923  0.0391  0.6759
14558TIP3    H165089   2.414   5.207   1.446 -0.7761 -0.0837 -0.0438
14558TIP3    H265090   2.350   5.343   1.428 -0.7776  0.0153  0.6594
14559TIP3   OH265091   3.795   2.165  16.849  0.3120  0.6685  0.2206
14559TIP3    H165092   3.715   2.114  16.837  1.3717 -1.0842  0.2575
14559TIP3    H265093   3.767   2.256  16.839 -1.4419  0.0491 -1.0269
14560TIP3   OH265094   1.231   6.654   6.711 -0.2566  0.9804  0.0930
14560TIP3    H165095   1.163   6.720   6.727 -1.0601 -0.0301  1.0022
14560TIP3    H265096   1.202   6.609   6.631 -0.6236  0.6037  0.4344
14561TIP3   OH265097   5.603   2.439   2.831 -0.6551  0.0760 -0.8733
14561TIP3    H165098   5.604   2.465   2.738 -1.1649 -0.8434 -1.1450
14561TIP3    H265099   5.560   2.354   2.831 -3.4701  1.3840  0.5717
14562TIP3   OH265100   2.910   2.009   2.612  0.1825  0.4203  0.5611
14562TIP3    H165101   2.923   2.101   2.590 -0.4431  0.2840 -0.4237
14562TIP3    H265102   2.902   1.964   2.527  1.2909 -0.6665  0.9963
14563TIP3   OH265103   3.929   1.311   3.751  0.0887  0.5687  0.0048
14563TIP3    H165104   3.895   1.225   3.725  1.2716  0.7291 -2.3205
14563TIP3    H265105   3.981   1.293   3.829 -3.5487  0.0238  2.5501
14564TIP3   OH265106   0.651   5.243   0.477  0.0297 -0.1529 -0.2955
14564TIP3    H165107   0.733   5.278   0.510  0.3285 -0.5361 -0.6234
14564TIP3    H265108   0.590   5.249   0.551  0.9312 -1.8736  0.6474
14565TIP3   OH265109   0.088   4.038   0.060  0.3639  0.4700 -0.2926
14565TIP3    H165110   0.074   4.133   0.057 -0.8332  0.4020  1.3871
14565TIP3    H265111   0.157   4.026   0.125  0.8450  0.2131 -0.8513
14566TIP3   OH265112   1.326   6.125   5.626  0.1369 -0.0482 -0.4326
14566TIP3    H165113   1.354   6.046   5.580 -0.8907 -0.8115  0.2157
14566TIP3    H265114   1.361   6.197   5.573  0.3342 -0.9209 -1.5270
14567TIP3   OH265115   0.927   4.095  13.926  0.1352 -0.1066  0.0387
14567TIP3    H165116   0.970   4.010  13.920  1.9962  0.8884 -2.4067
14567TIP3    H265117   0.965   4.135  14.004  0.1902 -0.9807  0.4795
14568TIP3   OH265118   5.764   6.160   2.002  0.9335  0.0078 -0.1961
14568TIP3    H165119   5.766   6.210   2.083  0.3567  2.3253 -1.5197
14568TIP3    H265120   5.836   6.097   2.011  0.5543 -0.1811  2.2779
14569TIP3   OH265121   5.923   6.675  15.676 -0.0728  0.0575 -0.0880
14569TIP3    H165122   6.019   6.677  15.679 -0.0870 -0.1242  0.4776
14569TIP3    H265123   5.898   6.766  15.657  0.2842 -0.3676 -2.9686
14570TIP3   OH265124   3.145   4.269  16.409 -0.0793  0.3891  0.7891
14570TIP3    H165125   3.222   4.321  16.387  0.4590  0.1962  2.0962
14570TIP3    H265126   3.087   4.330  16.455  0.0342  0.1358  1.2753
14571TIP3   OH265127   3.167   2.241  14.775 -0.0175  0.0611  0.1381
14571TIP3    H165128   3.173   2.242  14.871 -1.1354 -0.6165  0.2368
14571TIP3    H265129   3.257   2.233  14.745  0.3501  0.3222  1.1328
14572TIP3   OH265130   0.886   0.098   1.469  0.0068  0.4252 -0.1449
14572TIP3    H165131   0.920   0.034   1.406  0.3566  1.1280 -0.6817
14572TIP3    H265132   0.873   0.047   1.549  0.2676 -0.3231 -0.5618
14573TIP3   OH265133   2.691   2.939  14.392 -0.0671  0.2976 -0.4826
14573TIP3    H165134   2.754   2.984  14.336  0.0303  0.0860 -0.5438
14573TIP3    H265135   2.679   2.853  14.351  1.6201 -0.6983  0.9301
14574TIP3   OH265136   3.068   0.352   4.739  0.3167 -0.5101 -0.1071
14574TIP3    H165137   3.088   0.258   4.743  1.7340 -0.2044  1.0913
14574TIP3    H265138   3.115   0.383   4.662  0.3177 -0.6892 -0.1796
14575TIP3   OH265139   2.513   3.770   1.159  0.2006 -0.5419 -0.0461
14575TIP3    H165140   2.419   3.766   1.177 -0.2804  2.0064 -1.4815
14575TIP3    H265141   2.521   3.749   1.067  0.5697  2.1050 -0.7189
14576TIP3   OH265142   3.078   4.725   5.448 -0.1221  0.0181  0.3434
14576TIP3    H165143   3.136   4.797   5.473 -0.5777  1.0186 -1.3002
14576TIP3    H265144   3.055   4.682   5.530  2.4698 -0.0755  1.1232
14577TIP3   OH265145   5.377   3.983  11.916  0.2194 -0.2551 -0.4079
14577TIP3    H165146   5.436   4.018  11.983 -0.1663  1.1518 -0.7769
14577TIP3    H265147   5.376   3.889  11.933 -0.0919  0.0867  1.7542
14578TIP3   OH265148   3.103   4.065  12.491 -0.3445 -0.3715  0.1654
14578TIP3    H165149   3.123   4.004  12.562 -0.9527 -1.1743 -0.3346
14578TIP3    H265150   3.117   4.015  12.411  1.1866  0.7819 -0.3395
14579TIP3   OH265151   6.308   6.675   5.063 -0.6086 -0.0977  0.3081
14579TIP3    H165152   6.303   6.605   5.128  3.5914 -1.8611 -0.9365
14579TIP3    H265153   6.302   6.629   4.979 -0.7039  1.4633 -0.5729
14580TIP3   OH265154   5.338   4.232   0.868  0.1763 -0.4893 -0.4910
14580TIP3    H165155   5.418   4.203   0.823  0.3678 -0.4584 -0.1703
14580TIP3    H265156   5.355   4.215   0.960  0.0855  0.1585 -0.3517
14581TIP3   OH265157   3.055   1.331   6.485  0.0369 -0.3312  0.2284
14581TIP3    H165158   2.962   1.309   6.473 -0.0473  0.2421 -0.2364
14581TIP3    H265159   3.053   1.410   6.539  0.3313 -1.4345  1.9182
14582TIP3   OH265160   1.841   1.839   5.692 -0.5252  0.1179 -0.0228
14582TIP3    H165161   1.790   1.788   5.755  0.9668 -1.7465 -0.2102
14582TIP3    H265162   1.930   1.803   5.699  0.5454  2.4618 -0.4815
14583TIP3   OH265163   3.798   6.291  13.051  0.1280  0.1105  0.6860
14583TIP3    H165164   3.761   6.379  13.057  0.5614  0.5849 -2.2304
14583TIP3    H265165   3.892   6.303  13.066  0.1525  0.1129  0.5335
14584TIP3   OH265166   5.005   2.919   0.909  0.2439  0.1975  0.0580
14584TIP3    H165167   4.950   2.943   0.983 -0.4539  0.7098 -0.6175
14584TIP3    H265168   4.944   2.890   0.841  0.9029 -0.7204 -0.1635
14585TIP3   OH265169   4.803   1.373  14.319 -0.0473 -0.1527 -0.4170
14585TIP3    H165170   4.850   1.442  14.272  1.2035 -1.5200 -1.2541
14585TIP3    H265171   4.871   1.311  14.345 -1.3184 -2.0901 -1.4581
14586TIP3   OH265172   3.504   0.594  14.259 -0.6273  0.2599  0.4315
14586TIP3    H165173   3.509   0.587  14.355  0.3221 -0.6572  0.3320
14586TIP3    H265174   3.534   0.509  14.227  2.0496  1.5148 -0.7231
14587TIP3   OH265175   3.834   5.352  16.464 -0.3147  0.2174  0.1031
14587TIP3    H165176   3.754   5.312  16.500  0.1578 -0.8760 -0.0118
14587TIP3    H265177   3.837   5.439  16.503 -2.2344  0.7901 -0.8679
14588TIP3   OH265178   3.649   6.749   0.398 -0.4738 -0.2853 -0.1972
14588TIP3    H165179   3.639   6.718   0.308  2.4408 -0.2896 -0.6226
14588TIP3    H265180   3.571   6.802   0.414 -1.3514 -0.7697 -2.5141
14589TIP3   OH265181   6.655   0.994  15.462  0.3179  0.4952 -0.6897
14589TIP3    H165182   6.738   1.000  15.509  1.2237 -1.1267 -1.9633
14589TIP3    H265183   6.616   0.912  15.492 -0.3131  0.7206 -0.8801
14590TIP3   OH265184   2.079   1.870  12.479 -0.2644 -0.1850  0.1332
14590TIP3    H165185   2.077   1.966  12.480  2.1404 -0.0724  0.9536
14590TIP3    H265186   2.088   1.847  12.387  1.3399  0.5233  0.0794
14591TIP3   OH265187   0.385   3.220   0.329  0.5307 -0.4545 -0.2752
14591TIP3    H165188   0.421   3.241   0.242  0.6608  0.8502  0.0685
14591TIP3    H265189   0.296   3.255   0.327  0.2824 -1.0622 -0.1124
14592TIP3   OH265190   3.126   3.069   4.555 -0.1523  0.3977 -0.3448
14592TIP3    H165191   3.165   3.072   4.643 -0.2360  0.8929 -0.3234
14592TIP3    H265192   3.127   2.976   4.532 -0.4525  0.2259  0.3211
14593TIP3   OH265193   1.902   4.177  12.788  0.7871  0.2265 -0.2564
14593TIP3    H165194   1.952   4.198  12.867  1.2917 -1.3655 -0.1130
14593TIP3    H265195   1.951   4.106  12.747 -1.3067 -1.4206 -0.1172
14594TIP3   OH265196   1.032   4.290  10.339 -0.4754  0.2119  0.3875
14594TIP3    H165197   0.991   4.216  10.383 -0.0398 -0.1629  0.1680
14594TIP3    H265198   1.087   4.330  10.407  0.0663 -0.2668  0.2377
14595TIP3   OH265199   0.150   2.552   5.301  0.3202 -0.0298  0.3635
14595TIP3    H165200   0.124   2.645   5.302  0.4793  0.0135  1.4595
14595TIP3    H265201   0.183   2.538   5.212 -2.7947  0.0717 -0.9581
14596TIP3   OH265202   1.519   2.065   3.051 -0.5663  0.4881 -0.6629
14596TIP3    H165203   1.504   2.159   3.061 -2.7819  0.1777 -0.5535
14596TIP3    H265204   1.444   2.024   3.094  0.9909 -1.3945  0.4263
14597TIP3   OH265205   5.553   3.204  15.254  0.3153  0.0372  0.1037
14597TIP3    H165206   5.493   3.180  15.325 -0.5792 -0.9442 -0.9336
14597TIP3    H265207   5.629   3.147  15.266 -0.7580 -1.7180 -0.9249
14598TIP3   OH265208   0.919   6.659   1.918  0.0814 -0.0652  0.4137
14598TIP3    H165209   0.855   6.658   1.989 -0.0048  1.6994  0.4045
14598TIP3    H265210   1.004   6.660   1.962  0.0319  0.7132  0.5133
14599TIP3   OH265211   4.842   3.664   4.431 -0.3696  0.3162  0.3108
14599TIP3    H165212   4.898   3.685   4.506 -1.9789  0.7533  1.4197
14599TIP3    H265213   4.822   3.571   4.440 -1.6047  0.6476  1.1712
14600TIP3   OH265214   4.171   3.104   5.879 -0.5249  0.0178  0.5120
14600TIP3    H165215   4.224   3.143   5.810 -2.5556  1.2065 -0.4428
14600TIP3    H265216   4.160   3.174   5.944  0.5845 -0.8058  1.6573
14601TIP3   OH265217   5.556   6.760   5.432  0.4421 -0.3847 -0.3997
14601TIP3    H165218   5.610   6.818   5.485  0.6522 -0.2008 -0.8152
14601TIP3    H265219   5.604   6.750   5.350 -0.0550 -0.3848 -0.6931
14602TIP3   OH265220   4.850   0.828  14.136 -0.2337  0.1865 -0.0253
14602TIP3    H165221   4.755   0.828  14.125 -0.2384 -0.6908 -0.0280
14602TIP3    H265222   4.873   0.920  14.148 -0.9761  0.4968 -0.9333
14603TIP3   OH265223   0.116   2.267   4.337  0.4332 -0.6540 -0.6387
14603TIP3    H165224   0.053   2.202   4.306 -1.5118  1.0653 -0.4506
14603TIP3    H265225   0.114   2.260   4.432  0.7076 -0.7342 -0.6364
14604TIP3   OH265226   5.713   6.176   1.705  0.3647  0.0893 -0.3412
14604TIP3    H165227   5.624   6.166   1.670  1.0457 -0.5833 -1.9730
14604TIP3    H265228   5.707   6.142   1.795 -0.9023 -0.4220 -0.5886
14605TIP3   OH265229   2.212   1.448   2.784 -0.0058  0.4267  0.3896
14605TIP3    H165230   2.119   1.465   2.802 -0.3765  0.4038 -1.3139
14605TIP3    H265231   2.213   1.364   2.739  0.8292  0.4835  0.2896
14606TIP3   OH265232   6.711   6.164   5.075 -0.1406  0.2756  0.1209
14606TIP3    H165233   6.741   6.212   5.152  0.2359  0.3552 -0.0672
14606TIP3    H265234   6.766   6.085   5.073  0.1770  0.5009 -0.3191
14607TIP3   OH265235   5.325   4.923  14.120  0.1000 -0.1296  0.0388
14607TIP3    H165236   5.357   5.011  14.099  0.3487 -0.0999  0.5390
14607TIP3    H265237   5.401   4.867  14.107  0.9908  0.1894  3.1674
14608TIP3   OH265238   0.211   5.926   5.795  0.0049 -0.0031  0.1826
14608TIP3    H165239   0.137   5.895   5.743  0.6422 -0.1226 -0.6659
14608TIP3    H265240   0.269   5.968   5.732  0.2645  0.8555  0.9664
14609TIP3   OH265241   1.540   4.528  12.091  0.3961 -0.3305 -0.0258
14609TIP3    H165242   1.501   4.454  12.045 -0.8131  0.0296  0.4039
14609TIP3    H265243   1.492   4.534  12.173  2.1972 -0.6702  1.1206
14610TIP3   OH265244   6.087   1.359  12.556  0.1883  0.5125 -0.1415
14610TIP3    H165245   6.084   1.277  12.606  1.2440  0.2972 -0.4108
14610TIP3    H265246   6.161   1.348  12.497 -0.0305  1.4328 -0.6027
14611TIP3   OH265247   4.037   6.598   1.203 -0.9025 -0.0518 -0.2846
14611TIP3    H165248   4.120   6.615   1.158 -1.0379 -0.6543 -0.7742
14611TIP3    H265249   4.060   6.541   1.276 -0.8068  0.2215 -0.1022
14612TIP3   OH265250   3.260   1.160  13.161 -0.6478  0.6923  0.1421
14612TIP3    H165251   3.206   1.105  13.217  0.8994 -0.9146  0.1372
14612TIP3    H265252   3.327   1.196  13.219  0.3304 -0.1223 -0.4581
14613TIP3   OH265253   3.654   5.645   0.183  0.4504  0.0666 -0.0589
14613TIP3    H165254   3.683   5.564   0.225  2.1028  1.3447  1.3895
14613TIP3    H265255   3.729   5.672   0.129 -0.0068  0.7319 -0.3675
14614TIP3   OH265256   3.690   1.433  15.672 -0.2737 -0.2817  0.1599
14614TIP3    H165257   3.673   1.526  15.689  1.3136  0.5012 -1.9516
14614TIP3    H265258   3.738   1.402  15.749 -0.2392  0.8441  0.6050
14615TIP3   OH265259   2.831   6.219  13.723  0.2254  0.5009  0.1034
14615TIP3    H165260   2.811   6.145  13.665  0.1789  0.4486  0.1856
14615TIP3    H265261   2.781   6.201  13.802  0.7976  0.2348  0.4103
14616TIP3   OH265262   6.103   3.047  12.709  0.2603  0.2322 -0.3586
14616TIP3    H165263   6.113   3.138  12.737  0.6346 -0.2999  1.3802
14616TIP3    H265264   6.047   3.008  12.776 -0.6174 -0.6260 -1.5554
14617TIP3   OH265265   4.081   6.108  14.851 -0.0423  0.0534 -0.1712
14617TIP3    H165266   4.025   6.106  14.928 -0.5552  2.2064 -0.4308
14617TIP3    H265267   4.167   6.078  14.882 -0.4871 -0.0085  1.0075
14618TIP3   OH265268   5.784   4.664  14.302 -0.3538 -0.1133 -0.0408
14618TIP3    H165269   5.689   4.679  14.305 -0.1566  1.1002  2.6687
14618TIP3    H265270   5.812   4.706  14.220 -1.8482  1.6380  0.2765
14619TIP3   OH265271   3.029   5.033  14.514 -0.2687  0.0533  0.1521
14619TIP3    H165272   3.104   4.978  14.535  1.5784  2.6329  0.8485
14619TIP3    H265273   2.995   4.996  14.432  2.8206 -0.2749 -1.1398
14620TIP3   OH265274   3.421   4.736   1.464 -0.7136  0.3069 -0.4769
14620TIP3    H165275   3.414   4.652   1.509  0.4835  1.4905  2.2004
14620TIP3    H265276   3.333   4.773   1.467 -0.8023  0.0487  0.3422
14621TIP3   OH265277   0.569   5.744   1.581 -0.0433 -0.0928 -0.5089
14621TIP3    H165278   0.476   5.728   1.567 -0.2402  0.6790 -0.0897
14621TIP3    H265279   0.589   5.702   1.665 -0.5725  1.8170  0.6189
14622TIP3   OH265280   0.304   0.108   1.558 -0.3063 -0.1111  0.0598
14622TIP3    H165281   0.325   0.174   1.623  0.7444  0.4663 -0.8290
14622TIP3    H265282   0.386   0.062   1.541 -0.7562 -0.8486 -0.2165
14623TIP3   OH265283   6.330   6.118  15.737 -0.7249 -0.5926  0.0598
14623TIP3    H165284   6.320   6.199  15.787 -2.1785 -2.3984  2.9971
14623TIP3    H265285   6.333   6.146  15.646  0.5725  2.8451  1.0224
14624TIP3   OH265286   5.579   0.741  11.307  0.2044 -0.3219  0.0399
14624TIP3    H165287   5.655   0.719  11.360  0.1098  1.4234  0.9635
14624TIP3    H265288   5.507   0.747  11.369  0.2090  2.3546 -0.0904
14625TIP3   OH265289   6.021   1.411   1.958  0.1652 -0.6929 -0.0471
14625TIP3    H165290   5.960   1.364   1.902  1.3464 -1.9927 -0.3081
14625TIP3    H265291   6.028   1.357   2.037 -0.3123  0.3274  0.7134
14626TIP3   OH265292   3.553   4.823  16.722 -0.5921  0.5836  0.1393
14626TIP3    H165293   3.558   4.788  16.810 -0.8882 -0.2769 -0.1771
14626TIP3    H265294   3.643   4.844  16.699 -0.5377  1.0042  0.7172
14627TIP3   OH265295   2.435   4.422   4.502  0.3369 -0.1692 -0.3253
14627TIP3    H165296   2.498   4.352   4.519  0.7137  0.6484  1.9931
14627TIP3    H265297   2.390   4.434   4.585  0.2862  2.3453 -0.6419
14628TIP3   OH265298   4.096   0.067  11.188  0.1406 -0.5167  0.2817
14628TIP3    H165299   4.069   0.032  11.103 -1.4739  0.6779  0.2619
14628TIP3    H265300   4.190   0.048  11.193  0.0562 -1.5399 -1.2966
14629TIP3   OH265301   0.791   3.506  14.103 -0.8371 -0.0687  0.3285
14629TIP3    H165302   0.834   3.515  14.187  0.3051 -1.8266 -0.0242
14629TIP3    H265303   0.859   3.526  14.038 -1.3342 -0.0403 -0.1986
14630TIP3   OH265304   0.342   4.389   5.967 -0.1459  0.2514 -0.5492
14630TIP3    H165305   0.338   4.385   6.063  0.8210 -3.1058 -0.5151
14630TIP3    H265306   0.361   4.481   5.948  0.8839  0.8165  2.5511
14631TIP3   OH265307   3.223   5.335  16.494  0.3083 -0.3926 -0.3309
14631TIP3    H165308   3.262   5.317  16.408 -1.0972  0.1146 -1.1148
14631TIP3    H265309   3.167   5.259  16.510  0.8467 -0.6598  0.3261
14632TIP3   OH265310   4.103   1.189   0.711 -0.7476  0.1271  0.3957
14632TIP3    H165311   4.144   1.156   0.790  2.3093 -0.5273 -1.3133
14632TIP3    H265312   4.041   1.120   0.686  0.1564 -0.8671  0.8360
14633TIP3   OH265313   4.889   3.022  16.138 -0.3826 -0.3890 -0.3205
14633TIP3    H165314   4.866   2.948  16.195 -1.3925 -1.1000 -1.6122
14633TIP3    H265315   4.815   3.029  16.077  0.0873  1.1668 -0.7464
14634TIP3   OH265316   0.051   5.967  14.138 -0.3955 -0.7180 -0.6931
14634TIP3    H165317   0.112   5.893  14.134  0.6379 -0.0016  0.8329
14634TIP3    H265318   0.078   6.024  14.067  0.0479 -0.8966 -0.6700
14635TIP3   OH265319   4.620   5.876   4.296 -0.5142 -0.6546  0.4067
14635TIP3    H165320   4.623   5.900   4.204 -0.1601  1.2743  0.8735
14635TIP3    H265321   4.612   5.780   4.296  2.1123 -0.9857 -1.6070
14636TIP3   OH265322   2.397   5.331  17.170  0.9018  0.1525 -0.6802
14636TIP3    H165323   2.421   5.321  17.262 -0.9840  0.0955 -0.1443
14636TIP3    H265324   2.451   5.268  17.124 -0.5412 -2.4007  0.8618
14637TIP3   OH265325   0.450   0.404   1.755 -0.6196 -0.0951  0.3033
14637TIP3    H165326   0.374   0.379   1.808 -1.7516  1.2344 -0.6378
14637TIP3    H265327   0.414   0.425   1.669  0.6457  1.7233  0.1605
14638TIP3   OH265328   0.377   1.486  12.171  0.1326  0.2440  0.3697
14638TIP3    H165329   0.404   1.401  12.205 -3.0906 -0.4335  1.6058
14638TIP3    H265330   0.413   1.549  12.233  1.1991 -0.3154  0.3423
14639TIP3   OH265331   5.543   3.051   3.212 -0.0017 -0.1977  0.4601
14639TIP3    H165332   5.484   3.062   3.137  0.2957  0.0290  0.2540
14639TIP3    H265333   5.579   3.139   3.226  0.6443 -0.4267  0.2799
14640TIP3   OH265334   0.830   6.577  13.169  0.4598  0.0361 -0.0192
14640TIP3    H165335   0.889   6.510  13.204  0.5882 -0.4131 -1.0442
14640TIP3    H265336   0.887   6.651  13.148  0.5407 -0.0779 -0.2115
14641TIP3   OH265337   1.995   5.169  11.171  0.4726  0.2497  0.5562
14641TIP3    H165338   2.080   5.131  11.149  0.3076 -0.2202  0.7175
14641TIP3    H265339   1.955   5.189  11.086  0.5033 -0.0683  0.4655
14642TIP3   OH265340   3.163   2.429   4.098 -0.2467  0.3780 -0.1109
14642TIP3    H165341   3.075   2.407   4.131 -1.2539 -0.1028 -2.8670
14642TIP3    H265342   3.187   2.354   4.043  0.7950  1.6110 -1.4022
14643TIP3   OH265343   0.356   4.702  11.288  0.1408  0.1549  0.0863
14643TIP3    H165344   0.381   4.614  11.261  0.7208 -0.1173  1.4076
14643TIP3    H265345   0.431   4.734  11.340 -1.6531 -0.2347  3.1779
14644TIP3   OH265346   4.370   2.494   3.045 -0.0939  0.7885 -0.2494
14644TIP3    H165347   4.390   2.437   3.119  0.2339 -1.5394 -2.0154
14644TIP3    H265348   4.277   2.513   3.053 -0.7774 -1.9296 -0.7768
14645TIP3   OH265349   0.516   2.269   6.290  0.1590  0.2981 -0.1637
14645TIP3    H165350   0.527   2.345   6.233  1.3080  0.8316  0.7321
14645TIP3    H265351   0.493   2.306   6.375  0.1078 -0.3863  0.1233
14646TIP3   OH265352   2.360   2.487   2.221 -0.1137 -0.7145  0.1246
14646TIP3    H165353   2.433   2.427   2.228  1.6913  1.2277 -0.8196
14646TIP3    H265354   2.297   2.443   2.163  1.1950 -1.6299 -0.6409
14647TIP3   OH265355   2.089   4.921  14.551 -0.4827 -0.2525 -0.0235
14647TIP3    H165356   2.057   5.010  14.544  1.0622  0.3659  0.2809
14647TIP3    H265357   2.134   4.905  14.468  0.3405 -0.2662  0.4117
14648TIP3   OH265358   5.251   0.177  15.260  0.3807 -0.1887 -0.2999
14648TIP3    H165359   5.257   0.170  15.164  0.8498  0.9614 -0.3644
14648TIP3    H265360   5.320   0.238  15.284  0.6002 -0.8499  0.8409
14649TIP3   OH265361   1.502   6.164   0.509 -0.4140 -0.0766  0.2959
14649TIP3    H165362   1.506   6.108   0.587  1.0665 -1.1561 -0.5101
14649TIP3    H265363   1.580   6.141   0.459  0.0189  2.4277 -0.3005
14650TIP3   OH265364   2.795   0.769  12.022 -0.5603 -0.1904 -0.4554
14650TIP3    H165365   2.872   0.758  11.967 -1.7988  0.7103 -2.5204
14650TIP3    H265366   2.816   0.843  12.079 -0.1358  0.5470 -1.5258
14651TIP3   OH265367   6.479   6.142   0.435  0.0452  0.2812 -0.6066
14651TIP3    H165368   6.424   6.064   0.443  0.3658  0.0972 -0.1601
14651TIP3    H265369   6.544   6.132   0.504  0.7437  0.4096 -1.2318
14652TIP3   OH265370   5.331   1.751  13.362 -0.1810  0.0382 -0.1777
14652TIP3    H165371   5.240   1.748  13.391  0.0615  2.4778  1.1188
14652TIP3    H265372   5.380   1.710  13.434  0.0300  2.2360  1.0117
14653TIP3   OH265373   6.539   3.458   6.148 -0.5163  0.2938  0.2197
14653TIP3    H165374   6.611   3.503   6.191 -0.4130 -0.4186  0.8028
14653TIP3    H265375   6.465   3.469   6.207 -0.5578 -0.0597  0.2372
14654TIP3   OH265376   4.035   0.508  11.555  0.1411  0.1298  0.0657
14654TIP3    H165377   4.017   0.491  11.462 -3.2026  0.3230  0.5546
14654TIP3    H265378   4.048   0.602  11.561  0.8183  0.0614 -0.2417
14655TIP3   OH265379   4.457   5.662  11.373  0.1049  0.0387  0.1378
14655TIP3    H165380   4.491   5.687  11.287 -0.3022  0.1729  0.0123
14655TIP3    H265381   4.388   5.598  11.353 -1.3191  1.4848  0.2335
14656TIP3   OH265382   2.233   0.689   0.238  0.3020  0.3091 -0.5125
14656TIP3    H165383   2.305   0.723   0.186 -1.1363  2.0728 -1.4972
14656TIP3    H265384   2.179   0.766   0.258 -0.6756 -0.7523  1.2087
14657TIP3   OH265385   1.894   4.589  16.214 -0.1836  0.0781  0.1807
14657TIP3    H165386   1.932   4.510  16.176 -2.4495 -1.5235  1.0656
14657TIP3    H265387   1.881   4.648  16.139  0.2827 -0.9079 -0.6936
14658TIP3   OH265388   1.959   6.562  15.743 -0.0665  0.2867  0.3101
14658TIP3    H165389   2.046   6.577  15.779 -1.1489  1.6304  2.5442
14658TIP3    H265390   1.934   6.476  15.777 -0.0229  0.3472  0.4946
14659TIP3   OH265391   6.271   3.968   4.908  0.1313 -0.3133 -0.4675
14659TIP3    H165392   6.267   3.937   4.999  0.4604 -1.2843 -0.7713
14659TIP3    H265393   6.252   3.891   4.855 -1.9229  0.6226 -1.2120
14660TIP3   OH265394   3.386   4.405   3.815  0.0362  0.8698 -0.5065
14660TIP3    H165395   3.292   4.405   3.833  0.2606 -0.9116  0.8826
14660TIP3    H265396   3.394   4.359   3.731 -0.2530 -0.3564  0.1114
14661TIP3   OH265397   5.104   1.516  15.738 -0.8105 -0.3081 -0.1751
14661TIP3    H165398   5.175   1.535  15.676 -1.0051 -1.4476 -0.7741
14661TIP3    H265399   5.135   1.552  15.821 -0.6546  1.4777 -0.9492
14662TIP3   OH265400   4.670   1.798  14.186  0.5145 -0.0267  0.1001
14662TIP3    H165401   4.633   1.873  14.140  0.4197  1.3546  2.2969
14662TIP3    H265402   4.650   1.723  14.129 -2.5766  1.0971 -0.5149
14663TIP3   OH265403   3.980   3.972   4.221  0.2876 -0.7101 -0.4363
14663TIP3    H165404   3.914   3.957   4.153 -0.3923 -2.7501  0.5870
14663TIP3    H265405   3.960   3.907   4.289  1.9448  0.1619  0.9791
14664TIP3   OH265406   2.599   1.396   5.517 -0.0035  0.9351 -0.0828
14664TIP3    H165407   2.543   1.468   5.488 -0.2687  0.5593 -0.5023
14664TIP3    H265408   2.688   1.431   5.509 -0.1869  2.0295  1.8827
14665TIP3   OH265409   3.118   5.252  14.061  0.0001 -0.5533 -0.0585
14665TIP3    H165410   3.027   5.241  14.030  0.3190  0.4471 -1.4664
14665TIP3    H265411   3.114   5.327  14.120 -0.1654 -0.7664  0.1990
14666TIP3   OH265412   0.365   3.881  12.847  0.2717  0.0593 -0.4418
14666TIP3    H165413   0.278   3.890  12.807  0.4531 -0.6389 -0.9996
14666TIP3    H265414   0.349   3.834  12.928  0.3622 -1.9633 -1.5350
14667TIP3   OH265415   6.323   3.528  15.576  0.7585  0.2236  0.1268
14667TIP3    H165416   6.262   3.502  15.645  1.0939 -0.3833  0.2035
14667TIP3    H265417   6.337   3.621  15.589  1.1643  0.0260  1.1634
14668TIP3   OH265418   2.580   3.146   2.525 -0.4372  0.0748 -0.0838
14668TIP3    H165419   2.536   3.072   2.483 -0.4722  0.0415  0.0105
14668TIP3    H265420   2.663   3.110   2.555  0.7852  0.7142 -2.4302
14669TIP3   OH265421   2.953   6.375  13.176  0.1891 -0.0760  0.2834
14669TIP3    H165422   2.915   6.455  13.214 -2.4762 -0.7549 -0.7908
14669TIP3    H265423   2.923   6.305  13.233  1.3975 -0.4973  0.4366
14670TIP3   OH265424   1.282   4.945   6.123 -0.0338 -0.1193  0.1003
14670TIP3    H165425   1.370   4.943   6.085  0.2580 -0.1299  0.7527
14670TIP3    H265426   1.252   4.854   6.118  0.0236 -0.1300 -0.0564
14671TIP3   OH265427   2.763   0.035   0.653  0.1566  0.0887  0.3869
14671TIP3    H165428   2.854   0.054   0.675  0.0457 -1.6562  2.5753
14671TIP3    H265429   2.767   0.004   0.562  1.9285 -1.0254  0.7857
14672TIP3   OH265430   3.502   2.702   5.804  0.0430 -0.4699 -0.1629
14672TIP3    H165431   3.465   2.670   5.722 -0.8718  0.0583  0.0373
14672TIP3    H265432   3.572   2.640   5.824 -0.7096 -1.4808 -0.5632
14673TIP3   OH265433   0.875   1.020   5.439  0.1717  0.0369  0.4980
14673TIP3    H165434   0.811   1.076   5.394  0.3599  0.0626  0.2583
14673TIP3    H265435   0.831   0.993   5.519 -0.2153 -0.0944  0.2457
14674TIP3   OH265436   6.596   2.709   3.064  0.3117 -0.8185  0.3674
14674TIP3    H165437   6.617   2.734   2.974 -3.5714  0.2266 -0.4617
14674TIP3    H265438   6.609   2.789   3.115 -1.8698  0.0132 -0.2556
14675TIP3   OH265439   4.710   2.488  14.400  0.2573  0.1026  0.2665
14675TIP3    H165440   4.755   2.568  14.429  0.5712  0.1966 -0.4501
14675TIP3    H265441   4.772   2.446  14.341 -0.0760 -0.4599  0.3100
14676TIP3   OH265442   6.072   1.588   2.655  0.5173  0.8669 -0.4144
14676TIP3    H165443   6.159   1.580   2.693  0.4304 -0.2493 -0.4142
14676TIP3    H265444   6.069   1.678   2.621  1.1415  1.3813  0.8208
14677TIP3   OH265445   6.582   4.436  16.062 -0.1931 -0.1552 -0.1813
14677TIP3    H165446   6.617   4.482  16.138  2.2084  0.0462 -1.3028
14677TIP3    H265447   6.594   4.343  16.083  1.7294 -0.0847 -0.7877
14678TIP3   OH265448   6.667   6.494  15.630 -0.2236 -0.7811 -0.2253
14678TIP3    H165449   6.654   6.585  15.656  0.8156 -0.9792  1.1150
14678TIP3    H265450   6.670   6.497  15.535 -0.8006  0.4970 -0.2307
14679TIP3   OH265451   5.894   5.136  12.083  0.0022  0.2159  0.3819
14679TIP3    H165452   5.946   5.194  12.028  0.9809 -0.5118  0.5125
14679TIP3    H265453   5.806   5.174  12.081  0.3783  1.0961 -0.3819
14680TIP3   OH265454   5.652   3.743   3.707  0.2066  0.6441  0.1926
14680TIP3    H165455   5.713   3.713   3.774  0.9116 -0.6383 -0.9619
14680TIP3    H265456   5.706   3.795   3.647  0.4215 -1.0738 -1.2207
14681TIP3   OH265457   5.295   6.605   2.462 -0.0766  0.1012 -0.3025
14681TIP3    H165458   5.239   6.580   2.536  0.6540 -0.3138  0.1144
14681TIP3    H265459   5.263   6.550   2.390 -0.5596  0.2537 -0.2105
14682TIP3   OH265460   5.040   1.218  13.601 -0.3226  0.2021  0.2927
14682TIP3    H165461   4.945   1.204  13.603 -0.2424 -0.7092 -0.9570
14682TIP3    H265462   5.056   1.262  13.518  0.3547  0.3156  0.4788
14683TIP3   OH265463   4.962   2.473  11.745 -0.3447 -0.1041  0.0134
14683TIP3    H165464   4.974   2.471  11.840  1.6831 -0.0027 -0.2071
14683TIP3    H265465   5.007   2.553  11.717 -0.2664 -0.5230 -1.1025
14684TIP3   OH265466   0.531   5.591   0.875 -0.4509  0.2779  0.1630
14684TIP3    H165467   0.491   5.676   0.895  1.0027  1.1998 -0.6816
14684TIP3    H265468   0.536   5.547   0.959 -1.7023  0.7915  0.5425
14685TIP3   OH265469   0.527   3.625  11.598 -0.5210 -0.0754 -0.0378
14685TIP3    H165470   0.561   3.538  11.576 -0.7665 -0.2755  0.3549
14685TIP3    H265471   0.528   3.673  11.515  1.8985  0.3597  0.1671
14686TIP3   OH265472   5.343   5.042  12.366  0.7661 -0.4550 -0.0490
14686TIP3    H165473   5.300   4.991  12.297 -0.9523  1.9297 -0.8576
14686TIP3    H265474   5.302   5.013  12.447  0.6167 -1.1358 -0.3622
14687TIP3   OH265475   3.531   6.254   2.739 -0.6325 -0.5863 -0.3050
14687TIP3    H165476   3.611   6.289   2.700 -2.0426  0.8996 -2.0246
14687TIP3    H265477   3.499   6.325   2.795 -0.4995 -1.3791  0.8121
14688TIP3   OH265478   6.242   2.733   2.927  0.9491 -0.1123 -0.3850
14688TIP3    H165479   6.321   2.785   2.907  1.0438 -0.3097 -0.5281
14688TIP3    H265480   6.170   2.796   2.920  1.1237  0.1502  0.0853
14689TIP3   OH265481   6.446   0.610  13.646 -0.2411  0.0532  0.1950
14689TIP3    H165482   6.419   0.650  13.729  0.9813 -0.2713  0.7695
14689TIP3    H265483   6.497   0.533  13.672 -0.0072 -0.1628 -0.8641
14690TIP3   OH265484   4.831   3.919  14.845  0.1438 -0.2645 -0.4284
14690TIP3    H165485   4.785   3.838  14.868  1.5013 -0.0152  4.0891
14690TIP3    H265486   4.914   3.913  14.892  0.8175  3.2317 -0.9624
14691TIP3   OH265487   6.662   5.128  13.633 -0.4103  0.2741  0.1600
14691TIP3    H165488   6.650   5.221  13.651 -1.6209 -0.1666  1.9160
14691TIP3    H265489   6.641   5.118  13.540  1.9520  2.0615 -0.6282
14692TIP3   OH265490   1.799   0.017  15.720 -0.3842 -0.4315 -0.1312
14692TIP3    H165491   1.875   0.056  15.764 -0.8558 -0.4595  0.7288
14692TIP3    H265492   1.804  -0.076  15.741 -0.7012 -0.4204  0.0045
14693TIP3   OH265493   2.492   1.329   6.318  0.2383 -0.5272  0.5709
14693TIP3    H165494   2.429   1.270   6.357  0.0806 -0.6575  0.1288
14693TIP3    H265495   2.500   1.299   6.227 -0.3525  0.5371  0.1537
14694TIP3   OH265496   4.114   4.434   2.340  0.0222 -0.4337  0.3882
14694TIP3    H165497   4.077   4.522   2.346 -2.0556 -1.2359  0.1738
14694TIP3    H265498   4.110   4.413   2.247  1.8434 -0.2462  0.2412
14695TIP3   OH265499   0.085   5.163   5.573  1.0167  0.6096 -0.4381
14695TIP3    H165500   0.044   5.235   5.620 -2.4076 -1.7639  0.6055
14695TIP3    H265501   0.058   5.084   5.620  2.5946 -1.5476 -2.8145
14696TIP3   OH265502   3.207   4.635  16.727 -0.5428 -0.1942 -0.0822
14696TIP3    H165503   3.272   4.648  16.659 -0.2274  1.7940  0.5379
14696TIP3    H265504   3.230   4.551  16.767 -0.3449 -1.0830 -1.9320
14697TIP3   OH265505   5.940   6.406   5.338 -0.0296 -0.4453 -0.8450
14697TIP3    H165506   5.981   6.325   5.366  0.9533  0.5195  0.6670
14697TIP3    H265507   5.953   6.408   5.243  0.5026 -1.7281 -0.8245
14698TIP3   OH265508   6.478   6.796  13.901  0.0788  0.0220 -0.0999
14698TIP3    H165509   6.437   6.844  13.972  0.9806 -1.8716  1.7975
14698TIP3    H265510   6.500   6.711  13.938 -1.3486 -1.9170 -3.2593
14699TIP3   OH265511   5.970   5.065  16.094  0.2560  0.3862  0.0262
14699TIP3    H165512   5.947   5.142  16.146 -0.2077  1.4129 -1.6483
14699TIP3    H265513   5.991   5.099  16.007 -1.7559 -1.5115 -1.3146
14700TIP3   OH265514   3.452   3.575   0.371  0.2963 -0.1152  0.0066
14700TIP3    H165515   3.525   3.635   0.388  0.7983 -0.8920  0.7150
14700TIP3    H265516   3.424   3.547   0.458 -1.2279  0.5815 -0.2327
14701TIP3   OH265517   5.366   0.396  12.676 -0.5480 -0.2200 -0.0807
14701TIP3    H165518   5.273   0.392  12.654 -0.8839  1.1394  0.9723
14701TIP3    H265519   5.411   0.374  12.594 -1.7634  1.4577 -1.2719
14702TIP3   OH265520   4.295   1.959   5.371  0.8214 -0.3650 -0.6015
14702TIP3    H165521   4.251   1.887   5.325  2.5114 -1.1073 -1.1457
14702TIP3    H265522   4.343   1.917   5.442 -1.2056  0.7053  1.5403
14703TIP3   OH265523   0.076   2.664   1.659  0.0041 -0.1089  0.8373
14703TIP3    H165524   0.144   2.728   1.639  0.4096 -1.2988 -2.2785
14703TIP3    H265525   0.036   2.645   1.574 -3.2315 -0.6141  2.3231
14704TIP3   OH265526   5.537   5.714   5.120  0.0886  0.8806  0.1380
14704TIP3    H165527   5.573   5.736   5.034 -0.0803  2.5175  0.4401
14704TIP3    H265528   5.614   5.711   5.177 -0.0228  2.7446  0.4634
14705TIP3   OH265529   5.966   0.348   0.868 -0.5956 -0.4997  0.1342
14705TIP3    H165530   5.916   0.429   0.881 -0.1883 -0.3412  0.7714
14705TIP3    H265531   5.960   0.303   0.953 -0.8862 -1.1805 -0.2367
14706TIP3   OH265532   1.410   4.815   1.174  0.6303  0.2091  0.0884
14706TIP3    H165533   1.476   4.757   1.138  0.5530  0.3926 -0.3522
14706TIP3    H265534   1.327   4.769   1.161  0.3803  1.1081 -1.7501
14707TIP3   OH265535   1.180   5.226  13.812 -0.2072 -0.1621 -0.1101
14707TIP3    H165536   1.144   5.214  13.725 -1.3325 -1.1160  0.4664
14707TIP3    H265537   1.112   5.194  13.871  0.4791  0.5908  1.1251
14708TIP3   OH265538   0.966   0.312   5.430 -0.1097  0.3184  0.2101
14708TIP3    H165539   1.007   0.363   5.500 -0.9406  0.8310  0.3380
14708TIP3    H265540   0.951   0.375   5.359  2.5724 -0.5876 -1.3018
14709TIP3   OH265541   4.455   3.072  14.597 -0.4701 -0.3363 -0.1497
14709TIP3    H165542   4.375   3.021  14.607  0.6795 -1.9358  1.3347
14709TIP3    H265543   4.525   3.008  14.597  0.9765  1.1550  0.7321
14710TIP3   OH265544   1.011   1.823  11.124  0.1199  0.5131 -0.2332
14710TIP3    H165545   1.047   1.815  11.212 -0.0896  0.3641 -0.1623
14710TIP3    H265546   1.038   1.911  11.095  2.2413 -0.2983 -0.9356
14711TIP3   OH265547   5.822   3.885  11.213  0.0953 -0.0251 -0.7539
14711TIP3    H165548   5.729   3.884  11.189 -0.3287 -1.7903  0.6867
14711TIP3    H265549   5.853   3.797  11.190  1.0645  0.1034  0.0044
14712TIP3   OH265550   5.133   5.104  12.573 -0.4327 -0.2312  0.0094
14712TIP3    H165551   5.069   5.098  12.644 -1.0477 -1.4421 -0.6106
14712TIP3    H265552   5.175   5.189  12.585 -0.1592 -0.6175  2.1109
14713TIP3   OH265553   0.990   0.961   1.634  0.5967  0.1918 -0.5989
14713TIP3    H165554   1.016   0.940   1.724  1.8736  1.7340 -0.5620
14713TIP3    H265555   0.962   0.878   1.596 -0.4624 -0.4133  1.3691
14714TIP3   OH265556   3.789   3.079   3.860  0.4202  0.2898  0.3473
14714TIP3    H165557   3.769   3.172   3.857  1.1102  0.4687  0.9918
14714TIP3    H265558   3.779   3.049   3.770 -2.6022  0.3786  0.5418
14715TIP3   OH265559   5.194   2.411  15.142 -0.1168 -0.0148 -0.2731
14715TIP3    H165560   5.233   2.332  15.104 -0.8076 -1.6589  2.2111
14715TIP3    H265561   5.256   2.481  15.121  1.5145 -1.5674 -0.8701
14716TIP3   OH265562   0.346   4.667  15.668 -0.6803 -0.5542 -0.2941
14716TIP3    H165563   0.432   4.625  15.662  0.3003  1.3810 -0.5600
14716TIP3    H265564   0.363   4.750  15.712 -2.9329 -1.3922  2.4631
14717TIP3   OH265565   4.389   3.968  16.327 -0.4348 -0.1573  0.0526
14717TIP3    H165566   4.367   3.987  16.418  0.7627 -0.9658  0.5491
14717TIP3    H265567   4.364   4.046  16.279  0.2045  0.8514  1.2965
14718TIP3   OH265568   3.798   3.268   2.740  0.2390  0.0619 -0.1120
14718TIP3    H165569   3.744   3.215   2.799 -0.5436  1.4354  0.4473
14718TIP3    H265570   3.754   3.261   2.655 -0.7627  1.0203  0.2989
14719TIP3   OH265571   6.287   5.612   5.402 -0.5789  0.1513 -0.3166
14719TIP3    H165572   6.274   5.703   5.374 -0.5240  0.3757  0.3597
14719TIP3    H265573   6.351   5.619   5.473  0.9560 -0.6118 -1.5517
14720TIP3   OH265574   0.394   3.549  11.197  0.4617 -0.2280  0.0779
14720TIP3    H165575   0.346   3.591  11.269 -1.4931  0.6222 -1.5957
14720TIP3    H265576   0.399   3.617  11.129  1.7899 -1.1541 -0.7946
14721TIP3   OH265577   6.548   4.611  14.615  0.3170 -0.6925 -0.0410
14721TIP3    H165578   6.565   4.564  14.533 -0.4776  0.6448 -1.0062
14721TIP3    H265579   6.632   4.652  14.637  0.7214 -1.6285  0.2226
14722TIP3   OH265580   2.848   5.668  12.175 -0.3338  0.5682 -0.2329
14722TIP3    H165581   2.885   5.746  12.134 -0.1543  0.2401 -0.7056
14722TIP3    H265582   2.852   5.686  12.269  1.1682  0.4793 -0.2571
14723TIP3   OH265583   5.626   1.913   5.149  0.1615  0.0944 -0.1706
14723TIP3    H165584   5.658   1.984   5.205 -1.2778 -1.3359  2.7463
14723TIP3    H265585   5.562   1.955   5.091  0.0822  1.3511  0.7736
14724TIP3   OH265586   4.254   2.525   4.161  0.2940  0.9757 -0.1617
14724TIP3    H165587   4.296   2.610   4.153  0.3650  1.0854  1.2255
14724TIP3    H265588   4.202   2.530   4.241  0.4535 -0.3455  0.0577
14725TIP3   OH265589   3.685   1.406   1.851 -0.3615  0.4195  0.3725
14725TIP3    H165590   3.759   1.368   1.805 -0.7671 -0.1888  0.2034
14725TIP3    H265591   3.723   1.452   1.926  0.2499  0.8633 -0.1950
14726TIP3   OH265592   1.424   0.801   4.237 -0.3157 -0.0907  0.3198
14726TIP3    H165593   1.378   0.835   4.313  1.9367  1.1625  1.2139
14726TIP3    H265594   1.357   0.799   4.168 -2.2641 -0.6878  2.1071
14727TIP3   OH265595   4.797   3.325   1.878  0.1104 -0.0319 -0.1794
14727TIP3    H165596   4.887   3.346   1.852  0.2875 -1.1738 -0.5550
14727TIP3    H265597   4.754   3.410   1.887  0.7940  0.4851 -1.5505
14728TIP3   OH265598   2.510   0.935   2.232  0.4482 -0.2016 -0.5065
14728TIP3    H165599   2.539   0.954   2.142 -0.4683  0.2285 -0.7249
14728TIP3    H265600   2.591   0.923   2.281  1.0195  1.2159 -1.0402
14729TIP3   OH265601   1.087   0.337   0.484 -0.0351  0.1984 -0.1213
14729TIP3    H165602   1.143   0.278   0.434 -0.5243 -2.0380  1.7909
14729TIP3    H265603   1.146   0.380   0.546  0.2884  1.6500 -1.3817
14730TIP3   OH265604   2.404   1.357   2.017  0.3482  0.2422 -0.0509
14730TIP3    H165605   2.404   1.334   2.110 -0.2543 -2.8434 -0.6970
14730TIP3    H265606   2.323   1.318   1.983  0.9698  0.5742 -2.0374
14731TIP3   OH265607   3.452   2.708  12.644 -0.0339  0.2820 -0.2305
14731TIP3    H165608   3.432   2.765  12.569 -0.2715 -1.1154 -1.2565
14731TIP3    H265609   3.367   2.688  12.682 -0.0893 -0.6215 -0.8128
14732TIP3   OH265610   5.851   2.714   3.269  0.4632  0.0546  0.3492
14732TIP3    H165611   5.802   2.738   3.190  1.8449  1.1682 -0.2139
14732TIP3    H265612   5.874   2.797   3.310  1.0271 -0.4636  1.1227
14733TIP3   OH265613   2.234   4.176  11.628  0.3371 -0.8472 -0.3260
14733TIP3    H165614   2.269   4.092  11.600 -0.9134 -1.6908  0.5750
14733TIP3    H265615   2.149   4.156  11.667 -0.3338  0.9220 -0.7710
14734TIP3   OH265616   5.741   6.565   0.822  0.4081 -0.2725  0.3145
14734TIP3    H165617   5.830   6.592   0.842  0.5594 -0.1086 -0.5749
14734TIP3    H265618   5.744   6.532   0.733 -0.8966  2.1084 -0.7101
14735TIP3   OH265619   0.546   3.150  16.205 -0.0169  0.3202  0.7605
14735TIP3    H165620   0.620   3.157  16.144 -1.9315  2.0557 -1.5795
14735TIP3    H265621   0.560   3.220  16.269 -0.1088  1.3486 -0.3043
14736TIP3   OH265622   6.711   1.404   4.413 -0.3937  0.2565  0.1689
14736TIP3    H165623   6.735   1.399   4.505 -0.3438 -0.0116  0.1430
14736TIP3    H265624   6.782   1.359   4.368 -0.5234  0.2020  0.0179
14737TIP3   OH265625   3.364   2.644  11.132  0.3963 -0.4034 -0.0035
14737TIP3    H165626   3.312   2.623  11.210  0.1443 -0.2191 -0.1180
14737TIP3    H265627   3.455   2.635  11.160  0.3391 -3.0320 -0.3960
14738TIP3   OH265628   5.620   4.848   5.017  0.1675  0.3688  0.9811
14738TIP3    H165629   5.639   4.813   4.930  0.5639 -0.8163  1.5171
14738TIP3    H265630   5.677   4.798   5.076  1.1509  2.2959  1.7677
14739TIP3   OH265631   5.866   3.669   1.195  0.0102 -0.3446 -0.2481
14739TIP3    H165632   5.834   3.697   1.281  1.9412 -0.5846  0.6118
14739TIP3    H265633   5.902   3.748   1.155 -0.1253 -0.4014 -0.4885
14740TIP3   OH265634   1.828   5.869   4.805 -0.5572 -0.0136  0.0631
14740TIP3    H165635   1.920   5.844   4.816 -0.3785  0.8482  0.6093
14740TIP3    H265636   1.815   5.942   4.866 -2.1192 -1.3615  1.4521
14741TIP3   OH265637   2.127   3.827  16.597  0.3944 -0.1497 -0.2597
14741TIP3    H165638   2.170   3.912  16.613  0.2553 -0.4746  2.1775
14741TIP3    H265639   2.198   3.763  16.602  0.1056 -0.4082  0.7231
14742TIP3   OH265640   2.441   1.856  12.920 -0.1010 -1.0057 -0.0119
14742TIP3    H165641   2.492   1.866  13.000 -1.1215 -1.5143  0.7212
14742TIP3    H265642   2.484   1.914  12.857  0.9838 -0.9359  0.7606
14743TIP3   OH265643   2.806   5.644  16.268 -0.1512 -0.3115  0.4024
14743TIP3    H165644   2.861   5.690  16.204  0.2901  0.6200  1.4110
14743TIP3    H265645   2.724   5.628  16.222 -0.4916  1.8935  0.1139
14744TIP3   OH265646   2.699   3.382  16.487  0.1116 -0.3236  0.7048
14744TIP3    H165647   2.608   3.406  16.469 -0.1580 -1.0073  1.1117
14744TIP3    H265648   2.744   3.465  16.499 -0.2695  0.0540 -0.3915
14745TIP3   OH265649   5.521   3.920  11.463  0.3296 -0.1736 -0.2627
14745TIP3    H165650   5.509   3.844  11.405  1.3246 -0.2972 -0.3211
14745TIP3    H265651   5.609   3.952  11.443  0.0668  0.7731  0.0358
14746TIP3   OH265652   3.164   4.610  11.581 -0.1905  0.6958  0.4772
14746TIP3    H165653   3.224   4.539  11.603 -0.2120  0.5635  0.1135
14746TIP3    H265654   3.220   4.679  11.546  0.1038  1.7132  2.7676
14747TIP3   OH265655   2.636   5.320   0.201 -0.2063  0.1618 -0.5323
14747TIP3    H165656   2.560   5.336   0.257 -0.8969  0.6414 -1.5843
14747TIP3    H265657   2.686   5.253   0.248 -2.1389 -1.4531 -0.6362
14748TIP3   OH265658   4.691   4.294   5.037 -0.2093 -0.0359  0.6043
14748TIP3    H165659   4.682   4.388   5.053 -0.2691  0.1380 -0.4095
14748TIP3    H265660   4.602   4.260   5.035 -0.2251  0.0343  0.1131
14749TIP3   OH265661   2.955   4.754  11.451 -0.0476  0.2070 -0.1556
14749TIP3    H165662   3.006   4.692  11.504 -0.1525  2.3652  2.7065
14749TIP3    H265663   3.011   4.772  11.376  1.2533 -1.1497  0.4251
14750TIP3   OH265664   2.386   2.242  14.968 -0.4469 -0.8922 -0.2656
14750TIP3    H165665   2.440   2.197  15.033 -0.8469 -0.4499  0.3816
14750TIP3    H265666   2.424   2.217  14.884  0.4816 -0.9502  0.1606
14751TIP3   OH265667   5.553   6.451   4.512  0.3301  0.2536 -0.1087
14751TIP3    H165668   5.557   6.545   4.498 -0.9481  0.3136 -0.1550
14751TIP3    H265669   5.605   6.413   4.441  0.3275  0.8924 -0.4522
14752TIP3   OH265670   5.040   4.270   4.743 -0.0901 -0.0210  0.0207
14752TIP3    H165671   5.134   4.285   4.756  0.3947 -1.9362 -0.9955
14752TIP3    H265672   5.035   4.189   4.692 -2.2963  0.2149 -0.2294
14753TIP3   OH265673   5.022   1.435  13.171 -0.2631  0.5915 -0.1616
14753TIP3    H165674   4.969   1.356  13.171  2.0967 -1.0780  0.3509
14753TIP3    H265675   5.015   1.468  13.081 -0.0228 -1.1185 -0.8444
14754TIP3   OH265676   1.174   6.759   0.323 -0.2660 -0.5723 -0.5016
14754TIP3    H165677   1.143   6.819   0.256 -0.1061  0.3081  0.1983
14754TIP3    H265678   1.102   6.696   0.334  0.0308 -1.2474 -2.0698
14755TIP3   OH265679   3.317   4.005  11.981  0.3903  0.4682  0.6368
14755TIP3    H165680   3.394   4.017  11.926  0.3711 -0.6874  0.3319
14755TIP3    H265681   3.304   3.910  11.985 -0.5418  0.6012  1.3462
14756TIP3   OH265682   3.175   5.879   3.998 -0.1670  0.3069 -0.6842
14756TIP3    H165683   3.253   5.909   4.044 -0.3955 -0.4618  0.2597
14756TIP3    H265684   3.207   5.848   3.914  0.4143  0.8228 -0.6623
14757TIP3   OH265685   4.497   4.000   6.287 -0.5737 -0.0584  0.6222
14757TIP3    H165686   4.414   3.988   6.333  0.0448  1.2448  2.1455
14757TIP3    H265687   4.556   3.937   6.328 -0.3877  0.1203  0.6279
14758TIP3   OH265688   0.888   2.163   6.037  0.1502  0.1019 -0.1132
14758TIP3    H165689   0.872   2.227   6.106 -1.1621  0.5471 -0.8110
14758TIP3    H265690   0.903   2.081   6.084 -0.3543  0.4762  0.7190
14759TIP3   OH265691   4.331   1.047   0.319 -0.5504 -0.3957 -0.0709
14759TIP3    H165692   4.346   1.044   0.413 -1.9130 -1.3241  0.1415
14759TIP3    H265693   4.413   1.081   0.283  0.0712 -0.2452  1.4210
14760TIP3   OH265694   3.495   3.593  13.027  0.0846  0.1012 -0.0245
14760TIP3    H165695   3.512   3.666  13.086  0.0466 -0.9405  1.3377
14760TIP3    H265696   3.548   3.521  13.063  0.6442 -0.3759 -1.7079
14761TIP3   OH265697   1.716   3.392   1.961  0.4799  0.5354 -0.3501
14761TIP3    H165698   1.784   3.350   1.909  0.7022  0.3511  0.0813
14761TIP3    H265699   1.701   3.331   2.034  0.7459  1.1631  0.2398
14762TIP3   OH265700   4.306   0.225   3.709  0.4915 -0.1288 -0.0859
14762TIP3    H165701   4.260   0.141   3.711  0.6276 -0.2007  1.1392
14762TIP3    H265702   4.370   0.218   3.780  1.0381  0.7195 -0.4811
14763TIP3   OH265703   1.822   0.656  14.954 -0.4212  0.7156  0.5258
14763TIP3    H165704   1.889   0.601  14.995 -1.0993  1.3414  2.5995
14763TIP3    H265705   1.782   0.703  15.027 -1.0298  2.6823 -0.9899
14764TIP3   OH265706   6.144   0.038   1.890  0.0701 -0.3850  0.0785
14764TIP3    H165707   6.064   0.078   1.856 -0.0373 -0.1803  0.5653
14764TIP3    H265708   6.145  -0.050   1.851 -0.4215 -0.4139  0.1197
14765TIP3   OH265709   4.118   3.972   0.263 -0.1124  0.1843  0.5092
14765TIP3    H165710   4.105   3.990   0.357  1.0461 -1.3617  1.0144
14765TIP3    H265711   4.177   4.042   0.233  0.6540 -0.0938  1.3043
14766TIP3   OH265712   5.468   3.977   0.240 -0.0054 -0.5621 -0.3146
14766TIP3    H165713   5.422   4.054   0.273  2.4374  0.5481  0.7145
14766TIP3    H265714   5.558   4.006   0.228  0.9281 -3.1699 -0.1921
14767TIP3   OH265715   3.029   3.094   6.287  0.0727  0.3615  0.4693
14767TIP3    H165716   2.952   3.052   6.248  0.0594  2.7044 -2.3191
14767TIP3    H265717   3.102   3.038   6.262 -0.4020 -0.5289  0.9917
14768TIP3   OH265718   6.096   6.023  16.683 -0.4843  0.0238  0.6316
14768TIP3    H165719   6.082   6.042  16.776 -0.3056  2.7612  0.1522
14768TIP3    H265720   6.020   6.060  16.639  0.0444 -0.1201 -0.4380
14769TIP3   OH265721   2.447   0.561   6.570 -0.2183 -0.0927 -0.3634
14769TIP3    H165722   2.533   0.603   6.563 -0.0336 -0.4679 -0.3746
14769TIP3    H265723   2.466   0.467   6.569 -0.3285 -0.2431  2.6708
14770TIP3   OH265724   1.278   1.429  11.456 -0.5605  0.4937 -0.9783
14770TIP3    H165725   1.340   1.501  11.441 -0.3083  0.0719 -2.0718
14770TIP3    H265726   1.246   1.443  11.545 -0.4536  1.9123 -1.1410
14771TIP3   OH265727   2.568   0.867  16.239  0.0152 -0.0539  0.5316
14771TIP3    H165728   2.661   0.886  16.227 -0.2244  0.6372 -0.3846
14771TIP3    H265729   2.548   0.803  16.171 -0.6786  1.5659 -0.8721
14772TIP3   OH265730   2.699   4.582  12.328 -0.1110  0.6945  0.3125
14772TIP3    H165731   2.605   4.573  12.316 -0.1037 -0.7366  1.1701
14772TIP3    H265732   2.737   4.559  12.243 -0.5010  0.8725  0.0870
14773TIP3   OH265733   4.067   5.041  13.914 -0.2712 -0.0541  0.2508
14773TIP3    H165734   4.016   5.011  13.989 -1.6266  0.3229 -0.4718
14773TIP3    H265735   4.138   5.093  13.952  1.9052 -3.6042  1.5142
14774TIP3   OH265736   5.180   3.519   4.897 -0.2816 -0.6126  0.0734
14774TIP3    H165737   5.198   3.464   4.973 -0.4683 -2.0440 -0.8872
14774TIP3    H265738   5.266   3.535   4.858 -0.4359 -2.3504 -1.0582
14775TIP3   OH265739   2.528   0.272   4.512  0.1702 -0.0736 -1.1271
14775TIP3    H165740   2.505   0.362   4.536 -0.6059 -0.2074 -1.3352
14775TIP3    H265741   2.578   0.239   4.587  0.5560  0.5608 -1.0984
14776TIP3   OH265742   0.954   3.663  11.690  0.6104 -0.0524 -0.5077
14776TIP3    H165743   0.995   3.630  11.610 -0.0694 -0.0914 -0.8500
14776TIP3    H265744   0.931   3.753  11.670 -1.9604 -0.8012 -1.3501
14777TIP3   OH265745   5.813   3.023   0.048  0.1240  0.2370 -0.4153
14777TIP3    H165746   5.764   2.942   0.037  0.7538 -0.3052  0.6268
14777TIP3    H265747   5.842   3.022   0.139  1.4273  0.8934 -0.7958
14778TIP3   OH265748   2.144   5.420   1.567  0.2873  0.1945 -0.1156
14778TIP3    H165749   2.199   5.488   1.606  0.0666 -0.2535  1.0121
14778TIP3    H265750   2.199   5.342   1.566 -0.3031 -0.2662  1.0541
14779TIP3   OH265751   3.364   6.472  15.633 -0.1872 -0.3484  0.1810
14779TIP3    H165752   3.425   6.532  15.590  0.6152 -1.0581  0.2999
14779TIP3    H265753   3.389   6.475  15.725 -1.7036  0.9356  0.5901
14780TIP3   OH265754   1.160   5.374   0.171  0.1473  0.2044  0.0443
14780TIP3    H165755   1.174   5.286   0.204 -0.9981  0.4621  1.3470
14780TIP3    H265756   1.102   5.363   0.095 -0.1810 -0.1554  0.3448
14781TIP3   OH265757   0.839   2.123   0.863  0.1799 -0.1673 -0.3421
14781TIP3    H165758   0.747   2.128   0.837  0.3329  1.7294 -0.6500
14781TIP3    H265759   0.847   2.182   0.937  0.9360 -1.2012  0.4364
14782TIP3   OH265760   1.183   5.778  14.162  0.1024 -0.1277  0.3283
14782TIP3    H165761   1.204   5.692  14.126  1.2007  0.8235 -1.4569
14782TIP3    H265762   1.149   5.760  14.250 -1.6335 -2.5084 -0.7112
14783TIP3   OH265763   3.983   1.175   5.319  0.0678 -0.2419  0.0386
14783TIP3    H165764   4.068   1.219   5.314  0.3845 -0.2664  3.2723
14783TIP3    H265765   4.004   1.082   5.306  0.3856 -0.1606 -0.0628
14784TIP3   OH265766   3.829   5.031   5.815 -0.4714  0.5448  0.7193
14784TIP3    H165767   3.747   5.078   5.804 -0.0210  1.4636  1.1555
14784TIP3    H265768   3.877   5.046   5.734 -1.9584 -2.6321 -0.9272
14785TIP3   OH265769   1.978   1.291  16.386  0.3852 -0.1452 -0.5136
14785TIP3    H165770   1.916   1.348  16.340 -0.3805  0.3376  1.0497
14785TIP3    H265771   1.964   1.310  16.479  2.0936 -0.8601 -0.0690
14786TIP3   OH265772   6.687   2.872   3.949 -0.2971  0.0119  0.3182
14786TIP3    H165773   6.640   2.918   4.018 -1.3770  0.8444 -0.9120
14786TIP3    H265774   6.758   2.826   3.994  0.2659  2.1340  1.7444
14787TIP3   OH265775   3.210   4.687  12.944  0.2798  0.5650 -0.4714
14787TIP3    H165776   3.186   4.749  13.013 -2.8281 -1.8649  0.8220
14787TIP3    H265777   3.297   4.655  12.970 -0.2480  0.6961  1.6158
14788TIP3   OH265778   6.129   5.814  11.678 -0.0372 -0.1921 -0.3904
14788TIP3    H165779   6.177   5.849  11.603  0.9863  2.4053  1.3563
14788TIP3    H265780   6.081   5.888  11.713 -1.9468 -1.7649  0.5001
14789TIP3   OH265781   2.262   3.254  15.904  0.2278  0.3855  0.1924
14789TIP3    H165782   2.255   3.305  15.823  1.4039  0.2181 -0.0225
14789TIP3    H265783   2.297   3.316  15.968  0.3642  0.2092  0.2874
14790TIP3   OH265784   6.646   4.914   5.362  0.0739 -0.0683  0.0068
14790TIP3    H165785   6.731   4.940   5.398  0.5975 -1.1118 -0.4371
14790TIP3    H265786   6.663   4.832   5.316 -0.8843  0.4432 -1.3345
14791TIP3   OH265787   3.753   6.634   4.469  0.5479 -0.4568 -0.0614
14791TIP3    H165788   3.666   6.604   4.444  0.7222 -0.0323 -1.2550
14791TIP3    H265789   3.784   6.683   4.393  2.0801 -1.1170  0.1099
14792TIP3   OH265790   1.762   1.405   3.651 -0.3897  0.9029  0.1085
14792TIP3    H165791   1.845   1.366   3.678 -1.0518 -0.1140  0.7366
14792TIP3    H265792   1.768   1.496   3.679  0.1632  0.6203  0.9292
14793TIP3   OH265793   0.436   5.880  13.731 -0.5898 -0.0220 -0.1681
14793TIP3    H165794   0.505   5.837  13.782  0.4344 -1.0151 -2.2585
14793TIP3    H265795   0.400   5.946  13.790  2.2699  0.6696  0.9664
14794TIP3   OH265796   0.509   1.188   0.883 -0.1946  0.3489  0.3864
14794TIP3    H165797   0.442   1.180   0.815 -0.1040 -0.9789  0.4150
14794TIP3    H265798   0.510   1.281   0.906 -2.2383  0.3606  0.5924
14795TIP3   OH265799   6.328   0.463   5.895 -0.1798 -0.2269  0.3896
14795TIP3    H165800   6.316   0.506   5.811  1.8525  2.8060  1.4896
14795TIP3    H265801   6.395   0.397   5.880 -0.3222 -0.1840 -0.4753
14796TIP3   OH265802   3.120   4.511   2.388  0.2472  0.3133 -0.4794
14796TIP3    H165803   3.121   4.542   2.298 -1.0483  2.9488  0.3000
14796TIP3    H265804   3.203   4.465   2.399  1.0022  1.0540 -2.6323
14797TIP3   OH265805   5.479   0.759   5.017 -0.3968 -0.4026  0.3132
14797TIP3    H165806   5.412   0.698   4.987  0.7641 -0.9143 -1.4383
14797TIP3    H265807   5.549   0.703   5.052  0.6503 -0.1318 -1.2451
14798TIP3   OH265808   5.278   3.173   5.847  0.2931  0.0881 -0.0259
14798TIP3    H165809   5.301   3.203   5.935  0.0575  1.0329 -0.2759
14798TIP3    H265810   5.185   3.150   5.853  0.5830 -1.0253  0.2757
14799TIP3   OH265811   4.285   0.347  13.772  0.1020  0.0514 -0.0066
14799TIP3    H165812   4.202   0.379  13.808  0.4219  0.8306  0.0698
14799TIP3    H265813   4.331   0.309  13.847  0.4570  1.0164  0.2857
14800TIP3   OH265814   3.643   4.970  15.505 -0.6806 -0.2400  0.3222
14800TIP3    H165815   3.625   4.879  15.531 -1.8776 -0.3107 -0.6458
14800TIP3    H265816   3.693   5.006  15.578  0.4059 -1.8613  0.4486
14801TIP3   OH265817   3.011   1.632  11.420  0.0567  0.3094 -0.1944
14801TIP3    H165818   2.971   1.613  11.335  0.5557 -0.4630 -0.2697
14801TIP3    H265819   2.967   1.573  11.481  1.2127 -0.7272 -0.3214
14802TIP3   OH265820   2.100   5.780  11.226 -0.4708  0.4357 -0.3936
14802TIP3    H165821   2.092   5.795  11.132 -0.8447 -0.5074 -0.5228
14802TIP3    H265822   2.041   5.707  11.244  0.0291  0.2300  0.4783
14803TIP3   OH265823   0.312   5.280  13.885  0.2961  0.1707  0.4266
14803TIP3    H165824   0.332   5.268  13.978 -1.6939 -0.2576  0.8546
14803TIP3    H265825   0.353   5.363  13.862  0.5971  0.4122  1.7574
14804TIP3   OH265826   3.476   0.039  12.069  0.1570 -0.5204 -0.2771
14804TIP3    H165827   3.451   0.074  12.154  0.3919 -1.8779  0.3901
14804TIP3    H265828   3.559  -0.005  12.085  0.5292 -0.2419 -1.3642
14805TIP3   OH265829   0.550   2.816  15.713 -0.7038 -0.3047  0.0855
14805TIP3    H165830   0.495   2.768  15.651 -2.5813  0.9756  0.6643
14805TIP3    H265831   0.607   2.871  15.658 -3.4285  2.0287 -0.6716
14806TIP3   OH265832   1.055   3.262  13.202 -0.2136 -0.2377  0.0533
14806TIP3    H165833   1.057   3.255  13.107  0.9601  1.5471 -0.0909
14806TIP3    H265834   1.142   3.231  13.230  0.2767  1.3368  0.3407
14807TIP3   OH265835   4.420   3.958   0.113  0.1598  0.1895 -0.0731
14807TIP3    H165836   4.349   4.018   0.091 -0.0650  0.1978  0.6457
14807TIP3    H265837   4.489   4.015   0.148 -0.4537 -0.0382  1.6082
14808TIP3   OH265838   5.481   5.279  16.803  0.1308  0.2946  0.2627
14808TIP3    H165839   5.552   5.219  16.778  0.8983  1.0154  0.6518
14808TIP3    H265840   5.526   5.361  16.824 -0.8788  0.9381 -0.0255
14809TIP3   OH265841   6.160   6.420   4.175  0.0117 -0.5279 -0.0315
14809TIP3    H165842   6.226   6.356   4.150  1.6094  0.6801  0.8658
14809TIP3    H265843   6.199   6.505   4.154 -1.2621  0.2383  0.5300
14810TIP3   OH265844   3.478   3.515   3.880  0.1052  0.1629  0.2594
14810TIP3    H165845   3.417   3.577   3.920  1.3782  0.9732  1.0353
14810TIP3    H265846   3.534   3.569   3.824  0.7192 -0.3976  0.3115
14811TIP3   OH265847   0.872   0.136  16.854  0.1648 -0.3152  0.2926
14811TIP3    H165848   0.923   0.055  16.855 -0.8938 -1.0011  2.1402
14811TIP3    H265849   0.897   0.183  16.933 -2.6178 -1.0907  1.7719
14812TIP3   OH265850   0.172   5.442   3.104  0.1430 -0.6504 -0.4452
14812TIP3    H165851   0.080   5.454   3.129  0.2894 -0.3589 -0.0419
14812TIP3    H265852   0.182   5.493   3.023  0.3211  0.5708  0.3147
14813TIP3   OH265853   6.729   6.469  12.630  0.3070 -0.0670 -0.1969
14813TIP3    H165854   6.652   6.423  12.663  0.9302 -1.6741 -0.8878
14813TIP3    H265855   6.724   6.556  12.670 -1.2425 -0.5163  0.6650
14814TIP3   OH265856   3.890   3.521  11.782 -0.4696 -0.4504 -0.3301
14814TIP3    H165857   3.915   3.449  11.724 -0.0859  0.7801 -1.7183
14814TIP3    H265858   3.797   3.536  11.764 -0.4475 -0.3252 -0.3411
14815TIP3   OH265859   0.676   3.226   5.009 -0.0600 -0.2693  0.6099
14815TIP3    H165860   0.738   3.154   4.999  1.1904  0.4872  2.4627
14815TIP3    H265861   0.690   3.281   4.932  1.1670 -0.4020  0.7308
14816TIP3   OH265862   4.126   5.319   1.514 -0.2275  0.4636 -0.2456
14816TIP3    H165863   4.193   5.367   1.562  1.1285 -0.7749 -0.8106
14816TIP3    H265864   4.156   5.321   1.423  1.2983 -3.4157 -0.0478
14817TIP3   OH265865   1.839   4.567   0.379  0.2764 -0.0561  0.3105
14817TIP3    H165866   1.845   4.663   0.377  0.0908 -0.0561 -0.2110
14817TIP3    H265867   1.863   4.544   0.469  0.0567  0.4976  0.5152
14818TIP3   OH265868   5.862   6.243  15.729 -0.1514 -0.3750  0.0302
14818TIP3    H165869   5.774   6.266  15.760  0.0115 -0.5178  0.6123
14818TIP3    H265870   5.850   6.164  15.677 -0.4878  0.1012 -0.6288
14819TIP3   OH265871   1.865   3.888  16.087  0.2977  0.3998 -0.3973
14819TIP3    H165872   1.927   3.933  16.029  0.6181  1.7090  0.9120
14819TIP3    H265873   1.835   3.813  16.035  3.1804 -0.4822 -0.9959
14820TIP3   OH265874   2.598   6.050   3.249  0.0273  0.1459 -0.0461
14820TIP3    H165875   2.635   6.009   3.327 -0.0097  0.8992  0.3668
14820TIP3    H265876   2.636   6.137   3.247 -0.0240  0.1561 -0.8356
14821TIP3   OH265877   3.265   6.366  16.883 -0.0303 -0.2906 -0.9640
14821TIP3    H165878   3.329   6.307  16.923 -2.3585 -2.0273  0.5115
14821TIP3    H265879   3.317   6.439  16.851  2.8203 -2.2196 -1.1591
14822TIP3   OH265880   2.645   3.899   2.913 -0.8855  0.4586 -0.6166
14822TIP3    H165881   2.626   3.984   2.953 -0.5780  0.0633  0.4013
14822TIP3    H265882   2.728   3.873   2.951 -1.9324 -1.2083  0.6374
14823TIP3   OH265883   3.470   4.012   0.187 -0.3167  0.2943  0.3304
14823TIP3    H165884   3.392   3.961   0.163  0.0565  0.2092 -0.7503
14823TIP3    H265885   3.520   4.019   0.106  0.8281  0.3226  1.0178
14824TIP3   OH265886   1.666   3.395  12.770  0.1203  0.2945  0.2962
14824TIP3    H165887   1.596   3.455  12.795  0.7973  0.8095  1.0046
14824TIP3    H265888   1.631   3.347  12.695  0.0824  2.5221 -1.1859
14825TIP3   OH265889   6.521   4.499  14.043 -0.3089 -0.3088 -0.0822
14825TIP3    H165890   6.538   4.405  14.051 -0.3397 -0.1964  1.4956
14825TIP3    H265891   6.531   4.516  13.949 -1.6510 -2.1250 -0.6165
14826TIP3   OH265892   0.843   6.389   2.104  0.3184 -0.3682  0.3168
14826TIP3    H165893   0.786   6.335   2.049  1.6253  0.7725 -2.3410
14826TIP3    H265894   0.783   6.432   2.165 -1.2590 -1.5775 -0.3179
14827TIP3   OH265895   2.674   3.644  11.012  0.5226 -0.8507  0.2349
14827TIP3    H165896   2.604   3.678  11.067 -0.0145 -1.0724 -0.2981
14827TIP3    H265897   2.753   3.688  11.043  0.1243 -0.4867  0.7435
14828TIP3   OH265898   0.165   6.669   1.515  0.7805  0.4857 -0.1174
14828TIP3    H165899   0.219   6.746   1.528 -0.0969  1.2255 -0.7418
14828TIP3    H265900   0.212   6.598   1.560  1.2880  1.4926  0.9690
14829TIP3   OH265901   5.152   3.106  12.948 -0.3061  0.0513  0.3988
14829TIP3    H165902   5.133   3.176  13.010 -0.9341  0.4731 -0.2560
14829TIP3    H265903   5.075   3.050  12.950 -0.4537  0.2234 -0.1985
14830TIP3   OH265904   0.731   3.499  17.122 -0.0714 -0.7419  0.0689
14830TIP3    H165905   0.727   3.561  17.194  1.8545  0.2411 -0.6005
14830TIP3    H265906   0.672   3.535  17.056  0.5291  0.0743 -0.0472
14831TIP3   OH265907   4.230   5.891   5.585 -0.2345 -0.1134  0.0085
14831TIP3    H165908   4.317   5.883   5.547 -0.4006  0.1163 -0.4223
14831TIP3    H265909   4.211   5.985   5.581 -2.1073 -0.4675 -3.5377
14832TIP3   OH265910   1.625   2.263  16.789 -0.0394  0.6271  0.0084
14832TIP3    H165911   1.704   2.248  16.840 -0.2723 -2.7041 -0.3661
14832TIP3    H265912   1.634   2.206  16.712 -2.0516  1.4450 -0.9242
14833TIP3   OH265913   6.391   2.996  16.626 -0.1355  0.3403  0.0494
14833TIP3    H165914   6.447   2.920  16.608 -0.5536 -0.2667  1.2144
14833TIP3    H265915   6.355   2.979  16.713 -0.5058  1.7210  0.1863
14834TIP3   OH265916   2.551   5.021  10.672 -0.6875 -0.3596  0.2445
14834TIP3    H165917   2.471   4.969  10.678 -0.5493 -0.6263 -0.2597
14834TIP3    H265918   2.608   4.985  10.740 -1.4414  0.6309  1.4703
14835TIP3   OH265919   3.540   5.027  12.436 -0.3941  0.2281 -0.3320
14835TIP3    H165920   3.469   5.057  12.492  0.2244 -0.4430  0.8352
14835TIP3    H265921   3.612   5.008  12.495  1.7384  3.3627 -1.6477
14836TIP3   OH265922   2.468   6.617  12.846 -0.2361  0.6358  0.1443
14836TIP3    H165923   2.426   6.682  12.902  0.0899  1.1529 -0.2024
14836TIP3    H265924   2.555   6.604  12.885 -0.5153 -0.0386  0.5562
14837TIP3   OH265925   6.705   3.539  17.128 -0.0259 -0.1162  0.2552
14837TIP3    H165926   6.747   3.613  17.086 -0.0370  0.0512  0.5412
14837TIP3    H265927   6.612   3.562  17.132 -0.3692 -1.0377 -1.5642
14838TIP3   OH265928   2.454   4.011  14.914  0.1220 -0.2389  0.3501
14838TIP3    H165929   2.443   4.024  15.008 -2.6665  2.9561 -0.2344
14838TIP3    H265930   2.418   4.090  14.874  1.7240 -1.1852 -3.4445
14839TIP3   OH265931   4.580   1.654   3.533 -0.0067 -0.0012  0.1190
14839TIP3    H165932   4.674   1.667   3.527 -0.1355  0.7125 -0.5749
14839TIP3    H265933   4.558   1.675   3.624  0.0175  3.4953 -0.5590
14840TIP3   OH265934   1.884   3.660  16.606  0.9387 -0.6670 -0.2879
14840TIP3    H165935   1.931   3.743  16.598 -1.1837  0.6723  0.3262
14840TIP3    H265936   1.852   3.641  16.518 -1.6797  1.1852  0.1559
14841TIP3   OH265937   0.561   2.158  12.711  0.0009 -0.5326 -0.1486
14841TIP3    H165938   0.467   2.155  12.698 -0.0023  0.2311 -0.3612
14841TIP3    H265939   0.578   2.098  12.783 -0.5159 -1.4726 -0.7983
14842TIP3   OH265940   2.105   1.575  12.107 -0.4441 -0.3046  0.0392
14842TIP3    H165941   2.181   1.588  12.050 -0.9050  0.5353 -0.3894
14842TIP3    H265942   2.052   1.510  12.061  0.2021 -1.2125  0.5413
14843TIP3   OH265943   5.063   5.195   4.763 -0.2389  0.3009 -0.7834
14843TIP3    H165944   5.090   5.163   4.849 -2.2454  0.6504  0.0466
14843TIP3    H265945   5.122   5.267   4.743  0.0294  0.4509  0.4915
14844TIP3   OH265946   6.792   0.757  16.213  0.0107  0.4096  0.1322
14844TIP3    H165947   6.822   0.707  16.289 -1.2744  0.1740  0.5004
14844TIP3    H265948   6.782   0.847  16.245 -0.0278  0.4155  0.1038
14845TIP3   OH265949   4.736   4.120  16.772  0.5750  0.0840 -0.2477
14845TIP3    H165950   4.685   4.148  16.848 -0.8522  1.5193 -1.6582
14845TIP3    H265951   4.826   4.139  16.795 -0.0077  2.3671  0.3716
14846TIP3   OH265952   4.459   6.354   3.290  0.4193  0.7344  0.3817
14846TIP3    H165953   4.492   6.440   3.314  1.3255  0.4003  0.3769
14846TIP3    H265954   4.396   6.333   3.359 -1.3194  2.2288 -0.6841
14847TIP3   OH265955   6.180   0.557   2.717  0.6401  0.2011 -0.1547
14847TIP3    H165956   6.123   0.481   2.708  1.4023 -0.3044 -0.8920
14847TIP3    H265957   6.126   0.631   2.687  0.8742 -0.5031 -2.5071
14848TIP3   OH265958   0.519   4.374  17.146  0.0025  0.0332  0.2790
14848TIP3    H165959   0.596   4.424  17.118 -1.5526  3.1848  1.0782
14848TIP3    H265960   0.490   4.328  17.067  0.7534  1.6099 -0.9942
14849TIP3   OH265961   4.569   0.179   5.958 -0.2255 -0.4665 -0.2303
14849TIP3    H165962   4.616   0.221   5.886  1.3596 -1.0367  0.4463
14849TIP3    H265963   4.539   0.252   6.012 -0.2575 -0.0932 -0.7409
14850TIP3   OH265964   4.687   6.596  14.183  0.2267  0.6636  0.2372
14850TIP3    H165965   4.658   6.673  14.134  0.3457  1.0471  0.7669
14850TIP3    H265966   4.698   6.528  14.116 -0.0227  1.0605 -0.2125
14851TIP3   OH265967   3.426   3.775  11.671  0.0814  0.3583 -0.0976
14851TIP3    H165968   3.417   3.768  11.766  0.2624 -1.7834 -0.1740
14851TIP3    H265969   3.499   3.835  11.657  0.0381  0.7037  1.1051
14852TIP3   OH265970   2.010   2.705  13.307  0.1154 -0.1145  0.5316
14852TIP3    H165971   1.920   2.729  13.287 -0.5631 -2.3785  0.4878
14852TIP3    H265972   2.002   2.628  13.364  1.9869 -0.8347 -0.0717
14853TIP3   OH265973   4.158   1.815  16.338 -0.2023  0.4960  0.0110
14853TIP3    H165974   4.097   1.854  16.277 -2.9053  1.7290  3.2152
14853TIP3    H265975   4.215   1.887  16.366 -1.7622  1.0464  1.9860
14854TIP3   OH265976   4.199   5.001  14.196 -0.0440  0.1134 -0.3140
14854TIP3    H165977   4.215   4.938  14.266 -0.1542  1.5683  1.0978
14854TIP3    H265978   4.275   5.059  14.197 -0.8379  1.1987 -0.1922
14855TIP3   OH265979   5.508   0.666  14.019 -0.3545 -0.1817 -0.1609
14855TIP3    H165980   5.468   0.698  13.938 -1.8575 -2.2481 -0.3224
14855TIP3    H265981   5.576   0.605  13.990  0.3530  0.4387  0.1527
14856TIP3   OH265982   0.264   2.619  15.908 -0.1947 -0.0590  0.1368
14856TIP3    H165983   0.193   2.568  15.947  1.1467 -1.0897  1.3611
14856TIP3    H265984   0.289   2.569  15.830 -0.5041  0.0710 -0.0495
14857TIP3   OH265985   1.996   6.367   6.048 -0.6876  0.3277  0.4283
14857TIP3    H165986   2.006   6.284   6.095  0.0224 -0.3696 -0.9082
14857TIP3    H265987   1.926   6.413   6.096 -1.1558 -1.0603  1.1386
14858TIP3   OH265988   6.104   3.736  12.486 -0.4535 -0.0983 -0.2588
14858TIP3    H165989   6.153   3.695  12.415  1.9029 -0.0266  1.2265
14858TIP3    H265990   6.098   3.828  12.462  0.0097 -0.1389 -0.5376
14859TIP3   OH265991   1.470   5.436  10.381  0.3476  0.3958  0.1524
14859TIP3    H165992   1.562   5.437  10.406  0.0766  0.3765  1.1891
14859TIP3    H265993   1.471   5.434  10.285  1.4190  0.9549  0.1353
14860TIP3   OH265994   6.728   5.963   2.914 -0.5683  0.5919  0.0158
14860TIP3    H165995   6.685   5.878   2.909  0.5244  0.0487 -0.2781
14860TIP3    H265996   6.818   5.944   2.938  0.1474  1.5279 -1.7440
14861TIP3   OH265997   3.040   0.040   0.668  0.3661 -0.1546  0.7232
14861TIP3    H165998   3.025  -0.053   0.685 -0.1445  0.2973  3.1590
14861TIP3    H265999   3.127   0.057   0.704  0.3306  0.3732  0.5658
14862TIP3   OH266000   4.025   2.642  15.083 -0.0472 -0.2059 -0.0754
14862TIP3    H166001   4.019   2.574  15.150  1.2124  0.5257  0.8239
14862TIP3    H266002   4.115   2.674  15.089 -0.5178  1.3335 -0.6841
14863TIP3   OH266003   0.569   6.615  15.351 -0.0259  0.7125 -0.8579
14863TIP3    H166004   0.565   6.645  15.441  0.5097 -0.4496 -0.4195
14863TIP3    H266005   0.603   6.526  15.357 -1.1066  0.1759 -2.1166
14864TIP3   OH266006   1.439   0.993  16.476 -0.2210  0.6005  0.0349
14864TIP3    H166007   1.454   0.914  16.424 -0.7569  0.1675  0.5248
14864TIP3    H266008   1.368   0.969  16.536  0.6852  0.9391  1.2684
14865TIP3   OH266009   0.164   3.382  14.997  0.4183  0.1321  0.0442
14865TIP3    H166010   0.148   3.318  14.927  0.0925  0.6184 -0.3339
14865TIP3    H266011   0.079   3.423  15.011  0.2780 -0.5538  1.3370
14866TIP3   OH266012   1.527   3.771   1.177 -0.4966 -0.3552  0.7948
14866TIP3    H166013   1.467   3.845   1.186  1.5157  1.5392 -0.4049
14866TIP3    H266014   1.497   3.725   1.098 -1.2297 -0.3219  1.0469
14867TIP3   OH266015   5.463   0.549  15.479  0.1897 -0.2986  0.0846
14867TIP3    H166016   5.488   0.497  15.555  2.4059  0.7108  0.1135
14867TIP3    H266017   5.468   0.639  15.509 -0.9977  0.0596 -0.7059
14868TIP3   OH266018   1.076   6.358   6.295  0.1718  0.7425  0.2254
14868TIP3    H166019   1.084   6.264   6.278  0.4392  1.0262 -1.3320
14868TIP3    H266020   0.982   6.375   6.297  0.1335  0.6201 -0.5421
14869TIP3   OH266021   2.472   2.806   5.187 -0.1856 -0.0924  0.3059
14869TIP3    H166022   2.484   2.823   5.094  0.5981 -0.9355  0.2478
14869TIP3    H266023   2.560   2.793   5.221 -0.2177  2.3550  1.6175
14870TIP3   OH266024   0.589   3.521   5.843  0.5196 -0.4406 -0.7392
14870TIP3    H166025   0.680   3.540   5.822  0.5412 -0.3178 -0.5410
14870TIP3    H266026   0.571   3.574   5.921  0.6728 -1.4762  0.0157
14871TIP3   OH266027   0.440   0.858  15.040 -0.5249  0.3639  0.2285
14871TIP3    H166028   0.435   0.902  14.955 -0.7528 -0.1032 -0.0066
14871TIP3    H266029   0.349   0.849  15.068 -0.4163  1.2495  0.9145
14872TIP3   OH266030   5.984   3.662  15.368 -0.0989 -0.8709  0.0362
14872TIP3    H166031   5.962   3.710  15.288  1.0910  0.8843  0.7125
14872TIP3    H266032   6.079   3.655  15.368 -0.0986 -1.2031  1.1126
14873TIP3   OH266033   4.195   0.791  13.566 -0.2166  0.8025 -0.1600
14873TIP3    H166034   4.159   0.835  13.489 -0.1821  0.5490 -0.3202
14873TIP3    H266035   4.119   0.748  13.607  0.0876 -0.7630 -1.1766
14874TIP3   OH266036   0.040   4.184  13.906  0.5340  0.1788 -0.0080
14874TIP3    H166037   0.046   4.226  13.992 -2.4799 -0.0468  0.4185
14874TIP3    H266038   0.044   4.090  13.925 -1.2838  0.0916  0.0712
14875TIP3   OH266039   5.425   4.574  14.672  0.3877 -0.8259  0.2171
14875TIP3    H166040   5.473   4.655  14.654  0.3635 -1.3895 -2.8911
14875TIP3    H266041   5.368   4.596  14.746  0.9967  1.7394  0.0145
14876TIP3   OH266042   3.013   2.755  11.071 -0.0349 -0.7006 -0.1762
14876TIP3    H166043   3.070   2.796  11.137  0.5575  2.5509 -2.4504
14876TIP3    H266044   2.926   2.756  11.111  0.1181  2.1445  0.3121
14877TIP3   OH266045   6.384   5.603   0.452  0.4860  0.0477 -1.0200
14877TIP3    H166046   6.293   5.630   0.437 -0.0860  0.6889  2.7623
14877TIP3    H266047   6.388   5.514   0.417 -1.6115  0.0031 -1.2915
14878TIP3   OH266048   2.881   6.565   5.197  0.7165 -0.4681 -0.2636
14878TIP3    H166049   2.807   6.510   5.173 -1.1943  1.9134 -0.2184
14878TIP3    H266050   2.864   6.649   5.154  2.6506  0.6116  0.9062
14879TIP3   OH266051   5.425   0.664   2.489  0.7735  0.4603 -0.1047
14879TIP3    H166052   5.421   0.753   2.523 -0.7652  0.7592 -0.9919
14879TIP3    H266053   5.365   0.614   2.545  1.0852  0.1358 -0.0562
14880TIP3   OH266054   0.106   1.514   5.348 -0.2516  0.0199 -0.1931
14880TIP3    H166055   0.028   1.562   5.320 -0.5068 -0.7180 -0.7783
14880TIP3    H266056   0.113   1.533   5.442 -1.6782 -0.6343  0.0836
14881TIP3   OH266057   2.040   1.770  12.748  0.6826  0.1873  0.2166
14881TIP3    H166058   2.060   1.823  12.671  1.4476 -0.9469 -0.3912
14881TIP3    H266059   1.945   1.776  12.756  0.3840 -0.9223 -1.7834
14882TIP3   OH266060   2.397   2.723  14.867 -0.3004  0.0959 -0.5466
14882TIP3    H166061   2.442   2.650  14.911  0.5249  0.4213 -0.8325
14882TIP3    H266062   2.455   2.798  14.881 -1.2158  0.7448 -0.1195
14883TIP3   OH266063   1.917   3.636   1.260  0.2889  0.0736  0.2699
14883TIP3    H166064   1.974   3.712   1.252  0.1557  0.2255  0.7414
14883TIP3    H266065   1.858   3.642   1.185  1.7533 -0.8280 -1.0223
14884TIP3   OH266066   4.172   4.669   1.909  0.1591  0.3809  0.1175
14884TIP3    H166067   4.109   4.734   1.878  0.1859  0.0229 -0.7119
14884TIP3    H266068   4.182   4.609   1.835  2.4598  1.1388 -0.2417
14885TIP3   OH266069   0.781   1.123  14.574  0.4880 -0.2005 -0.7160
14885TIP3    H166070   0.789   1.119  14.670 -0.1945  0.2813 -0.6270
14885TIP3    H266071   0.823   1.042  14.543  0.6159 -0.4184 -0.0045
14886TIP3   OH266072   3.796   6.426   6.062 -0.3885  0.2566  0.4682
14886TIP3    H166073   3.751   6.343   6.076  0.8054 -0.3293  0.9728
14886TIP3    H266074   3.867   6.426   6.127  0.5281  0.9924 -0.5024
14887TIP3   OH266075   0.595   3.049  11.167 -0.1446  0.0627 -0.2167
14887TIP3    H166076   0.641   3.112  11.112 -1.0609  0.3729 -0.6459
14887TIP3    H266077   0.588   2.970  11.112  0.0738 -0.0623 -0.0671
14888TIP3   OH266078   1.113   0.128   5.964  0.4314 -0.2219 -0.8518
14888TIP3    H166079   1.165   0.049   5.975 -0.1370 -0.4243  0.6706
14888TIP3    H266080   1.034   0.112   6.015  0.8007  1.7405  0.4843
14889TIP3   OH266081   3.228   4.198   4.921 -0.6237  0.0349 -0.5214
14889TIP3    H166082   3.247   4.278   4.969 -3.8959  1.0718 -0.7190
14889TIP3    H266083   3.314   4.164   4.896  0.9585  2.3292  1.3511
14890TIP3   OH266084   6.472   2.735  11.276  0.5252  0.3547 -0.3692
14890TIP3    H166085   6.551   2.732  11.331  0.5381  1.2391 -0.3338
14890TIP3    H266086   6.481   2.658  11.219  1.1906  0.1913 -0.0612
14891TIP3   OH266087   5.556   5.507  13.389 -0.5707 -0.1205  0.0569
14891TIP3    H166088   5.483   5.476  13.335  1.1416 -1.2055 -1.7695
14891TIP3    H266089   5.566   5.599  13.365 -0.4108 -0.3548 -0.8304
14892TIP3   OH266090   1.414   4.089  12.590 -0.2773  0.1399  0.5485
14892TIP3    H166091   1.395   4.156  12.656 -0.2263  0.9866 -0.2829
14892TIP3    H266092   1.506   4.068  12.604 -0.4882 -0.3451  1.3177
14893TIP3   OH266093   5.978   6.451   0.390  0.5508 -0.2142  0.4331
14893TIP3    H166094   6.027   6.469   0.310 -2.0543  4.3438 -0.4610
14893TIP3    H266095   6.013   6.514   0.454 -1.4799  0.5502  0.8750
14894TIP3   OH266096   4.801   3.753   5.819  0.1049 -0.5640 -0.1383
14894TIP3    H166097   4.716   3.790   5.796  0.5549  1.6579  1.4300
14894TIP3    H266098   4.857   3.774   5.744 -0.7766 -2.4722 -1.3970
14895TIP3   OH266099   3.124   1.255   0.185  0.3933  0.0751  0.4442
14895TIP3    H166100   3.130   1.243   0.280 -0.4201  0.9755  0.6260
14895TIP3    H266101   3.061   1.326   0.174 -0.3111 -0.7082 -0.8122
14896TIP3   OH266102   5.677   5.973  14.054 -0.4109  0.7514  0.1859
14896TIP3    H166103   5.678   5.880  14.032 -0.9108  0.0916  2.7240
14896TIP3    H266104   5.715   6.016  13.977  1.8294 -1.7123 -0.1942
14897TIP3   OH266105   0.691   4.395  12.404 -0.3113  0.1665 -0.1745
14897TIP3    H166106   0.746   4.362  12.333 -0.6811 -0.3942 -0.2021
14897TIP3    H266107   0.612   4.341  12.401 -1.3064  1.5822 -0.7468
14898TIP3   OH266108   2.820   5.384   4.212  0.4801 -0.0451  0.0027
14898TIP3    H166109   2.770   5.432   4.145 -2.0414 -1.9813  0.3372
14898TIP3    H266110   2.911   5.408   4.195 -0.3887  2.7363 -1.4678
14899TIP3   OH266111   3.745   1.889  14.195 -0.5146  0.0680  0.6295
14899TIP3    H166112   3.744   1.920  14.285 -0.4486 -0.0410  0.6675
14899TIP3    H266113   3.670   1.830  14.189  0.6128 -1.4820  1.1548
14900TIP3   OH266114   3.614   6.560  15.887 -0.0054 -0.5328  0.4174
14900TIP3    H166115   3.604   6.654  15.870 -3.2608 -0.5437  1.5745
14900TIP3    H266116   3.609   6.519  15.801  2.1771  0.3182 -0.1787
14901TIP3   OH266117   5.213   1.028   0.347  0.0004  0.3901 -0.6540
14901TIP3    H166118   5.179   1.109   0.383  1.0571  0.8840 -0.7310
14901TIP3    H266119   5.303   1.022   0.380  0.5566  0.1904 -2.1204
14902TIP3   OH266120   4.639   6.202  15.221  0.4680  0.3749  0.8471
14902TIP3    H166121   4.602   6.289  15.209 -0.8045 -0.2417  0.1375
14902TIP3    H266122   4.635   6.161  15.135 -1.1956 -1.2156  1.6121
14903TIP3   OH266123   3.851   4.917   2.170 -0.0041 -0.7247  0.2225
14903TIP3    H166124   3.809   4.857   2.109 -0.5126 -0.4243  0.2701
14903TIP3    H266125   3.924   4.954   2.121  0.0628 -1.0744  0.0578
14904TIP3   OH266126   3.965   5.812  11.378 -0.5286  0.2720 -0.1003
14904TIP3    H166127   4.047   5.833  11.334 -0.4742  0.0677 -0.1018
14904TIP3    H266128   3.989   5.744  11.441 -0.5825  0.6551  0.3372
14905TIP3   OH266129   6.429   4.054  11.447 -0.4817  0.3715  0.3217
14905TIP3    H166130   6.431   3.985  11.513 -0.0066  1.0700  1.0492
14905TIP3    H266131   6.457   4.010  11.366 -0.0798 -0.2686  0.7993
14906TIP3   OH266132   6.064   3.533  15.704 -0.1569  0.5984  0.4634
14906TIP3    H166133   5.973   3.513  15.684 -0.1394  0.2045  0.7749
14906TIP3    H266134   6.076   3.624  15.675  0.0234 -0.0948 -1.8541
14907TIP3   OH266135   1.411   3.293   0.627  0.0656 -0.0606  0.3701
14907TIP3    H166136   1.376   3.257   0.709 -0.7869 -1.1010 -0.4170
14907TIP3    H266137   1.378   3.234   0.559 -1.0170  1.9404 -0.9481
14908TIP3   OH266138   3.543   6.756  13.116 -0.3209  0.4944 -0.1709
14908TIP3    H166139   3.566   6.845  13.091  1.4991  0.6903  1.9414
14908TIP3    H266140   3.531   6.759  13.211  2.2588 -1.9362  0.3672
14909TIP3   OH266141   4.573   1.598   0.778  0.1439  0.0465 -0.0494
14909TIP3    H166142   4.607   1.673   0.827  0.4940 -1.5421  2.3180
14909TIP3    H266143   4.524   1.637   0.705  2.2436  2.5052 -0.3039
14910TIP3   OH266144   2.125   5.277  16.435  0.9508  0.2641  0.0621
14910TIP3    H166145   2.036   5.240  16.443  1.6346 -1.0558  3.6859
14910TIP3    H266146   2.112   5.371  16.443 -0.2022  0.1723 -0.4687
14911TIP3   OH266147   6.168   5.406   4.985  0.3820  0.4646 -0.6445
14911TIP3    H166148   6.174   5.454   4.903 -0.7442 -1.8805 -2.1925
14911TIP3    H266149   6.226   5.330   4.973 -1.0976 -0.8286 -0.0064
14912TIP3   OH266150   2.158   4.107  14.771 -0.2057 -0.2206 -0.4782
14912TIP3    H166151   2.082   4.057  14.741 -0.8648 -0.1345  0.9774
14912TIP3    H266152   2.233   4.058  14.739 -0.8302 -2.0366  0.6747
14913TIP3   OH266153   5.977   3.936   1.266  0.2688 -0.1059 -0.5812
14913TIP3    H166154   6.009   3.960   1.179 -0.9654 -0.1020 -1.0559
14913TIP3    H266155   5.985   4.016   1.317  1.0119 -0.1098 -0.6774
14914TIP3   OH266156   2.641   4.445  15.577  0.0933 -0.3983  0.1243
14914TIP3    H166157   2.712   4.431  15.639  1.0395  1.1635 -0.5219
14914TIP3    H266158   2.684   4.485  15.501 -1.2956 -0.6151 -0.8095
14915TIP3   OH266159   1.634   5.099  11.262  0.2834 -0.2501 -0.3675
14915TIP3    H166160   1.691   5.035  11.219  1.3916 -0.6854  1.5846
14915TIP3    H266161   1.695   5.160  11.303 -0.5408 -1.0766  2.3102
14916TIP3   OH266162   1.511   1.611  15.913  0.1045  0.3589 -0.2310
14916TIP3    H166163   1.569   1.535  15.908  2.7561  2.1989  0.2790
14916TIP3    H266164   1.456   1.594  15.989  2.4719  0.0447  1.5385
14917TIP3   OH266165   2.959   0.450  13.127  0.8510  0.1063  0.0499
14917TIP3    H166166   2.877   0.473  13.170  0.3903 -1.0775 -0.1647
14917TIP3    H266167   2.991   0.373  13.175  0.7337 -0.7469 -1.2122
14918TIP3   OH266168   6.704   1.657  11.852  0.2427  0.1232  0.1745
14918TIP3    H166169   6.770   1.726  11.850 -1.1978  1.6549  1.7546
14918TIP3    H266170   6.715   1.615  11.937  0.3625 -0.8805 -0.3145
14919TIP3   OH266171   5.514   2.929  16.557  0.0573  0.0605 -0.4132
14919TIP3    H166172   5.544   3.016  16.583  1.1068  0.1316 -1.7511
14919TIP3    H266173   5.576   2.901  16.490 -1.0890 -1.1274 -1.0344
14920TIP3   OH266174   4.765   4.470  14.955  0.1106  0.2441  0.2373
14920TIP3    H166175   4.824   4.414  15.005 -1.6042 -0.9970  1.0122
14920TIP3    H266176   4.748   4.545  15.012  1.9316  1.3073 -0.5470
14921TIP3   OH266177   4.334   1.567  11.032  0.7847  0.5903 -0.0252
14921TIP3    H166178   4.245   1.547  11.001  0.1980  0.9584  1.3149
14921TIP3    H266179   4.375   1.615  10.961  0.9626 -2.0807 -1.8892
14922TIP3   OH266180   6.046   4.608  12.848 -0.4193 -0.0133 -0.0083
14922TIP3    H166181   5.959   4.573  12.827  0.3708 -1.4117 -1.1455
14922TIP3    H266182   6.068   4.569  12.933 -0.0460 -1.3942 -0.7119
14923TIP3   OH266183   6.400   2.537  13.491 -0.0398  0.2156 -0.0156
14923TIP3    H166184   6.494   2.527  13.480 -0.0264  0.1044  0.1840
14923TIP3    H266185   6.372   2.455  13.533 -0.3871 -0.1963 -1.0248
14924TIP3   OH266186   2.480   6.084  14.507 -0.4541 -0.4663 -0.0224
14924TIP3    H166187   2.446   6.059  14.593  2.8715  0.6562  1.8055
14924TIP3    H266188   2.551   6.022  14.490 -1.4024 -1.0333 -2.3227
14925TIP3   OH266189   6.657   0.356  15.219  0.8014 -0.2503 -0.2077
14925TIP3    H166190   6.586   0.384  15.278  0.8672 -1.4485  0.4727
14925TIP3    H266191   6.731   0.339  15.278  0.6718 -2.1127 -0.5110
14926TIP3   OH266192   4.698   3.773  12.793 -0.0291  0.3807 -0.0744
14926TIP3    H166193   4.762   3.738  12.731 -1.7826 -0.6402 -1.3843
14926TIP3    H266194   4.739   3.853  12.827  1.0430  0.9541 -2.5166
14927TIP3   OH266195   6.343   3.064   3.991  0.1319  0.1905  0.1293
14927TIP3    H166196   6.289   3.008   3.936  2.7844  0.0361 -2.6526
14927TIP3    H266197   6.387   3.004   4.051 -0.6447 -0.0479  0.4623
14928TIP3   OH266198   2.682   2.875   1.427 -0.0769  0.3928  0.6129
14928TIP3    H166199   2.680   2.954   1.480  3.0096  3.0779 -2.7724
14928TIP3    H266200   2.769   2.838   1.442  0.2638  0.3382 -1.3045
14929TIP3   OH266201   4.063   5.637  14.065  0.3069 -0.8627 -0.5526
14929TIP3    H166202   4.056   5.619  13.971  0.2206  0.5448 -0.8328
14929TIP3    H266203   4.072   5.732  14.071 -2.1370 -0.6248  0.9888
14930TIP3   OH266204   0.071   6.524   4.833 -0.5820  0.6868 -0.1704
14930TIP3    H166205   0.070   6.436   4.797 -1.9800  0.7493 -0.3657
14930TIP3    H266206  -0.015   6.534   4.874 -0.7209  2.1764 -0.7401
14931TIP3   OH266207   0.277   3.535   4.825 -0.2113  0.3501 -0.5682
14931TIP3    H166208   0.310   3.456   4.781  1.5834  0.9689 -0.4212
14931TIP3    H266209   0.282   3.603   4.758  1.8855  1.1460  0.3394
14932TIP3   OH266210   2.116   6.787  13.404  0.1401 -0.6861 -0.8279
14932TIP3    H166211   2.120   6.866  13.349 -0.1323  0.2090  0.3947
14932TIP3    H266212   2.031   6.749  13.385  0.4015 -0.8690 -1.6629
14933TIP3   OH266213   0.144   6.056   3.941  0.4237 -0.7464  0.2398
14933TIP3    H166214   0.093   5.986   3.899  1.0121 -1.4266  0.6288
14933TIP3    H266215   0.125   6.048   4.034 -1.3074  1.1172  0.0997
14934TIP3   OH266216   5.769   1.878  11.440 -0.1187  0.7923  0.1603
14934TIP3    H166217   5.816   1.801  11.405  0.5050  0.2222  2.1103
14934TIP3    H266218   5.724   1.915  11.364 -0.7438 -1.7182 -0.8066
14935TIP3   OH266219   1.692   1.014   5.725 -0.1179  0.3123  0.3508
14935TIP3    H166220   1.602   1.038   5.750 -0.5746  1.8374 -2.3215
14935TIP3    H266221   1.746   1.086   5.759  0.3376 -1.1461  2.9165
14936TIP3   OH266222   2.522   5.848  15.540  0.1912  0.0828 -0.6494
14936TIP3    H166223   2.475   5.907  15.481  1.2977  1.0132 -0.6211
14936TIP3    H266224   2.480   5.763  15.527 -1.4981  0.8713 -0.6333
14937TIP3   OH266225   0.636   6.736  14.820 -0.3248 -0.3839  0.1953
14937TIP3    H166226   0.684   6.654  14.820  0.2376 -0.0580  0.4583
14937TIP3    H266227   0.682   6.792  14.883 -1.3519 -0.2383  0.8381
14938TIP3   OH266228   4.878   1.047   3.850 -0.1431 -0.0495  0.1785
14938TIP3    H166229   4.799   1.032   3.903  0.5345  1.9637  1.8658
14938TIP3    H266230   4.859   1.127   3.800  0.1286 -0.6478 -0.9355
14939TIP3   OH266231   1.143   3.822  13.207 -0.3808 -0.1367  0.6839
14939TIP3    H166232   1.062   3.771  13.209  0.6186 -1.7594  0.8127
14939TIP3    H266233   1.188   3.800  13.288  1.2699 -1.1093 -0.4264
14940TIP3   OH266234   1.941   1.341  16.086  0.5328  0.0722  0.3023
14940TIP3    H166235   2.001   1.406  16.122 -0.1926  0.9143  0.0322
14940TIP3    H266236   1.874   1.393  16.040  1.5252 -0.9018 -2.4854
14941TIP3   OH266237   0.673   1.372  16.160 -0.4936  0.0432 -0.4736
14941TIP3    H166238   0.707   1.295  16.205  1.7347  0.7255 -0.8755
14941TIP3    H266239   0.701   1.361  16.069 -0.5061  1.1366 -0.6185
14942TIP3   OH266240   5.409   3.375   2.963 -0.2400 -0.2529  0.0121
14942TIP3    H166241   5.484   3.423   2.930 -0.1882 -1.2759 -1.4664
14942TIP3    H266242   5.337   3.398   2.903 -1.0908  0.5559  1.2786
14943TIP3   OH266243   0.334   3.914  16.497  0.3698  0.2018  0.4886
14943TIP3    H166244   0.303   3.968  16.570  0.3842 -0.5178  1.0455
14943TIP3    H266245   0.256   3.866  16.469  0.5513 -0.1821  0.6237
14944TIP3   OH266246   1.382   5.535  11.417  0.1153  0.2878  0.6400
14944TIP3    H166247   1.408   5.623  11.388 -2.6108  1.2858  0.9456
14944TIP3    H266248   1.402   5.479  11.342  0.5673  1.4198 -0.1284
14945TIP3   OH266249   3.103   6.225   2.861 -1.0673 -0.0648  0.1455
14945TIP3    H166250   3.119   6.319   2.867  1.0339 -0.2617 -1.0937
14945TIP3    H266251   3.018   6.218   2.817 -0.8250  1.2649 -0.5957
14946TIP3   OH266252   2.330   6.601   5.031 -0.5495 -0.9414 -0.1089
14946TIP3    H166253   2.268   6.608   5.104 -1.7221 -1.2431 -1.0474
14946TIP3    H266254   2.325   6.509   5.004  0.5421 -1.0455 -0.0236
14947TIP3   OH266255   3.317   1.745   5.951 -1.1787  0.0404  0.1373
14947TIP3    H166256   3.305   1.783   6.038 -0.2055  1.0718 -0.1480
14947TIP3    H266257   3.343   1.820   5.897  0.3368 -0.9663 -0.5673
14948TIP3   OH266258   6.085   1.238  16.193  0.0718  0.0796 -0.9019
14948TIP3    H166259   6.109   1.157  16.149  0.6318 -0.2655  0.0017
14948TIP3    H266260   6.167   1.270  16.230  0.0270  1.5305 -1.9716
14949TIP3   OH266261   1.395   3.350   5.712  0.4112 -0.0388 -0.1882
14949TIP3    H166262   1.357   3.265   5.690  0.3351  0.5490 -2.6277
14949TIP3    H266263   1.319   3.405   5.731  0.1361  0.4222 -2.3754
14950TIP3   OH266264   1.661   0.466   2.564  0.3310  0.2955 -0.0600
14950TIP3    H166265   1.605   0.483   2.639  1.2887  0.2157  0.6876
14950TIP3    H266266   1.738   0.521   2.578  0.5079  0.3145 -1.0104
14951TIP3   OH266267   2.087   6.329   4.727 -0.1770 -0.5254  0.2881
14951TIP3    H166268   2.003   6.375   4.728  0.0068 -0.0375 -1.7172
14951TIP3    H266269   2.093   6.293   4.639 -0.0010 -3.9043  1.5350
14952TIP3   OH266270   5.285   3.185   4.656 -0.1441  0.5800  0.6628
14952TIP3    H166271   5.321   3.221   4.737  0.5365  2.8244 -0.5360
14952TIP3    H266272   5.355   3.198   4.591 -0.3355 -1.9180 -0.1505
14953TIP3   OH266273   2.860   0.879  13.204 -0.1219 -0.1235  0.2719
14953TIP3    H166274   2.920   0.812  13.171  1.4314  0.9438  0.7971
14953TIP3    H266275   2.830   0.925  13.125  1.2359  0.5017  0.0802
14954TIP3   OH266276   5.838   4.430  15.334  0.5317  0.6110 -0.4550
14954TIP3    H166277   5.827   4.456  15.426 -0.9341  1.0327 -0.7330
14954TIP3    H266278   5.866   4.339  15.338  0.3012  0.5717  0.4017
14955TIP3   OH266279   0.866   2.576   1.609 -0.2587 -0.3970  0.7257
14955TIP3    H166280   0.937   2.513   1.599 -0.5189 -0.5820  0.0155
14955TIP3    H266281   0.870   2.629   1.530 -0.4916  0.0226  0.9956
14956TIP3   OH266282   1.995   1.417   1.411  0.4245 -0.3152  0.5914
14956TIP3    H166283   1.976   1.329   1.442 -0.3578 -0.1185  0.6935
14956TIP3    H266284   1.944   1.426   1.331 -1.5118  0.8827  1.8594
14957TIP3   OH266285   3.044   3.257  14.507  0.7076  0.2531  0.0286
14957TIP3    H166286   2.954   3.274  14.480  0.4703 -1.3450 -0.2629
14957TIP3    H266287   3.044   3.273  14.601  0.3034  0.9075 -0.0717
14958TIP3   OH266288   0.948   1.436   4.595  0.2152  0.1689  0.3567
14958TIP3    H166289   0.960   1.449   4.689 -0.1140 -0.8628  0.5595
14958TIP3    H266290   0.867   1.482   4.574 -0.7369 -1.1731  0.9723
14959TIP3   OH266291   1.135   6.485  12.759 -0.1985  0.1816 -0.3583
14959TIP3    H166292   1.161   6.545  12.690 -1.6957  0.6309 -0.5568
14959TIP3    H266293   1.056   6.524  12.796 -0.4961 -1.0395  0.3313
14960TIP3   OH266294   0.545   1.984  14.816  0.6989  0.2398 -0.2378
14960TIP3    H166295   0.587   1.899  14.829 -0.1731 -0.0766  0.6521
14960TIP3    H266296   0.468   1.964  14.763 -0.6247  0.1138  1.6353
14961TIP3   OH266297   6.752   3.325  11.892  0.1331 -0.7749  0.3646
14961TIP3    H166298   6.845   3.345  11.904 -0.0609  0.2187  0.2812
14961TIP3    H266299   6.718   3.399  11.841 -0.9884 -0.4397  1.5459
14962TIP3   OH266300   5.522   0.498  10.867 -0.0787 -0.7972 -0.0636
14962TIP3    H166301   5.540   0.455  10.783 -0.0680 -0.1569 -0.3934
14962TIP3    H266302   5.536   0.591  10.850  1.1129 -0.7590  0.9559
14963TIP3   OH266303   1.348   1.154   2.494 -0.2605  0.3883 -0.1339
14963TIP3    H166304   1.370   1.243   2.523 -1.5809  0.5397  0.4949
14963TIP3    H266305   1.297   1.166   2.415 -0.5635  0.1990  0.0304
14964TIP3   OH266306   1.272   4.174  16.148  0.6202 -0.3375 -0.0713
14964TIP3    H166307   1.283   4.095  16.094 -0.4260 -1.5215  1.3719
14964TIP3    H266308   1.180   4.196  16.139  1.0990  1.4298 -1.3096
14965TIP3   OH266309   0.192   4.913  10.457  0.3070 -0.1102 -0.5979
14965TIP3    H166310   0.222   4.825  10.480  0.2500  0.3318  1.4116
14965TIP3    H266311   0.270   4.968  10.468 -0.2505  0.4533  0.7293
14966TIP3   OH266312   5.273   5.729  16.332  0.2472 -0.0486  0.4526
14966TIP3    H166313   5.249   5.720  16.424  2.6237  0.2553  1.1679
14966TIP3    H266314   5.192   5.714  16.285 -1.0856 -0.0264  2.5975
14967TIP3   OH266315   0.785   5.337   1.718  0.3891 -0.4204 -0.0495
14967TIP3    H166316   0.865   5.377   1.752  1.6545 -2.9296  0.1655
14967TIP3    H266317   0.770   5.262   1.775 -0.6850 -1.4254 -1.5889
14968TIP3   OH266318   6.080   2.210   5.707  0.0691 -0.4876 -0.0732
14968TIP3    H166319   6.014   2.203   5.639  0.4196 -1.5164 -0.3307
14968TIP3    H266320   6.043   2.163   5.782 -0.0561  0.1069  0.2431
14969TIP3   OH266321   4.816   2.032   0.127 -0.7048 -0.6136  0.1990
14969TIP3    H166322   4.881   2.103   0.126 -0.4670 -0.8320 -1.3116
14969TIP3    H266323   4.864   1.956   0.095 -1.7639 -0.7045 -1.2549
14970TIP3   OH266324   1.799   1.430   0.870 -0.0367 -0.7106 -0.4302
14970TIP3    H166325   1.873   1.413   0.812  1.2062  0.3702  0.7522
14970TIP3    H266326   1.754   1.504   0.831 -0.9741 -1.8344 -1.5503
14971TIP3   OH266327   2.533   5.601   3.130  0.1919 -0.1241 -0.3283
14971TIP3    H166328   2.479   5.534   3.090  1.2426 -0.8843 -0.5325
14971TIP3    H266329   2.471   5.667   3.161 -0.8337 -0.9576 -0.5428
14972TIP3   OH266330   5.373   4.172  16.756  0.2620 -0.5970 -0.6166
14972TIP3    H166331   5.316   4.108  16.715 -0.4796 -0.0983 -0.3870
14972TIP3    H266332   5.431   4.202  16.686 -0.2426 -0.5743 -1.0232
14973TIP3   OH266333   3.305   1.400  14.805 -0.5411 -0.0439 -0.1172
14973TIP3    H166334   3.335   1.390  14.895  1.0669  1.4526 -0.4275
14973TIP3    H266335   3.362   1.341  14.755  1.0435  1.7148 -0.5252
14974TIP3   OH266336   3.348   1.440   2.512 -0.6648 -0.4046  0.2783
14974TIP3    H166337   3.255   1.448   2.490 -1.0699 -1.6118  1.3863
14974TIP3    H266338   3.385   1.385   2.442 -0.5066  1.0036 -0.7820
14975TIP3   OH266339   2.304   5.875  11.906  0.6292  0.3160  0.3410
14975TIP3    H166340   2.393   5.909  11.896  1.1626 -1.3355 -1.2334
14975TIP3    H266341   2.251   5.929  11.847  0.4648  1.5137  1.5205
14976TIP3   OH266342   2.500   1.659   6.773  0.5166  0.1316 -0.1884
14976TIP3    H166343   2.511   1.736   6.717  0.8192  0.2673  0.0513
14976TIP3    H266344   2.462   1.694   6.854 -0.5082 -0.1558 -0.5330
14977TIP3   OH266345   0.882   0.841  15.887  0.3912 -0.4976  0.0611
14977TIP3    H166346   0.896   0.933  15.912  0.0963 -0.8044  1.4474
14977TIP3    H266347   0.843   0.845  15.800 -1.3911  0.7959  0.8567
14978TIP3   OH266348   3.959   0.015  14.146  0.4837 -0.8842  0.6355
14978TIP3    H166349   4.006   0.094  14.121 -1.0543 -0.6950 -2.0888
14978TIP3    H266350   3.901   0.043  14.217 -0.6192  0.7036 -0.8093
14979TIP3   OH266351   6.479   4.496  15.808  0.3434 -0.2591  0.2134
14979TIP3    H166352   6.556   4.472  15.757  0.3010 -0.2041  0.1212
14979TIP3    H266353   6.498   4.467  15.897 -0.4973 -2.3795 -0.2543
14980TIP3   OH266354   4.558   3.141  12.147  0.0356  0.1560  0.1333
14980TIP3    H166355   4.530   3.116  12.235  0.4921  1.2443  0.6134
14980TIP3    H266356   4.654   3.135  12.150 -0.0053 -1.3012 -0.7772
14981TIP3   OH266357   2.027   2.921  16.102 -0.1843 -0.0147  0.3345
14981TIP3    H166358   2.016   2.931  16.197 -0.9103  0.4485  0.2077
14981TIP3    H266359   2.059   2.831  16.092  0.7438  0.2178  1.0704
14982TIP3   OH266360   2.514   6.608   5.352 -0.4837  0.1886 -0.1074
14982TIP3    H166361   2.540   6.605   5.260  0.6162  0.3731  0.1831
14982TIP3    H266362   2.495   6.700   5.369  1.6825  0.5851  0.4482
14983TIP3   OH266363   6.545   2.519  17.020  0.2619  0.5517 -0.3276
14983TIP3    H166364   6.490   2.589  17.055  0.2450  0.2520  0.2609
14983TIP3    H266365   6.484   2.458  16.979  0.2877  0.9391 -0.9621
14984TIP3   OH266366   0.528   1.105   4.988  0.4727  0.0055 -0.2000
14984TIP3    H166367   0.520   1.011   4.972 -0.1001  0.1661 -0.8882
14984TIP3    H266368   0.609   1.130   4.943  0.0216  0.0455 -1.0082
14985TIP3   OH266369   0.340   1.236   2.337 -0.2472  0.6094 -0.4303
14985TIP3    H166370   0.308   1.152   2.368  1.6750  0.0191  0.0881
14985TIP3    H266371   0.328   1.295   2.412 -0.6877  0.5561 -0.4573
14986TIP3   OH266372   4.619   3.417   0.226  0.4144  0.4202 -0.3671
14986TIP3    H166373   4.608   3.328   0.261  0.7732  0.2484 -0.6717
14986TIP3    H266374   4.539   3.435   0.178  1.1478 -0.5678 -2.0607
14987TIP3   OH266375   5.375   2.501   2.935  0.3224  0.4079 -0.1926
14987TIP3    H166376   5.467   2.498   2.909  0.1785 -0.7457 -0.6323
14987TIP3    H266377   5.329   2.450   2.869 -0.3119 -0.9605  1.2222
14988TIP3   OH266378   3.887   0.033   4.301  0.1368 -0.4262  0.1269
14988TIP3    H166379   3.800   0.071   4.285  0.0608  1.0518  3.1716
14988TIP3    H266380   3.935   0.046   4.220 -1.9744  0.2426 -1.0912
14989TIP3   OH266381   4.738   6.525   0.248 -0.4371 -0.8760  0.0932
14989TIP3    H166382   4.760   6.610   0.211 -0.2971 -1.1257 -0.3969
14989TIP3    H266383   4.818   6.496   0.292 -0.2207 -1.1389 -0.4701
14990TIP3   OH266384   4.625   0.076  10.484 -0.4092 -0.1975  0.0701
14990TIP3    H166385   4.605  -0.005  10.438  1.4025 -0.2438 -0.7397
14990TIP3    H266386   4.703   0.056  10.536 -0.3717  0.8083  0.4231
14991TIP3   OH266387   3.542   1.031   6.476  0.3272  0.2790  0.1739
14991TIP3    H166388   3.454   1.068   6.488 -0.6027 -0.5426 -3.1270
14991TIP3    H266389   3.600   1.107   6.474 -0.3265  0.8724  1.8689
14992TIP3   OH266390   3.070   4.530  10.739 -0.1430 -0.6989 -0.0136
14992TIP3    H166391   3.126   4.600  10.705  2.8927 -1.1453  3.3883
14992TIP3    H266392   3.010   4.574  10.799  0.8802 -0.7754  1.1113
14993TIP3   OH266393   4.646   3.644  15.150  0.0272  0.6444  0.7054
14993TIP3    H166394   4.696   3.640  15.068 -0.0238  2.0087  0.5766
14993TIP3    H266395   4.597   3.563  15.153  1.0591 -0.0315  0.0516
14994TIP3   OH266396   0.547   6.780   1.556 -0.5813 -0.6354  0.0051
14994TIP3    H166397   0.603   6.845   1.513 -1.4912 -0.1961 -0.5473
14994TIP3    H266398   0.608   6.713   1.588  0.4022  0.5186  0.6616
14995TIP3   OH266399   1.680   0.427  15.159  0.4728  0.4579 -0.2846
14995TIP3    H166400   1.734   0.358  15.198 -0.9472 -0.6787 -0.2652
14995TIP3    H266401   1.731   0.458  15.084  2.0857  0.9029  0.9275
14996TIP3   OH266402   3.225   0.047   2.043 -0.3152  0.3448 -0.1808
14996TIP3    H166403   3.246   0.134   2.008 -1.8885  0.0273 -2.0910
14996TIP3    H266404   3.308   0.015   2.078  0.6215  2.0470 -0.7304
14997TIP3   OH266405   5.146   1.683  16.275 -0.4806 -0.4172  0.1492
14997TIP3    H166406   5.075   1.624  16.301 -1.4286  0.7784  0.3463
14997TIP3    H266407   5.108   1.770  16.280  0.9451  0.2394  0.0118
14998TIP3   OH266408   5.130   4.433  16.969  0.1563  0.3573 -0.2098
14998TIP3    H166409   5.139   4.506  16.907  1.0951  0.2750 -0.1915
14998TIP3    H266410   5.041   4.441  17.003 -0.1972  0.7079 -1.1871
14999TIP3   OH266411   4.607   0.163   4.215 -0.2210 -0.2144 -0.0180
14999TIP3    H166412   4.627   0.246   4.173 -3.5877  0.8227  0.1372
14999TIP3    H266413   4.515   0.170   4.240 -0.8584 -4.2055 -0.5187
15000TIP3   OH266414   3.295   0.691   0.481 -0.2012 -0.1362 -0.0836
15000TIP3    H166415   3.385   0.711   0.455  0.5944 -2.9224  0.1932
15000TIP3    H266416   3.294   0.704   0.575  0.5287 -1.8342  0.2094
15001TIP3   OH266417   1.553   2.551  13.757 -0.4894  0.0084 -0.1156
15001TIP3    H166418   1.522   2.619  13.697  1.6636  0.2832 -1.0084
15001TIP3    H266419   1.561   2.473  13.703  1.2010  0.1863 -0.1896
15002TIP3   OH266420   1.893   1.100   2.931  0.2132  0.2832  0.1699
15002TIP3    H166421   1.846   1.158   2.991  1.1236  0.8855  0.3246
15002TIP3    H266422   1.978   1.086   2.973  0.7307  0.4244 -0.8108
15003TIP3   OH266423   1.161   6.382  12.198 -0.4204 -0.0248 -0.0457
15003TIP3    H166424   1.188   6.406  12.109 -1.6973 -1.0020 -0.7390
15003TIP3    H266425   1.221   6.312  12.224  1.1419  1.5021  0.6359
15004TIP3   OH266426   5.994   0.318  12.448  0.3007  0.1977 -0.0357
15004TIP3    H166427   6.069   0.334  12.389 -0.6896 -0.6158 -1.5870
15004TIP3    H266428   5.945   0.247  12.405 -0.9092  0.1409  1.3816
15005TIP3   OH266429   2.182   1.075  12.413  0.3015  0.3500 -0.3846
15005TIP3    H166430   2.174   1.159  12.458 -1.0115  0.0228  0.0320
15005TIP3    H266431   2.274   1.050  12.426 -0.3159 -0.5729  3.7402
15006TIP3   OH266432   0.800   2.599  11.351  0.1684  0.2763 -0.0410
15006TIP3    H166433   0.720   2.624  11.396  0.4072  1.0301 -0.0195
15006TIP3    H266434   0.835   2.526  11.402 -0.3963  0.0844  0.0672
15007TIP3   OH266435   0.868   6.582   0.927 -0.6183 -0.0985  0.3017
15007TIP3    H166436   0.930   6.654   0.921 -0.5229 -0.3065 -2.9801
15007TIP3    H266437   0.802   6.602   0.861 -1.4768 -2.2148  0.4493
15008TIP3   OH266438   1.067   0.987   6.669 -0.2108 -0.2769 -0.1229
15008TIP3    H166439   1.089   0.907   6.622 -0.5650  0.6636 -2.0111
15008TIP3    H266440   1.144   1.043   6.657  0.6294 -0.7805  2.3809
15009TIP3   OH266441   4.342   0.503  16.254 -0.2108  0.0582 -0.5446
15009TIP3    H166442   4.422   0.454  16.267 -0.7956 -0.9737 -0.7515
15009TIP3    H266443   4.352   0.544  16.168 -0.8477 -1.9786 -1.6503
15010TIP3   OH266444   1.351   4.135   3.605  0.2169  0.2089  0.2702
15010TIP3    H166445   1.345   4.049   3.564  0.3203  0.2829  0.0984
15010TIP3    H266446   1.264   4.151   3.640 -0.1705  0.5811 -0.8011
15011TIP3   OH266447   4.437   5.355   5.033 -0.3692 -0.1877 -0.3116
15011TIP3    H166448   4.510   5.293   5.024 -0.5996 -0.3179 -1.3470
15011TIP3    H266449   4.359   5.300   5.033 -0.5173 -0.7341  6.1838
15012TIP3   OH266450   4.890   4.298  11.937  0.5581 -0.0565  0.0429
15012TIP3    H166451   4.907   4.313  12.030  0.8292 -0.8638  0.1378
15012TIP3    H266452   4.968   4.253  11.906 -0.3851 -1.6735 -0.0869
15013TIP3   OH266453   0.811   0.831  16.697 -0.3610 -0.5929 -0.2695
15013TIP3    H166454   0.763   0.905  16.734 -1.5761 -0.1779 -2.4935
15013TIP3    H266455   0.897   0.866  16.676 -0.6627 -0.0209 -0.5648
15014TIP3   OH266456   0.679   6.759  13.346 -0.3952  0.5813  0.2395
15014TIP3    H166457   0.605   6.704  13.322 -0.8871  1.0252  0.7216
15014TIP3    H266458   0.749   6.697  13.367 -0.7601  0.1551  0.2157
15015TIP3   OH266459   5.561   5.223  12.362 -0.3660 -0.3137  0.0696
15015TIP3    H166460   5.628   5.156  12.375  0.6064  0.3388 -1.3189
15015TIP3    H266461   5.478   5.177  12.374  0.3029 -1.5360  0.1184
15016TIP3   OH266462   6.466   3.510  13.460  0.8727  0.0321 -0.8067
15016TIP3    H166463   6.524   3.585  13.462  0.0851  0.6434  1.0622
15016TIP3    H266464   6.391   3.535  13.513 -0.7146 -1.0698 -2.3947
15017TIP3   OH266465   0.363   4.040  13.839 -0.7315  0.4238  0.5689
15017TIP3    H166466   0.458   4.042  13.854 -0.7894  0.4756  0.9460
15017TIP3    H266467   0.340   3.948  13.845 -0.5247  0.2711 -0.7307
15018TIP3   OH266468   2.011   5.520  13.362  0.4545 -0.0617 -0.1523
15018TIP3    H166469   1.993   5.610  13.390  0.4949 -0.2346  0.4364
15018TIP3    H266470   2.023   5.472  13.443 -1.1594 -0.9394 -0.3987
15019TIP3   OH266471   0.097   1.630  14.749  0.1489 -0.2975  0.3560
15019TIP3    H166472   0.056   1.716  14.759  0.1468 -0.1238 -1.0150
15019TIP3    H266473   0.035   1.579  14.696  1.3294 -0.2813 -1.0755
15020TIP3   OH266474   4.867   2.254  15.267 -0.4610 -0.0463  0.2554
15020TIP3    H166475   4.850   2.212  15.183 -1.1963 -0.4233  0.5843
15020TIP3    H266476   4.890   2.344  15.244 -0.5629 -0.1706 -0.3564
15021TIP3   OH266477   4.013   3.094  16.703 -0.4147  0.3034 -0.1329
15021TIP3    H166478   3.987   3.182  16.676 -1.2586 -0.2731 -1.2743
15021TIP3    H266479   3.931   3.051  16.727 -0.1945 -0.6183 -0.9585
15022TIP3   OH266480   1.171   1.570   3.140 -0.3845 -0.4334  0.0920
15022TIP3    H166481   1.086   1.606   3.117 -0.2150  0.8895  1.3999
15022TIP3    H266482   1.159   1.475   3.136 -1.7045 -0.2571 -0.4467
15023TIP3   OH266483   4.250   4.057   3.469  0.0237  0.0713  0.3777
15023TIP3    H166484   4.198   4.127   3.508  2.0725  0.2711  3.0102
15023TIP3    H266485   4.290   4.096   3.391 -0.7118  1.0817  0.4946
15024TIP3   OH266486   5.445   6.578   0.076  0.0726 -0.2584 -0.0327
15024TIP3    H166487   5.514   6.530   0.031 -1.5669 -1.6490 -1.1706
15024TIP3    H266488   5.385   6.606   0.006 -1.5969 -0.8957  1.0759
15025TIP3   OH266489   5.582   2.368  16.389 -0.2227  0.2769  0.2256
15025TIP3    H166490   5.656   2.366  16.329 -0.2158  0.9884  0.1999
15025TIP3    H266491   5.561   2.461  16.398 -0.0691  0.2086  1.5182
15026TIP3   OH266492   4.008   0.915   5.270  0.1385 -0.0966 -0.0778
15026TIP3    H166493   4.058   0.834   5.280  0.3030  0.0572  0.3567
15026TIP3    H266494   3.920   0.886   5.246  0.2797 -0.3910 -0.2431
15027TIP3   OH266495   5.382   5.474  14.302 -0.1732 -0.5742  0.1641
15027TIP3    H166496   5.291   5.464  14.331 -0.0268 -1.6087  0.2690
15027TIP3    H266497   5.434   5.437  14.373  0.3315 -0.1447  0.0207
15028TIP3   OH266498   2.369   5.988   6.359 -0.1417  0.3864 -0.1222
15028TIP3    H166499   2.463   5.997   6.376 -0.0080 -0.2815 -0.4636
15028TIP3    H266500   2.327   6.032   6.433  0.4275 -1.3165  1.2867
15029TIP3   OH266501   6.755   5.829  15.341  0.4621 -0.2346  0.6859
15029TIP3    H166502   6.783   5.833  15.433  0.8155  0.1101  0.5663
15029TIP3    H266503   6.662   5.852  15.343  0.1653 -1.4054  1.0910
15030TIP3   OH266504   2.338   1.265  13.245 -0.5817  0.5323 -0.5795
15030TIP3    H166505   2.339   1.283  13.339  0.0962  1.1876 -0.7103
15030TIP3    H266506   2.343   1.351  13.204  0.8369  0.1592 -1.2146
15031TIP3   OH266507   1.148   1.264   4.836  0.0286  0.4994  0.2837
15031TIP3    H166508   1.166   1.222   4.753 -0.5016 -0.0514  0.4423
15031TIP3    H266509   1.205   1.342   4.837 -1.8426  2.0172 -1.7431
15032TIP3   OH266510   6.424   5.924  16.427 -0.0630  0.5112  0.5224
15032TIP3    H166511   6.492   5.864  16.458 -0.5634  0.0767  0.7947
15032TIP3    H266512   6.472   5.998  16.392  0.9499 -2.1886 -4.8576
15033TIP3   OH266513   0.204   2.720  15.338  0.6352 -0.4558 -0.1177
15033TIP3    H166514   0.113   2.747  15.326  0.2732 -1.5413  0.0996
15033TIP3    H266515   0.255   2.797  15.311 -0.3374  0.2242 -0.0874
15034TIP3   OH266516   2.708   5.178   0.639  0.5310 -0.2728  0.3776
15034TIP3    H166517   2.701   5.084   0.622  0.6051 -0.1344 -0.4532
15034TIP3    H266518   2.704   5.185   0.734 -0.8290 -0.9983  0.3996
15035TIP3   OH266519   2.935   5.462   1.337 -0.4694  0.4469 -0.3563
15035TIP3    H166520   2.874   5.438   1.406 -0.7521 -0.1356 -0.7921
15035TIP3    H266521   2.976   5.542   1.367 -1.7549  1.0857 -0.2332
15036TIP3   OH266522   4.189   5.284   1.211  0.0465  0.0103  0.1102
15036TIP3    H166523   4.111   5.330   1.178 -0.0544 -0.0900  0.2046
15036TIP3    H266524   4.168   5.191   1.200 -0.7050 -0.0953  2.0071
15037TIP3   OH266525   6.561   2.334   4.672  0.6062 -0.2303 -0.4031
15037TIP3    H166526   6.574   2.415   4.623  1.4543 -0.8054 -1.1577
15037TIP3    H266527   6.607   2.349   4.755  0.8465  0.0177 -0.5797
15038TIP3   OH266528   6.053   4.430  13.538 -0.2228  0.4368  0.1548
15038TIP3    H166529   6.146   4.445  13.553  0.2097 -1.1927 -0.6901
15038TIP3    H266530   6.011   4.455  13.620  0.9128  1.3724  0.4800
15039TIP3   OH266531   2.952   2.500  15.560 -0.0244  0.1814  0.0633
15039TIP3    H166532   2.880   2.462  15.510  0.9008 -0.0458 -1.1622
15039TIP3    H266533   3.011   2.426  15.576 -0.3798  0.2128  1.6880
15040TIP3   OH266534   3.554   6.311  10.778 -0.3952  0.5934  1.1041
15040TIP3    H166535   3.499   6.340  10.705  2.0379  1.3024 -0.5835
15040TIP3    H266536   3.499   6.322  10.856 -2.6762  0.9893 -0.4694
15041TIP3   OH266537   2.266   4.906   5.882 -0.4409  0.0280 -0.2930
15041TIP3    H166538   2.278   4.967   5.809 -0.4996  0.7449  0.2862
15041TIP3    H266539   2.352   4.865   5.893  0.2724  1.7090  0.7991
15042TIP3   OH266540   2.510   2.300   4.976  0.2086  0.5145 -0.3976
15042TIP3    H166541   2.454   2.301   5.053 -0.7365 -0.6643 -1.0182
15042TIP3    H266542   2.488   2.380   4.929 -0.7092  0.2441 -0.4484
15043TIP3   OH266543   4.779   5.243  15.900 -0.2542 -0.3952 -0.0738
15043TIP3    H166544   4.710   5.238  15.834  0.3594  0.0301 -0.7532
15043TIP3    H266545   4.856   5.206  15.858  0.3176  0.4990  0.1562
15044TIP3   OH266546   3.377   3.151  13.805  0.3074 -0.1311  0.1652
15044TIP3    H166547   3.365   3.056  13.805  1.7711 -0.3541  0.5980
15044TIP3    H266548   3.472   3.162  13.814  0.4702  1.3642 -2.5915
15045TIP3   OH266549   0.595   3.315  16.654  0.0906 -0.4299 -0.0821
15045TIP3    H166550   0.588   3.355  16.741 -2.8948  0.5028 -0.6590
15045TIP3    H266551   0.565   3.225  16.667  0.6237 -0.6032  0.0027
15046TIP3   OH266552   3.348   6.360   3.215  0.8141 -0.1999  0.0152
15046TIP3    H166553   3.331   6.306   3.137  1.4739 -1.2119  0.5422
15046TIP3    H266554   3.288   6.433   3.207 -0.5670 -1.3294 -0.4323
15047TIP3   OH266555   4.874   3.166  11.229  0.0479  0.3537  0.0648
15047TIP3    H166556   4.928   3.093  11.198  0.6608  0.2810  1.2439
15047TIP3    H266557   4.926   3.244  11.211  0.8961  0.2407  1.7890
15048TIP3   OH266558   0.457   6.099  14.655  0.5214  0.0133 -0.2429
15048TIP3    H166559   0.531   6.041  14.637 -1.3810 -2.1081 -1.7228
15048TIP3    H266560   0.387   6.040  14.681 -1.4999  1.6462 -1.7055
15049TIP3   OH266561   4.349   1.546  11.781 -0.2113 -0.2058  0.1507
15049TIP3    H166562   4.395   1.473  11.821  0.1585  0.6003  1.2662
15049TIP3    H266563   4.388   1.624  11.822 -0.7730  0.6017 -0.8017
15050TIP3   OH266564   3.697   6.253   3.876 -0.0272 -0.8599 -0.0293
15050TIP3    H166565   3.627   6.258   3.942 -0.5374  0.3819 -0.6386
15050TIP3    H266566   3.686   6.166   3.838 -0.5899 -1.0770  0.5957
15051TIP3   OH266567   4.161   6.307   2.088 -0.0663 -0.5632  0.2017
15051TIP3    H166568   4.073   6.342   2.073 -0.1817 -0.6777  0.5852
15051TIP3    H266569   4.171   6.237   2.024 -0.6673 -1.2610  0.8486
15052TIP3   OH266570   2.341   0.591  14.975 -0.4491  0.1393  0.1334
15052TIP3    H166571   2.298   0.555  15.053 -0.0329  1.0941  0.8154
15052TIP3    H266572   2.424   0.545  14.970 -0.3166  0.3419  0.4679
15053TIP3   OH266573   2.800   5.766  13.431 -0.2299  0.1122  0.1646
15053TIP3    H166574   2.722   5.710  13.437  0.7620 -1.2504  0.6433
15053TIP3    H266575   2.809   5.782  13.337 -0.8404 -0.0556  0.0678
15054TIP3   OH266576   3.728   3.410  14.147  0.3328  0.6581  0.8232
15054TIP3    H166577   3.709   3.321  14.176 -0.7026  0.9593  1.1119
15054TIP3    H266578   3.736   3.403  14.052  0.9574  0.1381  0.9118
15055TIP3   OH266579   5.127   2.938  14.389 -0.1446 -0.3866 -0.2554
15055TIP3    H166580   5.113   2.847  14.415 -0.8552 -0.5653 -1.2213
15055TIP3    H266581   5.206   2.936  14.335  1.1378 -0.0651  1.5160
15056TIP3   OH266582   2.767   5.423   1.544  0.2709 -0.1873  0.3660
15056TIP3    H166583   2.745   5.464   1.628 -0.1225 -0.8247  0.5825
15056TIP3    H266584   2.695   5.448   1.486  0.9181  0.8738 -0.0049
15057TIP3   OH266585   3.934   6.254  14.030 -0.1061 -0.5285 -0.2043
15057TIP3    H166586   3.927   6.269  14.124  0.5537 -0.4033 -0.1740
15057TIP3    H266587   4.016   6.296  14.004 -0.2285 -0.6511 -0.8166
15058TIP3   OH266588   3.179   1.492   3.159 -0.1610  0.2473 -0.5413
15058TIP3    H166589   3.193   1.580   3.196 -1.4886  0.3299 -0.1854
15058TIP3    H266590   3.210   1.432   3.227 -0.1764  0.4297 -0.3724
15059TIP3   OH266591   3.877   4.573  16.417 -0.1710 -0.3028  0.1380
15059TIP3    H166592   3.891   4.668  16.416 -1.3146 -0.1067 -1.4531
15059TIP3    H266593   3.912   4.545  16.502  0.0810  1.5435  0.7071
15060TIP3   OH266594   3.945   1.630   5.850  0.7883  0.0504  0.7109
15060TIP3    H166595   3.864   1.641   5.801  1.2014  0.7611  0.1727
15060TIP3    H266596   3.929   1.555   5.907 -0.0311 -0.1935  0.1678
15061TIP3   OH266597   3.401   0.947  14.423 -0.0618 -0.0186 -0.3167
15061TIP3    H166598   3.474   0.912  14.473 -0.6190 -0.3589  0.2629
15061TIP3    H266599   3.437   0.962  14.335  0.9525  0.7260  0.2141
15062TIP3   OH266600   0.339   4.279   6.515 -0.1273 -0.1794  0.1619
15062TIP3    H166601   0.317   4.329   6.437 -1.8330  2.3220  2.0825
15062TIP3    H266602   0.432   4.260   6.505  0.3618  2.4243 -1.2721
15063TIP3   OH266603   5.729   2.526   2.196  0.2738 -0.2551 -0.3491
15063TIP3    H166604   5.771   2.510   2.111  2.9892 -1.3441  1.0598
15063TIP3    H266605   5.697   2.440   2.223  1.5529 -0.4194  0.7231
15064TIP3   OH266606   6.134   4.245  15.724 -0.4879 -0.1415 -0.3907
15064TIP3    H166607   6.182   4.241  15.642  0.0241 -0.6717 -0.0700
15064TIP3    H266608   6.191   4.203  15.788 -0.6052  0.8187  0.3743
15065TIP3   OH266609   1.472   2.515   3.773  0.2284  0.3579  0.0172
15065TIP3    H166610   1.485   2.426   3.741 -0.3779 -0.0227  0.7918
15065TIP3    H266611   1.487   2.570   3.697  0.4197 -0.4206 -0.5211
15066TIP3   OH266612   0.225   6.279   3.548  0.6021 -0.1067  0.0173
15066TIP3    H166613   0.197   6.188   3.556  2.8102 -0.7835  0.8521
15066TIP3    H266614   0.290   6.290   3.618  2.0266  1.4260 -1.4641
15067TIP3   OH266615   2.447   6.079  11.296 -0.0393  0.0366  0.6059
15067TIP3    H166616   2.540   6.078  11.273 -0.2831  0.9326 -0.5068
15067TIP3    H266617   2.427   6.171  11.313 -0.9711  0.0348 -0.3440
15068TIP3   OH266618   4.011   4.709   2.254 -0.0797 -0.3557  0.4228
15068TIP3    H166619   3.944   4.748   2.198 -0.7652  0.6087  1.8719
15068TIP3    H266620   3.995   4.746   2.340  0.2370 -2.6511  1.5398
15069TIP3   OH266621   1.436   5.574  12.879 -0.0457 -0.2052  0.3501
15069TIP3    H166622   1.512   5.536  12.923 -0.4108 -1.2965  0.0817
15069TIP3    H266623   1.362   5.520  12.910 -0.3318 -0.9140 -1.4645
15070TIP3   OH266624   6.744   5.960   3.430  0.1918 -0.4717 -0.4918
15070TIP3    H166625   6.740   6.042   3.381 -0.7366 -0.7815 -0.9489
15070TIP3    H266626   6.654   5.928   3.431 -0.4042  0.7721  3.6188
15071TIP3   OH266627   4.866   4.108  13.251  0.2389 -0.3871 -0.2507
15071TIP3    H166628   4.924   4.144  13.183 -1.5077  0.4068 -1.3773
15071TIP3    H266629   4.883   4.162  13.327  1.9755 -1.0642 -0.1084
15072TIP3   OH266630   1.187   2.327   6.311  0.0716 -0.1170 -0.5034
15072TIP3    H166631   1.281   2.315   6.294  0.1854 -0.3568  0.2625
15072TIP3    H266632   1.159   2.243   6.347 -0.0808  0.4826  0.8096
15073TIP3   OH266633   0.450   4.064  15.819  0.8464 -0.6339  0.4403
15073TIP3    H166634   0.359   4.037  15.804  0.2810  0.7098  1.2483
15073TIP3    H266635   0.447   4.159  15.819  1.8397 -0.5246  2.7196
15074TIP3   OH266636   2.251   2.070  11.238 -0.7840 -0.5164  0.1747
15074TIP3    H166637   2.244   2.119  11.156  0.8065  0.2070  0.4286
15074TIP3    H266638   2.290   1.987  11.213 -1.7348 -0.9264  0.0066
15075TIP3   OH266639   3.428   4.702  11.754  0.3892 -0.0579  0.2108
15075TIP3    H166640   3.461   4.711  11.843 -0.7938  0.7130  0.5891
15075TIP3    H266641   3.406   4.609  11.746 -2.7987  0.4283  1.9728
15076TIP3   OH266642   1.810   5.995   3.060  0.0814  0.0546 -0.0302
15076TIP3    H166643   1.719   5.966   3.058  0.2212 -0.4437  0.5465
15076TIP3    H266644   1.809   6.082   3.020 -0.3226 -0.8397 -2.1285
15077TIP3   OH266645   0.911   4.298   1.629  0.2696  0.1455  0.2615
15077TIP3    H166646   0.995   4.320   1.589  0.0956 -0.9343 -0.7522
15077TIP3    H266647   0.870   4.382   1.647  0.6711  0.6700 -1.1819
15078TIP3   OH266648   5.326   0.281   0.972  0.2665 -0.0557 -0.5360
15078TIP3    H166649   5.282   0.278   0.888  1.5914 -0.3065 -1.2434
15078TIP3    H266650   5.307   0.197   1.013  1.2047 -0.7219 -1.4315
15079TIP3   OH266651   2.517   0.305   6.543 -0.3670  0.0537  0.6312
15079TIP3    H166652   2.589   0.255   6.581  0.7932  0.8448 -0.4495
15079TIP3    H266653   2.519   0.284   6.450 -1.0477  0.6925  0.4583
15080TIP3   OH266654   3.101   5.525  15.884  0.0137 -0.6766 -0.0028
15080TIP3    H166655   3.012   5.542  15.853  0.1613  0.9990  0.3646
15080TIP3    H266656   3.097   5.541  15.978  0.7860 -0.1619 -0.0478
15081TIP3   OH266657   6.527   3.449   0.683 -0.6101 -0.2307  0.0748
15081TIP3    H166658   6.485   3.436   0.599  2.1590  0.4786 -1.5655
15081TIP3    H266659   6.540   3.361   0.719  1.2503 -0.8708 -1.9632
15082TIP3   OH266660   3.869   1.483  16.577 -0.2304 -0.1090  0.0236
15082TIP3    H166661   3.788   1.451  16.537 -0.6516  0.1428  0.6646
15082TIP3    H266662   3.883   1.425  16.652  0.1493 -0.1071 -0.0437
15083TIP3   OH266663   5.816   1.758   1.229  0.5083  0.2757  0.0271
15083TIP3    H166664   5.829   1.706   1.309  1.1560 -0.0773 -0.2991
15083TIP3    H266665   5.812   1.849   1.260 -2.5176 -0.0189  0.8269
15084TIP3   OH266666   5.500   6.069   2.639  0.2722  0.2081 -0.2813
15084TIP3    H166667   5.451   5.994   2.607  1.3332 -0.3774 -0.5755
15084TIP3    H266668   5.452   6.145   2.606 -0.8947 -0.3275  0.1488
15085TIP3   OH266669   4.217   1.473   2.246  0.4066 -0.0653  0.1260
15085TIP3    H166670   4.201   1.447   2.155 -4.0924  2.5855 -0.1221
15085TIP3    H266671   4.150   1.426   2.296  0.7268  0.9741  1.5899
15086TIP3   OH266672   3.300   2.535  13.688 -0.3473 -0.0822 -0.2600
15086TIP3    H166673   3.355   2.563  13.761 -1.8254  0.5835  0.6332
15086TIP3    H266674   3.350   2.561  13.610  0.2188  1.3426  0.5253
15087TIP3   OH266675   1.001   0.643  13.908  0.5229 -0.2529 -0.2571
15087TIP3    H166676   0.995   0.705  13.836  0.1412  2.0763  1.6652
15087TIP3    H266677   0.916   0.648  13.952  0.6077 -1.8983  0.1898
15088TIP3   OH266678   4.449   0.367  11.759 -0.1733  0.3884 -0.2468
15088TIP3    H166679   4.461   0.376  11.665 -1.1730 -0.6968 -0.4936
15088TIP3    H266680   4.371   0.419  11.778 -0.5745 -0.2310 -0.1886
15089TIP3   OH266681   5.650   5.964   1.079 -0.2890 -0.2644 -0.2208
15089TIP3    H166682   5.656   5.950   0.985  2.2755 -1.7495  0.0715
15089TIP3    H266683   5.740   5.981   1.106 -1.0791  0.9685  1.8843
15090TIP3   OH266684   5.820   6.228  14.316 -0.5982  0.0007  0.1588
15090TIP3    H166685   5.863   6.314  14.321  0.0421 -0.2044 -1.2751
15090TIP3    H266686   5.852   6.190  14.234  0.5459 -2.3926  1.6065
15091TIP3   OH266687   0.970   6.700   5.758  0.2436  0.2932 -0.3054
15091TIP3    H166688   1.037   6.705   5.690  0.4024  0.8479 -0.1118
15091TIP3    H266689   1.009   6.742   5.834 -0.1400  0.1751 -0.0358
15092TIP3   OH266690   4.295   6.622  12.547 -0.2194  0.5107  0.3858
15092TIP3    H166691   4.289   6.690  12.481 -3.1636 -0.4718 -0.5306
15092TIP3    H266692   4.204   6.591  12.558  1.0195 -4.1803 -0.3059
15093TIP3   OH266693   1.016   0.023   1.701 -0.1442 -0.0517  0.5238
15093TIP3    H166694   1.086   0.075   1.741  0.9262  0.1356 -1.5040
15093TIP3    H266695   0.980  -0.028   1.774 -0.0622  2.1867  2.2571
15094TIP3   OH266696   3.648   0.330   4.646  0.4071  0.2355  0.5915
15094TIP3    H166697   3.692   0.414   4.636  1.6575  0.1542  4.0481
15094TIP3    H266698   3.555   0.351   4.653  0.3153  0.9066 -1.8868
15095TIP3   OH266699   4.139   0.481   3.893 -0.0054 -0.8215 -0.2213
15095TIP3    H166700   4.158   0.479   3.986 -2.4476 -0.0633  0.3652
15095TIP3    H266701   4.085   0.560   3.881 -1.8532 -2.2063 -1.7735
15096TIP3   OH266702   3.628   4.692   3.635 -0.4744  0.0158  0.5449
15096TIP3    H166703   3.566   4.668   3.567 -1.9704  0.8862  1.5428
15096TIP3    H266704   3.662   4.609   3.668 -1.6941 -0.5239  0.4811
15097TIP3   OH266705   0.398   0.244  13.469 -0.8742  0.6845 -0.0603
15097TIP3    H166706   0.410   0.227  13.376 -2.4149 -0.2956 -0.1136
15097TIP3    H266707   0.472   0.200  13.511 -0.2851  0.9577 -0.7813
15098TIP3   OH266708   2.891   4.627  12.110  0.4268 -0.3833  0.3299
15098TIP3    H166709   2.826   4.636  12.041  0.5656 -0.8179  0.1383
15098TIP3    H266710   2.888   4.710  12.158 -1.5560 -1.0369  1.4592
15099TIP3   OH266711   2.313   1.055  15.528 -0.1238  0.1639  0.2671
15099TIP3    H166712   2.226   1.015  15.523  0.3898 -1.3970  2.4831
15099TIP3    H266713   2.323   1.081  15.619  1.1266  1.8673 -0.3002
15100TIP3   OH266714   3.768   6.710  13.376  0.1178 -0.0741  0.3474
15100TIP3    H166715   3.804   6.763  13.305 -1.4892 -0.3455 -0.7567
15100TIP3    H266716   3.696   6.762  13.411 -0.8412 -1.0506 -0.0801
15101TIP3   OH266717   4.761   4.764  12.182  0.1848 -0.1965 -0.2265
15101TIP3    H166718   4.816   4.833  12.144 -0.5628 -0.5424 -2.0519
15101TIP3    H266719   4.812   4.731  12.256  0.7622  1.9872  0.4348
15102TIP3   OH266720   1.252   1.184   6.696  0.2454  0.6914  0.0492
15102TIP3    H166721   1.310   1.223   6.630 -0.1279 -2.1435 -2.1411
15102TIP3    H266722   1.263   1.240   6.773  4.1762  1.6299 -0.9398
15103TIP3   OH266723   6.126   3.777   4.496  0.2147 -0.1137 -0.0433
15103TIP3    H166724   6.072   3.698   4.499 -0.9216  0.6231 -0.3019
15103TIP3    H266725   6.183   3.771   4.573  0.5805 -1.4646 -0.3875
15104TIP3   OH266726   4.583   2.598   2.540 -0.1177 -0.4531 -0.3982
15104TIP3    H166727   4.640   2.637   2.606 -0.4983 -1.2457  0.4169
15104TIP3    H266728   4.507   2.657   2.537  1.2019  1.2607 -2.3324
15105TIP3   OH266729   1.893   4.954  14.915 -0.1781 -0.3216 -0.1557
15105TIP3    H166730   1.886   4.866  14.879 -0.3054 -0.6361  0.6169
15105TIP3    H266731   1.982   4.959  14.950 -0.5359 -0.5556  0.8252
15106TIP3   OH266732   6.279   0.237  13.927  0.4917  0.9280 -0.3272
15106TIP3    H166733   6.337   0.222  14.002  0.0123  0.9197  0.0450
15106TIP3    H266734   6.329   0.205  13.852  0.9964  0.9836 -0.0189
15107TIP3   OH266735   2.526   2.899   1.789 -0.4914 -0.3535  0.0194
15107TIP3    H166736   2.515   2.936   1.877 -1.4514  1.4509 -0.8193
15107TIP3    H266737   2.574   2.966   1.740  0.4740 -1.5451 -0.7443
15108TIP3   OH266738   2.667   3.731  16.309 -0.4293 -0.0054  0.1243
15108TIP3    H166739   2.726   3.755  16.238 -0.5301 -1.2184 -0.4005
15108TIP3    H266740   2.583   3.715  16.265 -1.3628  2.2977  0.9245
15109TIP3   OH266741   2.915   6.651  16.845 -0.0698  0.6049 -0.0155
15109TIP3    H166742   2.872   6.566  16.853  1.1638 -0.0582 -0.0932
15109TIP3    H266743   2.950   6.651  16.756 -1.0535  1.7012 -0.4164
15110TIP3   OH266744   6.478   6.764   4.748  1.1370 -0.0636  0.0445
15110TIP3    H166745   6.508   6.770   4.839  2.2616  0.6958 -0.3598
15110TIP3    H266746   6.553   6.790   4.696 -0.1445  1.7619 -1.0300
15111TIP3   OH266747   1.122   0.109  11.346  0.1767  0.0661 -0.4336
15111TIP3    H166748   1.148   0.200  11.329  0.2772  0.0603 -0.3109
15111TIP3    H266749   1.205   0.062  11.355  0.1281 -0.0775 -0.7012
15112TIP3   OH266750   3.404   3.926  12.266  0.1733 -0.3134 -0.6151
15112TIP3    H166751   3.423   3.837  12.239 -1.2479 -0.4076 -1.4142
15112TIP3    H266752   3.378   3.971  12.185  2.4040  1.2978 -0.5412
15113TIP3   OH266753   2.873   6.486  10.959 -0.5238 -0.5727  0.9142
15113TIP3    H166754   2.914   6.450  11.038 -0.8035 -2.0130  0.4224
15113TIP3    H266755   2.947   6.505  10.901 -0.4194 -1.0842  0.8792
15114TIP3   OH266756   6.651   0.027   0.893  0.2484 -0.6042  1.0606
15114TIP3    H166757   6.670   0.118   0.870  2.3544 -1.7632 -2.4623
15114TIP3    H266758   6.603   0.033   0.976  0.2107  3.6702  0.9353
15115TIP3   OH266759   4.711   6.038   3.811  0.2639  0.0469  0.4545
15115TIP3    H166760   4.805   6.039   3.829  0.2476 -1.4609  0.7103
15115TIP3    H266761   4.696   6.116   3.758  1.3791  1.1905  1.7446
15116TIP3   OH266762   5.828   1.704  12.712 -0.0049 -0.0667  0.2858
15116TIP3    H166763   5.896   1.640  12.730 -0.7199 -1.1141 -0.6308
15116TIP3    H266764   5.751   1.671  12.759 -1.0677 -1.2485 -2.1241
15117TIP3   OH266765   1.009   4.168  16.116  0.3468  0.1434  0.2191
15117TIP3    H166766   0.961   4.249  16.100  0.6421  0.3774  0.5157
15117TIP3    H266767   0.968   4.104  16.057 -1.0995  0.0396  1.3039
15118TIP3   OH266768   4.638   3.998  15.435 -0.4175  0.3617 -0.2590
15118TIP3    H166769   4.551   4.026  15.406  0.2923  1.3766 -1.5118
15118TIP3    H266770   4.699   4.050  15.382  1.0059  1.9853  2.7713
15119TIP3   OH266771   5.043   0.075   3.029  0.1129 -0.1183  0.2544
15119TIP3    H166772   5.114   0.139   3.031  0.8206 -0.8836  2.0410
15119TIP3    H266773   4.981   0.107   3.095 -0.3954 -0.3419 -0.1126
15120TIP3   OH266774   5.730   6.297   4.342  0.2608  0.2304  0.0428
15120TIP3    H166775   5.765   6.360   4.278  0.0489  0.2412 -0.0616
15120TIP3    H266776   5.714   6.218   4.291 -0.7756  0.5276 -0.1069
15121TIP3   OH266777   0.161   6.200  12.651 -0.1645  0.3071 -0.6912
15121TIP3    H166778   0.225   6.178  12.718 -1.2269 -1.1777 -0.1135
15121TIP3    H266779   0.180   6.291  12.628  1.2547  0.3226  0.4395
15122TIP3   OH266780   1.752   3.951   1.876 -0.0513  0.6656  0.0904
15122TIP3    H166781   1.744   3.859   1.900  0.9203  0.7385  0.7714
15122TIP3    H266782   1.676   3.968   1.820 -0.2688 -0.5311 -0.0153
15123TIP3   OH266783   2.648   4.355   2.935  0.9454  0.2682 -0.0132
15123TIP3    H166784   2.717   4.401   2.887  2.1664 -0.8121  0.6521
15123TIP3    H266785   2.603   4.303   2.867  2.0123 -0.4736 -0.1716
15124TIP3   OH266786   2.190   1.090  14.813 -0.3349 -0.1808  0.2477
15124TIP3    H166787   2.164   1.020  14.873  0.2147  0.2388  0.9867
15124TIP3    H266788   2.285   1.080  14.803 -0.2116  0.6060  0.5624
15125TIP3   OH266789   5.783   3.175  13.926 -0.2712  0.1274  0.1177
15125TIP3    H166790   5.864   3.183  13.975 -1.2777  2.3852  1.6009
15125TIP3    H266791   5.809   3.183  13.834  1.1756  0.8619  0.5672
15126TIP3   OH266792   4.718   6.637   4.838  0.2213 -0.0677  0.1084
15126TIP3    H166793   4.733   6.673   4.926 -1.1020  0.3242  0.2007
15126TIP3    H266794   4.674   6.554   4.854 -0.8231  0.4158 -0.1813
15127TIP3   OH266795   6.603   1.422  12.471  0.5862  0.2085 -0.2231
15127TIP3    H166796   6.650   1.481  12.530  1.5276 -1.4127  0.7198
15127TIP3    H266797   6.660   1.416  12.394  0.1036  1.1182 -0.6663
15128TIP3   OH266798   4.874   0.632   0.257  0.0199  0.1631  1.1067
15128TIP3    H166799   4.800   0.685   0.227  0.3363 -0.3738 -0.7501
15128TIP3    H266800   4.951   0.677   0.224  0.5655  0.6741  2.9648
15129TIP3   OH266801   1.062   0.164   2.160  0.5024  0.6290  0.0679
15129TIP3    H166802   1.055   0.248   2.206  0.4242  0.4128  0.4610
15129TIP3    H266803   1.150   0.132   2.181  0.9219  1.1099 -0.9541
15130TIP3   OH266804   1.524   4.791   5.868  0.5365 -0.2999 -0.0998
15130TIP3    H166805   1.564   4.726   5.925  1.0483 -0.5951 -0.7814
15130TIP3    H266806   1.492   4.741   5.792 -0.3171  0.0548  0.0140
15131TIP3   OH266807   6.421   6.743  16.555 -0.1059 -0.3146  0.1686
15131TIP3    H166808   6.408   6.837  16.568  0.2053 -0.0704 -1.1145
15131TIP3    H266809   6.399   6.728  16.463  2.1547 -1.0411 -0.3271
15132TIP3   OH266810   2.786   1.955  13.464  0.3823 -0.2765  0.2048
15132TIP3    H166811   2.846   1.916  13.528  0.6715 -2.0844 -1.1042
15132TIP3    H266812   2.843   2.006  13.406  0.6766 -1.7503 -0.8580
15133TIP3   OH266813   5.385   6.473   3.758 -0.7569  0.9670  0.5913
15133TIP3    H166814   5.396   6.540   3.825  2.4453 -0.5391  1.7665
15133TIP3    H266815   5.393   6.521   3.675 -2.3635  2.4992  1.2524
15134TIP3   OH266816   0.736   4.165   1.815  1.3321 -0.3090 -0.1560
15134TIP3    H166817   0.670   4.235   1.821 -0.1207 -1.4011 -2.1080
15134TIP3    H266818   0.800   4.198   1.752  0.5720 -0.7473 -1.1849
15135TIP3   OH266819   1.997   4.147  11.782  0.3479 -0.6210  0.1664
15135TIP3    H166820   2.005   4.232  11.826  0.3194 -0.5598  0.0539
15135TIP3    H266821   1.925   4.103  11.827 -1.2282  0.3409 -1.2740
15136TIP3   OH266822   3.007   6.561  10.608  0.0697 -0.0795 -0.0341
15136TIP3    H166823   3.069   6.569  10.681  0.2745 -0.3462 -0.1738
15136TIP3    H266824   2.987   6.467  10.605 -0.1933 -0.0206 -0.1146
15137TIP3   OH266825   4.701   5.080   2.911  0.1770  0.4244 -0.2664
15137TIP3    H166826   4.757   5.118   2.979  0.7277 -0.9290  0.0755
15137TIP3    H266827   4.695   4.987   2.934 -0.9876  0.2493 -1.1545
15138TIP3   OH266828   2.170   6.576  11.300 -0.0782 -0.2644  0.6328
15138TIP3    H166829   2.263   6.586  11.281  0.0333  0.0813  1.3204
15138TIP3    H266830   2.167   6.518  11.376 -0.4851 -1.2170 -0.0855
15139TIP3   OH266831   3.259   6.433   3.713  0.4140 -0.5844  0.4326
15139TIP3    H166832   3.314   6.357   3.733  1.1477 -0.9507 -2.5578
15139TIP3    H266833   3.216   6.411   3.631  1.8926  2.7840 -1.4419
15140TIP3   OH266834   4.587   1.448   5.534 -0.1487 -0.1424  0.1246
15140TIP3    H166835   4.577   1.529   5.485  0.3570 -0.3190 -0.2896
15140TIP3    H266836   4.570   1.471   5.625 -3.6247 -0.2841 -0.3501
15141TIP3   OH266837   3.163   4.177   4.528  0.4969  0.2480 -0.4168
15141TIP3    H166838   3.112   4.237   4.583 -1.6305 -0.6001 -1.3269
15141TIP3    H266839   3.217   4.234   4.474  0.5465  1.2094  0.6140
15142TIP3   OH266840   0.062   4.568  13.757  0.4226 -0.3335  0.3005
15142TIP3    H166841   0.037   4.653  13.720  0.9861 -0.4855 -0.4603
15142TIP3    H266842   0.048   4.578  13.851  1.3876  0.9224  0.3342
15143TIP3   OH266843   2.738   2.855  11.931  0.3883 -0.1552 -1.0799
15143TIP3    H166844   2.764   2.782  11.873 -1.0555 -1.8749  0.3228
15143TIP3    H266845   2.818   2.874  11.981  0.6048 -1.3443 -0.9216
15144TIP3   OH266846   3.013   1.170   1.222  0.1974 -0.6752  0.0926
15144TIP3    H166847   2.970   1.098   1.176  0.5376 -0.6069 -0.3386
15144TIP3    H266848   2.944   1.209   1.276  0.0309 -1.3742  0.3918
15145TIP3   OH266849   5.346   5.134  12.812 -0.0679 -0.2682  0.1786
15145TIP3    H166850   5.265   5.086  12.794 -0.7373  1.7320 -2.8985
15145TIP3    H266851   5.319   5.208  12.866  0.2202 -0.9905  1.3438
15146TIP3   OH266852   6.117   6.710  12.323  0.2522  0.4053 -0.1731
15146TIP3    H166853   6.200   6.681  12.286  1.6095  0.4438  2.6428
15146TIP3    H266854   6.110   6.802  12.298  0.2377  0.0213 -1.7032
15147TIP3   OH266855   1.556   0.006   6.739 -0.3398  0.3577 -0.1885
15147TIP3    H166856   1.481   0.054   6.775 -0.9307  1.4233 -2.5828
15147TIP3    H266857   1.552  -0.080   6.781 -0.7172  1.5526  2.4187
15148TIP3   OH266858   2.680   4.348  16.425 -0.3589 -0.2458 -0.0207
15148TIP3    H166859   2.653   4.341  16.516  0.1573 -1.7241  0.0470
15148TIP3    H266860   2.668   4.440  16.403 -1.4416 -0.0619  1.2324
15149TIP3   OH266861   2.156   3.317  14.523 -0.0250  0.2584 -0.3512
15149TIP3    H166862   2.193   3.255  14.459  1.6818  0.3192  0.5189
15149TIP3    H266863   2.233   3.357  14.564 -1.1005  1.3370  0.6598
15150TIP3   OH266864   4.901   0.525   1.182 -0.1488  0.4672  0.2292
15150TIP3    H166865   4.899   0.589   1.253  2.0323  0.7658  0.0892
15150TIP3    H266866   4.967   0.461   1.209 -1.5264 -1.1771 -0.1290
15151TIP3   OH266867   5.170   2.735  16.136  0.0936  0.6494  0.2991
15151TIP3    H166868   5.117   2.756  16.213  1.2332  2.2462  0.7079
15151TIP3    H266869   5.259   2.724  16.169  0.5677  1.1476 -0.7342
15152TIP3   OH266870   0.731   1.349  15.888 -0.4083  0.6319  0.5390
15152TIP3    H166871   0.663   1.323  15.826  0.9214  1.1285 -1.2289
15152TIP3    H266872   0.730   1.445  15.885  1.1454  0.6492 -0.4715
15153TIP3   OH266873   2.115   1.069   4.625 -0.6446 -0.0464  0.0586
15153TIP3    H166874   2.042   1.009   4.637 -1.9743  1.0734 -1.8583
15153TIP3    H266875   2.192   1.013   4.617 -1.7629 -1.4831 -1.0572
15154TIP3   OH266876   6.109   0.762   5.157  0.0966  0.0281  0.5905
15154TIP3    H166877   6.084   0.824   5.088  0.5479 -1.2360 -0.7569
15154TIP3    H266878   6.183   0.804   5.201 -0.4894  1.0612  0.6257
15155TIP3   OH266879   6.729   0.094   3.641  0.3993 -0.4918 -0.2992
15155TIP3    H166880   6.823   0.090   3.655  0.4265 -0.4154 -0.4659
15155TIP3    H266881   6.713   0.034   3.568 -0.1134 -3.2558  1.9002
15156TIP3   OH266882   3.669   6.722   2.818 -0.1054  0.2076  0.7824
15156TIP3    H166883   3.702   6.641   2.858  0.2952 -0.0002  0.0564
15156TIP3    H266884   3.647   6.778   2.892  1.2383  0.0838  1.3058
15157TIP3   OH266885   5.124   4.830  15.512 -0.0032 -0.8114 -0.6646
15157TIP3    H166886   5.040   4.820  15.556 -0.0009 -0.4525 -0.5691
15157TIP3    H266887   5.107   4.893  15.441  0.9267  2.2606  1.5936
15158TIP3   OH266888   2.851   1.239  13.102 -0.1202 -0.6527 -0.1165
15158TIP3    H166889   2.846   1.306  13.034 -0.8558  0.0502  0.6035
15158TIP3    H266890   2.768   1.193  13.097 -1.5401  1.3988  2.2463
15159TIP3   OH266891   0.722   0.356  14.910  0.0859 -0.1150  0.2011
15159TIP3    H166892   0.721   0.296  14.985 -0.8306  0.3849  0.6139
15159TIP3    H266893   0.670   0.431  14.939 -0.6711 -0.1031 -1.0784
15160TIP3   OH266894   3.779   4.411  12.904 -0.7722 -0.1260  0.1081
15160TIP3    H166895   3.688   4.386  12.889 -0.8709 -0.1886  0.7619
15160TIP3    H266896   3.775   4.472  12.977 -0.1526 -1.5070  1.3571
15161TIP3   OH266897   3.368   1.799  13.217 -0.7861 -0.2273  0.0148
15161TIP3    H166898   3.389   1.849  13.138 -1.7293  0.7013  0.3247
15161TIP3    H266899   3.316   1.725  13.185  1.2859 -1.5279 -0.5385
15162TIP3   OH266900   5.320   5.807  14.375  0.0282 -0.4137  0.3072
15162TIP3    H166901   5.352   5.833  14.461 -0.4625  0.5964  0.1948
15162TIP3    H266902   5.269   5.727  14.391 -0.0229 -0.2539  0.9422
15163TIP3   OH266903   0.910   4.291  15.023  0.3607 -0.1345  0.3612
15163TIP3    H166904   0.830   4.325  14.984  1.2250  0.3250 -1.0888
15163TIP3    H266905   0.887   4.274  15.114 -1.7011 -1.0768 -0.2698
15164TIP3   OH266906   2.784   5.323  16.180 -0.3528  0.3920  0.3729
15164TIP3    H166907   2.861   5.380  16.181 -0.5339  0.6293  0.8045
15164TIP3    H266908   2.820   5.235  16.168 -0.1873  0.7708 -2.5952
15165TIP3   OH266909   5.154   3.498   1.670 -0.2721  0.0889  0.1498
15165TIP3    H166910   5.082   3.436   1.678 -0.4680  0.0853 -1.3752
15165TIP3    H266911   5.223   3.449   1.626 -0.6557  1.0571 -1.6541
15166TIP3   OH266912   4.800   1.583   5.000 -0.3136  0.2125 -0.0863
15166TIP3    H166913   4.765   1.504   5.041 -0.4878 -0.7544 -2.0009
15166TIP3    H266914   4.843   1.630   5.071  1.1816 -2.3570  0.8192
15167TIP3   OH266915   0.395   6.235  11.174 -0.4996  0.1609  0.1765
15167TIP3    H166916   0.370   6.241  11.082  1.7725 -1.4794 -0.6380
15167TIP3    H266917   0.402   6.141  11.191  0.8674  0.4599  1.4931
15168TIP3   OH266918   3.895   1.849  15.685  0.1581 -0.1540 -0.4836
15168TIP3    H166919   3.972   1.898  15.716  0.2037 -0.5284  0.0129
15168TIP3    H266920   3.837   1.916  15.650  0.0809  0.3107  0.4863
15169TIP3   OH266921   1.223   0.385  13.318  0.7703  0.2279  0.6824
15169TIP3    H166922   1.305   0.407  13.363 -0.3276  2.4634  1.7526
15169TIP3    H266923   1.216   0.450  13.249 -0.6280  0.8131  1.3360
15170TIP3   OH266924   0.926   2.333  11.510 -0.0262  0.1703 -0.1921
15170TIP3    H166925   0.955   2.284  11.434  0.7790  0.5388 -0.1330
15170TIP3    H266926   0.981   2.300  11.582 -1.2407 -0.6736  0.3942
15171TIP3   OH266927   4.906   0.771  15.377  0.4609 -0.5327 -0.2953
15171TIP3    H166928   4.905   0.704  15.445  1.9531 -0.5739 -0.2804
15171TIP3    H266929   4.829   0.753  15.323 -0.3808 -0.8941  0.9913
15172TIP3   OH266930   1.384   6.085   5.207 -0.3473  0.0487  0.3599
15172TIP3    H166931   1.314   6.124   5.258 -1.2339 -1.8352  0.6772
15172TIP3    H266932   1.462   6.136   5.229 -1.1928  0.8244  1.6558
15173TIP3   OH266933   2.856   5.815   2.662 -0.0355  0.7783  0.2050
15173TIP3    H166934   2.862   5.841   2.571  1.4973  0.7214  0.2638
15173TIP3    H266935   2.927   5.862   2.706  0.8009 -1.0324  0.8957
15174TIP3   OH266936   0.708   1.479   3.873  0.6647  0.3392  0.4225
15174TIP3    H166937   0.753   1.458   3.791  1.9599 -0.6676  1.3402
15174TIP3    H266938   0.659   1.400   3.894 -0.8595  1.1050 -0.0885
15175TIP3   OH266939   4.931   5.584   5.652 -0.0274 -0.5326  0.6218
15175TIP3    H166940   5.026   5.590   5.639 -0.3128  0.2038 -1.5805
15175TIP3    H266941   4.920   5.522   5.724  2.0964 -1.1683  0.4528
15176TIP3   OH266942   6.092   0.747  15.249 -0.4414 -0.5250 -0.0847
15176TIP3    H166943   6.095   0.836  15.213 -0.1997 -0.3098  0.4558
15176TIP3    H266944   6.162   0.700  15.203 -1.0194 -0.6380 -0.8754
15177TIP3   OH266945   2.991   0.228   1.321  0.3157  0.0064 -0.3445
15177TIP3    H166946   2.945   0.178   1.388  0.2140 -0.2667 -0.6136
15177TIP3    H266947   2.972   0.181   1.239  0.4606  0.3182 -0.5583
15178TIP3   OH266948   5.598   3.999  13.555  0.4024 -0.0756  0.0003
15178TIP3    H166949   5.663   4.053  13.600 -0.6804  0.5148  0.9097
15178TIP3    H266950   5.515   4.046  13.568 -0.1466 -0.5635 -1.5245
15179TIP3   OH266951   4.654   0.502  11.867  0.0294  0.2025  0.7292
15179TIP3    H166952   4.594   0.572  11.842  0.7227  0.6854  0.4053
15179TIP3    H266953   4.617   0.423  11.827  0.5651  0.7840 -1.0228
15180TIP3   OH266954   1.101   0.607  14.208  0.1405  0.2713  0.2377
15180TIP3    H166955   1.029   0.643  14.260 -0.0704 -0.4332  0.4444
15180TIP3    H266956   1.072   0.614  14.118  0.6172  1.7503  0.1598
15181TIP3   OH266957   0.444   4.894   5.110  0.0574 -0.1578  0.2427
15181TIP3    H166958   0.443   4.916   5.203 -0.1583  0.8461  0.0099
15181TIP3    H266959   0.471   4.975   5.066 -0.9614 -0.2846 -0.6472
15182TIP3   OH266960   3.495   4.125   2.772 -0.1276 -0.1583 -0.2907
15182TIP3    H166961   3.541   4.163   2.696 -1.3229 -1.2333 -1.6095
15182TIP3    H266962   3.542   4.160   2.848  0.8608  1.2929 -1.4998
15183TIP3   OH266963   2.732   5.351   2.433  0.7332  0.5952 -0.2923
15183TIP3    H166964   2.726   5.444   2.411 -1.0670  0.6948  0.4452
15183TIP3    H266965   2.692   5.344   2.519  0.0187 -1.0022 -0.7217
15184TIP3   OH266966   2.959   1.741  12.824  0.1089 -0.3001 -0.3465
15184TIP3    H166967   2.956   1.759  12.730  0.9224  2.2892  0.0503
15184TIP3    H266968   3.052   1.730  12.843 -0.1212 -1.7902  0.0475
15185TIP3   OH266969   1.504   0.156  16.050  0.6800 -0.1651 -0.0683
15185TIP3    H166970   1.490   0.182  16.141  0.2775  1.1148 -0.4797
15185TIP3    H266971   1.513   0.061  16.053 -0.1342 -0.2155  1.2093
15186TIP3   OH266972   5.601   0.270   4.586 -0.1232 -0.4355  0.1498
15186TIP3    H166973   5.684   0.314   4.565  0.0780 -0.5980  0.5890
15186TIP3    H266974   5.550   0.338   4.631 -1.1917  0.4206 -2.2100
15187TIP3   OH266975   3.787   6.121  15.384 -0.8107 -0.0471 -0.1703
15187TIP3    H166976   3.779   6.163  15.298  0.0950  2.1863  0.7488
15187TIP3    H266977   3.697   6.108  15.413 -1.1247  0.1808 -1.0004
15188TIP3   OH266978   4.113   2.654   1.261 -0.1497 -0.5501 -0.1018
15188TIP3    H166979   4.205   2.662   1.288  0.5325  1.6703 -2.6276
15188TIP3    H266980   4.116   2.600   1.182 -0.7232  0.9009 -1.1688
15189TIP3   OH266981   5.286   4.122  16.080  0.0760 -0.1205  0.4448
15189TIP3    H166982   5.242   4.110  15.996 -1.3966  0.9271  1.0220
15189TIP3    H266983   5.219   4.102  16.145  1.3675 -1.5085  1.4108
15190TIP3   OH266984   2.854   3.622  16.479 -0.5297 -0.2544  0.3105
15190TIP3    H166985   2.936   3.660  16.445 -0.6732  1.4490  1.7096
15190TIP3    H266986   2.786   3.661  16.424 -0.7054  1.9357  1.9620
15191TIP3   OH266987   5.442   6.400  15.384 -0.3637  0.2849  0.2203
15191TIP3    H166988   5.432   6.412  15.478  2.5969  0.5632  0.6061
15191TIP3    H266989   5.530   6.365  15.374  0.0460  1.8392 -2.5452
15192TIP3   OH266990   4.545   0.834   3.681  0.1841  0.2407 -0.2594
15192TIP3    H166991   4.461   0.791   3.697 -0.4114  1.4358 -0.0516
15192TIP3    H266992   4.522   0.918   3.641  1.3876 -0.3025 -2.2489
15193TIP3   OH266993   3.360   2.912   3.665 -0.5504  0.3864  0.4262
15193TIP3    H166994   3.354   2.908   3.569 -0.1560 -1.0571  0.4536
15193TIP3    H266995   3.360   3.006   3.684 -0.4850  0.7014 -0.9984
15194TIP3   OH266996   6.399   2.894   1.213  0.3668  0.5057  0.2209
15194TIP3    H166997   6.407   2.838   1.290 -0.1450  0.2121  0.0660
15194TIP3    H266998   6.346   2.844   1.151  0.3303  0.9502 -0.1194
15195TIP3   OH266999   6.787   6.390  12.374 -0.3077  0.1220  0.1880
15195TIP3    H167000   6.703   6.367  12.332  0.3539 -1.3487 -0.4165
15195TIP3    H267001   6.763   6.412  12.464 -1.4739  0.8751 -0.2756
15196TIP3   OH267002   0.383   2.707  13.999 -0.3318 -0.5205 -0.0149
15196TIP3    H167003   0.370   2.758  14.079  1.0836 -0.0050 -0.0906
15196TIP3    H267004   0.385   2.616  14.030 -0.2842 -0.3574  0.4788
15197TIP3   OH267005   1.048   5.357  12.248  0.0270  0.6729  0.1677
15197TIP3    H167006   1.073   5.315  12.330  0.6942 -0.2063 -0.4645
15197TIP3    H267007   1.010   5.287  12.195 -0.8612  1.3343 -0.0924
15198TIP3   OH267008   3.897   1.797   5.608  0.4006 -0.3075 -0.6067
15198TIP3    H167009   3.979   1.835   5.639  0.3282 -0.1494 -0.6079
15198TIP3    H267010   3.905   1.703   5.627 -0.9511  0.1334  2.8901
15199TIP3   OH267011   4.699   2.077   5.651  0.0444  0.7095  0.0495
15199TIP3    H167012   4.642   2.077   5.728  0.1243 -0.5260  0.1303
15199TIP3    H267013   4.648   2.029   5.584  0.9464 -0.3760  0.1093
15200TIP3   OH267014   6.603   5.056  11.252 -0.4108  0.0607 -0.0817
15200TIP3    H167015   6.588   5.000  11.175 -2.4314  1.6642 -0.9392
15200TIP3    H267016   6.555   5.012  11.322 -2.1113  0.7141 -0.7836
15201TIP3   OH267017   1.563   6.137   3.910 -0.3546 -0.2976 -0.4721
15201TIP3    H167018   1.603   6.132   3.823  0.3120 -0.9890 -0.1398
15201TIP3    H267019   1.472   6.162   3.893 -0.3526 -0.8496 -1.4010
15202TIP3   OH267020   4.703   1.965   6.205  0.3973  0.2293  0.2889
15202TIP3    H167021   4.731   1.898   6.267 -0.2814 -2.3138 -1.9590
15202TIP3    H267022   4.779   2.022   6.195  0.5640  0.6776  3.2605
15203TIP3   OH267023   0.547   4.980  14.105  0.0452  0.3137 -0.3796
15203TIP3    H167024   0.492   4.968  14.182  0.7864 -0.3035  0.0631
15203TIP3    H267025   0.510   5.057  14.061 -0.5224  0.5308  0.4562
15204TIP3   OH267026   5.378   0.886   0.136  0.0763 -0.4095 -0.4006
15204TIP3    H167027   5.443   0.833   0.183  0.8676  0.8887  0.0147
15204TIP3    H267028   5.347   0.949   0.202 -0.4267  0.0220 -1.0420
15205TIP3   OH267029   5.499   5.061   3.598  0.1017 -0.6090  0.2928
15205TIP3    H167030   5.489   5.059   3.693 -1.2405 -1.4701  0.1674
15205TIP3    H267031   5.591   5.038   3.583 -0.0679 -2.1193  1.3442
15206TIP3   OH267032   3.852   2.714  13.069  0.2062 -0.3020  0.0661
15206TIP3    H167033   3.828   2.798  13.030  0.4872 -0.2036  0.1023
15206TIP3    H267034   3.941   2.698  13.038 -0.6959 -1.7910 -1.9795
15207TIP3   OH267035   3.054   5.280  12.995  0.6444 -0.3362 -0.1514
15207TIP3    H167036   3.067   5.191  13.028 -0.7185 -0.4571  0.1581
15207TIP3    H267037   2.999   5.321  13.062 -0.0917  0.2143 -1.0695
15208TIP3   OH267038   4.267   1.125  16.274 -0.5591 -0.2028  0.0991
15208TIP3    H167039   4.195   1.138  16.213 -0.8915  1.1352  0.7271
15208TIP3    H267040   4.232   1.155  16.359  0.7751  0.6644  0.3757
15209TIP3   OH267041   2.696   4.382   3.803 -0.2526 -0.2977 -0.0786
15209TIP3    H167042   2.737   4.329   3.871 -1.5431 -2.6779 -1.0184
15209TIP3    H267043   2.606   4.396   3.833 -0.9099 -1.5717 -1.2781
15210TIP3   OH267044   2.814   2.380   1.431 -0.4206  0.0497 -0.0027
15210TIP3    H167045   2.820   2.454   1.491 -0.9867  0.2407 -0.1697
15210TIP3    H267046   2.804   2.420   1.344  0.6852 -0.2218 -0.2631
15211TIP3   OH267047   6.409   1.424  13.976 -0.1900  0.8136 -0.2104
15211TIP3    H167048   6.432   1.460  13.890  1.1758 -0.5523 -0.4584
15211TIP3    H267049   6.458   1.479  14.038  2.1385 -0.6884 -0.6078
15212TIP3   OH267050   3.363   4.880  12.292 -0.2072 -0.3783 -0.3062
15212TIP3    H167051   3.426   4.927  12.346 -2.3098  0.6761  1.3815
15212TIP3    H267052   3.357   4.793  12.332  0.2245 -0.5179 -0.5371
15213TIP3   OH267053   5.337   2.091  12.804  0.2213  0.0573 -0.6332
15213TIP3    H167054   5.421   2.077  12.847  0.2015 -1.0225 -0.9272
15213TIP3    H267055   5.320   2.184  12.817  0.1238 -0.2336  1.8363
15214TIP3   OH267056   6.366   2.071  11.528  0.2870  0.2869 -0.3304
15214TIP3    H167057   6.353   2.019  11.607 -0.7685  0.6508 -0.2488
15214TIP3    H267058   6.451   2.043  11.494  0.3267 -0.5374  0.4264
15215TIP3   OH267059   4.372   0.495  15.471  0.1522 -0.5023 -0.4310
15215TIP3    H167060   4.391   0.497  15.565 -0.7830  2.7113 -0.1892
15215TIP3    H267061   4.289   0.449  15.465 -0.3361  0.2278  0.4666
15216TIP3   OH267062   1.088   3.932   2.845  0.8195 -0.1253 -0.3566
15216TIP3    H167063   1.078   3.974   2.930  0.9094  3.3375 -1.8700
15216TIP3    H267064   1.175   3.891   2.848 -0.1268 -2.2256  1.9090
15217TIP3   OH267065   2.744   6.599   1.324 -0.1231 -0.3781 -0.0226
15217TIP3    H167066   2.724   6.646   1.406 -0.8522 -2.0566  0.8232
15217TIP3    H267067   2.761   6.509   1.352 -1.0750 -1.1609 -1.7757
15218TIP3   OH267068   0.704   6.617  11.664  0.0007 -0.6960 -0.0161
15218TIP3    H167069   0.744   6.683  11.607 -0.0320 -0.3029  0.4064
15218TIP3    H267070   0.610   6.637  11.660  0.0179 -0.5399  0.3295
15219TIP3   OH267071   1.400   1.198   5.321  0.1905 -0.5515 -0.2830
15219TIP3    H167072   1.346   1.119   5.320  1.7297 -1.6487 -1.1731
15219TIP3    H267073   1.337   1.270   5.314 -1.2008 -1.7362 -0.4291
15220TIP3   OH267074   5.283   2.211  12.136 -0.4745 -0.2019  0.1045
15220TIP3    H167075   5.229   2.133  12.149  0.1856 -0.8492 -0.8690
15220TIP3    H267076   5.321   2.199  12.049  0.4010  0.7490  0.3391
15221TIP3   OH267077   5.764   1.012   0.924 -0.0451 -0.0044  0.0146
15221TIP3    H167078   5.698   0.972   0.866  0.1808 -0.2701 -0.0586
15221TIP3    H267079   5.724   1.095   0.951  0.0450  0.3511 -0.9011
15222TIP3   OH267080   1.505   5.428  15.813  0.5816  0.0517 -0.0039
15222TIP3    H167081   1.549   5.433  15.898 -2.1130 -0.0220  1.5013
15222TIP3    H267082   1.412   5.421  15.834 -0.1880 -0.1475 -2.9855
15223TIP3   OH267083   5.860   2.463   1.947 -0.3059  0.1605 -0.3703
15223TIP3    H167084   5.951   2.458   1.921 -0.1631 -1.5243  0.2881
15223TIP3    H267085   5.829   2.546   1.913  0.9842 -0.0453 -2.1536
15224TIP3   OH267086   6.289   6.435  16.655 -0.6029 -0.1407 -0.5485
15224TIP3    H167087   6.351   6.499  16.620  0.2148 -0.0971  0.9342
15224TIP3    H267088   6.273   6.374  16.582 -0.6650  1.1853 -1.6747
15225TIP3   OH267089   3.245   3.163   3.830  0.2883  0.1564 -0.6210
15225TIP3    H167090   3.217   3.126   3.914  0.7871  0.5465 -0.2761
15225TIP3    H267091   3.249   3.257   3.846  3.3819  0.0377 -0.1427
15226TIP3   OH267092   2.019   1.625   6.323 -0.0480 -0.0791  0.3815
15226TIP3    H167093   1.992   1.702   6.373 -0.9042  1.2996 -2.0325
15226TIP3    H267094   1.958   1.556   6.349 -0.5531  0.6358  1.1310
15227TIP3   OH267095   5.092   0.350   0.795  0.4674  0.1388  0.0761
15227TIP3    H167096   5.098   0.361   0.700 -2.3121  2.0879 -0.0054
15227TIP3    H267097   5.079   0.439   0.829 -2.0501 -0.7708  1.8505
15228TIP3   OH267098   2.893   5.575   5.086  0.4872 -0.4388 -0.5107
15228TIP3    H167099   2.845   5.586   5.004 -1.4334  0.9517  0.7021
15228TIP3    H267100   2.906   5.480   5.093 -1.0142 -0.7572 -1.5033
15229TIP3   OH267101   1.462   2.073  11.661  0.1778  0.3668  0.2101
15229TIP3    H167102   1.479   2.066  11.567  0.1531 -1.8519  0.3098
15229TIP3    H267103   1.547   2.097  11.698  0.0537  1.8439 -0.4063
15230TIP3   OH267104   0.732   2.935   5.896 -0.1321 -0.2557  0.7099
15230TIP3    H167105   0.762   3.025   5.907 -0.6790  0.0404 -0.1631
15230TIP3    H267106   0.766   2.908   5.811 -1.0521 -0.4359  0.3967
15231TIP3   OH267107   5.054   3.613  16.354  0.4779 -0.0359  0.1156
15231TIP3    H167108   5.090   3.524  16.349 -0.1864 -0.3439  0.6441
15231TIP3    H267109   5.118   3.667  16.309 -0.0866 -1.0761 -2.0702
15232TIP3   OH267110   1.044   0.584  11.638 -1.3948 -0.1920 -0.2239
15232TIP3    H167111   1.000   0.605  11.720 -1.8101  1.5695 -0.8491
15232TIP3    H267112   0.980   0.535  11.587 -1.1794 -1.1760  0.4502
15233TIP3   OH267113   1.919   0.678   1.775 -0.5552 -0.1272  0.4997
15233TIP3    H167114   1.919   0.583   1.789 -1.4500 -0.1892  0.1266
15233TIP3    H267115   1.989   0.710   1.831 -0.2008 -1.0160  0.5855
15234TIP3   OH267116   0.953   1.224   6.657  0.2690 -0.1255  0.0787
15234TIP3    H167117   1.024   1.281   6.626 -0.3652  0.9175  0.4993
15234TIP3    H267118   0.998   1.146   6.690  1.2001  0.4077  0.1067
15235TIP3   OH267119   3.778   3.438  16.889  0.0106 -0.4776 -1.1707
15235TIP3    H167120   3.818   3.388  16.960 -0.4575  2.2152  1.2104
15235TIP3    H267121   3.696   3.392  16.871 -0.2879 -0.7886  0.7202
15236TIP3   OH267122   1.302   3.741  13.409 -0.7907 -0.3351 -0.5119
15236TIP3    H167123   1.280   3.690  13.487  1.1618 -0.4966  0.0007
15236TIP3    H267124   1.349   3.679  13.353 -2.1121 -0.1983 -1.8243
15237TIP3   OH267125   3.542   1.303  13.751 -0.9744  0.0322 -0.2182
15237TIP3    H167126   3.625   1.335  13.786 -1.4078 -0.4884  1.3740
15237TIP3    H267127   3.483   1.379  13.757 -0.3245  0.7890 -2.5551
15238TIP3   OH267128   6.419   4.550  16.455  0.2395 -0.1552 -0.4260
15238TIP3    H167129   6.326   4.527  16.451 -0.2800  1.3808  1.4533
15238TIP3    H267130   6.458   4.481  16.508  0.4302 -1.3403 -2.0083
15239TIP3   OH267131   4.551   5.300  14.517  0.4037  0.6602 -0.1400
15239TIP3    H167132   4.471   5.290  14.465  0.1300 -0.5278  0.4755
15239TIP3    H267133   4.605   5.225  14.492  0.8039  0.7723  0.3790
15240TIP3   OH267134   2.623   6.198  12.466 -0.3718 -0.1314  0.2226
15240TIP3    H167135   2.682   6.129  12.498 -0.5403 -1.1075 -1.4713
15240TIP3    H267136   2.678   6.276  12.458  0.2910 -0.5883  0.2829
15241TIP3   OH267137   2.365   2.667  11.954  0.1236 -0.3045 -0.0851
15241TIP3    H167138   2.344   2.702  11.867 -0.5340  1.0850  0.6095
15241TIP3    H267139   2.281   2.639  11.990  0.4364 -1.1803  0.0004
15242TIP3   OH267140   1.867   4.733   4.156 -0.1175  0.3744  0.0977
15242TIP3    H167141   1.832   4.665   4.100  1.8356 -0.2634 -0.4400
15242TIP3    H267142   1.955   4.749   4.123 -0.4651  3.1603  0.2279
15243TIP3   OH267143   2.137   2.658  16.035  0.8192 -0.4891 -0.3426
15243TIP3    H167144   2.188   2.668  16.116  0.4749  0.2169 -0.1984
15243TIP3    H267145   2.199   2.680  15.965  1.2745 -1.6492 -0.3191
15244TIP3   OH267146   0.420   6.610  15.992  0.3019 -0.2966 -0.0402
15244TIP3    H167147   0.431   6.559  16.072  0.0579  0.6839  0.6440
15244TIP3    H267148   0.509   6.639  15.970  0.1462  1.1078  1.0446
15245TIP3   OH267149   2.825   1.309   0.647  0.2011 -0.2014 -0.9332
15245TIP3    H167150   2.775   1.337   0.570  1.7290 -0.2889 -1.9934
15245TIP3    H267151   2.869   1.388   0.678 -1.6343  0.2063  0.8893
15246TIP3   OH267152   5.105   1.608  12.641 -0.9616 -0.1682  0.4683
15246TIP3    H167153   5.148   1.608  12.727 -0.4378 -0.3818  0.2085
15246TIP3    H267154   5.023   1.657  12.655 -0.1371  1.2045  0.7192
15247TIP3   OH267155   1.492   0.387  14.759 -0.2469 -0.2693 -0.2927
15247TIP3    H167156   1.570   0.339  14.787 -0.3543 -0.9202 -1.0815
15247TIP3    H267157   1.479   0.453  14.827  2.5704  1.6716 -1.4404
15248TIP3   OH267158   0.530   5.009  12.122 -0.3511 -0.4594  0.0027
15248TIP3    H167159   0.545   5.051  12.037 -2.0990 -2.4097 -1.3500
15248TIP3    H267160   0.448   5.048  12.153 -0.5133 -0.8335  0.0483
15249TIP3   OH267161   1.664   6.169  12.108 -0.1389 -0.1188  0.1052
15249TIP3    H167162   1.632   6.255  12.136  1.1993  0.1861  0.8041
15249TIP3    H267163   1.591   6.110  12.125 -1.3829  0.9870 -1.1572
15250TIP3   OH267164   2.676   3.285   0.660  0.3293 -0.0891 -0.3373
15250TIP3    H167165   2.651   3.195   0.680 -1.8386  0.8134  1.4199
15250TIP3    H267166   2.596   3.325   0.625  0.8924  1.4606  0.0576
15251TIP3   OH267167   6.485   6.701  11.771 -0.6861  0.4844  0.4979
15251TIP3    H167168   6.408   6.719  11.825 -1.9208  0.8016 -1.2768
15251TIP3    H267169   6.449   6.679  11.685  1.1070 -2.0774  0.2925
15252TIP3   OH267170   5.676   5.510   4.549  0.3458  0.2126 -0.6019
15252TIP3    H167171   5.642   5.463   4.625  0.8734 -0.0721 -0.5385
15252TIP3    H267172   5.771   5.496   4.552  0.6799  2.3323  0.1135
15253TIP3   OH267173   3.146   5.556   4.942  0.0735  0.0334 -0.5479
15253TIP3    H167174   3.129   5.642   4.904 -1.6015 -0.8306 -1.9043
15253TIP3    H267175   3.083   5.549   5.015  0.1641 -0.0713 -0.4790
15254TIP3   OH267176   0.274   4.070  12.326  0.0636  0.2029  0.0023
15254TIP3    H167177   0.192   4.026  12.349 -0.0194  0.0130 -0.6253
15254TIP3    H267178   0.335   3.998  12.306  0.2156  0.3543 -0.0834
15255TIP3   OH267179   3.875   4.349  15.955  0.4563 -0.4912  0.0158
15255TIP3    H167180   3.838   4.260  15.957  0.1435 -0.3571  0.3411
15255TIP3    H267181   3.959   4.341  16.002 -0.4989 -0.2159  1.8630
15256TIP3   OH267182   2.360   1.935  12.577 -0.6529  0.1169 -0.2813
15256TIP3    H167183   2.277   1.887  12.573  0.0940 -1.3051  0.2622
15256TIP3    H267184   2.356   1.983  12.659 -0.1414 -1.5775  0.7848
15257TIP3   OH267185   4.106   2.028   2.258  0.7510 -0.0505  0.6737
15257TIP3    H167186   4.021   1.989   2.280  0.4709  0.7475  1.0135
15257TIP3    H267187   4.149   2.041   2.343  1.7235 -1.5471  0.4559
15258TIP3   OH267188   1.754   2.306  14.669  0.0137  1.2029 -0.1869
15258TIP3    H167189   1.711   2.277  14.588 -0.6667 -0.0653  0.5810
15258TIP3    H267190   1.757   2.401  14.662 -2.0752  1.2863 -0.7173
15259TIP3   OH267191   0.919   4.872   3.491 -0.4577  0.0597 -0.3971
15259TIP3    H167192   0.833   4.852   3.528  0.3706 -2.8011  0.2087
15259TIP3    H267193   0.958   4.934   3.553 -0.5777 -1.7216  1.5570
15260TIP3   OH267194   1.294   5.508   2.172 -0.4865  0.0295  0.0715
15260TIP3    H167195   1.376   5.501   2.222 -0.4589 -2.3379 -0.2205
15260TIP3    H267196   1.225   5.500   2.238 -0.4473 -1.1107 -0.0018
15261TIP3   OH267197   3.505   5.661  12.896 -0.6101 -0.1471 -0.1047
15261TIP3    H167198   3.566   5.735  12.890  0.1472 -0.7864 -0.4531
15261TIP3    H267199   3.492   5.635  12.805 -2.3520  0.7203 -0.1424
15262TIP3   OH267200   1.890   1.472  14.883 -0.6947 -0.2134  0.1919
15262TIP3    H167201   1.863   1.394  14.931  0.2258 -0.2206  0.7157
15262TIP3    H267202   1.974   1.496  14.921 -0.5571  0.5339 -0.5503
15263TIP3   OH267203   2.692   0.212   4.306 -0.1532 -0.3333  0.1185
15263TIP3    H167204   2.698   0.300   4.268  0.9511 -0.6697 -0.5305
15263TIP3    H267205   2.627   0.221   4.376 -2.9877  0.1484 -2.3271
15264TIP3   OH267206   3.731   3.916   4.104  0.4556 -0.8354  0.2059
15264TIP3    H167207   3.676   3.973   4.158  0.9057 -0.2956  0.0991
15264TIP3    H267208   3.675   3.894   4.029  0.9225  1.0939 -0.7754
15265TIP3   OH267209   0.688   0.962   3.601  0.0855  0.2241  0.7524
15265TIP3    H167210   0.754   0.966   3.670  0.4986 -2.6029  0.6469
15265TIP3    H267211   0.727   0.907   3.533 -0.8901  1.7069 -1.1211
15266TIP3   OH267212   6.039   6.432   1.108  0.8182  0.4561  0.0902
15266TIP3    H167213   6.102   6.365   1.083  0.4224  0.5714 -1.2517
15266TIP3    H267214   6.092   6.498   1.154  0.8905 -1.6989  3.4190
15267TIP3   OH267215   3.908   2.099  12.141  0.1542 -0.1288  0.0639
15267TIP3    H167216   4.004   2.107  12.136  0.1570  0.1845  0.5847
15267TIP3    H267217   3.888   2.114  12.233 -0.5361  1.2635 -0.2965
15268TIP3   OH267218   0.500   2.577   5.520  0.0324  0.2876  0.0148
15268TIP3    H167219   0.507   2.636   5.595 -0.6049  2.8682 -1.8255
15268TIP3    H267220   0.409   2.545   5.524 -0.4999  1.6686 -0.4816
15269TIP3   OH267221   1.651   5.681  14.446 -0.2633 -0.1497 -0.4702
15269TIP3    H167222   1.649   5.585  14.449  0.5724 -0.2148 -1.4166
15269TIP3    H267223   1.596   5.704  14.372 -0.6013  0.1188 -0.1389
15270TIP3   OH267224   1.756   1.395  13.259 -0.1515  0.8536  0.1540
15270TIP3    H167225   1.714   1.451  13.194  0.4680  2.9208  1.4153
15270TIP3    H267226   1.850   1.400  13.238 -0.1633 -0.6263 -0.3546
15271TIP3   OH267227   1.927   3.547  14.063 -0.0151  0.9614  0.6381
15271TIP3    H167228   1.923   3.599  13.983 -0.7469 -0.4164 -0.2533
15271TIP3    H267229   1.893   3.605  14.131 -0.4053  1.7963 -0.2402
15272TIP3   OH267230   1.413   4.492   2.930 -1.4166 -0.0336  0.2438
15272TIP3    H167231   1.346   4.483   2.998 -1.1182 -0.3836  0.5030
15272TIP3    H267232   1.496   4.487   2.979 -1.1717 -1.4515 -0.2539
15273TIP3   OH267233   5.786   2.342  14.729  0.3854  0.3867  0.0860
15273TIP3    H167234   5.726   2.354  14.655 -0.6781 -0.8806  0.6958
15273TIP3    H267235   5.863   2.394  14.706  0.0909  0.0477 -1.9081
15274TIP3   OH267236   6.478   5.788  11.233  0.0977 -0.9637  0.2754
15274TIP3    H167237   6.410   5.724  11.213 -0.0841 -1.0597  1.1872
15274TIP3    H267238   6.532   5.746  11.300  0.5819 -0.5688  0.1391
15275TIP3   OH267239   6.192   4.783   0.324  0.6539 -0.7045 -0.1162
15275TIP3    H167240   6.143   4.826   0.395 -1.5481  0.5570 -2.2554
15275TIP3    H267241   6.210   4.695   0.357 -1.9293 -0.7938  1.3489
15276TIP3   OH267242   0.205   2.961   3.357 -0.0638  0.3834  0.1305
15276TIP3    H167243   0.128   2.904   3.356 -2.0219  2.8521 -0.4630
15276TIP3    H267244   0.233   2.962   3.449 -0.7434 -0.5276  0.3629
15277TIP3   OH267245   6.218   0.775  10.559 -0.0834  0.2583 -0.5280
15277TIP3    H167246   6.247   0.694  10.518 -0.5086 -0.2129  0.0725
15277TIP3    H267247   6.279   0.841  10.528 -0.6390  0.0105 -2.2323
15278TIP3   OH267248   4.553   1.362   3.693  0.5058  0.4950 -1.0004
15278TIP3    H167249   4.470   1.404   3.715  0.9849  0.6554  0.6072
15278TIP3    H267250   4.575   1.396   3.606 -1.2117  0.2535 -1.5681
15279TIP3   OH267251   5.092   6.065  12.207 -0.0908  0.5419  0.1757
15279TIP3    H167252   5.143   6.098  12.133  0.3438  0.0455  0.2508
15279TIP3    H267253   5.001   6.070  12.177  0.0934  0.1374 -0.4766
15280TIP3   OH267254   3.654   6.207  13.873 -0.1192 -0.2759 -0.5677
15280TIP3    H167255   3.652   6.187  13.779  3.2787 -1.0908 -0.5747
15280TIP3    H267256   3.672   6.123  13.915 -1.3815  0.1150  0.8549
15281TIP3   OH267257   2.853   1.207  11.708 -0.3244  0.0732  0.4947
15281TIP3    H167258   2.780   1.166  11.753  0.7304 -1.6048  0.7492
15281TIP3    H267259   2.916   1.136  11.693 -0.8943  0.2625 -4.3655
15282TIP3   OH267260   1.385   4.264  13.878  0.6681  0.0058  0.4390
15282TIP3    H167261   1.423   4.181  13.849 -1.3817 -2.3513  3.8192
15282TIP3    H267262   1.452   4.301  13.935  1.2399  0.2794 -0.3893
15283TIP3   OH267263   4.175   5.706  12.016 -0.2845 -0.1060 -0.2717
15283TIP3    H167264   4.102   5.657  12.054  0.4060 -1.7420 -0.9542
15283TIP3    H267265   4.253   5.667  12.054  0.2753  0.9501 -0.3111
15284TIP3   OH267266   0.279   6.358   4.146  0.1624  0.3733 -0.2253
15284TIP3    H167267   0.233   6.288   4.192 -0.1707  1.4753  1.1757
15284TIP3    H267268   0.212   6.403   4.095 -0.7425  2.8389  2.8714
15285TIP3   OH267269   6.509   1.268  15.552 -0.2630 -0.0717  0.4040
15285TIP3    H167270   6.547   1.272  15.640  1.1113  0.6932 -0.1956
15285TIP3    H267271   6.538   1.183  15.518 -1.1601 -0.5640  0.8219
15286TIP3   OH267272   3.817   2.579  14.513  0.2996 -0.3079 -0.4811
15286TIP3    H167273   3.861   2.548  14.592 -1.6519  0.1653  0.8586
15286TIP3    H267274   3.861   2.533  14.442 -0.2816 -3.6264  1.1259
15287TIP3   OH267275   5.941   5.107  14.946 -0.4713 -0.6389  0.1442
15287TIP3    H167276   6.035   5.091  14.952 -0.0374  1.7574  0.4018
15287TIP3    H267277   5.912   5.108  15.037 -0.6570 -0.7677  0.0875
15288TIP3   OH267278   5.060   3.449  16.955  0.5517  0.4231  0.0972
15288TIP3    H167279   5.041   3.450  17.049 -1.8852  1.8282 -0.3226
15288TIP3    H267280   4.976   3.427  16.914  1.6979 -0.7565 -1.7605
15289TIP3   OH267281   4.375   6.522  13.588  0.3547  0.0103  0.1598
15289TIP3    H167282   4.430   6.494  13.515  0.9665 -0.8027  0.9117
15289TIP3    H267283   4.313   6.450  13.601 -0.3883  0.5796 -0.1804
15290TIP3   OH267284   3.482   5.686  14.762  0.1449 -0.1030 -0.4744
15290TIP3    H167285   3.497   5.771  14.722  1.1370 -0.0292  0.0172
15290TIP3    H267286   3.449   5.631  14.691 -1.9505  1.0542 -0.4691
15291TIP3   OH267287   6.607   0.374  14.779 -0.2011 -0.1979  0.5377
15291TIP3    H167288   6.559   0.444  14.736 -1.0609  1.3838  3.7479
15291TIP3    H267289   6.542   0.305  14.794  0.0206 -0.6103 -0.3716
15292TIP3   OH267290   3.492   3.776   3.232  0.0591  0.1820  0.0201
15292TIP3    H167291   3.537   3.793   3.314 -0.6512  2.2964  0.0472
15292TIP3    H267292   3.556   3.798   3.164  0.1983 -0.2229  0.0196
15293TIP3   OH267293   4.996   1.248  17.035  0.0128  0.7871 -0.0522
15293TIP3    H167294   4.904   1.228  17.056  0.1656  0.7917  0.6582
15293TIP3    H267295   5.004   1.228  16.942 -0.2421 -1.0127  0.2791
15294TIP3   OH267296   5.753   5.595   1.832  0.2894  0.0642 -0.3965
15294TIP3    H167297   5.777   5.663   1.895  0.0039 -0.9179  0.8108
15294TIP3    H267298   5.696   5.640   1.770 -0.9649  0.6710  1.1126
15295TIP3   OH267299   1.468   6.713  16.913 -0.5262  0.5452 -0.2174
15295TIP3    H167300   1.472   6.643  16.978 -0.1406  0.1311 -0.6770
15295TIP3    H267301   1.380   6.707  16.875 -0.1549 -0.3478 -0.9617
15296TIP3   OH267302   5.831   2.241   2.773  0.4096  0.9352  0.2925
15296TIP3    H167303   5.805   2.293   2.849 -0.8375 -0.4156  0.8386
15296TIP3    H267304   5.749   2.220   2.729  0.7676 -1.1616  0.5191
15297TIP3   OH267305   1.632   0.997   4.623  0.1676  0.1795  0.3309
15297TIP3    H167306   1.590   0.911   4.620 -1.4790  0.9750 -0.6700
15297TIP3    H267307   1.569   1.056   4.580  1.5735  1.7503  0.3458
15298TIP3   OH267308   4.223   4.350  14.481  0.4977 -0.1869  0.3512
15298TIP3    H167309   4.182   4.267  14.456  0.9641 -0.2085 -0.3657
15298TIP3    H267310   4.265   4.382  14.401  1.2290  0.2127  0.8759
15299TIP3   OH267311   5.083   2.180  14.171 -0.0481  0.4099  0.0519
15299TIP3    H167312   5.007   2.122  14.181  0.1221  0.4478  1.9248
15299TIP3    H267313   5.137   2.137  14.105 -0.4414 -0.9950  0.6098
15300TIP3   OH267314   4.110   2.550  16.148  0.0632  0.1837  0.5618
15300TIP3    H167315   4.160   2.517  16.073  1.2344 -1.1696  1.8626
15300TIP3    H267316   4.110   2.645  16.138  0.7429  0.0527 -0.8128
15301TIP3   OH267317   3.354   2.882  11.623 -0.4533  0.1624 -0.1411
15301TIP3    H167318   3.373   2.930  11.543 -1.7419  0.2204 -0.4284
15301TIP3    H267319   3.260   2.891  11.635 -0.2509  0.3469  1.5144
15302TIP3   OH267320   3.156   2.647  15.708 -0.6494  0.0899  0.4476
15302TIP3    H167321   3.120   2.606  15.630  2.0074  0.9443 -1.3550
15302TIP3    H267322   3.089   2.709  15.737 -1.9329 -0.7022 -0.7394
15303TIP3   OH267323   0.036   0.851  12.459 -0.5615  0.4039  0.7960
15303TIP3    H167324   0.016   0.758  12.456  1.2951 -0.1080  2.1724
15303TIP3    H267325   0.124   0.857  12.421  0.8989  0.9850  3.9137
15304TIP3   OH267326   6.766   3.963  13.496 -0.7864 -0.1047 -0.1388
15304TIP3    H167327   6.795   4.013  13.572  0.5343 -0.7026 -0.2331
15304TIP3    H267328   6.751   4.029  13.428 -0.1169  0.2630  0.0646
15305TIP3   OH267329   2.199   5.453   3.859  1.0171  0.4200 -0.6530
15305TIP3    H167330   2.114   5.411   3.845  0.2257  1.8959 -0.4892
15305TIP3    H267331   2.249   5.389   3.910 -1.1505  0.7588  2.1733
15306TIP3   OH267332   4.844   2.175   2.218  0.1957  0.3032 -0.4757
15306TIP3    H167333   4.865   2.217   2.302  0.6251 -0.9536  0.0779
15306TIP3    H267334   4.759   2.132   2.234 -0.5312  1.4127 -1.2174
15307TIP3   OH267335   2.317   5.969   5.669 -0.7451  0.4638 -0.0449
15307TIP3    H167336   2.384   5.940   5.731  0.4392  2.2466 -0.4120
15307TIP3    H267337   2.337   5.921   5.588 -1.0207 -0.3226  0.3452
15308TIP3   OH267338   1.426   5.437   1.341 -0.1352 -0.4081  0.0342
15308TIP3    H167339   1.332   5.428   1.358 -0.2645 -0.7995 -0.8010
15308TIP3    H267340   1.431   5.453   1.247  0.6193 -0.0431  0.1332
15309TIP3   OH267341   0.162   0.060  14.840  0.1983 -0.1703  0.3173
15309TIP3    H167342   0.103   0.055  14.765 -0.4262 -0.7207  0.8300
15309TIP3    H267343   0.130   0.134  14.891 -0.0968 -0.5170  0.6360
15310TIP3   OH267344   4.513   2.593   4.545 -0.3717 -0.0031 -0.1114
15310TIP3    H167345   4.592   2.575   4.596  0.0379 -3.6173 -1.7201
15310TIP3    H267346   4.522   2.684   4.518  1.1672  0.9210  3.0750
15311TIP3   OH267347   5.525   4.453  16.900  0.1946  0.2678 -0.4769
15311TIP3    H167348   5.473   4.471  16.979  0.2576 -0.8856 -0.1511
15311TIP3    H267349   5.568   4.369  16.919 -1.1433 -0.9234 -2.4175
15312TIP3   OH267350   0.417   6.754  14.166  0.0420 -0.1441 -0.3709
15312TIP3    H167351   0.440   6.696  14.094  1.2170 -1.6377  1.1393
15312TIP3    H267352   0.345   6.709  14.211  0.5395 -0.1440  0.4447
15313TIP3   OH267353   4.888   3.381   4.528 -0.0965 -0.4398  0.4007
15313TIP3    H167354   4.943   3.345   4.598  0.4679  0.8181  0.6242
15313TIP3    H267355   4.894   3.317   4.457  1.5468 -0.3898  0.4668
15314TIP3   OH267356   5.067   1.610   0.209 -0.0173 -0.7386 -0.7648
15314TIP3    H167357   5.105   1.626   0.295 -1.6361  0.3072 -0.1990
15314TIP3    H267358   5.119   1.538   0.173  0.2018 -1.7787  1.4217
15315TIP3   OH267359   0.206   4.880   5.534  0.2260 -0.6615 -0.2377
15315TIP3    H167360   0.286   4.838   5.563  1.9406  3.2532  1.3596
15315TIP3    H267361   0.151   4.886   5.612 -0.0643 -0.1085 -0.4776
15316TIP3   OH267362   6.664   3.983   5.751  0.0843  0.0298  0.1150
15316TIP3    H167363   6.661   4.074   5.779 -0.8323  0.1488 -0.3520
15316TIP3    H267364   6.588   3.942   5.792  1.3974 -0.9496  1.6975
15317TIP3   OH267365   3.603   6.050   1.528  0.3539 -0.7831 -0.3183
15317TIP3    H167366   3.621   6.097   1.446  3.0847 -0.7066  0.2167
15317TIP3    H267367   3.610   5.957   1.503 -0.5206 -0.8121 -0.4828
15318TIP3   OH267368   2.492   0.663   1.831 -0.2411 -0.0994  0.1707
15318TIP3    H167369   2.455   0.735   1.780  0.3656 -0.8216 -1.3388
15318TIP3    H267370   2.458   0.584   1.788  0.5497 -0.7265  0.6897
15319TIP3   OH267371   2.033   5.971  11.997  0.1606  0.0837 -0.0303
15319TIP3    H167372   2.085   5.963  11.916 -1.7530 -2.0713 -1.1573
15319TIP3    H267373   2.047   5.888  12.042 -1.4694 -0.1248  0.1263
15320TIP3   OH267374   2.041   5.598   2.839  0.0334 -0.5199 -0.6306
15320TIP3    H167375   2.103   5.666   2.812  1.8750 -2.0747 -0.5178
15320TIP3    H267376   2.008   5.629   2.924  1.6725 -0.2402 -0.0488
15321TIP3   OH267377   1.131   6.613   6.250 -0.2929 -0.6987  0.1100
15321TIP3    H167378   1.140   6.519   6.260  0.2252 -0.4932  2.0750
15321TIP3    H267379   1.089   6.642   6.331  0.2874  0.8431 -0.0975
15322TIP3   OH267380   4.445   2.366  10.832  0.2852 -0.0777  0.0713
15322TIP3    H167381   4.505   2.315  10.777 -0.1465 -0.7995  0.2558
15322TIP3    H267382   4.412   2.434  10.773 -1.2455 -1.6817 -1.0253
15323TIP3   OH267383   5.937   5.775   5.085 -0.2589 -0.1063  0.2952
15323TIP3    H167384   5.865   5.766   5.147 -1.4964  0.0545 -1.0849
15323TIP3    H267385   5.905   5.735   5.004  0.6823  1.1381 -0.7379
15324TIP3   OH267386   4.681   2.091   3.552  0.5612 -0.4624  0.0144
15324TIP3    H167387   4.666   2.174   3.596  3.0968 -0.4416  1.0053
15324TIP3    H267388   4.594   2.061   3.526 -0.6651  1.2904  1.8404
15325TIP3   OH267389   1.910   0.109   3.147  0.2602  0.0082  0.2670
15325TIP3    H167390   1.970   0.036   3.166 -0.5604 -0.3985  1.3948
15325TIP3    H267391   1.958   0.187   3.176  0.6467 -0.2030  0.2102
15326TIP3   OH267392   3.577   5.480   3.195  0.0258 -0.7026  0.0996
15326TIP3    H167393   3.559   5.458   3.287 -1.3058 -2.1747 -0.4711
15326TIP3    H267394   3.545   5.569   3.185 -0.7518 -0.8863  0.8238
15327TIP3   OH267395   3.534   0.497   2.112  0.0657 -0.0273 -0.6491
15327TIP3    H167396   3.491   0.474   2.195  0.3369  0.4375 -0.3790
15327TIP3    H267397   3.585   0.576   2.132  1.0020 -0.5313 -0.9816
15328TIP3   OH267398   3.007   2.718   4.009 -0.2657 -0.0287 -0.5547
15328TIP3    H167399   2.934   2.698   4.068  0.4092  0.4507  0.4908
15328TIP3    H267400   2.974   2.788   3.953 -0.1737  1.2567  0.9117
15329TIP3   OH267401   3.619   5.373   4.925 -0.1378  0.6024  0.1367
15329TIP3    H167402   3.603   5.350   4.834 -0.3215 -0.0024  0.3202
15329TIP3    H267403   3.553   5.324   4.975  0.1647  0.6830  0.6236
15330TIP3   OH267404   5.709   5.910  16.056  0.6019  0.0375  0.0315
15330TIP3    H167405   5.680   5.854  16.128  1.6985 -0.9653 -0.2697
15330TIP3    H267406   5.736   5.849  15.987  2.0176  0.9203 -0.2392
15331TIP3   OH267407   5.153   3.064   0.232 -0.3561  0.3153 -0.1857
15331TIP3    H167408   5.177   3.131   0.169 -1.0733  1.4147  0.6695
15331TIP3    H267409   5.057   3.068   0.236 -0.3262  0.1682  0.8703
15332TIP3   OH267410   5.883   5.294   3.676 -0.2759 -0.3588 -0.3008
15332TIP3    H167411   5.792   5.280   3.647 -0.8089 -0.2549  1.2191
15332TIP3    H267412   5.890   5.390   3.683  0.1974 -0.3274 -1.1142
15333TIP3   OH267413   2.355   3.764  10.784  0.2875 -0.2887  0.5292
15333TIP3    H167414   2.263   3.759  10.760 -0.1653 -0.1881  2.1388
15333TIP3    H267415   2.369   3.857  10.806  1.0553 -0.0875 -0.7207
15334TIP3   OH267416   6.567   4.005  14.868  0.4923 -0.0028 -0.1560
15334TIP3    H167417   6.593   4.019  14.959  1.1677  0.9554 -0.4806
15334TIP3    H267418   6.471   4.011  14.869  0.5593  1.4943  0.2818
15335TIP3   OH267419   4.178   4.026   0.527 -0.0067  0.0885  0.2584
15335TIP3    H167420   4.225   4.101   0.562  3.1833 -1.9861  0.8372
15335TIP3    H267421   4.193   3.956   0.590  1.0708 -2.2331 -2.3523
15336TIP3   OH267422   6.371   3.902   2.144 -0.0857 -0.0534  0.5336
15336TIP3    H167423   6.333   3.882   2.059  1.9037  3.0327 -1.2418
15336TIP3    H267424   6.461   3.869   2.139 -0.1518 -0.4999  1.7720
15337TIP3   OH267425   6.327   4.573   4.368  0.3159 -0.4042 -0.2611
15337TIP3    H167426   6.265   4.630   4.413  0.3911 -1.7119  1.6024
15337TIP3    H267427   6.357   4.625   4.293 -0.4912  1.5337  0.6767
15338TIP3   OH267428   4.581   2.552  16.339  0.0252  0.3004  0.1733
15338TIP3    H167429   4.560   2.635  16.383  0.8274 -0.0080  1.1888
15338TIP3    H267430   4.596   2.491  16.411  0.5240 -0.4514 -0.5560
15339TIP3   OH267431   6.696   0.075  14.214  0.3608 -0.2541 -0.4600
15339TIP3    H167432   6.783   0.078  14.256  0.9262  0.3189 -1.6217
15339TIP3    H267433   6.678  -0.018  14.204 -0.7024 -0.5163  2.7886
15340TIP3   OH267434   1.554   6.073  12.423  0.0848  0.1383  0.0250
15340TIP3    H167435   1.566   6.013  12.497  0.8632  0.3175  0.0465
15340TIP3    H267436   1.465   6.055  12.392  0.0736 -0.5585  0.4494
15341TIP3   OH267437   4.745   3.396   0.674 -0.2507  0.1994 -0.0318
15341TIP3    H167438   4.767   3.355   0.590 -0.4732 -0.3317  0.1668
15341TIP3    H267439   4.662   3.442   0.657 -0.6589 -0.4800  0.0723
15342TIP3   OH267440   6.653   3.201  15.675  0.1546  0.8419  0.2569
15342TIP3    H167441   6.711   3.240  15.740  1.1359 -2.4438  1.5947
15342TIP3    H267442   6.568   3.195  15.719  0.8104 -1.3502  1.3952
15343TIP3   OH267443   0.077   3.709   0.767 -0.1413  0.7874  0.1088
15343TIP3    H167444   0.085   3.638   0.704 -0.6149  0.6727  0.1716
15343TIP3    H267445  -0.016   3.734   0.763 -0.1784  0.7584  0.7813
15344TIP3   OH267446   3.577   0.657  15.598 -0.0700 -0.0145 -0.1776
15344TIP3    H167447   3.623   0.655  15.515  0.9372  0.5019  0.3458
15344TIP3    H267448   3.646   0.646  15.664 -0.9029 -0.9291  0.5752
15345TIP3   OH267449   1.293   6.363   5.188  0.1519  0.0217  0.4345
15345TIP3    H167450   1.254   6.328   5.108 -0.0253  1.2720 -0.0526
15345TIP3    H267451   1.234   6.434   5.214  1.0822  0.6866  0.7711
15346TIP3   OH267452   4.988   0.392  11.863  0.3293 -0.2455 -0.1771
15346TIP3    H167453   5.006   0.297  11.862 -1.6077 -0.6948  1.3239
15346TIP3    H267454   4.895   0.398  11.881  0.6554  1.9902  1.0566
15347TIP3   OH267455   0.008   6.738   2.326  0.2161  0.1096 -1.1408
15347TIP3    H167456   0.102   6.732   2.309  0.6984  0.5169  1.0652
15347TIP3    H267457  -0.033   6.701   2.248  2.2953 -3.5090 -0.7521
15348TIP3   OH267458   4.334   5.997  15.464 -0.4597  0.0124 -0.5098
15348TIP3    H167459   4.332   5.968  15.555  0.4515 -0.9134 -0.7632
15348TIP3    H267460   4.243   5.997  15.437 -0.6720 -0.5062  0.1675
15349TIP3   OH267461   5.685   2.058   5.831  0.0602  0.2066 -0.4055
15349TIP3    H167462   5.631   2.002   5.775 -0.7960  1.7208 -1.1694
15349TIP3    H267463   5.623   2.119   5.870  1.1287  1.6309 -0.8463
15350TIP3   OH267464   5.010   2.442   5.411 -0.0388  0.4558  0.3768
15350TIP3    H167465   5.016   2.348   5.395  1.8896  0.5411  0.2812
15350TIP3    H267466   4.917   2.461   5.411 -0.4661 -0.8530 -3.1513
15351TIP3   OH267467   1.013   2.519  16.413  0.3270  0.0890  0.2899
15351TIP3    H167468   0.978   2.534  16.325  0.7835  0.9143  0.2389
15351TIP3    H267469   1.017   2.606  16.453  1.6695 -0.0681  0.5383
15352TIP3   OH267470   2.219   3.929  11.428  0.0347  0.2415  0.0766
15352TIP3    H167471   2.228   3.878  11.348  0.1126 -0.2311  0.3849
15352TIP3    H267472   2.149   3.886  11.477  1.0989 -0.4763  1.0219
15353TIP3   OH267473   6.506   1.483  10.591 -0.3039 -0.2398 -0.4398
15353TIP3    H167474   6.471   1.572  10.584 -3.0598 -1.2152 -0.0393
15353TIP3    H267475   6.432   1.430  10.619  1.1513 -2.7717 -1.1025
15354TIP3   OH267476   0.812   4.168  14.337  0.2042  0.1122  0.3543
15354TIP3    H167477   0.822   4.258  14.368  0.8296  1.2322 -2.7800
15354TIP3    H267478   0.742   4.172  14.272 -0.7984 -2.0244  1.2153
15355TIP3   OH267479   3.215   4.330   3.304  0.2401  0.2126 -0.3832
15355TIP3    H167480   3.163   4.256   3.272  1.7165 -0.1615 -2.0537
15355TIP3    H267481   3.211   4.322   3.400 -0.8299 -1.1542 -0.5097
15356TIP3   OH267482   1.176   6.563  14.913  0.4297 -0.2142 -0.3518
15356TIP3    H167483   1.194   6.657  14.907  0.5914 -0.2321 -0.1519
15356TIP3    H267484   1.257   6.521  14.884  0.3165 -0.2924 -0.5577
15357TIP3   OH267485   4.337   0.750   2.735  0.1126 -0.0477 -0.2660
15357TIP3    H167486   4.353   0.757   2.829 -0.5519 -0.4253 -0.1158
15357TIP3    H267487   4.370   0.832   2.699 -1.2729  0.9071  0.5368
15358TIP3   OH267488   1.371   1.478   1.232 -0.5802 -0.4723 -0.6139
15358TIP3    H167489   1.461   1.507   1.215 -0.8894  0.0968 -1.3807
15358TIP3    H267490   1.343   1.441   1.148 -1.4324  0.4091 -0.7391
15359TIP3   OH267491   6.404   3.967  16.924  0.3125 -0.8691 -0.1493
15359TIP3    H167492   6.366   4.028  16.987  0.4888  0.1091 -0.9538
15359TIP3    H267493   6.364   3.883  16.945  0.5435 -0.6294  1.4008
15360TIP3   OH267494   3.476   6.277   1.306 -0.1472 -0.0670 -0.3791
15360TIP3    H167495   3.394   6.320   1.282  0.5879  1.6084 -0.0609
15360TIP3    H267496   3.459   6.184   1.292 -1.8121  0.3020 -1.1402
15361TIP3   OH267497   0.063   1.009  10.916  1.4462  0.6348  0.0632
15361TIP3    H167498   0.147   1.031  10.956  1.4855 -0.2210  0.4699
15361TIP3    H267499   0.008   0.981  10.990  0.5581  1.8892 -0.0878
15362TIP3   OH267500   0.993   4.076  16.421  0.1850 -0.0860  0.2550
15362TIP3    H167501   1.050   4.082  16.345 -2.0097  2.7139 -1.3634
15362TIP3    H267502   1.050   4.089  16.497  2.0294 -0.3060 -1.0533
15363TIP3   OH267503   6.226   1.424   5.160  0.1605 -0.1024  0.2285
15363TIP3    H167504   6.219   1.512   5.198 -1.1463 -0.0200 -0.1351
15363TIP3    H267505   6.299   1.430   5.099  0.9974  0.3244  1.2370
15364TIP3   OH267506   4.540   2.091   2.774 -0.4913 -0.3695 -0.1234
15364TIP3    H167507   4.526   2.185   2.765 -0.0311 -0.2844  0.0426
15364TIP3    H267508   4.620   2.083   2.826 -2.3594 -0.8439  2.9241
15365TIP3   OH267509   5.910   4.194   5.150  0.2027  0.1186 -0.1489
15365TIP3    H167510   5.821   4.211   5.180 -0.1020  1.1582 -1.5497
15365TIP3    H267511   5.929   4.106   5.180 -0.9296  0.2420  1.0136
15366TIP3   OH267512   4.585   2.052   2.164  0.1647 -0.6851 -0.1367
15366TIP3    H167513   4.646   1.982   2.138  0.0042 -1.4366  1.3998
15366TIP3    H267514   4.528   2.011   2.229 -1.2675  0.3282 -0.7022
15367TIP3   OH267515   2.188   3.925   4.148  0.6024  0.4039  0.3906
15367TIP3    H167516   2.162   3.963   4.064 -2.4015  0.3287  1.1582
15367TIP3    H267517   2.224   3.999   4.197  2.2629  0.4776 -0.8420
15368TIP3   OH267518   1.010   4.846   1.964  0.3272  0.5578 -0.2288
15368TIP3    H167519   0.945   4.848   1.894 -1.2147 -0.7856  1.0665
15368TIP3    H267520   0.978   4.908   2.029 -1.1259 -1.8434  1.5226
15369TIP3   OH267521   1.833   0.906  15.403  0.0099 -0.1552  0.2505
15369TIP3    H167522   1.773   0.971  15.438 -0.9768 -1.1282  0.4057
15369TIP3    H267523   1.907   0.907  15.464  0.4963  1.5164 -0.3096
15370TIP3   OH267524   3.690   4.439  13.175 -0.1484  0.6662 -0.0830
15370TIP3    H167525   3.741   4.359  13.163  0.5113  0.9296  0.7794
15370TIP3    H267526   3.749   4.497  13.223 -1.0918  1.1716  0.4973
15371TIP3   OH267527   1.975   4.538  13.345 -0.0059 -0.1338 -0.2935
15371TIP3    H167528   1.980   4.511  13.253  0.8066 -0.1779 -0.2444
15371TIP3    H267529   1.886   4.515  13.372  0.6489 -2.8915 -0.2254
15372TIP3   OH267530   4.502   3.447  12.678 -0.1869 -0.2177 -0.5880
15372TIP3    H167531   4.411   3.457  12.648  0.4459  0.4110 -2.4351
15372TIP3    H267532   4.495   3.394  12.757 -2.1625 -0.2129 -0.7000
15373TIP3   OH267533   5.366   3.755  12.805 -0.0958 -0.1883 -0.0232
15373TIP3    H167534   5.416   3.787  12.730  0.6476 -2.4823 -0.5765
15373TIP3    H267535   5.433   3.732  12.870 -0.6109 -0.4243  0.4263
15374TIP3   OH267536   5.785   3.466   1.863 -0.1518 -0.0747  0.3773
15374TIP3    H167537   5.875   3.437   1.874 -0.1067  0.6473  2.3466
15374TIP3    H267538   5.732   3.395   1.900 -0.3940 -0.3995 -0.5694
15375TIP3   OH267539   4.462   2.845   3.462 -0.0712 -0.4495  0.4370
15375TIP3    H167540   4.490   2.917   3.518  0.8681 -0.0873 -0.4617
15375TIP3    H267541   4.421   2.783   3.522  0.2838  0.2288  1.4164
15376TIP3   OH267542   0.294   1.892  15.607 -0.5275 -0.2332  0.1311
15376TIP3    H167543   0.237   1.875  15.682 -1.5501 -0.4665 -0.6748
15376TIP3    H267544   0.237   1.883  15.531  0.4544  0.1482 -0.6761
15377TIP3   OH267545   4.680   2.517  15.157 -0.3342  0.6651  0.0678
15377TIP3    H167546   4.764   2.562  15.170  0.2721  0.0721 -1.5220
15377TIP3    H267547   4.698   2.453  15.088 -2.3280  1.1777 -0.9902
15378TIP3   OH267548   1.078   0.704  17.155  0.4230  0.0570 -0.4003
15378TIP3    H167549   1.127   0.631  17.193  0.0247  0.1144  0.2355
15378TIP3    H267550   1.023   0.735  17.226  0.3563  0.7792 -0.7627
15379TIP3   OH267551   5.474   1.401   1.234  0.1838 -0.6835  0.0117
15379TIP3    H167552   5.490   1.492   1.209 -0.6398 -0.1222  1.4396
15379TIP3    H267553   5.474   1.402   1.329 -2.0843 -1.7702  0.0714
15380TIP3   OH267554   1.917   4.487   1.057  0.0122  0.2945 -0.1210
15380TIP3    H167555   1.893   4.453   0.970  0.6157 -0.2395 -0.0927
15380TIP3    H267556   1.848   4.456   1.115 -1.6619  2.5973 -0.7645
15381TIP3   OH267557   3.372   5.058  16.730  0.3055  0.4036  0.0941
15381TIP3    H167558   3.432   5.129  16.753  0.7496 -0.0558  0.3876
15381TIP3    H267559   3.415   4.979  16.764 -0.5236  0.0755  0.3987
15382TIP3   OH267560   2.177   3.650   2.480  0.1815 -0.1429 -0.1079
15382TIP3    H167561   2.258   3.698   2.465 -0.7211  1.3314 -0.5265
15382TIP3    H267562   2.163   3.601   2.399  0.2353  0.2552 -0.3616
15383TIP3   OH267563   0.895   0.078  13.181 -0.3624  0.1671 -0.1323
15383TIP3    H167564   0.880   0.080  13.087 -1.4407  1.0668  0.0351
15383TIP3    H267565   0.809   0.059  13.218  0.3854 -2.0037  0.6150
15384TIP3   OH267566   5.074   5.644  13.991 -0.4707 -0.7563 -0.2772
15384TIP3    H167567   5.060   5.579  13.922  0.7876 -1.8283  0.4375
15384TIP3    H267568   5.167   5.666  13.984 -0.5637 -0.1112  0.4399
15385TIP3   OH267569   5.826   0.097   1.113  0.8169 -0.1291 -0.2245
15385TIP3    H167570   5.836   0.179   1.160  2.5871 -0.2486 -0.3419
15385TIP3    H267571   5.832   0.029   1.180 -1.0158 -0.2011 -0.0729
15386TIP3   OH267572   2.298   3.606   5.721 -0.2625  0.4568 -0.3550
15386TIP3    H167573   2.368   3.545   5.744 -0.5113 -0.2177 -1.3739
15386TIP3    H267574   2.219   3.567   5.758 -0.0695  1.4913  1.2801
15387TIP3   OH267575   1.279   3.159  13.321  0.2472 -0.1082  0.2353
15387TIP3    H167576   1.364   3.201  13.307 -0.1511  0.6188 -0.0037
15387TIP3    H267577   1.251   3.189  13.408  0.2648 -0.4209  0.3540
15388TIP3   OH267578   5.255   1.089   0.807  0.0427  0.2874 -0.6560
15388TIP3    H167579   5.290   1.102   0.895  0.0320 -0.8052 -0.4747
15388TIP3    H267580   5.288   1.163   0.757  2.3560 -0.5054 -0.4062
15389TIP3   OH267581   4.479   0.777   4.396  0.3650 -0.0538 -0.0049
15389TIP3    H167582   4.479   0.837   4.471 -1.7477 -0.5545  0.4763
15389TIP3    H267583   4.493   0.690   4.435  0.2309 -0.2099 -0.3023
15390TIP3   OH267584   0.990   2.922  13.949 -0.4158  0.1139  0.1105
15390TIP3    H167585   0.895   2.921  13.965 -0.4743 -2.6790  0.2242
15390TIP3    H267586   1.026   2.863  14.016  1.2610  0.2838 -0.5902
15391TIP3   OH267587   0.443   5.128  16.611  0.2541  0.0424 -0.1067
15391TIP3    H167588   0.438   5.102  16.519  1.0241  0.1916 -0.1943
15391TIP3    H267589   0.536   5.138  16.628  0.0599  1.3876  0.3022
15392TIP3   OH267590   0.067   3.432  13.603 -0.3258 -0.0471 -0.4555
15392TIP3    H167591   0.003   3.361  13.611  0.1463 -1.0584 -4.0432
15392TIP3    H267592   0.152   3.388  13.612  0.0034 -0.2579 -3.5815
15393TIP3   OH267593   3.722   1.062  14.293  0.0611 -0.8462  0.8509
15393TIP3    H167594   3.680   0.984  14.257  0.3124 -0.5499 -0.1403
15393TIP3    H267595   3.682   1.135  14.245  0.4341 -0.4328  1.1600
15394TIP3   OH267596   6.448   5.537  14.374 -0.1876  0.6062  0.2401
15394TIP3    H167597   6.412   5.575  14.454 -1.7903 -2.5486  1.1785
15394TIP3    H267598   6.372   5.503  14.327  0.8349  1.3991 -2.1341
15395TIP3   OH267599   4.920   5.395  16.861  0.0619  0.1801 -0.4603
15395TIP3    H167600   4.886   5.472  16.906 -3.5107 -1.1801 -0.4325
15395TIP3    H267601   4.966   5.429  16.785 -0.2400  2.3532  0.2647
15396TIP3   OH267602   5.489   3.952   5.636 -0.7116 -0.8055 -0.3470
15396TIP3    H167603   5.563   3.910   5.592 -1.8607 -1.8611 -1.3199
15396TIP3    H267604   5.498   3.926   5.728  1.0538  0.4810 -0.0857
15397TIP3   OH267605   3.253   4.617  13.323  0.7539 -0.1202 -0.2050
15397TIP3    H167606   3.306   4.546  13.357  0.0795 -1.0018 -0.9450
15397TIP3    H267607   3.165   4.580  13.316  0.1152  1.1646  0.5637
15398TIP3   OH267608   5.174   4.203  11.467  0.3271  0.0346  1.0598
15398TIP3    H167609   5.122   4.247  11.399  0.2097  0.3708  1.3607
15398TIP3    H267610   5.194   4.272  11.530  1.5302  0.0167  0.7296
15399TIP3   OH267611   6.149   2.976   6.039  0.7026  0.2130 -0.2471
15399TIP3    H167612   6.192   2.972   5.953  0.1657 -1.5896 -0.4754
15399TIP3    H267613   6.060   3.004   6.019  1.3349  2.6636  0.0846
15400TIP3   OH267614   4.190   4.001  11.134 -0.4747  0.3038 -0.1140
15400TIP3    H167615   4.269   4.035  11.091 -1.1408  0.3888 -1.3004
15400TIP3    H267616   4.150   4.077  11.174 -1.3829  0.7813 -1.8376
15401TIP3   OH267617   4.041   5.771  15.577 -0.5128 -0.2625 -0.2318
15401TIP3    H167618   4.117   5.801  15.627 -1.3026  2.5596 -0.5761
15401TIP3    H267619   3.969   5.773  15.640 -1.1126  1.3415 -0.9224
15402TIP3   OH267620   3.281   5.817   0.964 -0.3037  0.3195 -0.1399
15402TIP3    H167621   3.194   5.776   0.968  0.5033 -1.4778 -0.0368
15402TIP3    H267622   3.341   5.744   0.950  1.3652  1.3303  1.4065
15403TIP3   OH267623   1.223   3.775  16.612 -0.1602  0.2240  0.2362
15403TIP3    H167624   1.278   3.782  16.534  1.4255 -1.7914  1.0809
15403TIP3    H267625   1.251   3.848  16.668 -1.3437  1.7152 -1.0123
15404TIP3   OH267626   1.022   6.134   1.623  0.3635  0.2071  0.0172
15404TIP3    H167627   1.026   6.209   1.682 -0.4384  0.5384 -0.3336
15404TIP3    H267628   1.031   6.058   1.680 -1.2122  0.4931  0.6959
15405TIP3   OH267629   4.818   2.985   6.057 -0.2165  0.4234 -0.2271
15405TIP3    H167630   4.855   3.069   6.084 -0.2255  0.6597 -0.9276
15405TIP3    H267631   4.866   2.962   5.977 -0.4723 -0.0550 -0.2479
15406TIP3   OH267632   1.320   6.735   3.328 -0.2068  0.2655  0.2737
15406TIP3    H167633   1.350   6.826   3.329 -0.4690  0.4232 -1.6132
15406TIP3    H267634   1.400   6.684   3.343  0.0183  0.7999  0.9114
15407TIP3   OH267635   2.467   0.269   1.182 -0.1005 -0.2133  0.0480
15407TIP3    H167636   2.534   0.338   1.187  0.6721 -0.9600  0.1678
15407TIP3    H267637   2.441   0.267   1.090 -0.8224  0.8674  0.2047
15408TIP3   OH267638   6.555   6.462   4.559  0.2133 -0.1649  0.3278
15408TIP3    H167639   6.638   6.432   4.597  1.0258  2.7034  1.0433
15408TIP3    H267640   6.489   6.407   4.601  1.5456 -0.9198  1.5608
15409TIP3   OH267641   1.338   0.577   4.673 -0.1213  0.0681 -0.3862
15409TIP3    H167642   1.280   0.623   4.733  0.9491  0.1023  0.6597
15409TIP3    H267643   1.280   0.535   4.610 -1.2674  0.1406  0.5953
15410TIP3   OH267644   4.134   5.462  16.364 -0.0464 -0.7285 -0.0458
15410TIP3    H167645   4.082   5.531  16.406 -1.2279 -0.1922 -2.2600
15410TIP3    H267646   4.144   5.491  16.273 -0.6056 -3.4616 -1.0759
15411TIP3   OH267647   5.828   0.282   2.353 -0.2489  0.3336  0.3960
15411TIP3    H167648   5.889   0.217   2.318 -0.5557  0.4011 -0.2688
15411TIP3    H267649   5.766   0.232   2.405 -0.7194  0.0438 -0.4381
15412TIP3   OH267650   6.770   6.747  15.744 -0.0748 -0.4709  0.2535
15412TIP3    H167651   6.733   6.679  15.801  0.0255  0.7689  1.8498
15412TIP3    H267652   6.864   6.745  15.763  0.2694 -1.3945 -1.3848
15413TIP3   OH267653   6.622   5.539   5.230 -0.0656  0.0164 -0.3753
15413TIP3    H167654   6.559   5.610   5.235  1.2399  1.2438 -0.4837
15413TIP3    H267655   6.580   5.465   5.273 -0.6820  1.4638  1.6388
15414TIP3   OH267656   2.892   4.539   4.807  0.0467  0.2633  0.4786
15414TIP3    H167657   2.951   4.584   4.747 -0.1058 -1.0255 -0.6853
15414TIP3    H267658   2.883   4.451   4.772 -1.9496  0.1650  1.0491
15415TIP3   OH267659   0.807   6.537   6.562 -0.0828  0.0852  0.1307
15415TIP3    H167660   0.844   6.461   6.606  2.7851  0.0038 -2.0609
15415TIP3    H267661   0.820   6.519   6.469  1.9021  3.6568 -0.4703
15416TIP3   OH267662   4.671   0.980   5.779 -0.3715 -0.2233  0.4741
15416TIP3    H167663   4.721   1.002   5.858  0.7129 -0.7538 -0.0476
15416TIP3    H267664   4.650   1.065   5.740  1.2099  0.0071  0.0551
15417TIP3   OH267665   1.201   1.139   1.130 -0.2593  0.6214 -0.1966
15417TIP3    H167666   1.195   1.231   1.107 -0.1424  0.4784 -0.8032
15417TIP3    H267667   1.157   1.093   1.059 -0.3821  0.2115  0.1379
15418TIP3   OH267668   1.105   5.336  10.333 -0.2220  0.1041  0.2094
15418TIP3    H167669   1.196   5.318  10.357 -0.3554 -1.4839 -0.3333
15418TIP3    H267670   1.109   5.417  10.283  1.1396 -0.6941 -1.0836
15419TIP3   OH267671   0.163   2.578  15.031 -0.2324  0.1137 -0.9657
15419TIP3    H167672   0.254   2.569  15.006  0.2355  0.1350  0.6051
15419TIP3    H267673   0.158   2.541  15.119 -1.4202  1.4279 -0.4295
15420TIP3   OH267674   1.798   6.568  13.153 -0.3810 -0.4056 -0.0201
15420TIP3    H167675   1.768   6.525  13.233 -2.3409  1.1748  0.1590
15420TIP3    H267676   1.731   6.634  13.134  0.4728 -0.1432 -2.4950
15421TIP3   OH267677   4.676   3.949  17.086  0.2551  0.7473 -0.2915
15421TIP3    H167678   4.669   4.044  17.092 -0.3990  0.8285 -1.9083
15421TIP3    H267679   4.726   3.924  17.164  0.3196  2.3886  0.2335
15422TIP3   OH267680   0.332   4.195   2.083  0.3131 -0.2817 -0.2360
15422TIP3    H167681   0.348   4.116   2.032  2.4601 -1.1828  1.6360
15422TIP3    H267682   0.411   4.206   2.136 -0.1714  2.7876  0.0609
15423TIP3   OH267683   2.784   0.114  15.322  0.0092 -0.2171  0.0752
15423TIP3    H167684   2.830   0.198  15.325 -0.6599  0.1533  0.3667
15423TIP3    H267685   2.699   0.135  15.282 -0.7626 -0.4384  1.5168
15424TIP3   OH267686   1.832   3.086  11.646  0.6702  0.2421  0.2485
15424TIP3    H167687   1.873   3.026  11.585  0.2976  0.8016 -0.5688
15424TIP3    H267688   1.889   3.085  11.723  1.5305  0.0702 -0.3794
15425TIP3   OH267689   5.063   6.087   2.961 -0.1373 -0.3714 -0.1245
15425TIP3    H167690   5.152   6.085   2.925  1.0953  2.0054  2.4314
15425TIP3    H267691   5.061   6.015   3.024 -0.0067 -0.4064 -0.1590
15426TIP3   OH267692   2.803   6.238  17.021 -0.2014  0.3371 -1.0795
15426TIP3    H167693   2.777   6.150  17.048  0.1106  0.8118  0.9741
15426TIP3    H267694   2.893   6.227  16.990  0.3730  0.0904  0.5272
15427TIP3   OH267695   6.420   0.386  13.246 -0.4533 -0.2432  0.1290
15427TIP3    H167696   6.332   0.372  13.282 -1.1343 -0.1710 -1.4339
15427TIP3    H267697   6.473   0.316  13.284 -1.3897 -0.8248  0.4101
15428TIP3   OH267698   1.081   4.221   3.503  0.8553  0.0402  0.4081
15428TIP3    H167699   1.076   4.316   3.500  1.3107  0.1138  1.5755
15428TIP3    H267700   1.056   4.198   3.593  1.7738 -0.8696  0.4478
15429TIP3   OH267701   4.368   6.662   3.983 -0.2020 -0.0694 -0.2806
15429TIP3    H167702   4.286   6.617   3.963  0.7029 -2.2080  0.4763
15429TIP3    H267703   4.391   6.632   4.071  0.7426  1.5350  0.0563
15430TIP3   OH267704   3.215   5.237   3.591  0.0220 -0.5468 -0.5720
15430TIP3    H167705   3.279   5.261   3.525  0.7070  0.6297  0.4846
15430TIP3    H267706   3.145   5.193   3.542  1.1257 -0.8968 -1.8743
15431TIP3   OH267707   4.165   5.792   4.624  0.0287  0.4986  0.3963
15431TIP3    H167708   4.159   5.860   4.692 -1.3217  2.4877 -1.5765
15431TIP3    H267709   4.074   5.765   4.611  0.0891  1.1146 -1.4972
15432TIP3   OH267710   6.760   6.277   2.429 -0.4500 -0.3850 -0.1168
15432TIP3    H167711   6.717   6.328   2.360  0.9069 -0.4871 -1.0679
15432TIP3    H267712   6.762   6.336   2.504  0.5258  0.7858 -1.0072
15433TIP3   OH267713   5.538   3.389  14.507 -0.1859  0.5568  0.1531
15433TIP3    H167714   5.632   3.370  14.511 -0.3171  0.0877  1.6007
15433TIP3    H267715   5.496   3.308  14.536 -1.1165  0.3496 -1.6223
15434TIP3   OH267716   5.863   4.873  15.235 -0.5318 -0.4513  0.2901
15434TIP3    H167717   5.920   4.806  15.196  0.9268  0.9413 -0.0477
15434TIP3    H267718   5.857   4.848  15.327 -1.3985 -1.9756 -0.1451
15435TIP3   OH267719   0.979   3.827   4.189 -0.5745 -0.6049 -0.2120
15435TIP3    H167720   1.035   3.790   4.121  1.3579  0.3346  0.7769
15435TIP3    H267721   0.939   3.905   4.149 -0.1081 -0.5320 -0.5354
15436TIP3   OH267722   1.720   2.174  12.088 -0.5077  0.4345  0.4018
15436TIP3    H167723   1.662   2.108  12.051  1.1701 -0.3159 -1.0016
15436TIP3    H267724   1.666   2.253  12.092 -1.5989 -0.2021 -0.9685
15437TIP3   OH267725   5.132   0.993   6.101 -0.5547 -0.2685 -0.2610
15437TIP3    H167726   5.095   1.042   6.028  0.9073  1.1919 -0.0792
15437TIP3    H267727   5.194   1.054   6.142 -1.5238 -0.8928  2.3865
15438TIP3   OH267728   3.296   5.068  14.213  0.3124  0.1340  0.0429
15438TIP3    H167729   3.247   5.097  14.136  0.7044 -0.4198 -0.4217
15438TIP3    H267730   3.232   5.072  14.284 -1.4998 -3.6469 -1.0601
15439TIP3   OH267731   5.418   4.039   4.715 -0.2284  0.4256  0.2321
15439TIP3    H167732   5.324   4.036   4.732 -0.3878  0.8870 -0.5302
15439TIP3    H267733   5.433   3.972   4.648 -0.2052  1.0934 -0.4491
15440TIP3   OH267734   2.876   3.310   6.210 -0.2656 -0.0480 -0.5315
15440TIP3    H167735   2.804   3.341   6.266  0.5057 -0.3459  0.6767
15440TIP3    H267736   2.903   3.228   6.251  1.6962  0.7731 -0.0863
15441TIP3   OH267737   4.379   6.575  14.534  0.2461  0.1830  0.2723
15441TIP3    H167738   4.353   6.507  14.596 -1.0887  0.8629  0.4889
15441TIP3    H267739   4.441   6.532  14.475 -1.6057 -1.6081 -0.4693
15442TIP3   OH267740   2.043   2.644   1.941 -0.6222  0.1558 -0.5463
15442TIP3    H167741   2.001   2.592   1.873  0.2223 -0.3882 -0.6816
15442TIP3    H267742   2.116   2.687   1.897 -2.1009  2.5939 -0.7400
15443TIP3   OH267743   2.473   0.995   1.700  0.7305  0.2792 -0.0652
15443TIP3    H167744   2.545   0.962   1.647  1.3518  0.4105  0.6695
15443TIP3    H267745   2.459   1.084   1.667  0.4534  0.0223 -0.6531
15444TIP3   OH267746   4.610   5.625   1.969  0.4879  0.1248  0.5400
15444TIP3    H167747   4.693   5.606   1.926 -0.3361  0.4640 -1.3030
15444TIP3    H267748   4.569   5.540   1.983  0.7663  0.0148  0.6996
15445TIP3   OH267749   0.631   1.092   1.300  0.6476  0.1633  0.1024
15445TIP3    H167750   0.573   1.038   1.247  0.6045  0.1545  0.1584
15445TIP3    H267751   0.596   1.085   1.389  1.1396 -0.4096  0.2611
15446TIP3   OH267752   0.246   6.574  14.696 -0.9655 -0.3366 -0.1048
15446TIP3    H167753   0.301   6.594  14.771 -0.0322  2.2722 -1.3729
15446TIP3    H267754   0.309   6.558  14.624 -1.8027  1.3711 -1.2672
15447TIP3   OH267755   5.979   2.544  15.681 -0.1631  0.7590  0.3522
15447TIP3    H167756   5.965   2.470  15.622  2.6020 -0.0938  0.6513
15447TIP3    H267757   6.020   2.506  15.759  0.1797  2.4329  1.0333
15448TIP3   OH267758   5.606   4.992   4.687 -0.2643  0.0509 -0.4181
15448TIP3    H167759   5.685   4.963   4.642  0.4811 -0.0645  0.8938
15448TIP3    H267760   5.638   5.052   4.754 -1.0828 -1.2108  1.1802
15449TIP3   OH267761   2.910   3.681  15.630 -0.1535  0.2458 -0.0249
15449TIP3    H167762   2.977   3.626  15.671 -0.0331  0.3246 -0.1158
15449TIP3    H267763   2.958   3.735  15.568 -0.1279  1.1351  0.7474
15450TIP3   OH267764   1.473   3.369  12.500 -0.3427  0.1150 -0.0987
15450TIP3    H167765   1.448   3.458  12.524  0.4475  0.7107 -1.3776
15450TIP3    H267766   1.431   3.354  12.414  1.1905  0.0432 -0.8676
15451TIP3   OH267767   5.243   3.367  15.262  0.0199  0.4150 -0.1853
15451TIP3    H167768   5.322   3.354  15.209  0.0290  0.7331 -0.2503
15451TIP3    H267769   5.209   3.279  15.276 -0.2026  0.3523 -1.0457
15452TIP3   OH267770   3.450   5.677   4.883 -0.1163 -0.2620 -0.0117
15452TIP3    H167771   3.461   5.625   4.804  0.6171  1.6007 -1.2103
15452TIP3    H267772   3.362   5.715   4.874 -0.3706 -0.7139  0.5098
15453TIP3   OH267773   0.109   5.297  12.811 -0.2311  1.1912 -0.1771
15453TIP3    H167774   0.032   5.344  12.779  0.4221  2.5651  0.2093
15453TIP3    H267775   0.093   5.206  12.787 -1.7523  1.5267 -0.5307
15454TIP3   OH267776   1.141   5.533   2.917  0.0375 -0.1486  0.0038
15454TIP3    H167777   1.236   5.548   2.922  0.2196 -1.5461  1.6982
15454TIP3    H267778   1.132   5.438   2.922 -1.4476 -0.0920 -0.9909
15455TIP3   OH267779   4.584   3.875   5.678 -0.4521 -0.4219 -0.3082
15455TIP3    H167780   4.532   3.955   5.680  0.8907  0.5072 -0.7009
15455TIP3    H267781   4.588   3.852   5.585 -1.8227 -1.6616 -0.0970
15456TIP3   OH267782   3.301   1.402  11.864  0.0016 -0.3115  0.1213
15456TIP3    H167783   3.237   1.463  11.829 -0.5863 -0.4367  0.9510
15456TIP3    H267784   3.325   1.439  11.950 -0.2313 -1.1503  0.5538
15457TIP3   OH267785   0.740   2.848   3.298  0.5290 -0.3823  0.1561
15457TIP3    H167786   0.785   2.892   3.370 -0.1686  1.9991 -0.7560
15457TIP3    H267787   0.807   2.841   3.229  0.7027 -1.0199  0.3796
15458TIP3   OH267788   5.813   0.684   1.602 -0.0085 -0.5175 -0.2014
15458TIP3    H167789   5.861   0.766   1.612 -0.8224  0.0510 -0.8103
15458TIP3    H267790   5.750   0.684   1.674  0.7575 -1.1639  0.4766
15459TIP3   OH267791   3.141   1.691   2.284 -0.2748 -0.2820  0.4108
15459TIP3    H167792   3.223   1.712   2.239 -0.6106  0.8162  0.2688
15459TIP3    H267793   3.102   1.621   2.232  0.1892 -0.2474  0.0128
15460TIP3   OH267794   3.861   6.114  10.251  0.1883 -0.4733 -0.1719
15460TIP3    H167795   3.809   6.190  10.276  1.7399  0.6524 -0.2502
15460TIP3    H267796   3.820   6.082  10.171  0.2665  1.0818 -0.8659
15461TIP3   OH267797   3.205   3.499  11.963  0.0918 -0.0283  0.0585
15461TIP3    H167798   3.224   3.410  11.994 -0.1692 -1.0976 -2.5150
15461TIP3    H267799   3.110   3.501  11.955  0.2052 -0.3386 -1.8857
15462TIP3   OH267800   0.573   2.688  11.479  0.2709 -0.5922  0.0135
15462TIP3    H167801   0.514   2.645  11.541 -0.1381 -0.1855 -0.0888
15462TIP3    H267802   0.515   2.737  11.421  0.6721 -0.6924 -0.4796
15463TIP3   OH267803   0.712   2.779  13.520 -0.5257 -0.3887 -0.0831
15463TIP3    H167804   0.757   2.718  13.463 -1.5043 -0.8707 -0.3601
15463TIP3    H267805   0.737   2.752  13.609 -0.3265 -0.6870 -0.2296
15464TIP3   OH267806   4.103   1.078   5.031 -0.3019  0.0890  0.6734
15464TIP3    H167807   4.074   1.037   5.113 -2.0203  1.3774  0.7546
15464TIP3    H267808   4.132   1.165   5.056  0.8795 -0.1299  0.1376
15465TIP3   OH267809   1.248   4.711  14.702 -0.1265 -0.2099  0.0935
15465TIP3    H167810   1.322   4.767  14.680  0.5810 -0.3390  1.9148
15465TIP3    H267811   1.231   4.661  14.623  0.6432  1.0116 -0.8847
15466TIP3   OH267812   2.539   5.104   5.887 -0.2006 -0.3197 -0.0285
15466TIP3    H167813   2.477   5.138   5.952  1.0353  1.2755  0.3890
15466TIP3    H267814   2.498   5.123   5.803 -0.4882  0.3148  0.2485
15467TIP3   OH267815   4.444   4.120  14.367 -0.2538 -0.7206  0.2957
15467TIP3    H167816   4.363   4.130  14.317  0.9174 -1.3059 -1.8335
15467TIP3    H267817   4.500   4.191  14.337  1.0231 -1.9656 -0.4007
15468TIP3   OH267818   5.779   3.652  15.925  0.4707 -0.2484 -0.0838
15468TIP3    H167819   5.721   3.583  15.958  0.4048 -0.2353 -0.1737
15468TIP3    H267820   5.846   3.661  15.993 -0.0830  0.3004  0.3988
15469TIP3   OH267821   5.578   6.222  11.097  0.0634  0.3466  0.2965
15469TIP3    H167822   5.587   6.315  11.117 -0.2033  0.4175  0.0846
15469TIP3    H267823   5.555   6.219  11.004 -1.8922  0.1677  0.7428
15470TIP3   OH267824   2.700   3.555  12.638 -0.0517  0.6649 -0.2937
15470TIP3    H167825   2.659   3.620  12.695 -1.7540  0.6578 -1.4544
15470TIP3    H267826   2.628   3.502  12.606  1.1121 -0.6616 -0.8175
15471TIP3   OH267827   5.959   6.126   1.568  0.3569 -0.2795 -0.1805
15471TIP3    H167828   5.967   6.035   1.597 -1.8574 -1.1989 -2.1690
15471TIP3    H267829   5.873   6.154   1.600  0.9937  1.1548  0.3649
15472TIP3   OH267830   0.223   5.978   0.707  0.0760 -0.1615  0.2164
15472TIP3    H167831   0.236   5.955   0.615  0.7973 -2.0834  0.7462
15472TIP3    H267832   0.171   5.906   0.742 -1.3665  1.2258  1.0336
15473TIP3   OH267833   0.236   6.419   2.416 -0.3222  0.5929  0.6979
15473TIP3    H167834   0.152   6.414   2.462 -0.6213  0.4463  0.1515
15473TIP3    H267835   0.298   6.449   2.482 -0.9792  1.5758  0.9036
15474TIP3   OH267836   1.355   5.530   4.719 -0.2914  1.0760 -0.0435
15474TIP3    H167837   1.356   5.577   4.636  1.2631  0.2570 -0.5221
15474TIP3    H267838   1.442   5.544   4.757  0.0033 -0.8252  0.1034
15475TIP3   OH267839   3.523   3.817  15.588  0.2609 -0.1133  0.0487
15475TIP3    H167840   3.561   3.732  15.609 -1.9788 -0.7595  1.8027
15475TIP3    H267841   3.429   3.806  15.598 -0.2293  2.2411 -1.0286
15476TIP3   OH267842   1.681   5.467   5.588  0.0885  0.1143 -0.1978
15476TIP3    H167843   1.597   5.470   5.634  0.1152 -0.4445 -0.1117
15476TIP3    H267844   1.694   5.556   5.556 -0.4900  0.2264 -0.1234
15477TIP3   OH267845   4.134   6.078  13.325  0.0446 -0.1166  0.1401
15477TIP3    H167846   4.054   6.057  13.372 -0.1272  2.1327  0.9916
15477TIP3    H267847   4.114   6.158  13.278  0.9620 -1.0376 -1.9381
15478TIP3   OH267848   1.522   3.824  14.314  0.3864  0.5466  0.2172
15478TIP3    H167849   1.428   3.815  14.328  0.0917  0.0366 -1.7895
15478TIP3    H267850   1.560   3.745  14.354  0.1170  1.3184  2.0622
15479TIP3   OH267851   2.343   1.786  14.439  0.3876 -0.8573  0.1755
15479TIP3    H167852   2.251   1.761  14.431 -0.1907  1.1128  0.3011
15479TIP3    H267853   2.379   1.726  14.505 -1.2976 -0.4093  1.5523
15480TIP3   OH267854   4.984   5.408  17.171  1.1506  0.0028 -0.2189
15480TIP3    H167855   4.955   5.482  17.117  0.5740 -0.4763 -0.5902
15480TIP3    H267856   5.008   5.340  17.107 -0.1916 -0.8153  0.1101
15481TIP3   OH267857   2.514   4.641   0.944 -0.2343  0.2519 -0.0869
15481TIP3    H167858   2.423   4.634   0.915 -0.3727  1.1823  0.1108
15481TIP3    H267859   2.536   4.733   0.934  0.8851 -0.0609 -0.6963
15482TIP3   OH267860   3.073   3.861  11.083 -0.1887 -0.1990  0.5197
15482TIP3    H167861   3.148   3.882  11.028  0.5713  1.2652  2.0493
15482TIP3    H267862   3.002   3.916  11.050 -0.0795 -0.2268  0.2404
15483TIP3   OH267863   4.893   4.775  13.176 -0.2284 -0.5572 -0.9209
15483TIP3    H167864   4.975   4.792  13.131  1.0657 -1.2405  1.0185
15483TIP3    H267865   4.914   4.788  13.269 -2.6491  0.4812 -0.4295
15484TIP3   OH267866   6.522   3.583   5.408 -0.1350  0.0697  0.7933
15484TIP3    H167867   6.432   3.606   5.386  0.7056  3.1805  0.0597
15484TIP3    H267868   6.515   3.535   5.490 -2.5007 -0.6797  0.2306
15485TIP3   OH267869   0.260   4.114   1.455  0.1644  0.1118  0.0664
15485TIP3    H167870   0.167   4.091   1.450 -0.1874  1.6002 -1.2709
15485TIP3    H267871   0.290   4.108   1.364  0.6501  2.2892  0.0393
15486TIP3   OH267872   0.557   1.447   3.552 -0.2186 -0.0308  0.0195
15486TIP3    H167873   0.525   1.449   3.462  1.3303 -1.2099 -0.6078
15486TIP3    H267874   0.610   1.368   3.557  1.0253  0.8334  1.5081
15487TIP3   OH267875   5.079   1.602  12.026  0.4596  0.2693 -0.6871
15487TIP3    H167876   5.141   1.635  12.091  1.2282  0.2133 -1.3637
15487TIP3    H267877   5.127   1.609  11.943 -0.3330 -0.0789 -1.1811
15488TIP3   OH267878   0.828   6.093  15.256  0.0112 -0.3029  0.2096
15488TIP3    H167879   0.831   6.081  15.351  0.0340  1.1173  0.4125
15488TIP3    H267880   0.797   6.009  15.222  0.7465 -1.0856  1.4034
15489TIP3   OH267881   2.963   5.678  13.011 -0.1089  0.3496 -0.0935
15489TIP3    H167882   3.004   5.747  12.959  0.9106 -0.5703 -0.5427
15489TIP3    H267883   2.869   5.693  13.000  0.0962  0.9426 -1.1573
15490TIP3   OH267884   5.465   3.563   3.626 -0.5523  0.1025  0.0806
15490TIP3    H167885   5.505   3.515   3.554  0.6421 -1.5222  1.7274
15490TIP3    H267886   5.514   3.644   3.632 -0.2074 -0.0645 -0.4977
15491TIP3   OH267887   6.506   1.637  12.234  0.3139  0.2779  0.1802
15491TIP3    H167888   6.597   1.609  12.240  0.6842  1.2388 -0.7018
15491TIP3    H267889   6.457   1.556  12.217  1.2644  0.0094 -1.5066
15492TIP3   OH267890   1.812   5.201   4.167  0.4755 -0.3511 -0.4210
15492TIP3    H167891   1.896   5.155   4.167 -0.0826 -1.4018 -0.9003
15492TIP3    H267892   1.747   5.132   4.180 -0.3648  0.3494 -0.8092
15493TIP3   OH267893   4.862   0.292   1.877  0.5046  1.0440 -0.4323
15493TIP3    H167894   4.952   0.262   1.895  0.0351 -1.2135 -1.4963
15493TIP3    H267895   4.811   0.212   1.871 -2.1511  2.2926  2.4809
15494TIP3   OH267896   2.928   5.558   0.924 -0.4980  0.3663 -0.2734
15494TIP3    H167897   2.869   5.600   0.862 -1.8685 -0.2618  0.5773
15494TIP3    H267898   2.967   5.486   0.873 -1.1997  0.1842 -0.5654
15495TIP3   OH267899   1.784   2.017  15.966  0.1404  0.1677 -0.4001
15495TIP3    H167900   1.740   1.948  15.917  1.3763 -2.5209  1.9848
15495TIP3    H267901   1.713   2.065  16.009 -0.7388  0.3966 -2.0223
15496TIP3   OH267902   2.908   4.559  16.282 -0.0199  0.3258 -0.2394
15496TIP3    H167903   2.894   4.518  16.367 -1.5596 -0.3880 -0.7964
15496TIP3    H267904   2.998   4.592  16.285  0.5429 -1.2110  1.0227
15497TIP3   OH267905   3.237   6.074  13.143  0.0817  0.4792 -0.9198
15497TIP3    H167906   3.258   5.986  13.111  0.1796  0.9220 -2.1295
15497TIP3    H267907   3.204   6.120  13.066  0.5044  1.6613 -0.4129
15498TIP3   OH267908   6.459   5.196   5.651  0.2271  0.2293 -0.3725
15498TIP3    H167909   6.434   5.130   5.586 -3.8153 -0.6550  1.7669
15498TIP3    H267910   6.509   5.146   5.717 -0.4395 -0.1284 -0.1279
15499TIP3   OH267911   0.347   3.460   3.079  0.2724 -0.0761  0.4096
15499TIP3    H167912   0.285   3.509   3.134  0.6922  0.0186  0.8111
15499TIP3    H267913   0.321   3.369   3.089 -1.7148  0.1683 -1.8475
15500TIP3   OH267914   3.505   2.757  10.886  0.5551 -0.2047 -0.2245
15500TIP3    H167915   3.567   2.820  10.850 -0.9427  0.6885 -1.4029
15500TIP3    H267916   3.551   2.715  10.958  1.4693  2.5923  0.9357
15501TIP3   OH267917   4.410   2.202  11.718 -0.5012  0.2389  0.6933
15501TIP3    H167918   4.424   2.202  11.813 -0.8587  0.4794  0.7484
15501TIP3    H267919   4.475   2.141  11.684  0.6585  1.3090  0.9389
15502TIP3   OH267920   4.378   0.039   1.649 -0.6258  0.2821  0.2338
15502TIP3    H167921   4.402   0.100   1.718  0.0578 -0.3432  0.5664
15502TIP3    H267922   4.309  -0.016   1.688 -2.2381  1.6773 -0.5145
15503TIP3   OH267923   3.139   3.279  15.669  0.5207 -0.2309 -0.0727
15503TIP3    H167924   3.156   3.372  15.688  1.3381 -0.1617 -1.0710
15503TIP3    H267925   3.062   3.281  15.613  1.7875  0.0386 -1.8885
15504TIP3   OH267926   0.704   0.301  14.390  0.1451  0.1664 -1.1601
15504TIP3    H167927   0.715   0.316  14.484  0.3684 -0.4265 -1.0890
15504TIP3    H267928   0.655   0.378  14.360  0.2630  0.4699 -0.6029
15505TIP3   OH267929   5.426   0.940  13.837  0.1953  0.0088  0.3775
15505TIP3    H167930   5.357   0.879  13.814  1.3282 -0.9909 -0.5232
15505TIP3    H267931   5.462   0.969  13.753 -0.4466  2.1008  0.7880
15506TIP3   OH267932   1.112   4.610   2.183 -0.4562 -0.2189 -0.2867
15506TIP3    H167933   1.091   4.552   2.257 -1.5304 -0.6856 -0.9319
15506TIP3    H267934   1.032   4.660   2.169 -0.3869 -0.3758 -1.3388
15507TIP3   OH267935   4.700   6.696  12.146 -0.0108 -0.5837 -0.3895
15507TIP3    H167936   4.648   6.775  12.158  0.1566 -0.2635 -1.6544
15507TIP3    H267937   4.731   6.701  12.056  0.9056 -1.5572 -0.1462
15508TIP3   OH267938   1.883   1.154   2.023 -0.1025  0.2917 -0.3120
15508TIP3    H167939   1.883   1.237   1.975 -0.6223 -0.0093 -0.8445
15508TIP3    H267940   1.814   1.103   1.982  2.0937 -1.5619 -2.0060
15509TIP3   OH267941   3.612   2.679   0.234  1.1348  0.0418 -0.2651
15509TIP3    H167942   3.660   2.727   0.166  1.4373 -2.1490 -1.7270
15509TIP3    H267943   3.660   2.596   0.242 -1.0035 -1.2506 -0.0511
15510TIP3   OH267944   5.124   4.462  14.781  0.1900 -0.3657 -0.2267
15510TIP3    H167945   5.035   4.473  14.749  0.2744  1.4105  0.0852
15510TIP3    H267946   5.148   4.547  14.817  1.3184 -1.3518  1.4991
15511TIP3   OH267947   2.976   3.353   0.649  0.1579 -0.3603 -0.1035
15511TIP3    H167948   3.053   3.302   0.624 -0.2506 -0.0953 -2.0170
15511TIP3    H267949   2.996   3.384   0.737  1.2026 -2.2732  0.3917
15512TIP3   OH267950   5.641   6.718   0.229 -0.2522 -0.1456 -0.8390
15512TIP3    H167951   5.565   6.710   0.171 -1.1567  1.1057  0.1268
15512TIP3    H267952   5.687   6.635   0.219 -2.5379 -1.5756 -0.3332
15513TIP3   OH267953   1.735   6.526   2.777 -0.3316 -0.0607  0.4235
15513TIP3    H167954   1.757   6.533   2.870 -0.7222 -1.5406  0.6555
15513TIP3    H267955   1.748   6.433   2.757 -0.8445  0.1283 -0.8468
15514TIP3   OH267956   4.661   0.276   3.293  0.1040  0.3593 -0.4246
15514TIP3    H167957   4.612   0.216   3.350  0.9030  0.4130  0.3329
15514TIP3    H267958   4.642   0.363   3.328 -0.0363  0.4613 -0.7436
15515TIP3   OH267959   4.269   1.820   1.817  0.4824 -0.1408 -0.1741
15515TIP3    H167960   4.267   1.897   1.874 -0.8294 -0.2711 -0.0146
15515TIP3    H267961   4.308   1.752   1.871 -0.3905 -0.1590  0.4591
15516TIP3   OH267962   2.509   1.065  14.774 -0.6631 -0.2974 -0.0705
15516TIP3    H167963   2.549   1.151  14.790  1.7018 -1.4440  0.6744
15516TIP3    H267964   2.534   1.012  14.850 -0.7628 -2.0814 -1.2148
15517TIP3   OH267965   4.671   6.243  12.844  0.6344 -0.6257  0.2363
15517TIP3    H167966   4.584   6.228  12.881  1.1430  0.3760  1.9761
15517TIP3    H267967   4.729   6.252  12.920  1.8756  0.8880 -0.7932
15518TIP3   OH267968   5.354   1.234   3.166  0.6768  0.1128 -0.1056
15518TIP3    H167969   5.265   1.264   3.186  0.5694  0.1478 -0.6283
15518TIP3    H267970   5.368   1.159   3.225  1.0348  1.3073  1.3725
15519TIP3   OH267971   0.504   0.777  14.516 -0.2084 -0.5812 -0.2747
15519TIP3    H167972   0.442   0.754  14.586  2.7292 -1.2112  2.3392
15519TIP3    H267973   0.506   0.873  14.517 -0.8190 -0.5635 -0.0929
15520TIP3   OH267974   6.757   2.296  11.265 -0.0351 -0.0327  0.0919
15520TIP3    H167975   6.754   2.292  11.170  0.4584  1.0024  0.0243
15520TIP3    H267976   6.808   2.220  11.291  0.1790 -0.0877 -0.4928
15521TIP3   OH267977   2.855   3.677  14.168  0.7363  0.0990  0.1135
15521TIP3    H167978   2.933   3.729  14.151  0.0118  0.6431 -1.8902
15521TIP3    H267979   2.821   3.711  14.251  1.2845  1.5816 -0.2333
15522TIP3   OH267980   0.982   5.427   3.508 -0.5405 -0.4483  0.0047
15522TIP3    H167981   0.979   5.331   3.507 -1.4803 -0.4495 -1.9976
15522TIP3    H267982   1.037   5.448   3.583  0.5358 -2.5762 -0.0934
15523TIP3   OH267983   4.521   3.406  13.738  0.1888  0.6528 -0.5490
15523TIP3    H167984   4.528   3.429  13.830  1.1799 -0.5574 -0.3067
15523TIP3    H267985   4.506   3.490  13.694  0.0042  1.2822  0.6644
15524TIP3   OH267986   2.982   5.037  14.818  0.3767 -0.5657  0.5437
15524TIP3    H167987   3.010   5.030  14.726 -0.9505 -1.0182  0.1542
15524TIP3    H267988   3.062   5.057  14.866  1.7339 -3.4278 -0.2862
15525TIP3   OH267989   3.762   3.582  14.883 -0.0173 -0.1806 -0.4373
15525TIP3    H167990   3.686   3.559  14.829  0.5323 -0.9271 -0.9210
15525TIP3    H267991   3.812   3.643  14.829 -0.7768  1.1160  0.2942
15526TIP3   OH267992   5.156   5.222   5.586  0.7923 -0.2260 -0.4297
15526TIP3    H167993   5.114   5.161   5.526  0.2458 -0.4613  0.1757
15526TIP3    H267994   5.181   5.296   5.532 -1.0148  0.2234 -0.7247
15527TIP3   OH267995   6.523   0.142   3.829 -0.2602  0.4214 -0.1652
15527TIP3    H167996   6.565   0.228   3.830  1.9092 -0.5484  2.1894
15527TIP3    H267997   6.581   0.087   3.776 -0.7903  0.0292 -0.3532
15528TIP3   OH267998   6.337   1.332  12.455 -0.0896 -0.3332  0.0732
15528TIP3    H167999   6.359   1.335  12.362  0.9497  0.0703  0.3270
15528TIP3    H268000   6.412   1.372  12.499  0.1778 -1.9854  1.2022
15529TIP3   OH268001   3.993   2.983  11.338  0.2915  0.7855 -0.0362
15529TIP3    H168002   3.967   2.985  11.246  0.6256 -1.1394 -0.2140
15529TIP3    H268003   4.088   2.995  11.336  0.4240 -0.1982 -0.0358
15530TIP3   OH268004   0.495   0.010  16.513  0.3486  0.0599 -0.2106
15530TIP3    H168005   0.421   0.014  16.573 -0.9243 -1.0347 -1.6305
15530TIP3    H268006   0.557   0.074  16.547 -0.9755  0.5648  1.3754
15531TIP3   OH268007   5.373   1.378  11.580  0.6953  0.0356  0.3426
15531TIP3    H168008   5.281   1.360  11.603  0.1603  0.7676 -1.0846
15531TIP3    H268009   5.400   1.446  11.642 -0.1150  0.6638  0.0236
15532TIP3   OH268010   2.842   1.586   6.397 -0.4860 -0.0738  0.3911
15532TIP3    H168011   2.887   1.602   6.315 -0.9025  1.1805  0.3892
15532TIP3    H268012   2.911   1.588   6.463 -0.1038 -1.4167  0.0585
15533TIP3   OH268013   2.300   4.770   1.912 -0.7965  0.1871  0.6549
15533TIP3    H168014   2.275   4.851   1.956  0.5864  0.8464  0.2831
15533TIP3    H268015   2.335   4.799   1.828  0.6376 -0.7052  0.9157
15534TIP3   OH268016   4.930   6.795  11.199  0.2126 -0.5918  0.1466
15534TIP3    H168017   4.874   6.744  11.141  0.7805 -0.0450 -0.9152
15534TIP3    H268018   4.905   6.769  11.288 -1.2095 -0.8742 -0.3292
15535TIP3   OH268019   0.107   5.420   3.806 -0.0205  0.3505 -0.3537
15535TIP3    H168020   0.187   5.471   3.823 -0.3414  0.9144 -0.5361
15535TIP3    H268021   0.095   5.426   3.711 -0.1299  0.0356 -0.3588
15536TIP3   OH268022   4.746   2.149  13.730 -0.0993  0.1269  0.0944
15536TIP3    H168023   4.787   2.062  13.732  0.4126  0.3241 -0.9829
15536TIP3    H268024   4.665   2.139  13.779  0.0779 -0.8944  0.1993
15537TIP3   OH268025   3.201   3.660  10.698  0.0673 -0.5807 -0.5149
15537TIP3    H168026   3.245   3.597  10.641 -1.3914 -1.5955 -0.5852
15537TIP3    H268027   3.115   3.673  10.657 -1.1414 -1.5769  1.5487
15538TIP3   OH268028   5.418   3.963  16.500 -0.1038  0.1865  0.3495
15538TIP3    H168029   5.483   3.966  16.570  0.4790 -1.2863 -0.0940
15538TIP3    H268030   5.468   3.977  16.420 -0.1037 -1.9557 -0.0903
15539TIP3   OH268031   5.580   3.973  13.900  0.5162 -0.5728 -0.2976
15539TIP3    H168032   5.626   3.922  13.967  0.8705 -0.9321 -0.7978
15539TIP3    H268033   5.562   3.910  13.830  0.2842 -0.1764 -0.6030
15540TIP3   OH268034   5.808   4.801  14.061  0.3489  0.1168  0.4212
15540TIP3    H168035   5.755   4.881  14.050 -1.0764 -0.7808  0.4870
15540TIP3    H268036   5.759   4.734  14.014  1.1819 -0.8804  0.9449
15541TIP3   OH268037   1.952   6.312   2.027  0.1835 -0.2701 -0.1952
15541TIP3    H168038   1.893   6.341   1.958 -0.7860 -1.0179  0.2945
15541TIP3    H268039   1.959   6.217   2.015 -0.8628 -0.5874  1.3394
15542TIP3   OH268040   3.321   3.789  13.265  0.0638 -0.1913 -0.5039
15542TIP3    H168041   3.276   3.743  13.195 -2.3109  0.2540  0.6452
15542TIP3    H268042   3.291   3.880  13.258 -0.6052 -0.2314  1.3397
15543TIP3   OH268043   2.566   5.132   3.557 -0.1450 -0.0148 -0.1868
15543TIP3    H168044   2.552   5.038   3.569  1.3838 -0.2444  0.0123
15543TIP3    H268045   2.600   5.140   3.468 -0.2712  0.3420 -0.2036
15544TIP3   OH268046   5.989   6.018   1.976  0.1007  0.4258  0.2844
15544TIP3    H168047   6.028   6.100   1.946  0.5840 -0.4397 -1.5640
15544TIP3    H268048   6.049   5.985   2.043 -0.6973  2.1022  1.9304
15545TIP3   OH268049   4.401   3.981   3.699 -0.1962  0.1246 -0.0007
15545TIP3    H168050   4.456   4.059   3.697  0.2125 -0.1023  1.3442
15545TIP3    H268051   4.339   3.993   3.627  2.3936 -0.2291 -2.4661
15546TIP3   OH268052   5.397   0.393   1.506 -0.5782  0.8869 -0.1084
15546TIP3    H168053   5.404   0.379   1.411  1.5301  0.2834  0.0834
15546TIP3    H268054   5.466   0.339   1.543 -0.8764  1.7050  1.7276
15547TIP3   OH268055   5.711   0.094  14.458 -0.2327  0.0948  0.8971
15547TIP3    H168056   5.623   0.062  14.437 -0.1900  1.4555 -1.7581
15547TIP3    H268057   5.760   0.015  14.480 -1.7811 -0.8346  1.1794
15548TIP3   OH268058   2.165   2.279  11.414 -0.5873 -0.5387 -0.0547
15548TIP3    H168059   2.177   2.221  11.339 -0.9037  0.5501 -0.9835
15548TIP3    H268060   2.077   2.314  11.402  0.8422  2.9586 -1.6384
15549TIP3   OH268061   1.959   5.821   5.573 -0.5414  0.3187  0.6692
15549TIP3    H168062   2.038   5.784   5.534 -1.1070 -1.2644  0.9375
15549TIP3    H268063   1.888   5.793   5.515 -1.0910  0.1982  1.3822
15550TIP3   OH268064   2.668   1.819  16.192 -0.2378 -0.1090 -0.0714
15550TIP3    H168065   2.617   1.804  16.272 -0.3822 -0.5173 -0.2366
15550TIP3    H268066   2.678   1.732  16.153  1.4807 -0.2006  0.4831
15551TIP3   OH268067   1.702   0.365  16.541  0.2492 -0.1805  0.1278
15551TIP3    H168068   1.685   0.454  16.573  0.3538 -0.3020  0.5253
15551TIP3    H268069   1.684   0.309  16.617 -2.5144 -0.7610 -0.8518
15552TIP3   OH268070   1.023   1.647   1.184  0.3106 -0.3114 -0.3500
15552TIP3    H168071   0.989   1.636   1.095  1.8136 -1.6325 -0.8034
15552TIP3    H268072   0.944   1.658   1.238 -0.5911  1.5518 -1.9218
15553TIP3   OH268073   0.158   4.303  16.643 -0.4483 -0.1629 -0.1189
15553TIP3    H168074   0.066   4.277  16.648 -0.4801 -0.2567 -0.9448
15553TIP3    H268075   0.206   4.222  16.662 -0.5497 -0.6122 -1.6110
15554TIP3   OH268076   0.885   2.241   2.221 -0.6713  0.5953  0.5805
15554TIP3    H168077   0.887   2.330   2.254  2.0785  0.9817 -0.3581
15554TIP3    H268078   0.977   2.215   2.216 -1.2785 -1.5281 -1.1940
15555TIP3   OH268079   2.644   1.856  15.331  0.0821 -0.1339 -0.4514
15555TIP3    H168080   2.651   1.778  15.276  4.4069  0.8133 -1.6688
15555TIP3    H268081   2.638   1.822  15.420  0.0016 -1.8261 -1.0651
15556TIP3   OH268082   3.400   5.253  14.021  0.3700 -0.5303  0.6767
15556TIP3    H168083   3.308   5.273  14.007  0.5831 -0.1946 -0.3386
15556TIP3    H268084   3.406   5.231  14.114 -1.0049 -2.0646  0.4522
15557TIP3   OH268085   4.283   0.772   0.318 -0.4794  0.1700  0.7832
15557TIP3    H168086   4.322   0.734   0.397 -0.8896  1.8828  1.8861
15557TIP3    H268087   4.316   0.862   0.317 -3.4282  1.3995  1.1937
15558TIP3   OH268088   1.924   6.189  14.823  0.4590 -0.5644  0.0910
15558TIP3    H168089   1.894   6.139  14.748 -1.6540 -1.3755  1.3764
15558TIP3    H268090   1.876   6.152  14.898  0.7428  1.6741  1.4886
15559TIP3   OH268091   0.778   6.576  13.949  0.0778 -0.6234 -0.4250
15559TIP3    H168092   0.869   6.586  13.977 -0.4199  1.0795  0.7761
15559TIP3    H268093   0.728   6.622  14.017 -1.7583 -2.2901 -0.5712
15560TIP3   OH268094   4.728   2.498   1.266 -0.3879  0.2557 -0.0503
15560TIP3    H168095   4.711   2.450   1.347 -0.8168 -0.3027 -0.4653
15560TIP3    H268096   4.687   2.445   1.198  0.1846  0.5909 -0.6679
15561TIP3   OH268097   6.180   3.754  13.381 -0.0572 -0.3488  0.5262
15561TIP3    H168098   6.176   3.694  13.307 -0.9843  1.6585 -1.1307
15561TIP3    H268099   6.263   3.800  13.371 -0.7356  0.7814  0.0257
15562TIP3   OH268100   0.828   5.511   0.397  0.3634 -0.0737 -0.1495
15562TIP3    H168101   0.812   5.464   0.315 -1.2544  1.3201 -0.6987
15562TIP3    H268102   0.748   5.562   0.411  1.5075  1.4545  1.1168
15563TIP3   OH268103   5.589   3.440   3.430  0.7345  0.6985 -0.3191
15563TIP3    H168104   5.562   3.384   3.357  0.6523  0.7608 -0.3369
15563TIP3    H268105   5.632   3.514   3.388  0.7070  0.7235 -0.3033
15564TIP3   OH268106   5.837   2.773  16.725 -0.1751 -0.0989 -0.0219
15564TIP3    H168107   5.911   2.785  16.665 -0.5918  1.1433 -0.3186
15564TIP3    H268108   5.812   2.681  16.714 -0.5163  0.1849 -2.1131
15565TIP3   OH268109   1.756   4.860   1.098 -0.0667 -0.1294 -0.3878
15565TIP3    H168110   1.764   4.843   1.192 -1.5843  1.6096  0.1195
15565TIP3    H268111   1.710   4.783   1.063  0.2913 -0.6786  0.3293
15566TIP3   OH268112   4.304   5.155   5.659 -0.1176  0.0805 -0.2284
15566TIP3    H168113   4.293   5.250   5.662  0.5537  0.1629  2.2982
15566TIP3    H268114   4.390   5.143   5.619  0.2861  0.6215  0.4438
15567TIP3   OH268115   1.001   5.114   1.637  0.1725  0.3868  0.1160
15567TIP3    H168116   0.990   5.187   1.699  0.8930 -1.2887  2.3901
15567TIP3    H268117   1.078   5.067   1.670 -0.1060 -1.2550 -1.4250
15568TIP3   OH268118   3.113   5.502  13.491 -0.1745 -0.5006  0.0720
15568TIP3    H168119   3.043   5.516  13.555 -1.9213 -0.2410 -1.7775
15568TIP3    H268120   3.067   5.474  13.411  1.7342  0.6960 -1.5422
15569TIP3   OH268121   2.345   5.963  14.277 -0.4643  0.3770 -0.4907
15569TIP3    H168122   2.280   6.001  14.336 -3.9150 -1.2758 -2.8362
15569TIP3    H268123   2.345   5.869  14.298 -0.0194  0.1164 -1.5847
15570TIP3   OH268124   2.872   4.697   4.432 -0.5298  0.0312  0.3088
15570TIP3    H168125   2.919   4.645   4.366 -0.4113 -2.1838  2.0135
15570TIP3    H268126   2.917   4.782   4.432  0.9093 -0.6773 -0.8606
15571TIP3   OH268127   4.439   6.540  17.165  0.0034 -0.8228 -0.8110
15571TIP3    H168128   4.420   6.451  17.137  1.2715 -1.1722 -0.6160
15571TIP3    H268129   4.532   6.552  17.147  0.1934 -0.0554  0.5573
15572TIP3   OH268130   1.341   4.260   6.009  0.4343  0.3624 -0.3016
15572TIP3    H168131   1.299   4.186   5.964  0.7687 -1.2717  1.9420
15572TIP3    H268132   1.424   4.225   6.040 -0.2117  1.0417  2.4597
15573TIP3   OH268133   6.017   3.578  16.671  0.0649 -0.0065  0.2918
15573TIP3    H168134   5.994   3.565  16.579 -3.0655  0.2216  0.9401
15573TIP3    H268135   5.943   3.542  16.720  0.4062  2.2126  2.6511
15574TIP3   OH268136   0.954   3.140  10.922 -0.0815  0.7026 -0.1562
15574TIP3    H168137   1.029   3.129  10.981  1.2059  0.4161 -1.7881
15574TIP3    H268138   0.946   3.056  10.878 -1.7900  0.5255  0.4126
15575TIP3   OH268139   3.571   5.647  13.408 -0.7493  0.4844  0.2426
15575TIP3    H168140   3.506   5.578  13.423 -0.0281 -0.2269  0.1517
15575TIP3    H268141   3.557   5.675  13.318 -1.1189  0.5451  0.3166
15576TIP3   OH268142   0.832   6.611   2.723  0.3210  0.6454 -0.0715
15576TIP3    H168143   0.802   6.700   2.709 -3.0158 -0.6811 -2.7143
15576TIP3    H268144   0.879   6.588   2.643  0.4649 -0.2434  0.2505
15577TIP3   OH268145   5.020   5.946   1.072  0.2892  0.3047  0.1549
15577TIP3    H168146   4.940   5.930   1.021  1.7013 -2.1140 -1.5401
15577TIP3    H268147   5.001   5.910   1.158 -0.6586  0.3358 -0.0251
15578TIP3   OH268148   2.794   3.565   4.275  0.4462 -0.1670 -0.4618
15578TIP3    H168149   2.807   3.472   4.290  0.9091 -0.1323 -0.6290
15578TIP3    H268150   2.699   3.576   4.273  0.2526 -0.0421  3.2381
15579TIP3   OH268151   2.872   1.484  11.620 -0.2036  0.0197  0.4974
15579TIP3    H168152   2.780   1.501  11.642  0.5206  1.7822  2.4838
15579TIP3    H268153   2.887   1.395  11.651 -0.4741  0.8194  3.2006
15580TIP3   OH268154   2.518   4.938  10.983 -0.2410  0.0798  0.1204
15580TIP3    H168155   2.528   5.017  11.035  1.2531 -0.0211  0.0421
15580TIP3    H268156   2.600   4.931  10.934 -1.7637  0.4896 -2.7118
15581TIP3   OH268157   1.123   0.377   2.344 -0.1593  0.6734  0.2217
15581TIP3    H168158   1.112   0.387   2.439  0.5541  0.8022  0.2902
15581TIP3    H268159   1.192   0.439   2.321 -1.2662  1.6615 -0.6091
15582TIP3   OH268160   4.454   5.025   1.902 -0.0889  0.0165 -0.3715
15582TIP3    H168161   4.495   5.107   1.931  0.0593 -0.3422  0.4624
15582TIP3    H268162   4.430   4.980   1.983 -2.6517  0.4429 -0.7784
15583TIP3   OH268163   2.997   0.187  13.200  0.4201 -0.0130 -0.6620
15583TIP3    H168164   3.042   0.139  13.131  0.5362  0.4883 -0.9339
15583TIP3    H268165   3.066   0.207  13.264  0.3856 -0.1380 -0.5840
15584TIP3   OH268166   6.745   6.516   0.498  0.4517  0.2226 -0.3578
15584TIP3    H168167   6.686   6.537   0.571  0.1885  0.6949 -0.6964
15584TIP3    H268168   6.686   6.494   0.426  0.7146 -0.4875 -0.3613
15585TIP3   OH268169   4.685   5.110  12.982  0.2592 -0.6524 -0.4245
15585TIP3    H168170   4.713   5.029  12.940 -0.2437 -1.7610  1.2820
15585TIP3    H268171   4.755   5.131  13.044  0.4586  0.3168 -0.9604
15586TIP3   OH268172   5.157   2.335  16.574 -0.0752 -0.3189  0.0983
15586TIP3    H168173   5.166   2.251  16.530  0.2999 -1.1413  1.6850
15586TIP3    H268174   5.072   2.331  16.616  1.1083 -1.1419  2.5870
15587TIP3   OH268175   5.820   0.305  10.969 -0.0430 -0.5274  0.1226
15587TIP3    H168176   5.816   0.371  11.038 -1.2867 -0.7914  0.3349
15587TIP3    H268177   5.891   0.333  10.912 -0.3343  0.8140  0.3934
15588TIP3   OH268178   2.623   1.149  16.948 -0.0367 -0.1773  0.1782
15588TIP3    H168179   2.586   1.160  17.036 -0.1594 -2.4591  0.4731
15588TIP3    H268180   2.667   1.232  16.930 -0.0339  0.3569  2.3910
15589TIP3   OH268181   6.164   3.219  15.990 -0.4567  0.2902 -0.6516
15589TIP3    H168182   6.162   3.257  16.078  0.9605 -1.5619  0.2471
15589TIP3    H268183   6.073   3.223  15.960 -1.4233 -0.9981  1.8282
15590TIP3   OH268184   1.939   5.122  13.097  0.0307  0.2289  0.0395
15590TIP3    H168185   1.871   5.189  13.098  0.4940  0.7321  1.5377
15590TIP3    H268186   2.006   5.155  13.037  0.8346  1.7767  1.6851
15591TIP3   OH268187   0.819   4.091   5.376  0.2332  0.3175  0.4267
15591TIP3    H168188   0.839   4.092   5.283  1.5112  1.0906  0.6901
15591TIP3    H268189   0.889   4.040   5.416 -0.8594 -0.8848  0.8695
15592TIP3   OH268190   0.888   0.935  16.209  0.0185 -0.2670  0.7131
15592TIP3    H168191   0.953   0.866  16.221 -1.3953 -1.5055  1.6394
15592TIP3    H268192   0.805   0.888  16.196 -0.7917  1.2545  0.0456
15593TIP3   OH268193   0.261   4.505   0.551 -0.3788 -0.3368  0.1519
15593TIP3    H168194   0.270   4.443   0.479 -3.3511  0.0485 -0.6777
15593TIP3    H268195   0.167   4.510   0.567 -0.0123  1.6480  2.2751
15594TIP3   OH268196   2.043   3.663   0.631  0.2150 -0.1726  0.4465
15594TIP3    H168197   2.048   3.693   0.540 -1.0346 -0.2539  0.3348
15594TIP3    H268198   1.992   3.731   0.676  1.7091  0.4058  1.3418
15595TIP3   OH268199   3.148   1.763  16.570  0.0489  0.5386 -0.1471
15595TIP3    H168200   3.191   1.764  16.484 -0.4188  1.8144 -0.3907
15595TIP3    H268201   3.218   1.746  16.632  0.5539  0.5454 -0.7096
15596TIP3   OH268202   1.929   4.392  15.457  0.5953  0.4700 -0.0361
15596TIP3    H168203   2.009   4.442  15.442 -0.0503  2.1298  1.6664
15596TIP3    H268204   1.860   4.458  15.464 -0.3937 -0.6724  1.7394
15597TIP3   OH268205   3.512   3.816   5.407  0.6485 -0.2969 -0.3939
15597TIP3    H168206   3.544   3.897   5.447 -0.5544  0.0421 -0.0689
15597TIP3    H268207   3.475   3.766   5.480  1.6579 -1.2994 -0.5442
15598TIP3   OH268208   0.139   5.510  16.313 -0.2778 -0.4524  0.6021
15598TIP3    H168209   0.213   5.569  16.302 -0.0678 -0.6089  1.1460
15598TIP3    H268210   0.162   5.432  16.262  0.2053 -0.7436  1.2559
15599TIP3   OH268211   2.191   3.397  10.815  0.1106 -0.9125  0.4879
15599TIP3    H168212   2.157   3.316  10.853 -0.3603 -0.8524  0.2018
15599TIP3    H268213   2.206   3.455  10.890 -0.1102 -1.0548  0.6426
15600TIP3   OH268214   5.319   4.261   6.569  0.1369  0.0099 -0.2566
15600TIP3    H168215   5.309   4.298   6.482  0.1698 -1.5472 -0.9602
15600TIP3    H268216   5.383   4.318   6.612 -0.0337  0.9164 -1.1732
15601TIP3   OH268217   3.749   3.608  13.400  0.0681  0.1574 -0.0200
15601TIP3    H168218   3.761   3.687  13.452  1.1708  0.5420 -0.8358
15601TIP3    H268219   3.709   3.637  13.318  0.8656 -0.0637 -0.4954
15602TIP3   OH268220   5.641   1.387   6.037 -0.0841 -0.2496  0.4494
15602TIP3    H168221   5.568   1.446   6.016 -0.3810  0.1341  2.3321
15602TIP3    H268222   5.710   1.413   5.976 -0.1138  2.2965  1.3508
15603TIP3   OH268223   2.677   3.122  16.405  0.1287  0.2369  0.6993
15603TIP3    H168224   2.767   3.099  16.381 -0.4069 -0.0084 -1.2174
15603TIP3    H268225   2.678   3.216  16.420  0.0578  0.9123 -2.8469
15604TIP3   OH268226   4.540   4.591  12.579  0.3439  0.0976  0.4503
15604TIP3    H168227   4.578   4.523  12.635  1.2255 -0.0644 -0.3070
15604TIP3    H268228   4.459   4.552  12.546  0.5725 -0.3878  0.4483
15605TIP3   OH268229   1.496   1.941   0.965  0.5519 -0.6682 -0.2894
15605TIP3    H168230   1.537   2.026   0.947  0.4016 -0.7539 -1.0517
15605TIP3    H268231   1.450   1.955   1.048 -1.2616  0.6650 -1.4435
15606TIP3   OH268232   4.841   6.614   3.805  0.3776  0.6946 -0.6639
15606TIP3    H168233   4.904   6.646   3.870 -0.6176  0.6029  0.3726
15606TIP3    H268234   4.758   6.653   3.831  0.1162  1.3916 -2.4422
15607TIP3   OH268235   0.479   2.959   2.921 -0.3216  0.0601  0.3608
15607TIP3    H168236   0.479   3.009   2.839 -0.7625 -0.9629 -0.2771
15607TIP3    H268237   0.423   2.884   2.903 -2.5418  1.1071  2.4128
15608TIP3   OH268238   1.726   3.002  16.307 -0.2151 -0.0059  0.1088
15608TIP3    H168239   1.772   2.937  16.361 -0.1850 -0.0410  0.0410
15608TIP3    H268240   1.707   3.074  16.367 -1.3877 -0.6206  0.5113
15609TIP3   OH268241   4.665   6.722  15.806  0.3345 -0.2679 -0.5217
15609TIP3    H168242   4.658   6.738  15.900 -0.2909  0.5871 -0.7107
15609TIP3    H268243   4.671   6.809  15.767  0.4274 -0.6130 -1.2875
15610TIP3   OH268244   4.375   4.225   1.993 -0.2031  0.0419  0.0172
15610TIP3    H168245   4.409   4.306   2.030  0.2288 -0.5269  0.8942
15610TIP3    H268246   4.410   4.222   1.904 -0.9962  1.2708 -0.3681
15611TIP3   OH268247   2.972   2.163  13.414 -0.1936  0.5565 -0.5467
15611TIP3    H168248   3.040   2.158  13.482 -0.3245  1.0473 -0.3776
15611TIP3    H268249   3.019   2.194  13.336 -0.0713  0.1338 -0.6407
15612TIP3   OH268250   0.714   6.509  15.108  0.3226 -0.2064  0.3030
15612TIP3    H168251   0.621   6.497  15.091  0.1023  1.9935 -0.4160
15612TIP3    H268252   0.718   6.565  15.185  1.1174 -1.2165  1.0306
15613TIP3   OH268253   2.809   5.756   3.124  0.5239 -0.9048 -0.1497
15613TIP3    H168254   2.714   5.768   3.124  0.5481 -0.6844  0.3176
15613TIP3    H268255   2.843   5.845   3.122  0.7243 -0.9895 -0.5829
15614TIP3   OH268256   6.413   2.305   1.647  0.5737  0.5094  0.5240
15614TIP3    H168257   6.469   2.244   1.600  0.7972 -0.2269  1.7084
15614TIP3    H268258   6.458   2.389   1.641  0.1386  0.6620 -1.3397
15615TIP3   OH268259   6.241   1.438  14.535 -0.8640 -0.0496 -0.1874
15615TIP3    H168260   6.303   1.418  14.605 -1.2909  1.6790  0.7594
15615TIP3    H268261   6.294   1.475  14.465 -0.4021 -1.9955 -0.9346
15616TIP3   OH268262   4.939   5.778   3.792  0.0292  0.0361  0.6448
15616TIP3    H168263   4.852   5.793   3.756 -0.8779 -1.9092  1.8353
15616TIP3    H268264   4.924   5.768   3.886  0.8532 -4.1853  0.5110
15617TIP3   OH268265   5.136   5.322   2.634 -0.2841  0.1487 -0.0443
15617TIP3    H168266   5.214   5.274   2.605 -1.6148 -1.5651 -1.0012
15617TIP3    H268267   5.071   5.254   2.651 -0.6348  1.2266  4.0886
15618TIP3   OH268268   3.151   2.504   2.918  0.3561 -0.7234 -0.1868
15618TIP3    H168269   3.170   2.410   2.921  0.2864 -0.7094  1.3000
15618TIP3    H268270   3.063   2.512   2.953 -1.1223 -0.4051 -3.6042
15619TIP3   OH268271   1.716   5.010  16.143  0.2710 -0.5904  0.4719
15619TIP3    H168272   1.713   4.983  16.234  0.2567  1.0943  1.0081
15619TIP3    H268273   1.802   5.049  16.132 -1.1147  3.0794  1.0376
15620TIP3   OH268274   3.509   3.447   0.664 -0.3258  0.0519  0.2335
15620TIP3    H168275   3.543   3.362   0.636 -0.3851  0.1537 -0.1405
15620TIP3    H268276   3.576   3.510   0.640 -1.1898  0.3931 -1.4593
15621TIP3   OH268277   1.878   5.347   6.000  0.1892 -0.8533 -0.1490
15621TIP3    H168278   1.820   5.401   6.055  0.7209  0.6738 -1.0258
15621TIP3    H268279   1.820   5.314   5.930 -0.4257 -2.5700  1.0932
15622TIP3   OH268280   1.125   0.777  15.766  0.0190 -0.3052 -0.3041
15622TIP3    H168281   1.134   0.682  15.765  0.3719 -0.2790  0.3214
15622TIP3    H268282   1.041   0.793  15.809  0.5659 -0.2978  0.7885
15623TIP3   OH268283   3.082   3.380   5.215 -0.1914 -0.1587  0.0527
15623TIP3    H168284   3.108   3.408   5.303 -2.9550  2.0793  0.2811
15623TIP3    H268285   3.157   3.402   5.160  0.8681  0.1203  1.5467
15624TIP3   OH268286   0.968   0.413   0.146  0.3799  0.5075 -0.0716
15624TIP3    H168287   0.880   0.406   0.181  0.4662 -1.1185 -0.0957
15624TIP3    H268288   1.010   0.481   0.200 -0.5776  0.5989  0.5819
15625TIP3   OH268289   1.458   3.357  14.539  0.9181  0.1335  0.6067
15625TIP3    H168290   1.468   3.398  14.453 -0.6622  0.6716  0.6434
15625TIP3    H268291   1.522   3.403  14.595  1.8390 -0.1109 -0.2259
15626TIP3   OH268292   5.126   1.511   3.886 -0.2056  0.4903  0.3797
15626TIP3    H168293   5.148   1.536   3.976 -0.2996  2.4797 -0.1033
15626TIP3    H268294   5.207   1.526   3.837 -0.7338  1.4812 -0.2240
15627TIP3   OH268295   0.273   0.504   6.036 -0.0091 -0.5936  0.1152
15627TIP3    H168296   0.216   0.554   6.094  0.0070 -1.0194  0.5018
15627TIP3    H268297   0.360   0.514   6.073  0.4817  1.4430 -1.4034
15628TIP3   OH268298   2.889   2.809   5.529 -0.1376  0.7099 -0.9045
15628TIP3    H168299   2.984   2.816   5.535 -0.0480 -0.8599 -0.1048
15628TIP3    H268300   2.870   2.815   5.435  0.7816  0.6121 -1.1053
15629TIP3   OH268301   2.881   6.220  14.672 -0.4072 -0.2229  0.1165
15629TIP3    H168302   2.817   6.150  14.680 -1.1154  0.6138  2.6790
15629TIP3    H268303   2.837   6.298  14.706  2.1321  0.2157  2.8845
15630TIP3   OH268304   2.507   2.549   4.848 -0.3870 -0.1776 -0.1112
15630TIP3    H168305   2.464   2.634   4.836  0.8867  0.5620  0.4005
15630TIP3    H268306   2.600   2.567   4.835  0.0696 -1.1968  1.4432
15631TIP3   OH268307   6.699   3.532   0.974  0.8502 -0.0426 -0.1325
15631TIP3    H168308   6.620   3.546   1.025 -0.4831 -3.2307 -1.1249
15631TIP3    H268309   6.684   3.579   0.892 -0.9716 -2.2001 -1.1149
15632TIP3   OH268310   4.255   0.123  14.293  0.1421  0.0329 -0.1710
15632TIP3    H168311   4.203   0.176  14.354 -0.2373 -1.8300  1.1972
15632TIP3    H268312   4.344   0.126  14.330 -0.2256 -1.6811  0.9529
15633TIP3   OH268313   6.497   4.920   5.092 -0.3990  0.1372 -0.5910
15633TIP3    H168314   6.507   4.948   5.001  2.5464  0.0910 -0.3939
15633TIP3    H268315   6.565   4.969   5.139 -0.0327 -1.8710  1.0820
15634TIP3   OH268316   6.219   4.177   3.140 -0.1924  0.1018  0.0587
15634TIP3    H168317   6.252   4.097   3.100  0.0898 -1.0082  2.3692
15634TIP3    H268318   6.139   4.151   3.185 -0.1839  1.1371  0.7214
15635TIP3   OH268319   3.729   6.781  11.408  0.2840 -0.2752  0.0892
15635TIP3    H168320   3.698   6.785  11.318  1.3296 -0.8394 -0.3146
15635TIP3    H268321   3.664   6.727  11.453 -0.4702  0.3563 -0.2086
15636TIP3   OH268322   0.860   4.307  12.689  0.4621  0.4676  0.1446
15636TIP3    H168323   0.860   4.286  12.596  1.7003 -1.9038  0.5936
15636TIP3    H268324   0.905   4.391  12.695  1.2699  0.1728 -1.3313
15637TIP3   OH268325   6.173   1.756   3.878  0.3477 -0.4320  0.1266
15637TIP3    H168326   6.212   1.841   3.898 -0.0897  0.4693 -2.5029
15637TIP3    H268327   6.080   1.767   3.900  0.0627  0.2210 -1.2586
15638TIP3   OH268328   0.695   3.775   2.559  0.1642  0.9147 -0.6533
15638TIP3    H168329   0.707   3.687   2.523  0.9783  0.9306 -0.4478
15638TIP3    H268330   0.629   3.765   2.627  1.2572  0.1875  0.3248
15639TIP3   OH268331   6.582   4.692  10.365 -0.0113 -0.0798  0.0828
15639TIP3    H168332   6.510   4.631  10.380 -0.6221  0.3619 -0.8959
15639TIP3    H268333   6.643   4.643  10.308 -0.3995  0.1315 -0.5290
15640TIP3   OH268334   4.748   5.461   3.424 -0.3395 -0.3478 -0.3540
15640TIP3    H168335   4.769   5.376   3.462  2.0405  0.3087  0.0083
15640TIP3    H268336   4.827   5.484   3.374  0.0421  2.6056  1.3897
15641TIP3   OH268337   5.870   5.659   2.431  0.1888 -0.5224 -0.8224
15641TIP3    H168338   5.805   5.678   2.364 -0.1247 -0.5884 -0.5423
15641TIP3    H268339   5.822   5.610   2.497  0.8545 -1.8875 -1.3063
15642TIP3   OH268340   5.260   2.657   5.779  0.1344  0.3299 -0.2416
15642TIP3    H168341   5.350   2.661   5.812  0.8996 -0.8461 -1.9630
15642TIP3    H268342   5.240   2.747   5.752 -1.0585  1.7031  4.3192
15643TIP3   OH268343   4.607   5.881   0.472 -0.4560  0.4790  0.2791
15643TIP3    H168344   4.674   5.933   0.430 -0.4817 -0.7697 -1.4052
15643TIP3    H268345   4.579   5.818   0.405 -2.0865 -0.1497  1.4699
15644TIP3   OH268346   6.311   0.050   2.134 -0.5192  0.1758  0.6026
15644TIP3    H168347   6.353   0.105   2.200 -0.9448 -0.2649  1.2471
15644TIP3    H268348   6.232   0.098   2.109  0.6452  1.3418 -1.1099
15645TIP3   OH268349   1.510   0.035   5.319  0.2602  0.0829 -0.0370
15645TIP3    H168350   1.569   0.065   5.251 -0.8517 -0.2666 -1.1924
15645TIP3    H268351   1.434   0.093   5.313  0.0128 -0.1505  0.6855
15646TIP3   OH268352   0.119   1.243   4.332  0.3817 -0.1413 -0.5040
15646TIP3    H168353   0.130   1.225   4.238 -1.7264  0.0176 -0.8274
15646TIP3    H268354   0.122   1.157   4.373  0.8933 -0.2522 -0.7632
15647TIP3   OH268355   3.106   5.065   5.550 -0.5647  0.4418  0.7954
15647TIP3    H168356   3.101   5.089   5.458  0.4990  0.0413  0.6099
15647TIP3    H268357   3.018   5.078   5.584 -1.4378 -1.1177 -0.6983
15648TIP3   OH268358   2.906   0.592  14.230 -0.3578  0.3630  0.2823
15648TIP3    H168359   2.958   0.601  14.150  0.7572  0.9148  1.0358
15648TIP3    H268360   2.963   0.544  14.290 -0.6105  1.1742  1.2079
15649TIP3   OH268361   4.150   5.789  14.699  0.2324  0.2052  0.0045
15649TIP3    H168362   4.214   5.825  14.762 -0.6329 -0.5396  1.3557
15649TIP3    H268363   4.065   5.817  14.734 -0.3125 -1.0110 -0.3303
15650TIP3   OH268364   0.105   3.212   0.724  0.4080  0.0435 -0.1988
15650TIP3    H168365   0.040   3.224   0.655  0.8276 -2.5183 -1.1340
15650TIP3    H268366   0.178   3.268   0.697 -0.0763  0.3228 -0.9743
15651TIP3   OH268367   5.919   5.814  10.546  0.2524  0.5291  0.5614
15651TIP3    H168368   5.999   5.804  10.494  0.9966  2.0778  1.3535
15651TIP3    H268369   5.944   5.790  10.635 -0.6872 -0.8037  0.5160
15652TIP3   OH268370   5.553   5.230   3.184  0.0666  0.2444 -1.1112
15652TIP3    H168371   5.601   5.286   3.123  0.7807  0.4781 -0.3597
15652TIP3    H268372   5.466   5.222   3.145 -0.0532  1.8539 -1.2727
15653TIP3   OH268373   5.560   0.933   4.230  0.5591  0.2719  0.3162
15653TIP3    H168374   5.644   0.890   4.221  0.2725 -0.0568 -0.9833
15653TIP3    H268375   5.495   0.863   4.225  0.1346  0.6998 -0.8729
15654TIP3   OH268376   5.761   5.860   2.956 -0.3242  0.1552  0.1073
15654TIP3    H168377   5.739   5.935   2.901  0.3160  0.3307  0.0767
15654TIP3    H268378   5.840   5.888   3.004  1.0118 -1.1371 -1.2542
15655TIP3   OH268379   3.267   5.682  11.191  0.1949  0.5466  0.2656
15655TIP3    H168380   3.353   5.681  11.232  0.0521  1.7008  0.6463
15655TIP3    H268381   3.209   5.642  11.255  0.5014 -0.5573 -0.1385
15656TIP3   OH268382   5.440   3.135   5.322 -0.1415 -0.2215  0.0011
15656TIP3    H168383   5.412   3.225   5.340  0.1425 -0.1170 -0.0763
15656TIP3    H268384   5.365   3.095   5.278  0.2491  0.3867 -1.2367
15657TIP3   OH268385   5.067   0.064  14.090 -0.3736  0.7088 -0.3713
15657TIP3    H168386   5.076  -0.017  14.040  0.1414  0.6306 -0.1619
15657TIP3    H268387   5.007   0.041  14.161 -0.7183  0.6848 -0.6727
15658TIP3   OH268388   4.148   3.018   0.286 -0.4751  0.5302  0.3279
15658TIP3    H168389   4.206   3.031   0.361 -1.5139  0.7326  1.1028
15658TIP3    H268390   4.177   3.082   0.222 -0.4697  1.2951  1.0847
15659TIP3   OH268391   3.542   6.483   0.428 -0.2252  0.4461 -0.1582
15659TIP3    H168392   3.543   6.398   0.386 -1.1167  1.0326 -1.4158
15659TIP3    H268393   3.512   6.544   0.361  1.2451  1.9284  0.4252
15660TIP3   OH268394   5.275   1.045  15.152  0.3612  0.2385 -0.3196
15660TIP3    H168395   5.198   1.029  15.207  0.7743 -0.3003  0.1167
15660TIP3    H268396   5.272   0.978  15.085  2.3931 -2.2502  1.8333
15661TIP3   OH268397   2.602   0.944   1.969  0.2127  0.0208  0.0660
15661TIP3    H168398   2.637   1.028   1.939 -0.5297  0.1291 -0.5185
15661TIP3    H268399   2.570   0.901   1.890  0.6269 -0.8461  0.3474
15662TIP3   OH268400   3.472   3.794   3.588  0.0849  0.5011 -0.7577
15662TIP3    H168401   3.542   3.809   3.525  1.1619 -0.0683  0.2612
15662TIP3    H268402   3.426   3.717   3.555  0.1058  0.7128 -1.2862
15663TIP3   OH268403   1.324   2.689  14.665  0.5338  0.6004 -0.2507
15663TIP3    H168404   1.340   2.627  14.594  1.0270  0.5670 -0.1151
15663TIP3    H268405   1.411   2.720  14.689  0.2271  2.0897 -0.9701
15664TIP3   OH268406   4.141   2.133  12.516 -0.0240  0.2879 -0.1255
15664TIP3    H168407   4.211   2.111  12.455 -1.4650  0.1166 -1.7980
15664TIP3    H268408   4.138   2.059  12.577  2.0790  0.9163  0.8057
15665TIP3   OH268409   4.366   6.789   5.985  0.1585  0.5697  0.1822
15665TIP3    H168410   4.442   6.847   5.994  1.5910 -1.3184  0.9128
15665TIP3    H268411   4.403   6.701   5.985 -2.0501 -0.4240  0.4921
15666TIP3   OH268412   1.255   0.887   2.589  0.2422 -0.1213 -0.6349
15666TIP3    H168413   1.161   0.905   2.587  0.4782  1.3134  0.0852
15666TIP3    H268414   1.294   0.961   2.541  0.9336 -1.3929 -2.1259
15667TIP3   OH268415   5.046   5.016  13.854  0.0551 -0.5319 -0.5762
15667TIP3    H168416   4.974   5.024  13.791 -0.3861 -0.5337 -0.0809
15667TIP3    H268417   5.058   4.922  13.866  1.7821 -0.6221 -2.4887
15668TIP3   OH268418   5.503   5.630   6.208  0.4404 -0.1440  0.2721
15668TIP3    H168419   5.568   5.664   6.270  1.3819  0.4275 -0.9911
15668TIP3    H268420   5.429   5.689   6.216  0.8295  0.3345  0.3725
15669TIP3   OH268421   2.019   0.981   3.157 -0.4662 -0.0087  0.6732
15669TIP3    H168422   2.020   0.894   3.117 -0.0735 -0.1879  1.0545
15669TIP3    H268423   2.070   0.970   3.237 -1.2328  0.3456  1.2170
15670TIP3   OH268424   4.492   4.374   1.564  0.2681 -0.3287  0.3932
15670TIP3    H168425   4.577   4.338   1.590  0.9234  1.1584  0.4119
15670TIP3    H268426   4.509   4.467   1.549 -1.5550  0.2022  1.3314
15671TIP3   OH268427   1.532   5.795  13.916 -0.1248  1.1506  0.5852
15671TIP3    H168428   1.567   5.882  13.935 -0.2283  1.0015  1.5267
15671TIP3    H268429   1.566   5.773  13.830  2.4647  0.8333  1.5860
15672TIP3   OH268430   3.334   0.393   4.934 -0.2063 -0.2155 -0.2904
15672TIP3    H168431   3.337   0.338   4.857  0.8615  0.2333 -0.5777
15672TIP3    H268432   3.384   0.471   4.911 -1.3136  0.7015  0.2524
15673TIP3   OH268433   4.417   1.194   5.019 -0.6177 -0.1540 -0.4241
15673TIP3    H168434   4.409   1.113   5.070 -0.0691 -0.4671 -0.8155
15673TIP3    H268435   4.510   1.216   5.023 -0.4189 -0.5964 -1.8930
15674TIP3   OH268436   3.800   0.550  11.790  0.1148  0.3485 -0.5277
15674TIP3    H168437   3.727   0.503  11.831 -1.3709  2.0308 -1.1425
15674TIP3    H268438   3.856   0.480  11.756 -0.2254 -1.0402  1.5267
15675TIP3   OH268439   5.342   5.175  10.348  0.0412 -1.0383 -0.3358
15675TIP3    H168440   5.313   5.266  10.342 -1.8068 -1.6978 -3.2714
15675TIP3    H268441   5.410   5.167  10.282  0.3062 -1.7783  0.0216
15676TIP3   OH268442   1.306   2.125   5.743  0.0104  0.4963 -0.8922
15676TIP3    H168443   1.391   2.166   5.759 -1.4029  4.0922 -1.7661
15676TIP3    H268444   1.297   2.126   5.648 -0.6025 -0.9078 -0.8698
15677TIP3   OH268445   1.151   1.351   2.655  0.0945 -0.0331  0.2485
15677TIP3    H168446   1.227   1.406   2.635  0.9302 -1.8445 -1.9387
15677TIP3    H268447   1.188   1.276   2.703 -0.5918 -0.1436  0.6274
15678TIP3   OH268448   1.185   1.956  13.229 -0.4740  0.6208 -0.0295
15678TIP3    H168449   1.150   2.042  13.203 -0.5808  0.4176 -0.5795
15678TIP3    H268450   1.125   1.925  13.296 -2.1819 -0.3084 -1.8763
15679TIP3   OH268451   4.149   5.979  12.108 -0.0386 -0.0668  0.0476
15679TIP3    H168452   4.176   5.892  12.079 -0.5332  0.2316 -1.4174
15679TIP3    H268453   4.212   6.039  12.066  0.9560  0.2604  1.8916
15680TIP3   OH268454   3.660   2.332  14.323  0.5320  0.6076 -0.0742
15680TIP3    H168455   3.739   2.312  14.271  0.5039  2.1067 -0.7286
15680TIP3    H268456   3.592   2.348  14.258 -0.8975 -2.5418  0.4529
15681TIP3   OH268457   6.211   0.455  12.729  0.1002  0.1568 -0.0145
15681TIP3    H168458   6.271   0.389  12.762 -0.5334 -0.3197  0.2180
15681TIP3    H268459   6.124   0.420  12.751 -0.2243  1.7645  1.4717
15682TIP3   OH268460   0.922   4.028   3.043  0.1601 -0.0115  0.3668
15682TIP3    H168461   0.948   4.102   3.098  0.8675  0.8037 -1.0076
15682TIP3    H268462   0.862   4.066   2.979 -1.4345 -1.1415  1.1341
15683TIP3   OH268463   4.480   5.578  14.037 -0.1815  0.1122  0.0566
15683TIP3    H168464   4.558   5.544  13.992 -1.3366 -0.0363 -1.9322
15683TIP3    H268465   4.418   5.506  14.036 -0.6464  0.4786  0.9539
15684TIP3   OH268466   6.344   6.002   6.023 -0.2950 -0.1942 -0.1772
15684TIP3    H168467   6.293   6.077   6.051 -1.4850 -1.9307  2.7264
15684TIP3    H268468   6.435   6.026   6.042 -0.7024  0.3488  1.2038
15685TIP3   OH268469   4.161   3.132   3.751 -0.2075 -0.5890  0.3789
15685TIP3    H168470   4.212   3.201   3.795  0.0751 -0.6246  0.1038
15685TIP3    H268471   4.092   3.111   3.814  2.0362 -2.9183  2.2763
15686TIP3   OH268472   4.522   4.413   5.319 -0.1946 -0.2605 -0.3292
15686TIP3    H168473   4.433   4.407   5.285 -1.0455  1.6159  1.3632
15686TIP3    H268474   4.522   4.492   5.373  2.8496  0.4830 -1.2272
15687TIP3   OH268475   0.502   3.682  13.244 -0.2020 -0.7215 -0.0410
15687TIP3    H168476   0.586   3.639  13.227  0.1452  0.1959 -0.7379
15687TIP3    H268477   0.440   3.610  13.251  0.5281 -1.3852 -0.1879
15688TIP3   OH268478   5.712   3.592  13.787  0.1502 -0.1908  0.3216
15688TIP3    H168479   5.653   3.517  13.787 -1.8807  1.3135  0.9858
15688TIP3    H268480   5.697   3.635  13.702  0.8465 -0.1860  0.1938
15689TIP3   OH268481   6.508   2.237  15.518 -0.0214  0.5309 -0.0428
15689TIP3    H168482   6.569   2.171  15.484  0.4259  1.3187 -0.7990
15689TIP3    H268483   6.550   2.269  15.598 -1.3871 -1.8016  1.7536
15690TIP3   OH268484   4.888   3.909   1.984 -0.9571 -1.4936  0.1074
15690TIP3    H168485   4.972   3.940   1.951 -1.2034 -1.2509 -0.3003
15690TIP3    H268486   4.891   3.928   2.078 -0.4897 -1.6425  0.1247
15691TIP3   OH268487   4.313   5.261  14.374  0.0116  0.0589  0.4919
15691TIP3    H168488   4.243   5.239  14.435 -0.3536  2.9243  1.2514
15691TIP3    H268489   4.274   5.321  14.311  1.7592  2.1288  1.2159
15692TIP3   OH268490   3.560   1.387  16.140 -0.2209 -0.5711  0.3953
15692TIP3    H168491   3.515   1.409  16.059 -0.1992  0.0483  0.5487
15692TIP3    H268492   3.505   1.320  16.181 -0.5067 -0.4969  0.1342
15693TIP3   OH268493   6.138   1.791   3.192  0.3761 -0.1514  0.1761
15693TIP3    H168494   6.137   1.722   3.258  0.3501  1.7035  2.2553
15693TIP3    H268495   6.200   1.856   3.227  1.2427  0.4012 -2.2296
15694TIP3   OH268496   1.849   3.310   0.327 -0.0961 -0.1522  0.1577
15694TIP3    H168497   1.815   3.244   0.386 -1.2518  0.2338 -0.0582
15694TIP3    H268498   1.800   3.298   0.246 -1.3080  1.8203  0.5415
15695TIP3   OH268499   3.954   0.385  10.784  0.0737 -0.2749  0.1160
15695TIP3    H168500   4.034   0.365  10.832  0.0230 -0.2921  0.1940
15695TIP3    H268501   3.917   0.300  10.761  1.4145 -0.3200 -2.2064
15696TIP3   OH268502   5.459   0.629  13.307  0.0010 -0.0866 -0.1322
15696TIP3    H168503   5.418   0.679  13.378  1.6557  1.3230 -0.1112
15696TIP3    H268504   5.456   0.687  13.231 -0.8119 -1.1797 -0.9777
15697TIP3   OH268505   0.442   4.979   5.379  0.0415  0.8738 -0.1680
15697TIP3    H168506   0.493   4.944   5.452 -1.5689 -0.9541  0.1695
15697TIP3    H268507   0.399   5.057   5.414  1.1072  1.3629  0.0855
15698TIP3   OH268508   4.621   1.858  13.647  0.4542  0.5029 -0.3143
15698TIP3    H168509   4.709   1.844  13.680  0.4755  2.0901  0.3863
15698TIP3    H268510   4.628   1.844  13.553  1.2731 -0.1610 -0.1645
15699TIP3   OH268511   1.022   5.464  13.507  0.1627  0.2046 -0.3695
15699TIP3    H168512   0.965   5.492  13.580 -0.6897 -0.3646 -0.7988
15699TIP3    H268513   1.042   5.372  13.527 -0.1305  0.0268 -0.8798
15700TIP3   OH268514   1.565   3.977   2.354 -0.0122  0.0091 -0.5004
15700TIP3    H168515   1.570   3.885   2.327  0.0797 -0.3053  0.5606
15700TIP3    H268516   1.617   3.982   2.434  1.2466  1.3005 -1.3451
15701TIP3   OH268517   6.429   0.808  13.853 -0.1174  0.1550 -0.2887
15701TIP3    H168518   6.415   0.806  13.948  0.7917 -1.2085 -0.1488
15701TIP3    H268519   6.523   0.794  13.843 -0.4874 -1.8804 -1.4125
15702TIP3   OH268520   0.713   3.292  12.770  0.3040 -0.0236 -0.2724
15702TIP3    H168521   0.733   3.213  12.820  0.5011  0.3355  0.2211
15702TIP3    H268522   0.619   3.286  12.753  0.2556 -0.1945  0.0536
15703TIP3   OH268523   1.076   1.109  12.579 -0.2885 -0.0848  0.3845
15703TIP3    H168524   1.076   1.114  12.675  1.0132 -1.2780  0.4629
15703TIP3    H268525   1.165   1.084  12.555 -0.5300  0.4008 -1.1726
15704TIP3   OH268526   4.988   4.808  13.446  0.6938 -0.5760  0.1777
15704TIP3    H168527   4.940   4.859  13.512  0.1727 -0.6930 -0.1063
15704TIP3    H268528   5.008   4.725  13.490  1.4386 -0.1837  0.6001
15705TIP3   OH268529   3.649   5.902   4.865 -0.3688  0.1231  0.1297
15705TIP3    H168530   3.603   5.971   4.912 -1.9206 -0.9906  0.3088
15705TIP3    H268531   3.588   5.828   4.864  0.9536 -1.0110 -0.6918
15706TIP3   OH268532   6.455   3.357   1.983 -0.0095  0.4755 -0.0284
15706TIP3    H168533   6.381   3.376   2.040  0.7726  0.8981  0.8866
15706TIP3    H268534   6.529   3.345   2.043  1.2060  2.4963 -0.9939
15707TIP3   OH268535   3.485   1.924  12.271 -0.2477 -0.2898 -0.1763
15707TIP3    H168536   3.463   1.882  12.353 -1.2069  1.0756  0.2970
15707TIP3    H268537   3.487   2.018  12.291  1.0058 -0.0198 -1.3672
15708TIP3   OH268538   1.274   2.017  16.325 -0.8507  0.0315 -0.3623
15708TIP3    H168539   1.211   2.041  16.394  2.0951  0.1359  2.5000
15708TIP3    H268540   1.277   1.921  16.328 -1.9141 -0.0799 -1.6251
15709TIP3   OH268541   5.057   3.652   0.247  0.6060 -0.2424 -0.5917
15709TIP3    H168542   5.035   3.735   0.206 -0.4494  0.1186  0.6253
15709TIP3    H268543   5.148   3.662   0.275  0.3849  0.6396 -0.1631
15710TIP3   OH268544   4.671   0.522   3.798 -0.4901  0.2250 -0.2602
15710TIP3    H168545   4.687   0.611   3.832 -1.4391  1.1873 -2.1921
15710TIP3    H268546   4.749   0.502   3.746 -0.8487  0.4698 -0.8928
15711TIP3   OH268547   5.983   5.307  17.130 -0.1762 -0.6299  0.4135
15711TIP3    H168548   6.014   5.244  17.065  0.4008 -2.3601  2.2695
15711TIP3    H268549   6.061   5.331  17.179 -0.7322  0.0423  0.9853
15712TIP3   OH268550   0.726   0.107   3.617 -0.3490  0.8275  0.6570
15712TIP3    H168551   0.673   0.122   3.695 -1.3373  1.9493 -0.1873
15712TIP3    H268552   0.696   0.173   3.555  0.6073  0.1396 -0.5833
15713TIP3   OH268553   5.823   3.604  14.929 -0.0320  0.4779  0.4589
15713TIP3    H168554   5.885   3.582  14.860  0.1867  0.6521  0.5952
15713TIP3    H268555   5.794   3.693  14.907  1.8654  1.5293  1.8702
15714TIP3   OH268556   6.529   1.490   4.964 -0.4205  0.1333 -0.0268
15714TIP3    H168557   6.530   1.565   4.904  1.0885  0.8181  0.8012
15714TIP3    H268558   6.524   1.414   4.907 -1.1464  0.8221 -0.9215
15715TIP3   OH268559   6.038   0.988  15.547 -0.4771  0.6459  0.8658
15715TIP3    H168560   6.104   1.037  15.498 -0.0407 -0.8855 -0.1523
15715TIP3    H268561   5.957   1.037  15.533 -0.1715  0.7737 -0.5915
15716TIP3   OH268562   6.242   3.391   0.948  0.1047  0.6666 -0.1947
15716TIP3    H168563   6.203   3.397   1.036 -0.0183  1.6681 -0.3056
15716TIP3    H268564   6.268   3.299   0.940  0.6764  0.6866  1.1296
15717TIP3   OH268565   2.071   6.418   2.923  0.0790  0.5159 -0.2123
15717TIP3    H168566   2.028   6.339   2.890 -0.2866 -0.8607  3.1418
15717TIP3    H268567   2.156   6.419   2.879 -0.3688 -1.0873 -1.2219
15718TIP3   OH268568   3.459   3.344   2.936 -0.6191  0.0514  0.2553
15718TIP3    H168569   3.508   3.266   2.959 -0.2533  0.8373  2.3156
15718TIP3    H268570   3.388   3.312   2.880 -0.2809 -1.6869  0.7784
15719TIP3   OH268571   1.162   5.280   3.760 -0.1187 -0.0126 -0.2070
15719TIP3    H168572   1.225   5.338   3.719  0.3871 -0.3204  0.1350
15719TIP3    H268573   1.214   5.215   3.806 -0.6855  0.1110  0.6272
15720TIP3   OH268574   1.627   3.849   0.903  0.2495 -0.2581 -0.7727
15720TIP3    H168575   1.635   3.865   0.809 -0.2412  1.9266 -0.5021
15720TIP3    H268576   1.546   3.893   0.928 -0.2756 -1.8525  0.4974
15721TIP3   OH268577   3.968   6.370   0.150 -0.3426 -0.5964  0.3770
15721TIP3    H168578   3.920   6.287   0.153 -3.1237  0.9044  0.3290
15721TIP3    H268579   3.929   6.418   0.077  2.6790  0.0069 -1.0169
15722TIP3   OH268580   3.514   1.555   0.776  0.0114  0.0308  0.0601
15722TIP3    H168581   3.493   1.461   0.777  1.4946 -0.3289 -0.2882
15722TIP3    H268582   3.601   1.559   0.736 -0.2018  1.5972 -0.2869
15723TIP3   OH268583   3.172   2.009   2.195  0.4521 -0.0420  0.5622
15723TIP3    H168584   3.192   1.956   2.118  1.1290 -0.2042  0.8387
15723TIP3    H268585   3.243   1.989   2.257  0.0617  0.2810  1.1256
15724TIP3   OH268586   5.351   4.251   4.145  0.3221  0.0054 -0.1874
15724TIP3    H168587   5.388   4.309   4.078 -0.9576  1.4885  0.3331
15724TIP3    H268588   5.267   4.291   4.168  0.2171 -1.0891  1.5074
15725TIP3   OH268589   0.162   1.652  15.020 -0.0518  0.3555  0.1243
15725TIP3    H168590   0.157   1.638  14.926 -2.5321 -0.3633  0.2896
15725TIP3    H268591   0.098   1.591  15.057 -1.9188  3.1851  1.9534
15726TIP3   OH268592   1.654   3.335  16.172 -0.5625  0.1785  0.8410
15726TIP3    H168593   1.708   3.262  16.141  0.2272  1.2662 -0.4637
15726TIP3    H268594   1.710   3.382  16.233 -0.4290  0.6647  0.3518
15727TIP3   OH268595   2.684   2.658  10.732  0.3484 -0.0054 -0.0047
15727TIP3    H168596   2.640   2.711  10.667 -1.4138 -0.7945  0.4926
15727TIP3    H268597   2.741   2.599  10.682 -1.6979 -1.2677 -0.9666
15728TIP3   OH268598   5.046   4.385   3.255 -0.6946  0.3229  0.1498
15728TIP3    H168599   5.011   4.470   3.228 -1.8313 -0.0624  0.3351
15728TIP3    H268600   5.009   4.371   3.342  0.6379  0.2646  0.7330
15729TIP3   OH268601   6.017   0.580  16.275 -0.0396 -0.2032 -1.0969
15729TIP3    H168602   6.037   0.655  16.219  0.1812  0.3577 -0.2973
15729TIP3    H268603   6.097   0.566  16.325 -0.2823 -0.5769 -0.8046
15730TIP3   OH268604   2.947   4.266  10.200  0.7922  0.3340 -0.3783
15730TIP3    H168605   2.856   4.244  10.179  0.9499  0.6407 -1.4164
15730TIP3    H268606   2.943   4.356  10.232  0.6073  0.0009  0.5831
15731TIP3   OH268607   6.002   3.059   5.711 -0.1605 -0.4572  0.3641
15731TIP3    H168608   5.995   3.133   5.771 -0.1561  0.1818 -0.4187
15731TIP3    H268609   5.911   3.038   5.689 -0.1129  1.1880 -1.6662
15732TIP3   OH268610   2.378   6.619   1.310 -0.4134 -0.1965 -0.6895
15732TIP3    H168611   2.303   6.614   1.250 -1.0991 -0.4034  0.1625
15732TIP3    H268612   2.387   6.712   1.330  1.2980  0.1964 -2.8940
15733TIP3   OH268613   3.436   3.742  15.960 -0.0631  0.3670 -0.4170
15733TIP3    H168614   3.409   3.811  15.899 -2.3774  0.1548  0.2566
15733TIP3    H268615   3.516   3.706  15.922  1.1665  3.3132 -0.8401
15734TIP3   OH268616   4.584   0.554  16.583 -0.0048  0.2450  0.0806
15734TIP3    H168617   4.549   0.626  16.636  0.3093  1.2160 -0.9896
15734TIP3    H268618   4.516   0.536  16.519  0.0757 -0.1741  0.1091
15735TIP3   OH268619   3.766   3.756   2.560 -0.3204  0.0179  0.0832
15735TIP3    H168620   3.690   3.747   2.618 -0.7428  0.4203 -0.3999
15735TIP3    H268621   3.749   3.835   2.509  0.4490  0.1389 -0.0006
15736TIP3   OH268622   1.610   5.297  11.551  0.8386  0.1299  0.2364
15736TIP3    H168623   1.696   5.309  11.511  0.9549 -4.2088 -1.3631
15736TIP3    H268624   1.629   5.267  11.640  0.9155  0.6333  0.3910
15737TIP3   OH268625   3.806   4.206  12.308  0.0966  0.0404  0.4975
15737TIP3    H168626   3.718   4.223  12.342 -0.4078  0.7458 -1.0752
15737TIP3    H268627   3.791   4.152  12.231  0.8615  1.6229 -0.8220
15738TIP3   OH268628   2.765   5.232  12.783  0.3734  0.6420  0.0105
15738TIP3    H168629   2.813   5.178  12.720 -1.2282  1.3385 -1.9346
15738TIP3    H268630   2.825   5.302  12.806  0.8208  0.6735 -1.2025
15739TIP3   OH268631   5.310   4.308  13.278 -0.2268  0.0558 -0.6019
15739TIP3    H168632   5.319   4.245  13.206  1.2333  1.9817 -2.2157
15739TIP3    H268633   5.397   4.346  13.287 -0.4657  0.1548  2.0094
15740TIP3   OH268634   4.275   5.805  12.604  0.0929  0.4829 -0.4039
15740TIP3    H168635   4.287   5.748  12.680 -1.0384  2.1026  1.0481
15740TIP3    H268636   4.360   5.801  12.559  0.3170 -1.6680  0.0663
15741TIP3   OH268637   4.987   0.395  11.590  0.0966 -0.2318 -0.5172
15741TIP3    H168638   5.074   0.362  11.567 -0.1643 -1.2798 -0.0485
15741TIP3    H268639   4.996   0.426  11.680  0.2083  0.5119 -0.7796
15742TIP3   OH268640   3.720   0.058   1.795  0.0057 -0.3795  0.4503
15742TIP3    H168641   3.796   0.091   1.746 -1.8303 -0.6569 -2.9097
15742TIP3    H268642   3.745  -0.031   1.819  0.8344 -0.4275 -0.4861
15743TIP3   OH268643   4.511   3.005   2.161  0.1637 -0.3965  0.7907
15743TIP3    H168644   4.562   3.071   2.113  0.7914 -1.7153 -0.4308
15743TIP3    H268645   4.470   2.952   2.093  0.3093 -1.7385  1.7077
15744TIP3   OH268646   6.577   0.763  10.468  0.3432  0.0816  0.2347
15744TIP3    H168647   6.649   0.766  10.531 -0.1365 -1.1602  0.8780
15744TIP3    H268648   6.548   0.854  10.460  0.9856  0.3789  1.1477
15745TIP3   OH268649   2.893   1.496  14.351  0.1416 -0.9483  0.4340
15745TIP3    H168650   2.857   1.568  14.404  1.1955  0.4565 -0.6832
15745TIP3    H268651   2.981   1.482  14.386  0.2537 -1.1050  0.0950
15746TIP3   OH268652   5.641   6.300   4.750  0.3334  0.3702  0.6110
15746TIP3    H168653   5.625   6.343   4.665  1.3925 -1.6062 -0.6648
15746TIP3    H268654   5.569   6.237   4.757 -0.7384  1.6652  2.0791
15747TIP3   OH268655   4.182   6.649  14.045  0.1153 -0.1446 -0.1778
15747TIP3    H168656   4.119   6.708  14.087  0.8541  0.0444  0.7041
15747TIP3    H268657   4.193   6.577  14.108  1.6022  0.3879  0.2087
15748TIP3   OH268658   1.719   5.371  12.359  0.5078 -0.1260  0.4662
15748TIP3    H168659   1.635   5.377  12.404 -0.3844  0.1075 -1.1369
15748TIP3    H268660   1.732   5.277  12.345  0.2486 -0.1339  0.2661
15749TIP3   OH268661   3.300   3.890   3.016 -0.2440  0.1419  0.1240
15749TIP3    H168662   3.333   3.805   2.985  1.6038  0.8503  0.0635
15749TIP3    H268663   3.274   3.873   3.107  0.6192 -0.3693  0.2861
15750TIP3   OH268664   3.026   1.020   0.459  0.0249  0.6097 -0.4116
15750TIP3    H168665   2.961   0.955   0.432  0.7032  0.2920 -1.3187
15750TIP3    H268666   3.052   0.993   0.547 -1.6816  1.2311  0.3215
15751TIP3   OH268667   5.092   1.930   5.039 -0.5394 -0.2695  0.1558
15751TIP3    H168668   5.019   1.972   5.082  0.3084 -0.5132  1.9177
15751TIP3    H268669   5.162   1.929   5.104  0.5416 -1.4200 -0.9429
15752TIP3   OH268670   0.661   5.183  17.142 -0.1644 -0.3724  0.3800
15752TIP3    H168671   0.710   5.141  17.070  1.6512 -0.7000  1.7282
15752TIP3    H268672   0.571   5.155  17.130 -0.3753  1.2093 -2.9537
15753TIP3   OH268673   6.174   3.765   2.287  0.2133 -0.0007  0.3085
15753TIP3    H168674   6.230   3.835   2.255  0.9971  0.3826  2.3136
15753TIP3    H268675   6.121   3.739   2.212  1.4531  1.2219 -1.0487
15754TIP3   OH268676   2.755   4.499  15.176 -0.4561  0.3591 -0.1758
15754TIP3    H168677   2.723   4.552  15.103  1.1014  2.3630  0.4999
15754TIP3    H268678   2.747   4.556  15.253  1.0946 -0.4157  0.6203
15755TIP3   OH268679   4.206   1.430   1.922  0.2771 -0.3172  0.6545
15755TIP3    H168680   4.258   1.352   1.901 -0.9660 -0.8026 -0.7832
15755TIP3    H268681   4.268   1.502   1.920  1.2209 -1.1081  0.7538
15756TIP3   OH268682   3.035   2.016   1.729 -0.3609  0.5872 -0.3024
15756TIP3    H168683   3.025   2.107   1.703 -0.4584  0.5073 -0.5443
15756TIP3    H268684   3.103   1.981   1.670  1.3022  1.0854  1.2258
15757TIP3   OH268685   4.746   5.066  12.410 -0.1169  0.2004  0.4269
15757TIP3    H168686   4.740   4.979  12.452  1.5359  0.1189  0.5728
15757TIP3    H268687   4.717   5.052  12.320  2.1974 -1.0608 -0.2100
15758TIP3   OH268688   3.203   2.600   0.761 -0.1482 -0.6999 -0.2070
15758TIP3    H168689   3.139   2.540   0.724 -1.3751  0.9376 -0.8887
15758TIP3    H268690   3.245   2.641   0.685 -3.1378  3.1756 -0.1099
15759TIP3   OH268691   6.340   1.717   0.440  0.2773 -0.6835 -0.6825
15759TIP3    H168692   6.260   1.675   0.407 -0.1025  1.0046 -2.0751
15759TIP3    H268693   6.329   1.809   0.418  0.1377  0.6912  4.0675
15760TIP3   OH268694   1.083   4.979   0.917  0.1783 -0.1414 -0.1319
15760TIP3    H168695   1.037   5.061   0.930 -1.9909 -1.4448  0.8873
15760TIP3    H268696   1.019   4.911   0.939  1.7531 -2.1308 -1.3156
15761TIP3   OH268697   2.805   5.297  13.618  0.3958  0.4061 -0.5747
15761TIP3    H168698   2.815   5.392  13.613 -1.0302  0.5594 -1.0091
15761TIP3    H268699   2.853   5.264  13.542  0.8960  0.7622 -0.4247
15762TIP3   OH268700   3.856   4.657   2.818  0.6101 -0.2786  0.8673
15762TIP3    H168701   3.858   4.723   2.750  2.2359 -1.4313 -0.2677
15762TIP3    H268702   3.809   4.583   2.779  0.5919 -0.5586  1.3983
15763TIP3   OH268703   4.342   0.764  15.505 -0.0328  0.0252 -0.2435
15763TIP3    H168704   4.341   0.670  15.487 -0.3684  0.1223 -0.7444
15763TIP3    H268705   4.429   0.792  15.475  0.0751 -0.1295 -0.0774
15764TIP3   OH268706   1.638   3.969  11.139 -0.2428  0.3199 -0.0951
15764TIP3    H168707   1.615   3.887  11.183  0.6962 -0.6903 -1.3916
15764TIP3    H268708   1.687   4.019  11.204 -0.5472 -0.2885  0.6103
15765TIP3   OH268709   4.015   5.036   0.507 -0.0425 -0.2752  0.0183
15765TIP3    H168710   3.964   5.117   0.504  1.0251  0.4405  0.3917
15765TIP3    H268711   3.989   4.995   0.590  0.4886  0.4511  0.5654
15766TIP3   OH268712   2.838   1.255   3.880 -0.4266  0.4809 -0.0496
15766TIP3    H168713   2.889   1.336   3.881 -1.7747  1.4000 -1.5278
15766TIP3    H268714   2.884   1.199   3.818 -0.3069  0.6856 -0.1476
15767TIP3   OH268715   2.727   5.972  14.728 -0.3352 -0.0174 -0.1837
15767TIP3    H168716   2.807   5.931  14.764 -0.3005  0.6781  0.5506
15767TIP3    H268717   2.667   5.898  14.715  0.4839 -0.5798 -0.9252
15768TIP3   OH268718   2.205   0.276  15.259  0.3896 -0.3911  0.1130
15768TIP3    H168719   2.228   0.223  15.183 -0.0880 -0.2061 -0.1625
15768TIP3    H268720   2.208   0.215  15.333 -0.5798 -0.9103 -0.2608
15769TIP3   OH268721   4.546   3.381   3.523 -0.9246  0.1260 -0.3820
15769TIP3    H168722   4.604   3.433   3.579 -2.7875  0.5977  1.2427
15769TIP3    H268723   4.557   3.418   3.435  0.5736  0.7444  0.0511
15770TIP3   OH268724   3.209   4.925   3.390 -0.2765 -0.1914 -0.1012
15770TIP3    H168725   3.295   4.968   3.394  0.4748 -1.4999 -1.2799
15770TIP3    H268726   3.219   4.847   3.445  0.0831 -1.5879 -2.0624
15771TIP3   OH268727   6.205   2.706  12.339  0.2523  0.3401  0.1841
15771TIP3    H168728   6.161   2.771  12.393  0.3868  0.7854 -0.2351
15771TIP3    H268729   6.246   2.756  12.269  2.2807  0.0510  1.0934
15772TIP3   OH268730   2.804   0.605  16.674  0.4709 -0.1923  0.2796
15772TIP3    H168731   2.729   0.547  16.656 -0.6055  1.2269  0.0087
15772TIP3    H268732   2.877   0.565  16.626 -0.0966 -1.5877  0.5097
15773TIP3   OH268733   6.260   6.181   3.650 -0.0842 -0.0241  0.2222
15773TIP3    H168734   6.236   6.255   3.705 -1.3251 -0.2328 -0.0226
15773TIP3    H268735   6.253   6.105   3.708  0.0498 -0.0855  0.1598
15774TIP3   OH268736   3.353   0.867  12.911 -0.5903  0.0457  0.7042
15774TIP3    H168737   3.392   0.954  12.926 -1.6693  0.6655 -0.0192
15774TIP3    H268738   3.277   0.865  12.969 -2.3639  0.8260 -1.4799
15775TIP3   OH268739   3.093   6.233  17.087  0.2501  0.5841  0.3358
15775TIP3    H168740   3.156   6.284  17.035 -0.3101  0.5932 -0.3393
15775TIP3    H268741   3.068   6.292  17.158 -0.3831  1.2681 -0.4309
15776TIP3   OH268742   0.858   2.158   1.169  0.3294 -0.1850  0.0615
15776TIP3    H168743   0.871   2.252   1.183  0.4871 -0.3122  0.8526
15776TIP3    H268744   0.838   2.124   1.256 -1.0438 -0.6877 -0.4356
15777TIP3   OH268745   6.156   0.348   3.054 -0.2508  0.6611 -0.1074
15777TIP3    H168746   6.098   0.283   3.094 -1.1092  0.8766 -0.9752
15777TIP3    H268747   6.234   0.299   3.029  1.0868  0.7723  3.2519
15778TIP3   OH268748   4.988   0.775   1.410 -0.4394 -0.4468 -0.1830
15778TIP3    H168749   4.963   0.682   1.408  3.1243 -1.5502 -2.2412
15778TIP3    H268750   5.050   0.781   1.482  1.0977 -0.3061 -1.4539
15779TIP3   OH268751   5.790   0.484   3.001  0.0467  0.3075  0.8588
15779TIP3    H168752   5.803   0.390   3.018 -0.1308 -0.1849 -1.4085
15779TIP3    H268753   5.879   0.517   2.984 -0.0247  0.2274  0.2994
15780TIP3   OH268754   0.989   5.784  13.366 -0.0394  0.1870  0.7480
15780TIP3    H168755   0.906   5.737  13.365  0.3852 -0.5720  0.1387
15780TIP3    H268756   1.055   5.717  13.348  0.7144  0.7641  1.3110
15781TIP3   OH268757   0.204   4.510   5.103 -0.3001 -0.2289 -0.2510
15781TIP3    H168758   0.231   4.573   5.169  1.7912 -0.7221 -0.5724
15781TIP3    H268759   0.139   4.455   5.148 -0.3330  0.6208  0.7781
15782TIP3   OH268760   4.441   0.759   4.673 -0.1277  0.4158 -0.9735
15782TIP3    H168761   4.354   0.770   4.711 -0.2384 -0.6467 -0.8909
15782TIP3    H268762   4.434   0.679   4.621  1.4392 -1.0701  0.9490
15783TIP3   OH268763   0.473   5.133   0.302 -0.1806  0.5172 -0.3187
15783TIP3    H168764   0.407   5.124   0.370 -0.2468  1.5427 -0.2311
15783TIP3    H268765   0.548   5.172   0.347  0.8689 -1.5384 -0.1949
15784TIP3   OH268766   2.223   0.558  16.024  0.1770 -0.1727  0.3578
15784TIP3    H168767   2.255   0.470  16.042 -0.2715 -0.3621  0.2465
15784TIP3    H268768   2.191   0.590  16.109 -0.8268 -0.6048  0.1527
15785TIP3   OH268769   1.111   1.774  12.338  0.3231 -0.3004 -0.1125
15785TIP3    H168770   1.151   1.703  12.389 -1.9735 -1.4310  0.2502
15785TIP3    H268771   1.060   1.729  12.271  0.8607  1.1170 -1.5264
15786TIP3   OH268772   5.444   0.665   4.037  0.2573 -0.0849 -0.4131
15786TIP3    H168773   5.355   0.660   4.000  0.0803  1.7302 -0.3191
15786TIP3    H268774   5.482   0.580   4.017 -1.3459 -0.7410 -0.8772
15787TIP3   OH268775   2.518   2.644  13.968  0.0789  0.1699  0.1586
15787TIP3    H168776   2.493   2.601  14.050  0.4668 -0.2103  0.0831
15787TIP3    H268777   2.481   2.732  13.975  1.6834  0.7853  1.5477
15788TIP3   OH268778   6.061   6.650   0.547 -0.6563  0.2246  0.3493
15788TIP3    H168779   6.083   6.611   0.631  0.7359  0.9150  0.3394
15788TIP3    H268780   6.049   6.743   0.567 -1.7331  0.1628  0.0156
15789TIP3   OH268781   2.023   5.806   0.924  1.0115  0.2237  0.2678
15789TIP3    H168782   2.065   5.761   0.850 -0.1699  1.4574 -1.2066
15789TIP3    H268783   1.966   5.740   0.963 -0.0249  0.1314 -1.3165
15790TIP3   OH268784   3.014   2.428   5.355  0.5031  0.2932  0.0670
15790TIP3    H168785   3.095   2.478   5.343  0.6091  0.3892  1.0656
15790TIP3    H268786   2.995   2.436   5.449 -0.9978  0.7767 -0.2698
15791TIP3   OH268787   5.432   6.580   1.288 -0.0364  0.4040  0.4236
15791TIP3    H168788   5.486   6.654   1.316  0.6288  0.9017 -1.9873
15791TIP3    H268789   5.489   6.528   1.232 -1.6250  0.1928 -1.0773
15792TIP3   OH268790   5.005   6.224   1.821  0.4319 -0.2700 -0.3971
15792TIP3    H168791   5.075   6.181   1.870 -0.3416 -0.0121  0.9997
15792TIP3    H268792   4.927   6.174   1.843  0.1382 -0.4634 -1.8145
15793TIP3   OH268793   4.318   0.885   3.004  0.0790  0.0713  0.4773
15793TIP3    H168794   4.315   0.800   3.050 -0.6139 -0.0786  0.1590
15793TIP3    H268795   4.230   0.896   2.969  0.5303  0.3069 -0.6117
15794TIP3   OH268796   0.449   3.269   4.299  0.0212 -0.5185 -0.1822
15794TIP3    H168797   0.448   3.315   4.215  1.4622 -2.2306 -1.1887
15794TIP3    H268798   0.449   3.339   4.364 -0.2316  0.8599 -1.5915
15795TIP3   OH268799   4.465   2.894   5.719  0.5414  0.2279 -0.8971
15795TIP3    H168800   4.476   2.921   5.811 -1.0181  0.1948 -0.6680
15795TIP3    H268801   4.386   2.940   5.691  0.7676 -0.1056 -2.1053
15796TIP3   OH268802   5.489   1.762   5.409 -0.0037 -0.1178 -0.3286
15796TIP3    H168803   5.564   1.718   5.449 -2.2287 -4.3428 -0.2677
15796TIP3    H268804   5.476   1.716   5.326 -2.0389  1.0988 -0.7581
15797TIP3   OH268805   6.244   2.840  17.010  0.0952  0.4635  0.3209
15797TIP3    H168806   6.283   2.765  17.056  0.5623  0.2924 -0.3439
15797TIP3    H268807   6.288   2.916  17.048  1.1571  0.2691 -0.4743
15798TIP3   OH268808   6.326   1.832  14.118 -0.7826 -0.2175 -0.3683
15798TIP3    H168809   6.280   1.767  14.171  1.0023 -0.7237  0.6848
15798TIP3    H268810   6.293   1.819  14.029 -0.3875 -2.7174 -0.2389
15799TIP3   OH268811   6.278   5.358   1.467 -0.1964 -0.2109 -0.1991
15799TIP3    H168812   6.223   5.354   1.389 -1.2458  0.3656  0.4971
15799TIP3    H268813   6.366   5.335   1.435 -0.7801 -0.8960 -1.3657
15800TIP3   OH268814   4.041   6.659  16.953 -0.6960  0.0160  0.1758
15800TIP3    H168815   3.990   6.659  17.034 -3.0683 -3.7065 -1.0793
15800TIP3    H268816   4.009   6.737  16.906 -2.8697 -0.3894  0.8536
15801TIP3   OH268817   4.590   1.517   4.527  0.5709  0.3651  0.1730
15801TIP3    H168818   4.653   1.447   4.515 -0.1995 -0.2228 -0.6250
15801TIP3    H268819   4.574   1.550   4.438  1.0703  1.7012  0.5495
15802TIP3   OH268820   3.305   4.922   1.026  0.3196 -0.1803  0.1894
15802TIP3    H168821   3.302   4.844   0.969  0.3633  0.0222 -0.0940
15802TIP3    H268822   3.387   4.913   1.074  0.1146 -0.5296  0.4766
15803TIP3   OH268823   3.462   2.177  14.171 -0.5015  0.1508 -0.1158
15803TIP3    H168824   3.476   2.147  14.261 -0.2051  0.7686  0.0516
15803TIP3    H268825   3.549   2.174  14.131 -0.8881 -1.7019 -0.9008
15804TIP3   OH268826   5.192   5.293  11.352  0.0871 -0.1932  0.0139
15804TIP3    H168827   5.142   5.235  11.294  1.6380 -0.9134 -0.6366
15804TIP3    H268828   5.203   5.243  11.433 -0.7251  0.2049  0.3885
15805TIP3   OH268829   0.040   5.106  15.680 -0.2725  0.3045  0.0259
15805TIP3    H168830   0.099   5.055  15.624 -0.8648  0.3424 -0.6484
15805TIP3    H268831   0.098   5.161  15.732  0.5046 -2.0329  1.8176
15806TIP3   OH268832   0.776   1.399  14.398  0.5577  0.3083 -0.1236
15806TIP3    H168833   0.855   1.366  14.441 -0.5001 -1.0476  0.8548
15806TIP3    H268834   0.778   1.358  14.311  1.3676  1.0156 -0.4628
15807TIP3   OH268835   0.182   0.952   2.353 -0.5234 -0.0267 -0.6216
15807TIP3    H168836   0.253   0.888   2.351 -0.5861 -0.1144 -0.1826
15807TIP3    H268837   0.107   0.905   2.318 -0.0493  0.4826 -2.3981
15808TIP3   OH268838   1.880   2.649   4.797 -0.2314  0.4210  0.3599
15808TIP3    H168839   1.870   2.733   4.841  0.5155  0.1397  1.0983
15808TIP3    H268840   1.974   2.639   4.784 -0.1901 -0.7938  1.3211
15809TIP3   OH268841   0.269   1.604  12.665 -0.3112  0.0355  0.0435
15809TIP3    H168842   0.294   1.641  12.749 -0.4246  1.9066 -0.7080
15809TIP3    H268843   0.352   1.578  12.624 -0.3295 -2.0307  1.1772
15810TIP3   OH268844   3.132   2.279   2.231 -0.1865  0.0538  0.3882
15810TIP3    H168845   3.162   2.188   2.223 -0.3133 -0.0114  0.6210
15810TIP3    H268846   3.158   2.320   2.149  1.1567  0.1849  0.8561
15811TIP3   OH268847   4.246   4.401  15.850  0.2790  0.0835 -0.2275
15811TIP3    H168848   4.210   4.468  15.908  1.3048 -1.0134  1.7811
15811TIP3    H268849   4.311   4.448  15.797  0.0653  0.9218  0.2428
15812TIP3   OH268850   2.552   4.904  15.484 -0.8815 -0.2129 -0.5075
15812TIP3    H168851   2.631   4.913  15.537 -1.6096  1.6191  0.3415
15812TIP3    H268852   2.581   4.918  15.394 -0.2619  0.7659 -0.1741
15813TIP3   OH268853   1.928   4.817   1.474  0.0511  0.1972 -0.2858
15813TIP3    H168854   1.918   4.727   1.507 -1.9094  0.1403 -0.9252
15813TIP3    H268855   1.854   4.865   1.512  1.4104  1.7236  0.5432
15814TIP3   OH268856   0.380   4.984   0.639  0.1499 -0.8543 -0.5511
15814TIP3    H168857   0.431   5.060   0.669  0.8033 -1.1497 -0.8873
15814TIP3    H268858   0.316   5.020   0.578  0.2455 -0.5305 -0.4607
15815TIP3   OH268859   3.058   4.194   0.610  0.0565  0.1793 -0.0838
15815TIP3    H168860   2.983   4.218   0.556 -0.2117  0.2171  0.3012
15815TIP3    H268861   3.041   4.236   0.695  1.3606  1.6325 -0.5131
15816TIP3   OH268862   5.918   6.001   1.183 -0.1153 -0.4440 -0.2502
15816TIP3    H168863   5.992   5.961   1.136  0.0090  0.4189 -0.8116
15816TIP3    H268864   5.893   5.935   1.248  1.5932 -0.4720  0.4353
15817TIP3   OH268865   1.352   1.010   0.780  0.3822 -0.0321 -0.1104
15817TIP3    H168866   1.339   1.104   0.795 -0.3355 -0.2973  1.0473
15817TIP3    H268867   1.304   0.992   0.699 -0.7237  0.3343  0.4456
15818TIP3   OH268868   2.808   0.024   5.027  0.0079  0.2391 -0.3647
15818TIP3    H168869   2.718   0.011   4.998 -0.4379  0.2818  0.9219
15818TIP3    H268870   2.861   0.010   4.949 -1.1351  0.5682 -1.2272
15819TIP3   OH268871   1.054   2.951   2.741  0.1947 -0.7825  0.6025
15819TIP3    H168872   0.963   2.926   2.728 -0.0373  0.4494 -0.2747
15819TIP3    H268873   1.074   3.010   2.668  1.8884 -1.5113  0.4049
15820TIP3   OH268874   4.982   0.156  17.178  0.1779  0.4463 -0.0459
15820TIP3    H168875   4.961   0.236  17.130 -0.7562 -1.2357 -2.5818
15820TIP3    H268876   5.077   0.145  17.165  0.1249  0.5921 -0.5769
15821TIP3   OH268877   5.489   3.625   4.875 -0.2081 -0.0082 -0.6436
15821TIP3    H168878   5.552   3.605   4.944  0.0508  0.7172 -0.6682
15821TIP3    H268879   5.542   3.639   4.796 -0.4583 -0.2225 -0.8550
15822TIP3   OH268880   5.686   0.422   1.792  0.1007  0.0714 -0.1807
15822TIP3    H168881   5.665   0.379   1.875 -2.1409 -0.5135 -0.9913
15822TIP3    H268882   5.657   0.513   1.804 -2.6667 -0.6090 -1.1149
15823TIP3   OH268883   2.874   6.559   4.189  0.2663 -0.0826  0.1922
15823TIP3    H168884   2.932   6.630   4.163 -0.9558  2.3030  3.2641
15823TIP3    H268885   2.859   6.509   4.109  2.6839  2.0018 -1.7265
15824TIP3   OH268886   4.744   4.922  16.833  0.0429  0.0976 -0.0174
15824TIP3    H168887   4.727   4.871  16.912 -2.4220  0.1623 -0.4348
15824TIP3    H268888   4.805   4.869  16.782 -0.5114 -1.2537  0.6901
15825TIP3   OH268889   2.873   4.496  12.700 -0.0562  0.6587  0.3143
15825TIP3    H168890   2.861   4.564  12.634  3.5301  1.4954  0.3223
15825TIP3    H268891   2.891   4.416  12.651 -1.4868  0.3122  0.3204
15826TIP3   OH268892   6.531   1.252   1.416 -0.0806  0.0163 -0.1814
15826TIP3    H168893   6.529   1.170   1.464  1.6118  0.4897  0.7726
15826TIP3    H268894   6.460   1.244   1.352 -0.9786 -1.5129  0.9375
15827TIP3   OH268895   3.525   6.158  11.859 -0.5285 -0.3799  0.2342
15827TIP3    H168896   3.536   6.126  11.949  0.1155  1.6691  0.9282
15827TIP3    H268897   3.597   6.117  11.810 -0.1492 -0.5426  0.9249
15828TIP3   OH268898   6.385   0.740  16.083  0.0173 -0.0122  0.0526
15828TIP3    H168899   6.307   0.772  16.127 -0.0071  1.6658 -1.1044
15828TIP3    H268900   6.449   0.811  16.092  0.2872  0.0502 -1.8004
15829TIP3   OH268901   0.624   5.802  16.322  0.3290 -0.4057  0.8140
15829TIP3    H168902   0.674   5.884  16.326  1.3630 -1.0127  0.6182
15829TIP3    H268903   0.683   5.740  16.279 -1.3393 -0.6003 -1.4301
15830TIP3   OH268904   0.114   3.835   4.908  0.4318  0.3020 -0.4255
15830TIP3    H168905   0.146   3.836   4.817  0.7027  0.3069 -0.3316
15830TIP3    H268906   0.172   3.895   4.954  2.9361 -2.6871  0.6320
15831TIP3   OH268907   5.967   3.207   5.392 -0.1979  0.7349  0.4094
15831TIP3    H168908   5.954   3.230   5.484 -1.9875  1.9396 -0.0914
15831TIP3    H268909   5.893   3.151   5.371  0.0357  0.7166 -0.3854
15832TIP3   OH268910   1.533   2.445  12.463 -0.0923 -0.2033  0.0180
15832TIP3    H168911   1.451   2.463  12.417  0.2317 -2.6391 -1.7108
15832TIP3    H268912   1.573   2.531  12.475 -2.1440  0.8970 -0.5112
15833TIP3   OH268913   4.359   3.326  12.112 -0.0331  0.2438  0.2769
15833TIP3    H168914   4.312   3.325  12.028  1.3180  2.2392 -0.5945
15833TIP3    H268915   4.404   3.242  12.115 -0.0681  0.1533 -1.0258
15834TIP3   OH268916   3.759   0.170  14.348 -0.4131 -0.1426 -0.6083
15834TIP3    H168917   3.743   0.251  14.397 -0.9013  0.0345 -1.0367
15834TIP3    H268918   3.778   0.104  14.414 -0.2411  0.2763 -0.2389
15835TIP3   OH268919   2.697   3.194   5.655 -0.4199 -0.0569  0.1835
15835TIP3    H168920   2.776   3.185   5.708 -1.3328 -1.6145  1.3992
15835TIP3    H268921   2.677   3.105   5.626 -0.9196  0.5227 -1.3579
15836TIP3   OH268922   2.916   2.653   3.198  0.0092  0.4173  0.0472
15836TIP3    H168923   3.005   2.663   3.229 -0.0168 -1.5083  0.8710
15836TIP3    H268924   2.911   2.563   3.165 -1.6384  0.4531  0.0819
15837TIP3   OH268925   1.067   1.814  16.953  0.0882 -0.3982 -0.2278
15837TIP3    H168926   1.051   1.855  17.038 -2.1383 -0.1047 -0.7415
15837TIP3    H268927   1.125   1.741  16.973  0.0916  0.0145  1.4491
15838TIP3   OH268928   4.258   0.138  13.593  0.2885  0.0755 -0.6785
15838TIP3    H168929   4.261   0.208  13.659  0.5194  0.0485 -0.6611
15838TIP3    H268930   4.165   0.116  13.587  0.2836 -0.0371 -0.2346
15839TIP3   OH268931   1.682   5.386   2.054 -0.2967  0.0377  0.4411
15839TIP3    H168932   1.620   5.459   2.046 -1.2919 -0.9128 -0.8686
15839TIP3    H268933   1.738   5.393   1.977 -1.6874 -1.7070 -0.7960
15840TIP3   OH268934   1.875   0.694   4.682  0.0441  0.7223  0.3911
15840TIP3    H168935   1.823   0.660   4.609  0.0572 -1.5796  1.3582
15840TIP3    H268936   1.814   0.699   4.755  0.8286 -0.8676  1.2240
15841TIP3   OH268937   4.030   4.625   6.426 -0.6548  0.3296 -1.1475
15841TIP3    H168938   3.973   4.647   6.500 -0.3397 -0.4954 -0.6422
15841TIP3    H268939   3.974   4.571   6.369 -0.3869 -0.5038 -0.6376
15842TIP3   OH268940   1.910   5.307   1.503 -0.0913 -0.0992  0.0255
15842TIP3    H168941   1.834   5.359   1.531 -0.7886 -1.7912  1.5032
15842TIP3    H268942   1.985   5.364   1.518 -0.8509  0.6356  1.2114
15843TIP3   OH268943   6.304   1.605   3.111 -0.3683 -0.3880  0.3149
15843TIP3    H168944   6.310   1.600   3.015  0.9624 -0.4763  0.3817
15843TIP3    H268945   6.228   1.659   3.127 -1.4301 -1.4821 -0.7711
15844TIP3   OH268946   4.157   0.430  11.772 -0.2755  0.3546 -0.6484
15844TIP3    H168947   4.146   0.446  11.678 -1.9987  3.3352 -0.0693
15844TIP3    H268948   4.093   0.362  11.792  0.5337 -0.7499 -1.6984
15845TIP3   OH268949   4.667   4.057  16.162 -0.1244  0.7438 -0.2107
15845TIP3    H168950   4.632   4.047  16.073  0.9494  1.3958 -0.7289
15845TIP3    H268951   4.619   3.993  16.214  0.4974 -0.9588 -1.6274
15846TIP3   OH268952   6.081   0.483  16.773 -0.1996  0.0284 -1.0458
15846TIP3    H168953   6.168   0.524  16.776 -0.0374 -0.2905 -1.2342
15846TIP3    H268954   6.082   0.419  16.845 -0.4976  0.4398 -0.6708
15847TIP3   OH268955   1.370   1.122   6.027 -0.1185 -0.1952 -0.4071
15847TIP3    H168956   1.326   1.043   5.997  0.4132 -1.8312  2.6338
15847TIP3    H268957   1.324   1.194   5.984 -1.0548 -2.0786 -2.7818
15848TIP3   OH268958   5.137   0.293   1.582  0.0330 -0.3551 -0.6420
15848TIP3    H168959   5.087   0.328   1.656 -0.1687 -2.2497  0.1722
15848TIP3    H268960   5.219   0.342   1.582 -0.2712  0.1610  0.3971
15849TIP3   OH268961   5.878   4.258   2.422 -0.1029 -0.2003 -0.3794
15849TIP3    H168962   5.938   4.200   2.375 -2.4492 -1.6363 -1.8175
15849TIP3    H268963   5.926   4.283   2.501  1.7976 -2.4887 -0.6859
15850TIP3   OH268964   6.487   4.172  13.884 -0.1203 -0.1804  0.3459
15850TIP3    H168965   6.463   4.143  13.796  1.4537  0.0628 -0.1930
15850TIP3    H268966   6.462   4.099  13.941 -0.4620 -0.6537 -0.3939
15851TIP3   OH268967   1.803   0.601   3.588  0.3650 -0.4038 -0.0712
15851TIP3    H168968   1.853   0.541   3.645  0.1148  1.2546  2.0203
15851TIP3    H268969   1.761   0.544   3.524  1.6159 -2.2634  0.6762
15852TIP3   OH268970   2.042   0.776   2.399  0.0890 -0.1918  0.0262
15852TIP3    H168971   2.003   0.824   2.472  0.3041  0.2272 -0.1265
15852TIP3    H268972   1.996   0.810   2.322 -0.5929 -1.1000  0.0199
15853TIP3   OH268973   5.041   3.305   4.733 -0.0629  0.0306 -0.2849
15853TIP3    H168974   5.111   3.254   4.691  0.0741 -1.0101  1.1361
15853TIP3    H268975   5.086   3.364   4.792 -0.3228  0.4825 -0.5322
15854TIP3   OH268976   0.790   0.926  14.096  0.0417  0.0529  0.4863
15854TIP3    H168977   0.805   1.016  14.066  1.7000  0.3097  1.9196
15854TIP3    H268978   0.748   0.936  14.181 -1.0799 -0.5980  0.0416
15855TIP3   OH268979   0.014   3.957   1.559  0.1851  0.2387  0.1474
15855TIP3    H168980   0.009   3.865   1.587 -0.2939  0.4940  0.9241
15855TIP3    H268981  -0.038   4.004   1.623 -1.5789  0.7717 -1.5573
15856TIP3   OH268982   5.334   3.763  12.529  0.1628 -0.3150 -0.0546
15856TIP3    H168983   5.281   3.755  12.450  1.1705  0.1669 -0.8071
15856TIP3    H268984   5.374   3.677  12.540  0.9031 -0.0757 -0.7395
15857TIP3   OH268985   1.043   3.295  12.941  0.3947 -0.0091  0.0908
15857TIP3    H168986   1.010   3.384  12.927 -0.3131 -0.4015 -0.7992
15857TIP3    H268987   1.138   3.305  12.942  0.4797  1.5580  5.3034
15858TIP3   OH268988   6.302   3.106   4.767 -0.2999  0.4126 -0.0033
15858TIP3    H168989   6.293   3.173   4.836  1.8726  0.6179  0.1585
15858TIP3    H268990   6.253   3.141   4.693 -2.1938  0.4688  1.2010
15859TIP3   OH268991   5.064   0.126  12.741 -0.2716 -0.1001  0.0781
15859TIP3    H168992   4.979   0.102  12.777 -0.2088 -0.7006 -0.1601
15859TIP3    H268993   5.058   0.221  12.726 -0.7854 -0.0863  0.3473
15860TIP3   OH268994   2.763   5.411  16.454 -0.1542 -0.1716  0.1711
15860TIP3    H168995   2.742   5.368  16.372 -0.1630 -1.4110  0.7928
15860TIP3    H268996   2.750   5.343  16.521  2.2525  0.0384  0.9555
15861TIP3   OH268997   2.633   0.322  10.733  0.3495  0.1239 -0.3786
15861TIP3    H168998   2.644   0.238  10.777  0.7830  0.5243  0.3054
15861TIP3    H268999   2.701   0.378  10.772 -1.4890  1.5191  1.0365
15862TIP3   OH269000   6.300   1.122   4.102  0.0017  0.1985  0.2018
15862TIP3    H169001   6.272   1.102   4.012 -0.8110 -0.1162  0.5099
15862TIP3    H269002   6.315   1.216   4.101  0.8807  0.0612 -0.4914
15863TIP3   OH269003   5.235   5.101  10.919 -0.0876 -0.1350  0.3649
15863TIP3    H169004   5.270   5.055  10.842 -2.5819 -0.2576 -0.7684
15863TIP3    H269005   5.180   5.170  10.883 -0.8859  0.1641  2.0631
15864TIP3   OH269006   4.995   6.288  16.078 -0.1305  0.3619 -0.2705
15864TIP3    H169007   5.024   6.269  15.988 -3.3000 -0.4264 -1.2375
15864TIP3    H269008   4.954   6.374  16.072  1.9658  1.5713  1.1255
15865TIP3   OH269009   0.716   1.497  14.989 -0.2258  0.1069 -0.2294
15865TIP3    H169010   0.711   1.495  14.894  1.0153 -1.7784 -0.3122
15865TIP3    H269011   0.650   1.435  15.019 -0.9687  1.0775  0.1772
15866TIP3   OH269012   4.413   2.228   3.621 -0.2444 -0.7289 -0.0330
15866TIP3    H169013   4.400   2.287   3.546 -0.4785 -0.0406  0.5406
15866TIP3    H269014   4.450   2.284   3.689  1.1570 -1.6081 -0.0235
15867TIP3   OH269015   5.864   4.809  12.606  0.4066  0.0754 -0.5634
15867TIP3    H169016   5.888   4.835  12.695  0.8624 -0.5960 -0.4787
15867TIP3    H269017   5.791   4.748  12.617  0.3539  0.1227 -0.6534
15868TIP3   OH269018   0.771   0.615  12.687  0.0568  0.3607  0.1687
15868TIP3    H169019   0.859   0.601  12.721  0.1092  1.2038  0.3997
15868TIP3    H269020   0.777   0.699  12.641  0.1636 -0.9825 -2.4793
15869TIP3   OH269021   5.234   0.718   3.442 -0.0269 -0.7277 -0.0143
15869TIP3    H169022   5.161   0.681   3.491 -0.0103 -1.8752 -0.8134
15869TIP3    H269023   5.194   0.762   3.367 -0.1295  1.9105  1.4662
15870TIP3   OH269024   3.771   1.408  15.946  0.3351  0.4304  0.1332
15870TIP3    H169025   3.700   1.391  16.008 -0.5026  0.6050 -0.7559
15870TIP3    H269026   3.812   1.489  15.977  0.6548 -0.0773  1.0854
15871TIP3   OH269027   2.683   3.359   4.541  0.0799  0.2145  1.2139
15871TIP3    H169028   2.744   3.286   4.540  1.3160  1.1436 -1.5851
15871TIP3    H269029   2.714   3.417   4.610  2.5851  0.7606 -0.2704
15872TIP3   OH269030   4.498   6.505   1.518  0.4815  0.2830  0.3203
15872TIP3    H169031   4.566   6.470   1.461  1.2437 -0.8441  1.8566
15872TIP3    H269032   4.451   6.569   1.463  2.4966  0.8000 -0.9027
15873TIP3   OH269033   2.631   2.029   6.350 -0.3511 -0.5685  0.1109
15873TIP3    H169034   2.632   2.125   6.344 -0.1405 -0.5797 -0.0660
15873TIP3    H269035   2.540   2.007   6.368 -1.2253 -0.5498 -3.5034
15874TIP3   OH269036   1.684   2.173   2.031  0.5040  0.4254 -0.0183
15874TIP3    H169037   1.621   2.143   2.097 -0.9431 -0.1917 -1.6140
15874TIP3    H269038   1.641   2.248   1.989  1.6271  1.1324  0.0619
15875TIP3   OH269039   1.465   4.016   0.455  0.0697  0.1791 -0.2062
15875TIP3    H169040   1.436   3.996   0.366 -0.4722  0.6733 -0.1537
15875TIP3    H269041   1.418   3.954   0.510  0.2506  0.0057 -0.2470
15876TIP3   OH269042   6.489   2.569  14.679 -0.3693  0.2224 -0.6395
15876TIP3    H169043   6.449   2.485  14.660 -1.6450  0.6576  0.0515
15876TIP3    H269044   6.419   2.622  14.715  0.4007  1.6125 -1.1064
15877TIP3   OH269045   0.986   1.377  12.036  0.8109 -0.4517 -0.2820
15877TIP3    H169046   1.022   1.295  12.001  1.1306 -1.3227  1.9202
15877TIP3    H269047   0.927   1.349  12.107  1.8084  1.2322  1.2975
15878TIP3   OH269048   1.124   3.809  16.247  0.2540  0.0798 -0.6124
15878TIP3    H169049   1.173   3.759  16.312  1.8498  0.9152 -1.1309
15878TIP3    H269050   1.187   3.871  16.211 -0.9840  0.6674 -1.8833
15879TIP3   OH269051   3.171   5.502  11.542  0.5372  0.0050  0.2278
15879TIP3    H169052   3.162   5.589  11.502 -1.2081 -0.0997  0.3265
15879TIP3    H269053   3.239   5.459  11.490  0.8955  1.1554 -0.2983
15880TIP3   OH269054   5.938   3.959   3.063 -0.0143  0.0810 -0.2137
15880TIP3    H169055   5.857   4.008   3.050 -0.3027 -0.3022  0.0992
15880TIP3    H269056   5.969   3.986   3.149  0.2711  0.3380 -0.3956
15881TIP3   OH269057   6.086   1.520   6.131 -0.5756 -0.3112  0.0057
15881TIP3    H169058   6.130   1.606   6.130  1.0153 -1.0502  1.4315
15881TIP3    H269059   6.041   1.517   6.215  1.1553 -1.6482  0.9619
15882TIP3   OH269060   4.051   1.861  17.183  0.2409  0.7876  0.9856
15882TIP3    H169061   4.104   1.822  17.114 -0.7821  0.9727  0.0750
15882TIP3    H269062   4.017   1.786  17.232 -0.0147  0.6165  0.5437
15883TIP3   OH269063   4.105   4.439   0.936  0.4489 -0.1831 -0.7446
15883TIP3    H169064   4.115   4.369   0.871 -0.1879  0.1812 -1.2482
15883TIP3    H269065   4.174   4.502   0.915 -0.2159  0.3019 -1.5679
15884TIP3   OH269066   6.258   5.107   5.109 -0.5077 -0.2185  0.1769
15884TIP3    H169067   6.320   5.034   5.118  0.2158  0.0748 -1.8818
15884TIP3    H269068   6.311   5.179   5.075 -1.5644  0.7372  0.4960
15885TIP3   OH269069   3.765   2.859  12.148 -0.2662 -0.4895  0.0210
15885TIP3    H169070   3.687   2.824  12.105 -2.1465  0.6310  2.3004
15885TIP3    H269071   3.810   2.781  12.182 -1.0402 -1.0741 -0.2577
15886TIP3   OH269072   5.380   6.080   0.926 -0.5111 -0.1099  0.1344
15886TIP3    H169073   5.399   6.000   0.975 -0.6498 -0.3374 -0.1774
15886TIP3    H269074   5.454   6.138   0.944  0.8143 -1.1886 -1.5079
15887TIP3   OH269075   6.514   1.308   0.480  0.4063  0.0623  0.5367
15887TIP3    H169076   6.459   1.318   0.558  0.4628  1.7877  0.3830
15887TIP3    H269077   6.601   1.290   0.515 -0.1359 -2.6921  0.7848
15888TIP3   OH269078   1.775   1.156  13.084  0.2388 -0.1244 -0.0762
15888TIP3    H169079   1.747   1.212  13.157 -0.0170 -1.3419  0.7958
15888TIP3    H269080   1.863   1.128  13.109  0.5017  0.1553 -0.6766
15889TIP3   OH269081   2.043   5.941   5.303  0.1173  0.4312  0.6911
15889TIP3    H169082   1.959   5.954   5.258  0.6597 -0.0730 -0.5290
15889TIP3    H269083   2.034   5.989   5.385 -1.3180  0.4877  0.5304
15890TIP3   OH269084   1.430   5.533   5.689  0.0200  0.7681  0.0859
15890TIP3    H169085   1.453   5.601   5.753  0.4285  1.0501 -0.3581
15890TIP3    H269086   1.338   5.514   5.707  0.4762 -0.1539  1.6898
15891TIP3   OH269087   4.347   1.341  15.598  0.1434 -0.2797  0.3461
15891TIP3    H169088   4.396   1.417  15.629  0.5235  0.2256 -1.4042
15891TIP3    H269089   4.414   1.272  15.591  0.4792  0.1617 -1.1803
15892TIP3   OH269090   6.255   4.878  11.500 -0.7038  0.2635 -0.1823
15892TIP3    H169091   6.308   4.858  11.423  0.0431 -0.5728  0.5330
15892TIP3    H269092   6.212   4.961  11.478 -1.3379 -0.4930 -1.9160
15893TIP3   OH269093   4.588   0.100   0.003  0.2067 -0.0464 -0.0914
15893TIP3    H169094   4.531   0.035   0.044 -0.7442  1.8515  1.8159
15893TIP3    H269095   4.551   0.112  -0.085 -0.1933 -1.3390 -0.1213
15894TIP3   OH269096   4.275   1.348  16.679  0.0552  0.1372 -0.7003
15894TIP3    H169097   4.248   1.396  16.602 -0.6995 -0.1041 -0.5881
15894TIP3    H269098   4.199   1.295  16.703  1.1668 -1.9185 -1.4282
15895TIP3   OH269099   1.788   6.492   3.659  0.2038  0.0079 -0.4685
15895TIP3    H169100   1.878   6.458   3.651  0.1421 -0.0548 -0.9121
15895TIP3    H269101   1.799   6.586   3.669  0.4346 -0.2087  1.8408
15896TIP3   OH269102   0.265   1.341   0.605 -0.3289  0.3672 -0.0633
15896TIP3    H169103   0.235   1.373   0.690 -0.0974 -0.2383  0.2554
15896TIP3    H269104   0.299   1.253   0.623 -0.9777 -0.0746 -0.9221
15897TIP3   OH269105   4.374   0.789   2.121  0.4793 -0.3878  0.0111
15897TIP3    H169106   4.334   0.758   2.040 -1.0695 -1.6214  1.1696
15897TIP3    H269107   4.388   0.710   2.173  2.0125  0.3047  0.7371
15898TIP3   OH269108   3.785   4.533  11.547 -0.3360 -0.3099 -0.6314
15898TIP3    H169109   3.802   4.482  11.626  0.5758  1.0958  0.1216
15898TIP3    H269110   3.869   4.536  11.502 -0.9316 -1.3954 -1.8639
15899TIP3   OH269111   2.711   3.379  11.179  0.4403 -0.2096  0.0368
15899TIP3    H169112   2.733   3.472  11.170 -0.1260  0.0190  0.8932
15899TIP3    H269113   2.720   3.344  11.091 -0.4778  0.9256 -0.5454
15900TIP3   OH269114   4.343   5.536   2.818  0.0881 -0.0721 -0.1974
15900TIP3    H169115   4.281   5.606   2.793 -1.1373 -1.5523 -1.5397
15900TIP3    H269116   4.291   5.456   2.813  2.0659 -1.3673 -1.1662
15901TIP3   OH269117   3.658   1.692   1.943  0.2070 -0.0342  0.0702
15901TIP3    H169118   3.653   1.670   2.036 -1.2289  0.0887  0.0490
15901TIP3    H269119   3.749   1.717   1.929  0.3659  0.2816  1.5225
15902TIP3   OH269120   5.419   3.374  11.728  0.1616 -0.0669  0.1860
15902TIP3    H169121   5.461   3.412  11.805 -0.9804  1.1005  0.2638
15902TIP3    H269122   5.349   3.319  11.763 -1.0782  1.3238  0.0242
15903TIP3   OH269123   2.177   0.343   1.208 -0.5078 -0.2651 -0.2962
15903TIP3    H169124   2.245   0.308   1.151 -0.4079 -0.8222  0.1630
15903TIP3    H269125   2.121   0.269   1.229 -1.7216  0.3320 -1.2838
15904TIP3   OH269126   2.458   5.463   4.169 -0.3750 -0.5100 -0.3884
15904TIP3    H169127   2.522   5.530   4.146 -1.1021  0.3169 -0.0336
15904TIP3    H269128   2.511   5.390   4.202  0.3823  0.2000  0.0001
15905TIP3   OH269129   3.221   5.834   0.194 -0.4781  0.2102 -0.3147
15905TIP3    H169130   3.283   5.796   0.131  0.0669 -0.8197  0.7960
15905TIP3    H269131   3.276   5.883   0.254 -0.9632  0.9071 -0.4258
15906TIP3   OH269132   6.055   6.585  16.207 -0.5019  0.2471 -0.3995
15906TIP3    H169133   6.014   6.605  16.291 -1.3450  0.3612 -0.8327
15906TIP3    H269134   6.140   6.629  16.211 -1.2636  1.7714 -0.3087
15907TIP3   OH269135   6.530   4.739   1.681  0.1721  0.1471  0.6559
15907TIP3    H169136   6.453   4.683   1.677 -0.0240  0.4441  0.1288
15907TIP3    H269137   6.573   4.716   1.763  1.0786 -2.0639 -0.3662
15908TIP3   OH269138   3.062   0.535   2.724  0.1177 -0.0090 -0.5649
15908TIP3    H169139   2.977   0.567   2.755  0.5045 -0.6378  1.2481
15908TIP3    H269140   3.041   0.486   2.645 -1.5962 -2.1593  1.0825
15909TIP3   OH269141   1.396   2.421   2.805 -0.5182 -0.7303  0.9925
15909TIP3    H169142   1.336   2.494   2.823  0.2604  0.7793 -1.9220
15909TIP3    H269143   1.460   2.426   2.876 -1.2304  0.6264  1.5861
15910TIP3   OH269144   0.463   4.187   3.781  0.5666  0.1436 -0.0041
15910TIP3    H169145   0.477   4.207   3.689  0.6454  1.2740  0.2397
15910TIP3    H269146   0.368   4.187   3.792  0.5703  0.5262  0.0237
15911TIP3   OH269147   0.835   4.974  14.796  0.2557  0.6927 -0.1238
15911TIP3    H169148   0.790   4.893  14.773  1.7028 -0.3811  0.7075
15911TIP3    H269149   0.913   4.946  14.844 -0.3959  2.6385  2.2875
15912TIP3   OH269150   3.105   3.277  12.775  0.1547 -0.0691 -0.0235
15912TIP3    H169151   3.053   3.243  12.702 -1.2349  2.1861 -0.1813
15912TIP3    H269152   3.044   3.278  12.849  0.0457  2.1439 -0.0806
15913TIP3   OH269153   5.948   6.660  16.533 -0.1323 -0.5778  0.2462
15913TIP3    H169154   5.970   6.605  16.608  0.4436 -1.7451 -0.7543
15913TIP3    H269155   5.866   6.623  16.499  0.0366 -0.5603 -0.1887
15914TIP3   OH269156   5.650   5.684   1.036  0.5961  0.3248 -0.4732
15914TIP3    H169157   5.632   5.778   1.048  0.9178  0.2021  1.3460
15914TIP3    H269158   5.654   5.650   1.125 -0.0953 -1.5505 -1.1220
15915TIP3   OH269159   0.537   6.435  14.323  0.0111 -0.0447  0.0133
15915TIP3    H169160   0.458   6.398  14.361 -0.2742  1.2054  0.6955
15915TIP3    H269161   0.602   6.429  14.393 -0.0066  0.5968  0.0938
15916TIP3   OH269162   0.166   0.694  11.012  0.3067  0.5876 -0.0703
15916TIP3    H169163   0.245   0.651  10.977  0.0039  0.4318 -0.5777
15916TIP3    H269164   0.105   0.695  10.938  0.3518  2.0242 -0.1230
15917TIP3   OH269165   5.691   4.015   4.514  0.6873 -0.7789  0.2904
15917TIP3    H169166   5.656   4.103   4.527 -1.3024 -1.6977  1.7166
15917TIP3    H269167   5.779   4.018   4.553  0.9132  0.6886 -0.2494
15918TIP3   OH269168   0.393   1.133  12.497  0.3086  0.0976 -0.0597
15918TIP3    H169169   0.469   1.117  12.553 -0.0847  0.6318  0.6374
15918TIP3    H269170   0.430   1.154  12.411  0.9138 -0.8345 -0.0440
15919TIP3   OH269171   6.278   0.490   5.621 -0.2226  0.7083  0.1392
15919TIP3    H169172   6.262   0.503   5.528  1.2416 -0.1252 -0.2650
15919TIP3    H269173   6.292   0.396   5.630  3.3616  1.1343  0.4956
15920TIP3   OH269174   3.316   6.787   0.770  0.1319  0.6605 -0.2709
15920TIP3    H169175   3.342   6.698   0.745 -3.2328 -0.5380 -0.0029
15920TIP3    H269176   3.377   6.811   0.839  0.1490 -2.1702  0.8364
15921TIP3   OH269177   3.347   0.986  15.675 -0.3720  0.7606 -0.0800
15921TIP3    H169178   3.359   0.991  15.769 -0.3596 -0.5107 -0.0093
15921TIP3    H269179   3.258   1.020  15.660 -0.9749 -0.5127  0.5540
15922TIP3   OH269180   4.959   5.359  11.601  0.0764 -0.5303  0.3630
15922TIP3    H169181   4.984   5.267  11.589  0.5753 -0.3019 -0.4678
15922TIP3    H269182   5.033   5.398  11.647  0.1777 -0.3928  0.0859
15923TIP3   OH269183   3.814   0.460  15.575 -0.4544 -0.5210 -0.0508
15923TIP3    H169184   3.807   0.533  15.637  1.0162  1.2417 -1.8291
15923TIP3    H269185   3.907   0.440  15.573 -0.5794 -1.0617 -1.1051
15924TIP3   OH269186   5.992   6.235   0.671 -0.0112  0.5796 -0.0847
15924TIP3    H169187   6.063   6.264   0.614 -0.3046  2.0146  0.2443
15924TIP3    H269188   6.031   6.232   0.758 -0.1971  0.8517  0.0124
15925TIP3   OH269189   2.894   3.860   2.414 -0.0382  0.0709  0.0790
15925TIP3    H169190   2.871   3.838   2.504 -1.3622  0.2280 -0.2141
15925TIP3    H269191   2.812   3.888   2.374  0.9858  2.5669 -0.4376
15926TIP3   OH269192   3.549   5.125  15.828  0.5445  0.2103  0.6014
15926TIP3    H169193   3.636   5.086  15.815  0.4642 -0.2029  1.2468
15926TIP3    H269194   3.526   5.162  15.743  0.8316 -0.7279  0.1102
15927TIP3   OH269195   5.125   6.452  12.031 -0.2886 -0.1659  0.0246
15927TIP3    H169196   5.033   6.430  12.019 -0.5069 -0.0257  1.3076
15927TIP3    H269197   5.126   6.513  12.105  0.5949  1.8404 -1.5605
15928TIP3   OH269198   3.218   3.101   4.795 -0.2413  0.5161 -0.1680
15928TIP3    H169199   3.243   3.036   4.861 -0.4541 -0.3646 -0.9288
15928TIP3    H269200   3.285   3.170   4.803  2.6564 -1.7947 -2.1818
15929TIP3   OH269201   6.165   6.475  15.840  0.4694  0.2386  0.5103
15929TIP3    H169202   6.127   6.402  15.891  2.2054 -1.9154 -1.1028
15929TIP3    H269203   6.145   6.453  15.749 -0.3720  2.7088  0.0327
15930TIP3   OH269204   0.267   1.356   2.560  0.3168  0.2859 -0.0648
15930TIP3    H169205   0.242   1.448   2.552  2.2241  0.9028  0.4919
15930TIP3    H269206   0.314   1.351   2.643 -1.0912 -1.5442  0.6901
15931TIP3   OH269207   3.049   3.885  12.271 -0.1235  0.5373  0.0096
15931TIP3    H169208   3.018   3.936  12.196 -0.7847  0.1465  0.0064
15931TIP3    H269209   2.969   3.857  12.316  0.1607 -1.3778 -0.5761
15932TIP3   OH269210   0.026   5.014  12.978 -0.1594 -0.4349  0.6098
15932TIP3    H169211  -0.005   4.924  12.975 -0.7063 -0.2284 -0.2068
15932TIP3    H269212   0.087   5.021  12.904 -1.0817  0.1944 -0.1146
15933TIP3   OH269213   0.727   6.062   2.613  0.0765  0.5261  0.3262
15933TIP3    H169214   0.792   6.083   2.546 -0.8343  1.5601 -0.2671
15933TIP3    H269215   0.695   6.147   2.643 -0.8111  0.0342  0.8116
15934TIP3   OH269216   4.619   5.966   2.068 -0.3845 -0.0121 -0.8713
15934TIP3    H169217   4.648   5.897   2.127  0.0698 -1.1503 -2.3669
15934TIP3    H269218   4.581   5.920   1.994 -0.0162  1.3283 -1.9319
15935TIP3   OH269219   2.950   1.029   2.809 -0.0300 -0.0474 -0.1825
15935TIP3    H169220   2.915   0.941   2.824  0.6220 -0.5611 -1.5369
15935TIP3    H269221   3.039   1.026   2.843  0.2382 -0.1303 -0.8936
15936TIP3   OH269222   2.822   6.585  12.627  0.6696  0.1930 -0.3678
15936TIP3    H169223   2.759   6.527  12.671  0.1602 -0.1248 -1.4745
15936TIP3    H269224   2.775   6.667  12.615  0.1496 -0.2886 -1.8897
15937TIP3   OH269225   4.684   0.731   5.638  0.0192  0.6110 -0.0600
15937TIP3    H169226   4.641   0.785   5.573  0.4491  0.0825 -0.7982
15937TIP3    H269227   4.702   0.790   5.711 -0.6672  1.1572 -0.3295
15938TIP3   OH269228   6.078   6.755  14.802 -0.0237 -0.0865 -0.1527
15938TIP3    H169229   6.067   6.661  14.787  0.7539  0.0639 -1.9221
15938TIP3    H269230   6.139   6.761  14.876  1.4175 -1.0153 -1.2131
15939TIP3   OH269231   4.735   3.119   4.711 -0.0518  0.3083  0.4618
15939TIP3    H169232   4.801   3.070   4.661  0.5788 -0.6923  2.1704
15939TIP3    H269233   4.763   3.110   4.803 -0.8492  2.5302  0.9847
15940TIP3   OH269234   0.993   5.019   1.359 -0.6184  0.1367 -0.0378
15940TIP3    H169235   1.019   4.983   1.444  0.2180 -0.0770 -0.3766
15940TIP3    H269236   1.074   5.054   1.322 -1.3040  1.8759  0.0391
15941TIP3   OH269237   0.379   5.431   1.563 -0.4669 -0.5619 -0.1919
15941TIP3    H169238   0.458   5.427   1.509 -2.4688  0.0175 -3.3823
15941TIP3    H269239   0.401   5.377   1.640  2.9190 -0.5672 -0.9858
15942TIP3   OH269240   2.032   3.110   1.444 -0.3765  0.1981  0.0765
15942TIP3    H169241   2.012   3.104   1.537  0.0196  0.3966  0.1803
15942TIP3    H269242   1.949   3.093   1.399 -0.2718 -1.3215  0.4220
15943TIP3   OH269243   2.778   1.997   4.571  0.7613 -0.0628 -0.0953
15943TIP3    H169244   2.704   1.947   4.536  1.8250 -2.4772  0.8824
15943TIP3    H269245   2.851   1.974   4.514  0.9555  1.9207 -0.7484
15944TIP3   OH269246   2.278   0.478   3.931 -0.1841 -0.2320 -0.5388
15944TIP3    H169247   2.356   0.445   3.975  0.2045  1.3586  0.0159
15944TIP3    H269248   2.292   0.456   3.839 -0.4630 -2.5412 -0.0976
15945TIP3   OH269249   0.300   3.841   5.360 -0.3656 -0.8508 -0.0729
15945TIP3    H169250   0.232   3.803   5.305  0.6971 -1.2500 -1.1690
15945TIP3    H269251   0.371   3.777   5.358  0.3076 -0.1434  0.4839
15946TIP3   OH269252   3.546   3.558  13.680 -0.0915 -0.1120 -0.5932
15946TIP3    H169253   3.565   3.652  13.678 -0.8395  0.0364 -1.2702
15946TIP3    H269254   3.455   3.553  13.709 -0.5840 -0.5291 -2.1072
15947TIP3   OH269255   1.962   0.684  16.986  0.1841 -0.5038  0.2177
15947TIP3    H169256   2.032   0.656  17.045 -0.0090  0.2468  0.8137
15947TIP3    H269257   1.881   0.652  17.027  0.0712 -0.1988  0.2366
15948TIP3   OH269258   6.214   5.046   3.963  0.1567 -0.1429 -0.0573
15948TIP3    H169259   6.131   5.074   3.924  1.1606 -0.9657 -3.0169
15948TIP3    H269260   6.196   4.958   3.997  0.3358 -1.4661 -3.0727
15949TIP3   OH269261   6.638   5.275   2.144  0.5782 -0.2952  0.8877
15949TIP3    H169262   6.665   5.188   2.175 -1.0714 -1.5861 -1.0891
15949TIP3    H269263   6.680   5.284   2.058  1.6431  1.3961  1.5379
15950TIP3   OH269264   1.315   5.893   1.690 -0.1439  0.8951 -0.1563
15950TIP3    H169265   1.316   5.916   1.783  0.4228 -1.5083  0.4857
15950TIP3    H269266   1.398   5.928   1.656  0.5864  0.0779  0.7228
15951TIP3   OH269267   3.091   2.262  12.073  0.1581  0.0824 -0.5916
15951TIP3    H169268   3.044   2.273  11.990  1.2240 -2.0948 -1.5547
15951TIP3    H269269   3.102   2.168  12.082  0.0478  0.2362  2.0963
15952TIP3   OH269270   5.160   0.486   6.450  0.1978 -0.1652 -0.7644
15952TIP3    H169271   5.094   0.477   6.518 -0.1650  0.4361 -1.0268
15952TIP3    H269272   5.152   0.407   6.397 -1.8385  0.8589 -2.1018
15953TIP3   OH269273   2.055   0.724  13.173 -0.2163  0.1702  0.2384
15953TIP3    H169274   2.085   0.661  13.108 -3.0436  0.1601 -1.1935
15953TIP3    H269275   2.110   0.802  13.159  1.7912 -1.1085  0.5258
15954TIP3   OH269276   2.105   3.553  12.970 -0.0026  0.2799  0.0268
15954TIP3    H169277   2.082   3.624  13.030  1.2830 -0.0508  0.9451
15954TIP3    H269278   2.030   3.494  12.973 -0.1964  0.5529  0.8991
15955TIP3   OH269279   4.744   0.573   4.727 -0.5745  0.4898 -0.0368
15955TIP3    H169280   4.797   0.653   4.732  1.3856 -0.6216 -1.4913
15955TIP3    H269281   4.743   0.550   4.634 -2.9529 -0.0433  0.0563
15956TIP3   OH269282   3.745   0.929  15.597  0.1308 -1.0594 -0.3057
15956TIP3    H169283   3.748   0.999  15.663 -1.1638 -0.2336 -1.0600
15956TIP3    H269284   3.663   0.883  15.616  0.7332 -2.0797 -0.1234
15957TIP3   OH269285   5.212   2.176   3.446  0.2231 -0.2506 -0.0519
15957TIP3    H169286   5.231   2.270   3.441  0.2841 -0.2687 -0.1593
15957TIP3    H269287   5.177   2.164   3.534  2.5643 -0.5272  0.9112
15958TIP3   OH269288   0.870   2.914   3.760  0.4116 -0.2604 -0.0376
15958TIP3    H169289   0.827   2.999   3.761 -1.0577 -0.9357 -1.3158
15958TIP3    H269290   0.824   2.863   3.826  1.0155 -0.1948  0.4384
15959TIP3   OH269291   5.748   4.348  11.264  0.7779 -0.0695  0.5036
15959TIP3    H169292   5.813   4.285  11.293  0.1435 -0.2948  1.4766
15959TIP3    H269293   5.786   4.433  11.286  2.2783  0.0520 -2.0927
15960TIP3   OH269294   0.836   6.671  12.188 -0.3465 -0.1756 -0.2347
15960TIP3    H169295   0.905   6.713  12.137  0.7475 -1.1951  0.3414
15960TIP3    H269296   0.883   6.623  12.256 -1.6347 -0.8312  0.2234
15961TIP3   OH269297   3.351   1.877  15.502 -0.0163 -0.9312 -0.1377
15961TIP3    H169298   3.298   1.910  15.574 -0.8817 -1.3159 -0.5813
15961TIP3    H269299   3.422   1.828  15.545  0.5562  0.3804  0.4856
15962TIP3   OH269300   4.367   1.295   4.109 -0.0916 -0.2293  0.0210
15962TIP3    H169301   4.325   1.215   4.077 -0.0467  0.0662 -0.7972
15962TIP3    H269302   4.460   1.272   4.115 -0.3442 -0.9106  1.9134
15963TIP3   OH269303   3.160   4.281   1.220  0.2749 -0.1608  0.2648
15963TIP3    H169304   3.114   4.212   1.267 -0.9018  1.6445  1.9385
15963TIP3    H269305   3.234   4.304   1.277  0.5232  0.1164 -0.1576
15964TIP3   OH269306   6.019   6.600   5.700  0.0574 -0.2260 -0.1098
15964TIP3    H169307   6.039   6.507   5.689 -0.1684 -0.2116 -0.6573
15964TIP3    H269308   5.983   6.627   5.616  0.9372  0.5689 -0.2446
15965TIP3   OH269309   5.670   4.778   2.882  0.7703  0.5416 -0.1428
15965TIP3    H169310   5.728   4.772   2.958  0.0123 -0.5469  0.3681
15965TIP3    H269311   5.684   4.697   2.833  1.4164  1.3255 -1.3222
15966TIP3   OH269312   3.414   2.519   3.125  0.2110 -0.0417 -0.2906
15966TIP3    H169313   3.431   2.425   3.136  1.2853  0.0080 -1.3137
15966TIP3    H269314   3.357   2.524   3.048  0.1906  0.1537 -0.2629
15967TIP3   OH269315   4.287   4.004  16.580 -0.6311  0.8362  0.2091
15967TIP3    H169316   4.192   3.994  16.587 -0.5817  0.5367  0.4811
15967TIP3    H269317   4.321   3.956  16.655 -0.3052  1.7441  0.6476
15968TIP3   OH269318   6.179   0.174  11.689  0.4843 -0.3031 -1.0081
15968TIP3    H169319   6.270   0.169  11.660  1.4866 -0.7323  1.8755
15968TIP3    H269320   6.161   0.087  11.724 -0.5024  0.2570 -0.1048
15969TIP3   OH269321   0.527   4.673   4.290  0.2125  0.8417 -0.2702
15969TIP3    H169322   0.561   4.705   4.374  2.2860 -2.3610  0.2824
15969TIP3    H269323   0.446   4.723   4.277  0.2991  2.1689  3.1137
15970TIP3   OH269324   3.334   6.030   1.673  0.1153  0.2516  0.2150
15970TIP3    H169325   3.426   6.041   1.649  0.2123 -0.4002  0.2578
15970TIP3    H269326   3.292   5.997   1.593 -0.0468  0.3947  0.2412
15971TIP3   OH269327   0.033   0.429   2.279 -0.6146  0.4048  0.0541
15971TIP3    H169328   0.039   0.475   2.196 -1.0140  0.5297  0.0952
15971TIP3    H269329  -0.011   0.347   2.258  1.6149 -0.7878 -0.3579
15972TIP3   OH269330   2.223   4.407   0.218 -0.3840 -0.3706  0.3078
15972TIP3    H169331   2.137   4.370   0.197 -1.4582  1.9810  0.3024
15972TIP3    H269332   2.257   4.438   0.134 -0.1707 -0.0216  0.5196
15973TIP3   OH269333   2.913   4.284  15.563 -0.6805  0.3608  0.3352
15973TIP3    H169334   2.912   4.210  15.623  1.8329 -0.1542 -0.1475
15973TIP3    H269335   2.977   4.345  15.601  1.7867 -0.4287 -2.1775
15974TIP3   OH269336   2.235   3.383   1.446 -0.1732  0.0017  0.3495
15974TIP3    H169337   2.154   3.402   1.492 -1.6024  0.1884 -2.0781
15974TIP3    H269338   2.297   3.448   1.478 -2.0227  2.2016 -0.2984
15975TIP3   OH269339   0.715   2.784   3.932 -0.5478 -0.1741  0.2389
15975TIP3    H169340   0.689   2.692   3.926 -3.3019  0.5942 -1.3657
15975TIP3    H269341   0.638   2.829   3.966  0.3476  1.6899 -0.0612
15976TIP3   OH269342   5.304   4.894  14.656  0.1360 -0.1113 -0.1181
15976TIP3    H169343   5.398   4.878  14.643  1.0030  3.0612  1.4182
15976TIP3    H269344   5.274   4.930  14.572  1.3676  2.7867  0.5716
15977TIP3   OH269345   5.096   3.463   3.805 -0.7070  0.1360 -0.1752
15977TIP3    H169346   5.050   3.480   3.722 -1.8266  0.8859  0.5747
15977TIP3    H269347   5.126   3.373   3.797 -1.2670  0.0202 -1.1814
15978TIP3   OH269348   3.403   4.855   3.724 -0.3374 -0.0996  0.0426
15978TIP3    H169349   3.483   4.877   3.677  0.1633 -1.1166  0.3942
15978TIP3    H269350   3.374   4.771   3.687 -2.1756  1.0219 -1.2326
15979TIP3   OH269351   2.392   0.105  13.199 -0.0233 -0.3218 -0.3473
15979TIP3    H169352   2.387   0.198  13.219  1.8067  0.4150 -2.8750
15979TIP3    H269353   2.389   0.062  13.285  2.5845  2.2491  1.2181
15980TIP3   OH269354   6.054   2.720   0.499 -0.1800  0.3458  0.0052
15980TIP3    H169355   6.102   2.792   0.542  0.6989  0.3662 -0.9651
15980TIP3    H269356   6.037   2.658   0.570 -0.0806  1.0542  0.6724
15981TIP3   OH269357   1.662   4.713  13.374  0.6661 -0.1086  0.1513
15981TIP3    H169358   1.640   4.729  13.466  1.2348  2.8946 -0.1147
15981TIP3    H269359   1.657   4.800  13.333  1.5987 -1.1597 -2.3962
15982TIP3   OH269360   5.389   1.890   5.956 -0.2246  0.1693 -0.3157
15982TIP3    H169361   5.305   1.846   5.941 -0.9848  0.9728  1.2822
15982TIP3    H269362   5.398   1.892   6.051  1.1940  0.8775 -0.4415
15983TIP3   OH269363   0.239   1.921   4.482 -0.1395  0.2212 -0.1143
15983TIP3    H169364   0.325   1.953   4.509  0.3957 -1.0104 -0.2751
15983TIP3    H269365   0.234   1.832   4.517 -1.7995  0.6263  0.8087
15984TIP3   OH269366   4.366   1.225   0.542 -0.1859 -0.4855 -0.6757
15984TIP3    H169367   4.299   1.243   0.608 -0.1128 -1.9824 -0.1526
15984TIP3    H269368   4.441   1.279   0.568 -1.8563  3.0778 -2.6027
15985TIP3   OH269369   0.297   5.361   0.173  0.4810 -0.4173  0.2207
15985TIP3    H169370   0.386   5.398   0.175  0.7296 -1.0169  0.5542
15985TIP3    H269371   0.299   5.292   0.240 -0.3604 -0.1599  0.5175
15986TIP3   OH269372   3.154   2.326   1.243  0.0954  0.2493 -0.1003
15986TIP3    H169373   3.232   2.320   1.187 -0.7021 -0.9602 -1.1352
15986TIP3    H269374   3.141   2.237   1.275 -0.5041  0.5710  0.5827
15987TIP3   OH269375   4.461   4.970   6.177 -0.4248  0.0518  0.6554
15987TIP3    H169376   4.525   4.956   6.248 -0.5433  1.9973  1.1911
15987TIP3    H269377   4.505   5.030   6.117 -1.0117 -0.1592  0.0073
15988TIP3   OH269378   3.733   5.860  13.474 -0.7880 -0.3042 -0.3067
15988TIP3    H169379   3.776   5.891  13.395 -0.3162  1.0118  0.4414
15988TIP3    H269380   3.677   5.788  13.444  0.0375 -0.4116 -1.6817
15989TIP3   OH269381   3.600   1.993  11.176  0.1188  0.0383  0.2845
15989TIP3    H169382   3.556   1.915  11.210  1.5659 -1.3054 -0.7493
15989TIP3    H269383   3.677   2.003  11.231  1.6114 -1.1905 -1.4669
15990TIP3   OH269384   5.485   2.567  11.308 -0.2557  0.3680  0.4871
15990TIP3    H169385   5.564   2.615  11.332  0.8379 -0.6662 -0.8905
15990TIP3    H269386   5.444   2.620  11.240 -0.2556  0.4264  0.5316
15991TIP3   OH269387   3.798   0.107   4.020  0.2479 -0.4649  0.2480
15991TIP3    H169388   3.767   0.040   3.959 -1.2690  0.3727  0.0522
15991TIP3    H269389   3.816   0.183   3.966  1.7445 -0.6028  0.5005
15992TIP3   OH269390   2.773   3.326  14.556  0.8308  0.1306  0.1016
15992TIP3    H169391   2.737   3.413  14.541  3.8316  1.1563 -2.2279
15992TIP3    H269392   2.821   3.334  14.639 -0.2386  0.1666  0.7287
15993TIP3   OH269393   5.749   0.252  11.555 -0.3149 -0.0657 -0.1338
15993TIP3    H169394   5.670   0.218  11.596 -1.1679  1.0663 -0.7878
15993TIP3    H269395   5.722   0.277  11.467  0.6204  0.9148 -0.1623
15994TIP3   OH269396   0.798   1.836   2.528 -0.0103  0.3300  0.4662
15994TIP3    H169397   0.862   1.782   2.481  1.1351  0.9388  1.2675
15994TIP3    H269398   0.800   1.920   2.482  0.0355  0.4588  0.7022
15995TIP3   OH269399   4.722   4.419  13.199 -0.4639 -0.0386  0.4452
15995TIP3    H169400   4.655   4.351  13.202 -0.4460 -0.3238 -2.5151
15995TIP3    H269401   4.804   4.373  13.214 -0.5585 -0.5162 -0.4221
15996TIP3   OH269402   2.724   1.130   2.992  0.0599  0.3471  0.4414
15996TIP3    H169403   2.683   1.049   2.963 -0.5540  0.6877  0.3473
15996TIP3    H269404   2.818   1.114   2.983 -0.0783  0.3067 -1.3929
15997TIP3   OH269405   4.855   0.158  14.938  0.3099  0.4810  0.1272
15997TIP3    H169406   4.928   0.200  14.892  1.3114 -0.9753  0.2902
15997TIP3    H269407   4.841   0.076  14.890 -0.2438  0.0690  0.9704
15998TIP3   OH269408   4.253   6.139   2.380 -0.3035  0.2652  0.3766
15998TIP3    H169409   4.158   6.126   2.380 -0.4110  0.9480  1.0432
15998TIP3    H269410   4.270   6.190   2.300 -0.7208  1.5029  1.0514
15999TIP3   OH269411   0.908   1.093   2.023  0.3104  0.0230 -0.7551
15999TIP3    H169412   0.830   1.146   2.005  0.7670  1.3118  0.7904
15999TIP3    H269413   0.924   1.107   2.117  0.8781 -2.3156 -0.4516
16000TIP3   OH269414   4.134   1.080   0.978  0.1242  0.4883  0.4345
16000TIP3    H169415   4.224   1.062   1.006  0.6218  2.6050  0.3516
16000TIP3    H269416   4.090   1.112   1.056 -0.4108  0.0298  0.3311
16001TIP3   OH269417   0.660   2.465  15.594 -0.6374 -0.0835 -0.1706
16001TIP3    H169418   0.605   2.539  15.571  0.4416  0.7188 -0.2190
16001TIP3    H269419   0.639   2.447  15.685 -1.2784 -0.0638 -0.3072
16002TIP3   OH269420   4.563   1.454  13.511 -0.4916 -0.1152 -0.2236
16002TIP3    H169421   4.511   1.381  13.479 -1.0777  0.6486 -1.0730
16002TIP3    H269422   4.499   1.517  13.545  0.1050 -1.0973  3.0552
16003TIP3   OH269423   1.583   0.525   5.696 -0.2841  0.5303  0.2730
16003TIP3    H169424   1.529   0.602   5.710 -0.6469  0.6533 -1.6544
16003TIP3    H269425   1.536   0.454   5.740 -0.4489  1.1920  1.1904
16004TIP3   OH269426   4.290   6.561  16.038 -0.2766  0.2037  0.1718
16004TIP3    H169427   4.318   6.481  16.082 -1.9714 -1.7900 -2.0884
16004TIP3    H269428   4.195   6.566  16.054 -0.4747  0.8447 -1.0714
16005TIP3   OH269429   2.007   4.878   5.056 -0.1020  0.4129 -0.2380
16005TIP3    H169430   2.063   4.896   4.981 -1.6030 -0.0765 -1.5499
16005TIP3    H269431   2.031   4.790   5.084  0.8270  0.8005  0.2197
16006TIP3   OH269432   3.377   0.370  16.681  0.3501 -0.4152  1.1761
16006TIP3    H169433   3.412   0.282  16.698  1.3829 -0.4117 -0.6755
16006TIP3    H269434   3.449   0.429  16.703 -0.1687 -0.0530  1.9343
16007TIP3   OH269435   0.845   0.366   5.843 -0.2819 -0.2545  0.3993
16007TIP3    H169436   0.865   0.460   5.843  0.5632 -0.4161 -0.9819
16007TIP3    H269437   0.842   0.343   5.936  0.1347  1.0177  0.7519
16008TIP3   OH269438   1.815   6.737   5.087 -0.1803  0.1251  0.9253
16008TIP3    H169439   1.765   6.734   5.005 -2.8075 -1.5466  2.4251
16008TIP3    H269440   1.863   6.819   5.083 -1.5437  0.9128 -1.5551
16009TIP3   OH269441   4.988   1.800   2.187 -0.3314 -0.7512  0.1603
16009TIP3    H169442   4.904   1.822   2.146 -0.1991 -0.9167 -0.1964
16009TIP3    H269443   5.024   1.730   2.133  0.2460 -0.3767  0.0553
16010TIP3   OH269444   6.044   4.577   2.230  0.0243  0.0658  0.1526
16010TIP3    H169445   6.121   4.604   2.180 -0.5906 -1.8589 -1.9850
16010TIP3    H269446   6.079   4.540   2.311  1.6436 -2.8219 -1.7006
16011TIP3   OH269447   3.270   2.923  15.002 -0.0089  0.4049  0.2465
16011TIP3    H169448   3.229   2.850  14.956  2.1928 -0.8673  0.1733
16011TIP3    H269449   3.197   2.980  15.025 -1.6304 -0.9759 -1.1511
16012TIP3   OH269450   3.810   6.009  14.027 -0.5052  0.0522 -0.1458
16012TIP3    H169451   3.893   5.967  14.050 -0.3248  0.2748 -0.3766
16012TIP3    H269452   3.827   6.103  14.035 -0.7812  0.0943 -0.0396
16013TIP3   OH269453   4.635   1.179  14.184  0.3322 -0.7355 -0.0959
16013TIP3    H169454   4.686   1.256  14.208  2.1288 -1.6923 -0.6810
16013TIP3    H269455   4.606   1.143  14.268  0.5474 -0.1110  0.2503
16014TIP3   OH269456   3.348   0.320   4.188 -0.3529 -0.0622  0.3643
16014TIP3    H169457   3.388   0.271   4.117  1.1477  0.2051  0.9829
16014TIP3    H269458   3.421   0.366   4.229 -1.3361  0.5859  1.4390
16015TIP3   OH269459   3.902   3.212   5.052  0.3254 -0.3069  0.0487
16015TIP3    H169460   3.889   3.267   5.129  1.8678 -0.8801  0.7677
16015TIP3    H269461   3.947   3.268   4.990 -2.8546  0.8526 -1.3946
16016TIP3   OH269462   2.199   1.095  11.077 -0.6661  0.0755  0.5139
16016TIP3    H169463   2.125   1.138  11.035  0.1693  1.6391  0.5696
16016TIP3    H269464   2.261   1.166  11.095  1.4800 -1.3453 -0.8587
16017TIP3   OH269465   1.165   6.259  13.506  0.2886 -0.0190  0.0325
16017TIP3    H169466   1.172   6.181  13.562 -0.0558  0.0440  0.1713
16017TIP3    H269467   1.071   6.280  13.507 -0.2150 -1.6373 -2.7768
16018TIP3   OH269468   3.594   4.526  11.346  0.4265 -0.1487 -0.7002
16018TIP3    H169469   3.510   4.559  11.378  0.9650  0.3230  0.2744
16018TIP3    H269470   3.657   4.554  11.412  1.3828 -0.3118 -1.5225
16019TIP3   OH269471   2.720   1.512   3.247 -0.0810  0.0088  0.8211
16019TIP3    H169472   2.709   1.417   3.248  0.7770 -0.1036  1.6310
16019TIP3    H269473   2.660   1.544   3.314 -1.0037  0.1314 -0.0483
16020TIP3   OH269474   5.948   2.111   0.382 -0.1719  0.0468 -0.1861
16020TIP3    H169475   5.918   2.132   0.293 -0.4287 -1.1260 -0.3956
16020TIP3    H269476   5.989   2.191   0.413 -0.4788  0.6143 -1.2007
16021TIP3   OH269477   5.448   6.773   2.828 -0.5157 -0.0321 -0.0027
16021TIP3    H169478   5.543   6.757   2.828  0.4077  4.0287 -1.9107
16021TIP3    H269479   5.419   6.743   2.914  2.6753 -0.7405  0.9746
16022TIP3   OH269480   0.971   0.452  14.962 -0.2348  0.8392 -0.4703
16022TIP3    H169481   0.924   0.377  14.926  0.2410  0.6462 -0.6876
16022TIP3    H269482   0.904   0.520  14.970 -0.7041  0.3391 -0.1056
16023TIP3   OH269483   3.108   3.178  11.732 -0.1496 -0.0377 -0.4362
16023TIP3    H169484   3.187   3.157  11.780 -1.1951 -2.0500  0.5229
16023TIP3    H269485   3.101   3.110  11.665 -0.2477  1.0542 -1.5770
16024TIP3   OH269486   1.203   5.907   0.035  0.2502 -0.8812  0.1228
16024TIP3    H169487   1.182   5.905   0.128 -1.7412  1.2191 -0.1588
16024TIP3    H269488   1.177   5.821   0.002 -0.9742 -0.9469  1.1892
16025TIP3   OH269489   5.311   6.639  11.514 -0.0606 -0.3721  0.4877
16025TIP3    H169490   5.247   6.638  11.442  0.1841  0.9817  0.2158
16025TIP3    H269491   5.374   6.572  11.490 -0.2518 -0.2804 -0.3240
16026TIP3   OH269492   3.810   2.941   2.472  0.2413  0.5733 -0.5592
16026TIP3    H169493   3.785   2.854   2.440  2.5175 -0.1727 -0.4949
16026TIP3    H269494   3.905   2.945   2.460  0.5403  2.1230  1.6225
16027TIP3   OH269495   2.990   6.282   1.201  0.1724 -0.0306 -0.1909
16027TIP3    H169496   2.983   6.221   1.128  0.5533  0.8789 -1.0142
16027TIP3    H269497   2.917   6.259   1.258  0.0856 -0.9977 -0.6649
16028TIP3   OH269498   3.674   4.708   5.712  0.1679  0.1220  0.2280
16028TIP3    H169499   3.701   4.617   5.702  0.4373  0.3381 -1.0862
16028TIP3    H269500   3.600   4.718   5.652  1.2531  1.2163 -0.9940
16029TIP3   OH269501   3.244   0.741   2.813  0.0588  0.0450  0.3950
16029TIP3    H169502   3.334   0.741   2.782  0.0327 -1.0922  0.2885
16029TIP3    H269503   3.198   0.680   2.755 -1.0472  1.4790 -0.2904
16030TIP3   OH269504   3.154   4.556  14.635  0.1428 -0.3425 -0.3848
16030TIP3    H169505   3.210   4.515  14.569  0.5524  1.4265 -1.1916
16030TIP3    H269506   3.204   4.632  14.665  0.6357 -1.8374  3.1066
16031TIP3   OH269507   2.171   3.362  12.295  0.2182  0.6777  0.1309
16031TIP3    H169508   2.264   3.351  12.314  0.0049 -0.2670  0.7264
16031TIP3    H269509   2.168   3.394  12.205  1.0656 -2.7202 -1.2678
16032TIP3   OH269510   5.880   1.064  16.506  0.2007  0.7125 -0.1823
16032TIP3    H169511   5.835   0.984  16.532 -0.2418  1.1566  0.4457
16032TIP3    H269512   5.814   1.114  16.458  0.8006  0.2204 -1.5879
16033TIP3   OH269513   5.946   4.714   5.476 -0.0470 -0.1215 -0.0609
16033TIP3    H169514   6.002   4.784   5.507  0.0302 -0.3329  0.2863
16033TIP3    H269515   6.006   4.647   5.444 -0.0882 -0.4645  0.5661
16034TIP3   OH269516   5.346   6.203  13.946 -0.2256 -0.1468  0.1902
16034TIP3    H169517   5.355   6.209  14.041  1.5808 -2.2819  0.2408
16034TIP3    H269518   5.304   6.118  13.931 -2.1044  0.8985 -0.9311
16035TIP3   OH269519   1.403   3.791  13.057  0.2385  0.5750  0.7404
16035TIP3    H169520   1.414   3.861  12.992 -0.8596  0.8098  0.7932
16035TIP3    H269521   1.350   3.830  13.126 -1.4669 -0.6496  0.1889
16036TIP3   OH269522   2.384   6.775   5.867 -0.6748 -0.0436  0.4926
16036TIP3    H169523   2.479   6.763   5.873 -0.6203  0.5674  0.8624
16036TIP3    H269524   2.371   6.869   5.873 -1.1352  0.1157 -1.9347
16037TIP3   OH269525   3.711   3.887   3.104 -0.1771  0.5496 -0.2806
16037TIP3    H169526   3.751   3.910   3.020 -0.3743  3.5347  0.3373
16037TIP3    H269527   3.775   3.917   3.169 -1.0538  0.4359  0.6524
16038TIP3   OH269528   6.426   0.359  15.916 -0.1347  0.3964  0.4600
16038TIP3    H169529   6.453   0.287  15.972 -0.1364 -0.2222 -0.3193
16038TIP3    H269530   6.340   0.385  15.950 -0.9072 -1.0898 -0.2701
16039TIP3   OH269531   5.012   4.259   5.355 -0.0694  0.0335 -0.0840
16039TIP3    H169532   4.979   4.185   5.406  1.1539 -0.7261 -0.3691
16039TIP3    H269533   5.054   4.316   5.420 -0.9277  0.4450  0.1219
16040TIP3   OH269534   1.564   6.291  10.588 -0.1832  0.0621  0.1067
16040TIP3    H169535   1.472   6.272  10.603  0.4757 -4.0392  0.0189
16040TIP3    H269536   1.605   6.281  10.674  0.7195 -2.9981 -0.5598
16041TIP3   OH269537   1.228   4.427   4.973 -0.0211 -0.3214 -1.0312
16041TIP3    H169538   1.232   4.412   5.067 -0.1846  2.3280 -0.5187
16041TIP3    H269539   1.210   4.341   4.935 -0.1004 -1.4195  1.3497
16042TIP3   OH269540   2.952   4.995   1.677 -0.6999 -0.0378  0.6630
16042TIP3    H169541   2.989   4.925   1.730  1.0999  1.2232  1.1598
16042TIP3    H269542   2.888   5.038   1.734 -1.1636 -0.7192  0.6575
16043TIP3   OH269543   2.595   0.141   5.715  0.0403  0.5009 -0.3939
16043TIP3    H169544   2.614   0.235   5.723  1.7920  0.3588 -1.9664
16043TIP3    H269545   2.619   0.104   5.800  0.5205  1.3314 -0.1518
16044TIP3   OH269546   5.058   2.409   4.153  0.0449 -0.5958  0.4815
16044TIP3    H169547   4.993   2.429   4.220 -0.0527 -2.0951  0.8760
16044TIP3    H269548   5.037   2.319   4.126 -0.9705  0.4949 -2.7683
16045TIP3   OH269549   4.377   6.211  15.766 -0.6757  0.2410  0.0534
16045TIP3    H169550   4.461   6.179  15.798 -1.9908 -2.5978  0.9944
16045TIP3    H269551   4.342   6.263  15.838 -0.3129  0.2752  0.2054
16046TIP3   OH269552   5.388   3.270   0.629  0.2808  1.2180 -0.4295
16046TIP3    H169553   5.347   3.353   0.652  0.8687  1.6721 -1.0218
16046TIP3    H269554   5.479   3.279   0.656  0.8342  1.5260 -2.3143
16047TIP3   OH269555   5.718   0.400  13.935 -0.2171  0.2740  0.0215
16047TIP3    H169556   5.807   0.423  13.911 -0.1169 -0.4826 -0.3688
16047TIP3    H269557   5.669   0.401  13.853  0.0381 -1.9290 -0.2112
16048TIP3   OH269558   1.129   0.414  13.958 -0.0005  0.1366 -0.2564
16048TIP3    H169559   1.094   0.502  13.946 -1.1461 -0.1781  0.6688
16048TIP3    H269560   1.108   0.368  13.876 -0.4802  0.3810 -0.2739
16049TIP3   OH269561   2.991   3.180   0.068 -0.2534 -0.0257 -0.3508
16049TIP3    H169562   2.931   3.220   0.131 -0.0118 -0.5911  0.2572
16049TIP3    H269563   2.938   3.163  -0.010 -0.6486  0.3386 -0.1616
16050TIP3   OH269564   0.163   0.437  15.989  0.1496  0.1697  0.2213
16050TIP3    H169565   0.209   0.469  16.067  1.3264 -0.3080 -0.2451
16050TIP3    H269566   0.103   0.507  15.966 -0.0807  0.4028  1.4361
16051TIP3   OH269567   6.112   0.988  16.386 -0.3323  0.3734  0.6370
16051TIP3    H169568   6.169   1.062  16.366  0.9827 -0.8955 -0.5438
16051TIP3    H269569   6.039   1.026  16.434  0.2182  2.4588 -0.0773
16052TIP3   OH269570   5.353   3.839   0.618 -0.2792 -0.2930  0.2564
16052TIP3    H169571   5.430   3.830   0.673  2.4117  2.7097 -2.5469
16052TIP3    H269572   5.315   3.924   0.644 -1.4710 -0.8053  0.2551
16053TIP3   OH269573   2.567   5.488   5.773 -0.0069 -0.2687 -0.3367
16053TIP3    H169574   2.637   5.425   5.792  0.5032  0.7289  1.3228
16053TIP3    H269575   2.607   5.573   5.789 -0.6846  0.5216 -2.5476
16054TIP3   OH269576   1.438   2.360   4.222 -0.5543 -0.0609  0.0942
16054TIP3    H169577   1.420   2.425   4.154  0.5294  0.0882 -0.0747
16054TIP3    H269578   1.519   2.317   4.193 -0.1009 -0.0355  1.2538
16055TIP3   OH269579   5.079   6.201  12.460  0.1894  0.3106  0.3867
16055TIP3    H169580   4.987   6.228  12.461 -0.8493 -2.8294  0.6744
16055TIP3    H269581   5.085   6.141  12.386  1.9454  0.1965  0.6001
16056TIP3   OH269582   3.662   0.269  15.976  0.0209  0.0869  0.3248
16056TIP3    H169583   3.672   0.363  15.988  0.8536  0.0598 -0.1358
16056TIP3    H269584   3.743   0.231  16.009  0.4644 -0.3237 -1.1762
16057TIP3   OH269585   1.365   0.649   5.904 -0.3747  0.9255  0.0836
16057TIP3    H169586   1.415   0.721   5.943  0.6537  0.5276 -0.4696
16057TIP3    H269587   1.353   0.675   5.812  1.3970 -0.3147 -0.5271
16058TIP3   OH269588   0.046   2.975   4.512 -0.2525 -0.2897 -0.5916
16058TIP3    H169589   0.126   3.023   4.493 -0.6557  1.0083  0.7525
16058TIP3    H269590   0.076   2.891   4.548  0.5205  0.3902  0.3858
16059TIP3   OH269591   4.639   6.171   0.314  0.3623 -0.6714 -0.2189
16059TIP3    H169592   4.609   6.262   0.310  0.9497 -0.4068  1.0685
16059TIP3    H269593   4.569   6.124   0.360  0.4934 -0.6759 -0.0226
16060TIP3   OH269594   6.357   3.717   2.662  0.3937 -0.0103  0.5871
16060TIP3    H169595   6.377   3.664   2.585 -1.7172  0.1144 -0.1301
16060TIP3    H269596   6.438   3.764   2.681  1.1894 -0.6156 -1.0929
16061TIP3   OH269597   1.563   0.009   0.427  0.0409  0.1503 -0.1184
16061TIP3    H169598   1.534  -0.078   0.456 -0.9730  0.7522  0.7588
16061TIP3    H269599   1.653   0.016   0.460  0.6428 -1.0777 -1.3876
16062TIP3   OH269600   0.362   5.530  13.274  0.0884  0.2340  0.0829
16062TIP3    H169601   0.283   5.539  13.220 -0.9470  0.2658  1.5487
16062TIP3    H269602   0.344   5.582  13.352  0.7904 -1.2576  1.2972
16063TIP3   OH269603   1.221   4.259   1.105  0.1026  0.5451  0.1675
16063TIP3    H169604   1.135   4.275   1.066  0.1420  1.3759  0.4015
16063TIP3    H269605   1.280   4.317   1.057  0.5514 -0.0661 -0.0360
16064TIP3   OH269606   4.392   1.177   2.117 -0.2285  0.6084  0.1211
16064TIP3    H169607   4.422   1.246   2.177 -0.3137 -0.4553  1.4545
16064TIP3    H269608   4.461   1.110   2.122 -2.2731 -1.5213  2.6018
16065TIP3   OH269609   2.134   5.292   1.916 -0.5070 -0.1104  0.0009
16065TIP3    H169610   2.119   5.305   2.010 -1.2721  0.5817 -0.2060
16065TIP3    H269611   2.228   5.274   1.909 -0.4594 -0.2704  0.9068
16066TIP3   OH269612   0.491   5.872   2.559  0.1976 -0.0647 -0.3076
16066TIP3    H169613   0.551   5.940   2.591  0.5524 -0.5487  0.0643
16066TIP3    H269614   0.549   5.802   2.527 -0.1229 -1.3750  1.8027
16067TIP3   OH269615   2.213   3.990   2.630  0.0141 -0.2912  0.3902
16067TIP3    H169616   2.173   4.024   2.550  1.0178 -0.1510 -0.0702
16067TIP3    H269617   2.280   3.928   2.599  1.2882  0.6904  1.0558
16068TIP3   OH269618   2.602   6.388  10.937  0.1118  0.5967 -0.0254
16068TIP3    H169619   2.659   6.465  10.936 -0.7933  1.2845 -0.1635
16068TIP3    H269620   2.515   6.423  10.917 -0.2686 -0.5048 -0.3506
16069TIP3   OH269621   6.672   0.788   2.882 -0.0940  0.0242 -0.0458
16069TIP3    H169622   6.583   0.760   2.906  0.2984 -0.9067  0.3471
16069TIP3    H269623   6.692   0.858   2.945 -0.4863  0.1227 -0.0278
16070TIP3   OH269624   3.789   1.518  13.543  0.6194 -0.2831 -0.5082
16070TIP3    H169625   3.799   1.476  13.629  0.6674 -0.1782 -0.4613
16070TIP3    H269626   3.717   1.579  13.555  2.1601  1.5104  0.1726
16071TIP3   OH269627   6.705   4.593  10.878  0.1216  0.6138  0.2226
16071TIP3    H169628   6.738   4.641  10.802  0.1778 -2.6310 -1.9992
16071TIP3    H269629   6.611   4.586  10.862  0.0295  0.4705  0.8149
16072TIP3   OH269630   6.154   0.833   2.246  0.2495 -0.0828  0.2866
16072TIP3    H169631   6.129   0.793   2.329 -1.1885 -1.0603 -0.5647
16072TIP3    H269632   6.197   0.762   2.197 -0.1866  0.0588 -0.3241
16073TIP3   OH269633   4.015   2.350  12.622 -0.0735 -0.0975  0.0612
16073TIP3    H169634   4.057   2.394  12.696  1.1199 -0.5437 -0.3185
16073TIP3    H269635   4.077   2.282  12.596 -1.1160 -0.8860 -0.4483
16074TIP3   OH269636   6.459   3.938   3.331  0.4753 -0.0727 -0.3363
16074TIP3    H169637   6.463   4.030   3.356  1.2534 -0.2996  0.4400
16074TIP3    H269638   6.454   3.891   3.414  1.3102 -0.7742 -0.6677
16075TIP3   OH269639   6.194   5.804   4.514 -0.1199 -0.6148  0.2900
16075TIP3    H169640   6.106   5.829   4.486  0.4313 -0.1787 -1.1601
16075TIP3    H269641   6.181   5.755   4.595 -1.5341  1.2587  1.2675
16076TIP3   OH269642   2.551   4.281   6.343 -0.8345 -0.1916  0.2973
16076TIP3    H169643   2.592   4.220   6.405  0.1005  0.5304  0.4145
16076TIP3    H269644   2.461   4.291   6.375 -0.1720  0.7220  1.9883
16077TIP3   OH269645   5.393   2.531  14.123 -0.2146 -0.6515  0.2819
16077TIP3    H169646   5.334   2.599  14.091  0.3097 -0.3722 -0.1114
16077TIP3    H269647   5.348   2.449  14.103 -0.8817 -0.4269  0.8230
16078TIP3   OH269648   2.661   6.156  13.951 -0.0808  0.0419  0.4509
16078TIP3    H169649   2.699   6.069  13.956 -0.7758 -0.1678  2.6731
16078TIP3    H269650   2.578   6.150  13.997 -1.0884  1.4388 -1.0455
16079TIP3   OH269651   5.339   0.262  13.291 -0.1869  0.3782  0.1005
16079TIP3    H169652   5.354   0.308  13.208 -3.0381 -0.0381 -0.7347
16079TIP3    H269653   5.274   0.316  13.336 -0.4666 -0.6792  0.9828
16080TIP3   OH269654   2.413   2.415   1.016  0.0778 -0.2801 -0.5222
16080TIP3    H169655   2.493   2.381   1.056 -0.5049 -2.0577 -0.7639
16080TIP3    H269656   2.429   2.509   1.006  1.3575 -0.2633  1.2042
16081TIP3   OH269657   3.280   4.176  14.102 -0.0950  0.2711 -0.4495
16081TIP3    H169658   3.298   4.082  14.114 -0.3181  0.1218 -1.2227
16081TIP3    H269659   3.206   4.193  14.159  0.4475  0.1632  0.3045
16082TIP3   OH269660   5.039   5.531   3.676  0.5231 -0.6253 -0.1518
16082TIP3    H169661   4.996   5.611   3.708 -0.2441 -0.9028 -0.4593
16082TIP3    H269662   5.117   5.522   3.731 -0.2155 -0.5201  0.9446
16083TIP3   OH269663   4.670   3.166  12.505  0.3452  0.1678 -0.1519
16083TIP3    H169664   4.718   3.198  12.582 -0.6688 -1.1612  1.0895
16083TIP3    H269665   4.578   3.165  12.532  0.1987 -2.7443 -0.4086
16084TIP3   OH269666   5.819   0.942   3.219 -0.5172 -0.2667  0.2481
16084TIP3    H169667   5.906   0.916   3.188 -1.3895 -0.5276 -2.2850
16084TIP3    H269668   5.832   0.970   3.309  1.9683 -1.4436  0.3264
16085TIP3   OH269669   6.678   2.648  11.849 -0.2980  0.1083 -0.0626
16085TIP3    H169670   6.644   2.615  11.932 -0.4716 -0.9044 -0.5202
16085TIP3    H269671   6.736   2.720  11.873  1.6582 -1.7839  1.1101
16086TIP3   OH269672   3.898   1.710   0.165 -0.3679 -0.5981 -0.2869
16086TIP3    H169673   3.835   1.698   0.094  0.8012 -0.9171 -1.2909
16086TIP3    H269674   3.845   1.708   0.245 -1.4586 -2.3197 -1.0079
16087TIP3   OH269675   3.441   3.704  10.529 -0.1038  0.1188 -0.7657
16087TIP3    H169676   3.419   3.635  10.466 -1.6216  1.6510 -2.0388
16087TIP3    H269677   3.359   3.722  10.575  0.2241  1.1228 -0.5374
16088TIP3   OH269678   0.655   4.299   6.009  0.0564  0.2043  0.0319
16088TIP3    H169679   0.574   4.344   5.986 -0.7314 -0.7053  0.9236
16088TIP3    H269680   0.673   4.326   6.099 -0.4962 -1.2905  0.6329
16089TIP3   OH269681   1.601   0.857  11.854 -0.3369  0.6200  0.1904
16089TIP3    H169682   1.682   0.856  11.804 -0.7668  2.5078 -0.6010
16089TIP3    H269683   1.557   0.938  11.828 -2.1823 -0.0420  1.0766
16090TIP3   OH269684   3.771   5.652  14.124  0.2110  0.5979  0.4671
16090TIP3    H169685   3.864   5.630  14.119 -0.5949 -3.2040 -1.5269
16090TIP3    H269686   3.753   5.701  14.043  0.4132  1.1273  0.7401
16091TIP3   OH269687   3.805   5.883   1.079  0.1566 -0.2854  0.1679
16091TIP3    H169688   3.850   5.912   1.159 -0.5721  0.6149  0.2656
16091TIP3    H269689   3.776   5.794   1.098  0.0526 -0.1015  0.8865
16092TIP3   OH269690   0.588   2.741  13.141 -0.1239  0.0842 -0.5102
16092TIP3    H169691   0.619   2.652  13.158  1.2209  0.6393  0.0582
16092TIP3    H269692   0.513   2.751  13.200 -0.2639 -0.6517 -0.5467
16093TIP3   OH269693   1.253   4.626  14.235  0.1448 -0.1812 -0.2581
16093TIP3    H169694   1.180   4.654  14.179  0.3312  1.3421  0.2203
16093TIP3    H269695   1.308   4.574  14.177 -1.4083 -1.5564 -0.5744
16094TIP3   OH269696   2.229   6.056  15.792 -0.1495  0.6613 -0.8215
16094TIP3    H169697   2.264   6.140  15.761 -1.5734  1.3166 -0.7570
16094TIP3    H269698   2.217   6.069  15.886  1.8395 -0.4653 -0.3656
16095TIP3   OH269699   1.741   0.040  13.531  0.4348  0.2323 -0.1321
16095TIP3    H169700   1.710   0.110  13.590  2.0854  1.0199 -0.1388
16095TIP3    H269701   1.691   0.052  13.451 -0.3006  0.5136  0.3569
16096TIP3   OH269702   4.307   1.183  12.089  0.8241  0.2307 -0.1808
16096TIP3    H169703   4.325   1.118  12.156  0.7505 -0.1169 -0.4929
16096TIP3    H269704   4.223   1.221  12.114  1.0109  0.4153  0.1648
16097TIP3   OH269705   6.634   4.008  14.110 -0.5569 -0.4092  0.1191
16097TIP3    H169706   6.620   3.944  14.040  0.3585 -0.8264  0.3055
16097TIP3    H269707   6.692   3.964  14.172  0.6383  0.8292 -0.0802
16098TIP3   OH269708   0.543   2.280   2.824 -0.1610 -0.6325 -0.3803
16098TIP3    H169709   0.552   2.205   2.765  0.1029 -1.5742  0.8075
16098TIP3    H269710   0.450   2.302   2.820 -0.1820 -0.8057 -0.9952
16099TIP3   OH269711   3.983   1.170  13.589 -0.1527 -0.1613  0.0387
16099TIP3    H169712   4.012   1.093  13.540  1.2992  0.7179 -0.5475
16099TIP3    H269713   4.034   1.168  13.670  1.9736  1.6009 -1.1649
16100TIP3   OH269714   6.202   4.837   0.042 -0.1448 -0.0214  0.0808
16100TIP3    H169715   6.165   4.812   0.127  1.1069 -1.0261  0.3615
16100TIP3    H269716   6.285   4.789   0.037  0.0977  0.5070 -1.4464
16101TIP3   OH269717   1.408   3.410   1.614  0.1746  0.1434  0.2760
16101TIP3    H169718   1.455   3.437   1.534  1.4293 -0.1101  0.9039
16101TIP3    H269719   1.450   3.460   1.684  1.1763 -1.8598  1.1917
16102TIP3   OH269720   5.697   0.214   0.627  0.5744  0.4842  0.0246
16102TIP3    H169721   5.678   0.138   0.682 -0.4790 -0.3363 -1.3999
16102TIP3    H269722   5.696   0.289   0.687 -1.8156 -0.1923  0.9502
16103TIP3   OH269723   1.898   1.651   1.803  0.1529  0.3225 -0.0231
16103TIP3    H169724   1.899   1.725   1.863 -0.6092  0.0738  0.3056
16103TIP3    H269725   1.989   1.623   1.798  0.7462  2.2477 -1.3816
16104TIP3   OH269726   2.810   5.443   4.502  0.6289 -0.1089 -0.4137
16104TIP3    H169727   2.814   5.390   4.422  1.1918  0.0640 -0.5024
16104TIP3    H269728   2.733   5.410   4.548 -0.0167  0.1460 -1.2744
16105TIP3   OH269729   4.461   0.417  13.569  0.0521 -0.4582 -0.1726
16105TIP3    H169730   4.477   0.511  13.577 -1.3694 -0.2229  0.2407
16105TIP3    H269731   4.407   0.396  13.645 -1.0804 -1.2551 -1.1604
16106TIP3   OH269732   1.264   3.857   3.499  0.8956 -0.1614 -0.0777
16106TIP3    H169733   1.178   3.823   3.524 -0.7705  3.0733 -0.8409
16106TIP3    H269734   1.263   3.857   3.403  0.8394  1.7250 -0.1191
16107TIP3   OH269735   3.555   5.928  17.155  0.3096  0.0938 -0.2553
16107TIP3    H169736   3.477   5.982  17.163 -0.4764 -1.2327  1.6464
16107TIP3    H269737   3.610   5.954  17.228  0.7726 -0.3584 -0.4369
16108TIP3   OH269738   0.762   5.901   1.484  0.5427  0.7088  0.6612
16108TIP3    H169739   0.815   5.822   1.474  0.9345  1.1094 -0.7702
16108TIP3    H269740   0.674   5.868   1.500  0.8400 -0.0050  0.9003
16109TIP3   OH269741   3.393   4.611  15.493 -0.1589  0.1588 -0.0332
16109TIP3    H169742   3.388   4.550  15.419  2.1095  2.2096 -2.0560
16109TIP3    H269743   3.363   4.695  15.457  2.0867  1.4813  0.9560
16110TIP3   OH269744   5.163   5.223   0.618 -0.1528 -0.0418  0.0753
16110TIP3    H169745   5.148   5.280   0.693  0.6659  1.0749 -0.5685
16110TIP3    H269746   5.118   5.141   0.640 -2.5946  1.2963  0.4456
16111TIP3   OH269747   6.704   1.598   2.999  0.9029 -0.3979 -0.1830
16111TIP3    H169748   6.669   1.581   2.912  0.2554  0.5111 -0.1128
16111TIP3    H269749   6.694   1.516   3.046 -0.0451 -0.4864 -0.5344
16112TIP3   OH269750   0.456   3.440  15.761  0.0585  0.4454  0.1219
16112TIP3    H169751   0.373   3.391  15.760  0.6804 -0.6507 -0.6919
16112TIP3    H269752   0.448   3.501  15.688  0.6146 -0.8747 -1.1017
16113TIP3   OH269753   4.038   4.071  16.468 -0.0446  0.6184 -0.0390
16113TIP3    H169754   4.105   4.139  16.480 -0.5865  1.0714  0.4893
16113TIP3    H269755   3.967   4.116  16.421 -0.6955  0.6146  0.9246
16114TIP3   OH269756   1.825   1.190   3.429 -0.5929  0.2065 -0.0391
16114TIP3    H169757   1.733   1.215   3.422 -0.0584  2.0085 -1.2807
16114TIP3    H269758   1.840   1.179   3.523 -1.7311  1.3112  0.2998
16115TIP3   OH269759   4.202   2.917  11.120 -0.1469 -0.4741 -0.5147
16115TIP3    H169760   4.142   2.858  11.075  0.7336 -0.8376 -1.2382
16115TIP3    H269761   4.243   2.969  11.051  1.4690 -1.2706 -0.2193
16116TIP3   OH269762   2.879   5.509  12.783 -0.1240 -0.2193  0.4608
16116TIP3    H169763   2.926   5.504  12.700 -0.4074  1.1538  0.1893
16116TIP3    H269764   2.940   5.554  12.842  1.2017 -3.5550  1.8868
16117TIP3   OH269765   0.728   0.329   3.059 -0.6877  0.6691 -0.2693
16117TIP3    H169766   0.664   0.263   3.034  0.4662  0.0721 -1.8375
16117TIP3    H269767   0.791   0.283   3.115  0.5806  0.1422 -2.0346
16118TIP3   OH269768   0.972   5.487  16.166 -0.1432  0.1986 -0.3865
16118TIP3    H169769   1.040   5.511  16.229 -0.9179 -0.3416  0.6821
16118TIP3    H269770   0.919   5.567  16.157 -0.2701  0.1529 -0.0438
16119TIP3   OH269771   1.684   2.186  11.763 -0.6193  0.1019  0.3089
16119TIP3    H169772   1.695   2.119  11.830  1.6476 -1.5147 -1.5090
16119TIP3    H269773   1.734   2.261  11.795 -1.3516  0.1514  1.3710
16120TIP3   OH269774   2.317   2.651  16.255 -0.1843 -0.0428 -0.2223
16120TIP3    H169775   2.412   2.655  16.261 -0.2549  0.3212  0.7496
16120TIP3    H269776   2.288   2.633  16.344 -1.1401  2.1775 -0.0245
16121TIP3   OH269777   3.268   4.156   0.441  0.0360 -0.3955  0.5617
16121TIP3    H169778   3.209   4.181   0.512  0.9154  4.0009  0.0291
16121TIP3    H269779   3.355   4.158   0.479  0.2891 -1.0005  0.0313
16122TIP3   OH269780   3.943   1.349   4.822 -0.3007  0.0640 -0.0914
16122TIP3    H169781   3.974   1.284   4.759 -1.2317  1.8225 -2.5572
16122TIP3    H269782   3.896   1.298   4.888  2.2801 -2.0289  0.2517
16123TIP3   OH269783   3.717   0.502   5.523  0.4046 -0.2086 -0.9921
16123TIP3    H169784   3.809   0.523   5.506  0.7481  1.3296  2.0848
16123TIP3    H269785   3.668   0.558   5.462  1.5098  0.6285 -1.1505
16124TIP3   OH269786   3.070   5.496   4.209 -0.0082  0.3585  0.0503
16124TIP3    H169787   3.146   5.441   4.189 -0.8230 -0.8946  0.2619
16124TIP3    H269788   3.105   5.568   4.261  1.2713  0.6565 -1.1692
16125TIP3   OH269789   3.612   6.357  14.966  0.0716  0.2385 -0.2678
16125TIP3    H169790   3.527   6.361  15.010 -0.1861 -0.8824 -0.6295
16125TIP3    H269791   3.620   6.441  14.921  0.3491  1.4293  1.8834
16126TIP3   OH269792   3.023   2.744   0.972 -0.2449 -0.6075  0.3196
16126TIP3    H169793   3.091   2.810   0.990 -1.4407  0.7419  0.0592
16126TIP3    H269794   3.043   2.672   1.033  2.3233 -0.9669 -0.8158
16127TIP3   OH269795   6.038   3.818  16.856  0.0253  0.7648 -0.5532
16127TIP3    H169796   6.053   3.749  16.791 -1.5921  1.3524 -1.6215
16127TIP3    H269797   5.945   3.814  16.874  0.3396  1.0532  1.2865
16128TIP3   OH269798   4.013   0.527  16.610  0.1790 -0.0353  0.1368
16128TIP3    H169799   4.016   0.562  16.521 -2.2606  0.4346  0.1842
16128TIP3    H269800   4.094   0.475  16.618  0.0321 -0.8501 -2.6664
16129TIP3   OH269801   4.015   4.289   2.973  0.0643 -0.3985  0.3680
16129TIP3    H169802   4.015   4.271   3.067  0.0333 -1.3694  0.1964
16129TIP3    H269803   3.923   4.281   2.947  0.0930 -0.2943  0.2346
16130TIP3   OH269804   0.694   4.713   2.691  0.1711  0.3127 -0.0508
16130TIP3    H169805   0.657   4.692   2.777  0.6763  0.5904  0.2389
16130TIP3    H269806   0.629   4.680   2.628 -0.1992  0.1041  0.4344
16131TIP3   OH269807   6.209   3.710  14.190 -0.0048  0.3527  1.0688
16131TIP3    H169808   6.239   3.657  14.116 -1.8175  0.1293  0.4363
16131TIP3    H269809   6.170   3.647  14.251 -0.6555  0.7587  1.0905
16132TIP3   OH269810   3.935   3.992   1.932  0.5166 -0.3921 -0.4727
16132TIP3    H169811   3.991   4.070   1.934  2.1374 -1.5302  0.2362
16132TIP3    H269812   3.939   3.962   1.841  1.7077 -0.9103 -0.2555
16133TIP3   OH269813   0.467   2.011   4.609  0.1167  0.0585  0.7956
16133TIP3    H169814   0.491   2.027   4.700  2.2070 -2.4497  0.7986
16133TIP3    H269815   0.535   2.057   4.559  1.8887 -2.4505  0.6986
16134TIP3   OH269816   2.322   4.141  16.014  0.3661 -0.1507  0.1813
16134TIP3    H169817   2.286   4.160  16.101 -0.6549 -2.1127  0.2599
16134TIP3    H269818   2.399   4.197  16.007  0.0782  0.5574  2.0744
16135TIP3   OH269819   4.556   3.544   4.120 -0.4027  0.8152  0.5968
16135TIP3    H169820   4.494   3.511   4.055 -0.3923  2.8434 -0.5302
16135TIP3    H269821   4.622   3.590   4.068 -0.2823  2.3368  2.0057
16136TIP3   OH269822   2.479   0.256   0.271 -0.0950  0.7338 -0.3212
16136TIP3    H169823   2.481   0.204   0.352 -1.3836 -2.3093 -2.0476
16136TIP3    H269824   2.569   0.286   0.259  0.7361 -1.0609  0.8969
16137TIP3   OH269825   2.853   6.762  14.177 -0.1683 -0.8371 -0.4081
16137TIP3    H169826   2.870   6.670  14.159  2.2408 -0.1764 -1.9520
16137TIP3    H269827   2.813   6.795  14.096  1.7667  0.0632 -1.0582
16138TIP3   OH269828   0.185   6.126   4.220 -0.2735 -0.6319  0.0146
16138TIP3    H169829   0.267   6.078   4.225 -0.9237 -1.7938  0.0259
16138TIP3    H269830   0.121   6.069   4.264 -0.8195  0.8750  1.2603
16139TIP3   OH269831   4.060   0.678  15.589  0.0357  0.1233 -0.2340
16139TIP3    H169832   4.135   0.717  15.545  0.1267  0.5868  0.3264
16139TIP3    H269833   4.050   0.592  15.547 -0.1949  0.7437 -1.5003
16140TIP3   OH269834   3.393   6.037  11.661  0.0526  0.4489  0.1478
16140TIP3    H169835   3.397   5.949  11.697  0.3980  0.4240  0.0437
16140TIP3    H269836   3.456   6.087  11.713  0.8807  0.3138 -0.7095
16141TIP3   OH269837   6.768   2.630   1.898  0.1467  0.2962 -0.1548
16141TIP3    H169838   6.816   2.654   1.819  2.2868  1.6691  1.4352
16141TIP3    H269839   6.711   2.705   1.915 -1.0872 -0.4383 -0.8966
16142TIP3   OH269840   3.063   6.365   6.542  0.0502  0.1371 -0.1836
16142TIP3    H169841   3.030   6.344   6.629 -0.2770 -0.5369 -0.4609
16142TIP3    H269842   3.019   6.303   6.484  1.5217 -0.5635 -0.6129
16143TIP3   OH269843   5.826   0.700  11.458 -0.1267  0.0067  0.2352
16143TIP3    H169844   5.835   0.643  11.534 -0.4492 -0.3085  0.0424
16143TIP3    H269845   5.911   0.694  11.414 -0.1163 -0.2340  0.2820
16144TIP3   OH269846   5.273   0.644   5.848 -0.2663 -0.4401 -0.0537
16144TIP3    H169847   5.322   0.646   5.930  2.0072 -0.9996 -1.2934
16144TIP3    H269848   5.185   0.672   5.872  0.6416  0.7077  2.3252
16145TIP3   OH269849   2.175   0.418   3.360  0.5556  0.1709  0.6250
16145TIP3    H169850   2.183   0.343   3.302  0.0328  1.0939 -0.6805
16145TIP3    H269851   2.234   0.484   3.323  0.0028  0.8783  0.9722
16146TIP3   OH269852   1.816   3.276  15.146 -0.1287 -0.4013 -0.1531
16146TIP3    H169853   1.749   3.211  15.168  0.3918 -0.2259  2.2139
16146TIP3    H269854   1.770   3.360  15.147  0.1850 -0.2012  2.1808
16147TIP3   OH269855   5.356   1.901  13.812  0.3706  0.3201 -0.5692
16147TIP3    H169856   5.443   1.861  13.810  0.1441 -0.1487 -0.9008
16147TIP3    H269857   5.372   1.993  13.791  1.1931  0.9748  2.4192
16148TIP3   OH269858   1.910   5.341   5.080 -0.0587  0.5492 -0.8272
16148TIP3    H169859   1.987   5.343   5.138  0.3287  3.9379 -1.2725
16148TIP3    H269860   1.906   5.429   5.042 -3.9235  0.3727 -1.1905
16149TIP3   OH269861   2.015   5.345   0.692 -0.3677  0.5887 -0.1890
16149TIP3    H169862   1.988   5.303   0.774 -0.1166 -0.0777 -0.4438
16149TIP3    H269863   2.051   5.429   0.719  1.3427 -0.3442  0.5677
16150TIP3   OH269864   2.695   0.611  12.810  0.0036 -0.4896  0.3731
16150TIP3    H169865   2.651   0.530  12.784 -0.2603  0.3333 -2.0354
16150TIP3    H269866   2.788   0.588  12.813 -0.0402 -0.8325 -0.5963
16151TIP3   OH269867   6.434   5.343   1.176  0.5019  0.6088 -0.3540
16151TIP3    H169868   6.475   5.416   1.224 -0.2163  0.1434  1.0272
16151TIP3    H269869   6.495   5.271   1.186  1.0885  0.9207 -1.5014
16152TIP3   OH269870   2.925   4.619   1.603 -0.3829  0.5010 -0.1312
16152TIP3    H169871   2.910   4.532   1.641  3.4910 -0.8564 -1.1852
16152TIP3    H269872   3.006   4.649   1.645 -0.6112  2.7719 -1.1886
16153TIP3   OH269873   3.585   2.396   5.371  0.3866  0.0130 -0.4211
16153TIP3    H169874   3.604   2.373   5.280 -0.2853 -0.1080 -0.5335
16153TIP3    H269875   3.545   2.318   5.408  0.5452  0.1044 -0.0515
16154TIP3   OH269876   2.139   2.303  15.054 -0.3098  0.0615 -0.1425
16154TIP3    H169877   2.098   2.366  14.995  0.0839  0.5278  0.0708
16154TIP3    H269878   2.223   2.282  15.013  0.2680  0.9044  0.5700
16155TIP3   OH269879   3.469   5.102  15.352  0.4233 -0.0592 -0.2368
16155TIP3    H169880   3.521   5.057  15.418 -0.9529  0.8465  1.5353
16155TIP3    H269881   3.519   5.181  15.331  0.3314  0.2199  0.5798
16156TIP3   OH269882   1.969   2.974   3.762  0.6737 -0.2028  0.3114
16156TIP3    H169883   1.938   3.065   3.757  0.3334 -0.2926  0.7182
16156TIP3    H269884   1.943   2.936   3.678  0.7858  0.0661  0.1527
16157TIP3   OH269885   1.746   2.363   0.817  0.1262  0.1737 -0.0643
16157TIP3    H169886   1.666   2.340   0.865 -0.8396 -0.1230 -1.7084
16157TIP3    H269887   1.763   2.454   0.840  1.2976 -0.6769  2.9123
16158TIP3   OH269888   1.131   3.052  16.219  0.1274 -0.3712  0.2541
16158TIP3    H169889   1.142   2.987  16.150  1.2192 -0.7042  0.7229
16158TIP3    H269890   1.110   3.133  16.172  1.8251 -0.3570 -0.5650
16159TIP3   OH269891   0.573   1.528   6.134  0.1496 -0.3973  0.0005
16159TIP3    H169892   0.613   1.441   6.136  1.8840  0.3671 -0.0936
16159TIP3    H269893   0.646   1.589   6.130 -0.9774  1.1655  1.6160
16160TIP3   OH269894   1.195   5.846  13.895 -0.1280  0.1486 -0.2374
16160TIP3    H169895   1.211   5.805  13.810  0.0548 -0.0766 -0.0953
16160TIP3    H269896   1.247   5.795  13.957 -0.1075  0.4328 -0.0183
16161TIP3   OH269897   2.178   0.175  13.887 -0.4973  0.3119 -0.7452
16161TIP3    H169898   2.169   0.262  13.925 -1.4442 -0.0223 -0.1631
16161TIP3    H269899   2.093   0.159  13.845  0.1081  0.1806 -1.9673
16162TIP3   OH269900   1.775   5.810  16.441 -0.1415 -0.1090 -0.4239
16162TIP3    H169901   1.870   5.824  16.435  0.0515 -0.1181  1.9714
16162TIP3    H269902   1.744   5.879  16.499 -1.2938 -1.2953  0.4167
16163TIP3   OH269903   1.332   0.166   0.450 -0.2662  0.1418 -0.2698
16163TIP3    H169904   1.392   0.101   0.414 -1.7953 -1.3649 -0.2656
16163TIP3    H269905   1.316   0.136   0.540 -1.8563 -0.1569 -0.6196
16164TIP3   OH269906   4.091   4.700   3.435 -0.2836  0.2053 -0.3645
16164TIP3    H169907   4.045   4.783   3.452 -0.6239  0.5531 -2.7261
16164TIP3    H269908   4.021   4.637   3.419 -0.0127  0.2196 -1.7150
16165TIP3   OH269909   3.167   3.866  14.777  0.7200  0.6480  0.1585
16165TIP3    H169910   3.111   3.884  14.701  2.7443  0.2635 -1.5148
16165TIP3    H269911   3.255   3.888  14.748  1.7810 -0.9715  1.8983
16166TIP3   OH269912   4.298   6.267   0.692  0.4388 -0.0598  0.1469
16166TIP3    H169913   4.312   6.284   0.599  0.9415  1.5194  0.4742
16166TIP3    H269914   4.208   6.238   0.698  0.2405  0.3285 -0.7907
16167TIP3   OH269915   1.858   5.117   3.153 -0.0168  0.5059  0.2224
16167TIP3    H169916   1.831   5.054   3.220  0.4914 -1.8239 -1.6598
16167TIP3    H269917   1.788   5.182   3.152 -0.9194 -0.3851  1.7386
16168TIP3   OH269918   4.469   5.094  13.924 -0.4970  0.6668 -0.1688
16168TIP3    H169919   4.467   5.041  13.844  3.2169  0.3530 -0.2314
16168TIP3    H269920   4.511   5.176  13.897  1.3850  0.3155  1.4957
16169TIP3   OH269921   2.268   5.592  11.462 -0.0142  0.3236 -0.1857
16169TIP3    H169922   2.308   5.650  11.398 -1.1224  0.3430 -0.8994
16169TIP3    H269923   2.183   5.632  11.480  0.6611  0.8679  2.0927
16170TIP3   OH269924   5.512   5.601   2.654  0.0629 -0.2615 -0.1350
16170TIP3    H169925   5.582   5.650   2.696  0.4075 -0.7888 -0.0833
16170TIP3    H269926   5.464   5.561   2.726 -0.0640 -0.2109 -0.1898
16171TIP3   OH269927   4.576   4.883  14.856 -0.1878  0.0902  0.1392
16171TIP3    H169928   4.612   4.863  14.770 -3.0353  1.7986 -1.6308
16171TIP3    H269929   4.593   4.976  14.868 -1.5948  0.3291  0.4489
16172TIP3   OH269930   2.650   1.071  13.798  0.0956  0.5421  0.4365
16172TIP3    H169931   2.687   0.984  13.786 -0.6616  0.3937 -1.0368
16172TIP3    H269932   2.705   1.112  13.865  2.0326 -0.1672 -0.6498
16173TIP3   OH269933   3.162   4.906   4.974 -0.7397 -0.1354 -0.1442
16173TIP3    H169934   3.093   4.843   4.996 -0.8335  0.3828  1.1467
16173TIP3    H269935   3.128   4.990   5.007  1.5589 -0.2559  2.9295
16174TIP3   OH269936   4.675   0.493   6.651 -0.6077  0.1635  0.1604
16174TIP3    H169937   4.672   0.532   6.738  0.9794  2.3200 -0.6455
16174TIP3    H269938   4.636   0.407   6.661  0.9290 -0.2939  3.3288
16175TIP3   OH269939   6.139   5.860   1.063 -0.4492 -0.8195 -0.0263
16175TIP3    H169940   6.197   5.930   1.030 -0.2222 -0.7425  0.5246
16175TIP3    H269941   6.197   5.804   1.115 -1.2775  0.5573  2.5304
16176TIP3   OH269942   5.894   3.410   1.226  0.3402 -0.1437  0.4179
16176TIP3    H169943   5.876   3.501   1.201  3.2319  0.5547  0.5053
16176TIP3    H269944   5.868   3.359   1.149 -0.1257  0.8930 -0.1405
16177TIP3   OH269945   0.949   5.168   3.402 -0.0776 -0.3679 -0.7691
16177TIP3    H169946   0.879   5.206   3.349  0.3546 -2.5088 -3.1122
16177TIP3    H269947   0.920   5.078   3.419  0.2675 -0.0455  1.9107
16178TIP3   OH269948   3.838   5.990  10.574  0.3032 -0.5961 -0.3503
16178TIP3    H169949   3.874   6.001  10.662  0.4150 -1.1118 -0.3276
16178TIP3    H269950   3.745   5.973  10.589  0.0607  0.6545 -0.4037
16179TIP3   OH269951   5.417   1.251  15.388 -0.2197 -0.0379 -0.4652
16179TIP3    H169952   5.475   1.315  15.429 -0.7354  1.1450 -1.5061
16179TIP3    H269953   5.475   1.180  15.362  0.5441  0.4681 -0.1905
16180TIP3   OH269954   6.269   1.007   0.824  0.2160 -0.1495 -0.3423
16180TIP3    H169955   6.312   1.090   0.805  0.5514 -0.5262 -1.2933
16180TIP3    H269956   6.342   0.945   0.833 -0.0700 -0.5488 -0.7330
16181TIP3   OH269957   3.908   5.384   4.537  0.3711  0.2312  0.0100
16181TIP3    H169958   3.971   5.330   4.585  0.9172  0.0451 -0.8804
16181TIP3    H269959   3.919   5.357   4.445 -1.6483 -0.4443 -0.0725
16182TIP3   OH269960   6.061   6.500   2.237 -0.3691  0.0542  0.3528
16182TIP3    H169961   6.017   6.513   2.320 -2.1618 -0.0251 -0.5491
16182TIP3    H269962   6.001   6.535   2.171  0.0992 -1.6784 -1.0924
16183TIP3   OH269963   2.002   3.802  11.598 -0.2149  0.3217 -0.3937
16183TIP3    H169964   1.992   3.749  11.519  1.8323 -1.2090  0.2933
16183TIP3    H269965   1.944   3.761  11.663  1.2604 -1.0662  0.0945
16184TIP3   OH269966   5.459   6.576  15.077  0.1356 -0.0325 -0.5246
16184TIP3    H169967   5.474   6.482  15.087  0.8808  0.2823  1.9104
16184TIP3    H269968   5.539   6.608  15.034 -0.0947 -0.4627 -1.3038
16185TIP3   OH269969   1.700   6.015  11.113 -0.1620  0.5728  0.9055
16185TIP3    H169970   1.751   5.942  11.078 -0.1015  0.8048  0.5030
16185TIP3    H269971   1.733   6.026  11.203  1.8713  1.9368  0.0628
16186TIP3   OH269972   0.505   0.074  16.945  0.5780 -0.2411  0.0079
16186TIP3    H169973   0.427   0.129  16.945  1.4073  1.0011  1.2039
16186TIP3    H269974   0.534   0.075  16.853  0.5978  1.4027 -0.0024
16187TIP3   OH269975   1.313   1.089  16.232  0.5654  0.3776 -0.0677
16187TIP3    H169976   1.383   1.080  16.167  0.1421  0.4844 -0.5468
16187TIP3    H269977   1.350   1.053  16.313  1.2320  0.5982 -0.2692
16188TIP3   OH269978   4.162   3.824  11.451 -0.4228 -0.3258  0.1473
16188TIP3    H169979   4.076   3.838  11.492 -0.3805 -1.0148  0.4887
16188TIP3    H269980   4.151   3.745  11.398  0.0522 -0.5358  0.3548
16189TIP3   OH269981   1.024   6.717   3.836  0.5302 -0.0927  0.4334
16189TIP3    H169982   1.079   6.793   3.816  0.9251  0.5532  3.5185
16189TIP3    H269983   0.980   6.697   3.753  2.3138  1.8979 -1.1179
16190TIP3   OH269984   6.019   4.544   2.971 -0.3355  0.3181  0.5966
16190TIP3    H169985   5.940   4.492   2.956 -0.6712  0.8970  0.3443
16190TIP3    H269986   5.991   4.612   3.032 -0.2207  0.9679 -0.0714
16191TIP3   OH269987   3.610   2.681   1.341  0.0636  0.3235 -0.0802
16191TIP3    H169988   3.602   2.603   1.395 -0.8237 -0.5012 -1.3473
16191TIP3    H269989   3.704   2.694   1.331  0.2732 -1.8147 -1.5288
16192TIP3   OH269990   1.561   2.141  16.535  0.4990  0.2151 -0.8903
16192TIP3    H169991   1.542   2.047  16.540 -0.4705  0.4667  1.8335
16192TIP3    H269992   1.475   2.182  16.541  0.9997  1.2929 -1.0028
16193TIP3   OH269993   1.866   6.154   4.843 -0.8540 -0.3980  0.0220
16193TIP3    H169994   1.933   6.200   4.792 -0.3096 -0.9615  0.2234
16193TIP3    H269995   1.898   6.157   4.933 -0.6221 -1.4968 -0.0105
16194TIP3   OH269996   3.947   5.413  13.815  0.1107 -0.3750 -0.4169
16194TIP3    H169997   3.926   5.495  13.771 -1.7573 -0.3975  0.3435
16194TIP3    H269998   3.866   5.362  13.812  0.1900 -0.7923  2.0792
16195TIP3   OH269999   5.768   0.215   3.073  1.0993 -0.1659 -0.0326
16195TIP3    H170000   5.845   0.189   3.122  1.2113  0.4834  0.1406
16195TIP3    H270001   5.752   0.142   3.013  1.4412 -0.6009  0.3986
16196TIP3   OH270002   5.088   3.902  15.541 -0.0149  0.5807  0.1535
16196TIP3    H170003   5.122   3.832  15.485 -0.4086  0.3761  0.1666
16196TIP3    H270004   5.089   3.980  15.485  0.8132  0.6629  0.2664
16197TIP3   OH270005   2.718   1.364  16.624  0.7308 -0.1517  0.1427
16197TIP3    H170006   2.773   1.335  16.697  2.1200  3.0153  0.5517
16197TIP3    H270007   2.633   1.382  16.664  1.5145  1.6873  1.1369
16198TIP3   OH270008   1.618   6.363  14.204 -0.7899  0.4471 -0.1851
16198TIP3    H170009   1.563   6.290  14.177  0.6902 -0.8367  0.0902
16198TIP3    H270010   1.597   6.434  14.143 -2.6228 -0.0237 -0.1329
16199TIP3   OH270011   0.975   5.209   4.943 -0.4435 -0.0523 -0.1430
16199TIP3    H170012   0.917   5.137   4.968 -0.2324  0.3958  1.7909
16199TIP3    H270013   1.025   5.174   4.869 -1.7493 -1.1521 -0.5622
16200TIP3   OH270014   1.291   4.612   4.402 -0.0501 -0.6186 -0.2164
16200TIP3    H170015   1.335   4.690   4.368 -1.5747  0.9599  1.2774
16200TIP3    H270016   1.245   4.576   4.326  1.5411 -0.7493 -1.1784
16201TIP3   OH270017   0.840   0.698  15.065  0.3608 -0.2079  0.0849
16201TIP3    H170018   0.791   0.776  15.037  0.5208  0.3985  1.4099
16201TIP3    H270019   0.931   0.719  15.044  0.5779  0.5551  1.5737
16202TIP3   OH270020   1.739   2.117  13.468  0.5610 -0.2100 -0.1291
16202TIP3    H170021   1.707   2.065  13.394  0.1901  0.0686 -0.1721
16202TIP3    H270022   1.826   2.146  13.442 -0.2069  1.2757 -1.1849
16203TIP3   OH270023   2.378   6.092   0.233 -0.4106 -0.4616 -0.0497
16203TIP3    H170024   2.381   6.028   0.305 -0.7732  0.5053  0.8591
16203TIP3    H270025   2.450   6.068   0.176 -1.5092 -2.6925 -0.6247
16204TIP3   OH270026   0.989   5.802  15.054  0.9205 -0.0161  0.1195
16204TIP3    H170027   1.020   5.730  15.109 -0.0710  0.1187  0.8789
16204TIP3    H270028   1.069   5.848  15.027  1.6285 -1.7450 -0.9075
16205TIP3   OH270029   3.130   3.834  15.202  0.1920 -0.2507  0.3292
16205TIP3    H170030   3.099   3.907  15.255  1.1844  0.8409 -0.5513
16205TIP3    H270031   3.153   3.873  15.118  0.9789 -1.5424 -0.0812
16206TIP3   OH270032   3.554   0.815   1.106  0.3700 -0.4392  0.2710
16206TIP3    H170033   3.471   0.791   1.066  0.6699  0.2291 -0.8155
16206TIP3    H270034   3.546   0.788   1.198 -2.9345  3.6942  1.5702
16207TIP3   OH270035   2.237   6.549  13.579 -0.6844 -0.2568  0.1193
16207TIP3    H170036   2.230   6.469  13.527  3.0684 -0.9339  0.3606
16207TIP3    H270037   2.236   6.620  13.515  1.7269 -0.9432 -0.7826
16208TIP3   OH270038   1.151   1.740  16.262  0.0389 -0.1062 -0.1386
16208TIP3    H170039   1.169   1.762  16.171 -0.4402 -0.3171 -0.2916
16208TIP3    H270040   1.059   1.714  16.262  0.2304 -0.8145  0.2688
16209TIP3   OH270041   4.438   5.180   2.858  0.0664  0.6428  0.5826
16209TIP3    H170042   4.398   5.123   2.924 -0.9348  1.3087  0.5657
16209TIP3    H270043   4.524   5.201   2.894  0.0179  0.0063  1.0962
16210TIP3   OH270044   3.763   2.709  15.098  0.1022  0.6442 -0.1025
16210TIP3    H170045   3.857   2.691  15.099  0.3499  1.8175 -0.5499
16210TIP3    H270046   3.742   2.719  15.006 -0.9593 -1.8487 -0.2198
16211TIP3   OH270047   3.777   4.107   0.279  0.2532 -0.3869 -0.3889
16211TIP3    H170048   3.770   4.176   0.213  0.4475  1.2003  1.1754
16211TIP3    H270049   3.745   4.028   0.235  0.5332  0.5589 -2.4080
16212TIP3   OH270050   4.779   4.074   0.177  0.0846  0.0176 -0.7999
16212TIP3    H170051   4.786   4.041   0.267 -0.4672 -0.2085 -0.8397
16212TIP3    H270052   4.836   4.015   0.126  1.1947  0.7524 -0.4518
16213TIP3   OH270053   3.027   1.859   0.302  0.1436 -0.0855  0.0176
16213TIP3    H170054   3.064   1.931   0.353  0.9320 -0.7377  0.3896
16213TIP3    H270055   2.944   1.893   0.270 -1.2228 -0.1760  3.0956
16214TIP3   OH270056   0.435   1.019   3.905 -0.4395 -0.1899  0.3369
16214TIP3    H170057   0.416   1.059   3.820  0.0828 -0.7429 -0.0445
16214TIP3    H270058   0.488   1.084   3.951  0.1947 -0.3367 -0.1819
16215TIP3   OH270059   4.396   3.308   1.810 -0.2804 -0.0046 -0.4603
16215TIP3    H170060   4.455   3.378   1.840 -0.4478  0.1114 -0.4005
16215TIP3    H270061   4.326   3.306   1.875  0.7670 -1.6206  0.6929
16216TIP3   OH270062   3.907   1.357   5.972  0.3809  0.2215  0.3736
16216TIP3    H170063   4.002   1.365   5.973  0.3400  0.7578  1.3400
16216TIP3    H270064   3.882   1.358   6.065 -0.3299 -2.8401  0.3218
16217TIP3   OH270065   6.544   2.327  12.952 -0.0418 -0.7007 -0.5410
16217TIP3    H170066   6.625   2.300  12.994 -0.4028 -0.4614  0.3205
16217TIP3    H270067   6.572   2.392  12.887  0.4458 -0.5191 -0.1565
16218TIP3   OH270068   3.376   3.248   5.900 -0.0396 -0.2805 -0.0340
16218TIP3    H170069   3.341   3.279   5.983  0.5604 -2.5725  1.1425
16218TIP3    H270070   3.470   3.267   5.905  0.4560 -2.6668  0.9831
16219TIP3   OH270071   4.145   2.873  14.201 -0.2561  0.1489  0.7014
16219TIP3    H170072   4.233   2.912  14.200  1.1492 -2.7272 -0.8709
16219TIP3    H270073   4.146   2.813  14.275 -1.0594  0.4314  0.9444
16220TIP3   OH270074   0.329   4.296   2.983 -0.0012  0.1927  0.3741
16220TIP3    H170075   0.304   4.320   2.894  2.0180  1.6999  0.1355
16220TIP3    H270076   0.282   4.357   3.039 -1.4602 -0.9080  0.4212
16221TIP3   OH270077   0.945   4.656  16.920 -0.3182  0.5904 -0.0211
16221TIP3    H170078   1.023   4.624  16.876 -1.4354 -0.8111 -1.0735
16221TIP3    H270079   0.962   4.640  17.013  0.3553 -0.3568 -0.2937
16222TIP3   OH270080   3.463   4.441  14.711 -0.8404  0.2941  0.2083
16222TIP3    H170081   3.554   4.411  14.709  0.2593  3.3204 -0.0220
16222TIP3    H270082   3.443   4.461  14.619 -2.4147 -1.9695 -0.0099
16223TIP3   OH270083   3.544   2.541   3.877 -0.3970  0.6368 -0.2472
16223TIP3    H170084   3.591   2.580   3.804 -0.6235  0.1188 -0.6833
16223TIP3    H270085   3.471   2.600   3.894 -0.6868  0.4645 -0.8428
16224TIP3   OH270086   2.725   3.727  14.448  0.4804  0.1807  1.0513
16224TIP3    H170087   2.651   3.667  14.448  1.4448 -1.4270 -3.3216
16224TIP3    H270088   2.797   3.678  14.487  0.3347 -0.0293  1.0538
16225TIP3   OH270089   0.082   4.873  10.959  0.2109 -0.0088 -0.1107
16225TIP3    H170090   0.086   4.836  10.871  0.4264  0.4583 -0.3050
16225TIP3    H270091   0.173   4.897  10.979  0.2025 -0.3392  0.3401
16226TIP3   OH270092   1.030   2.291   5.613 -0.3833  1.1508 -0.4766
16226TIP3    H170093   1.065   2.281   5.701 -1.1155  2.4680 -0.0141
16226TIP3    H270094   1.075   2.224   5.561  0.6341  0.8854  0.7145
16227TIP3   OH270095   5.630   3.437  16.053 -0.2589 -0.2864 -0.0973
16227TIP3    H170096   5.544   3.446  16.093 -0.8233  1.1371 -1.5244
16227TIP3    H270097   5.623   3.357  16.000  0.5001 -2.1917  2.4595
16228TIP3   OH270098   2.264   6.767   2.534 -0.3393  0.5952  0.4041
16228TIP3    H170099   2.247   6.861   2.533  0.1346  0.6925 -1.1543
16228TIP3    H270100   2.183   6.729   2.567 -0.1553  1.5854  2.1318
16229TIP3   OH270101   4.591   2.288  12.202 -0.5024  0.1285  0.0035
16229TIP3    H170102   4.658   2.242  12.252 -0.4141  0.5535  0.2867
16229TIP3    H270103   4.639   2.356  12.154 -0.7664  0.6252  0.4389
16230TIP3   OH270104   5.904   0.650  15.977  1.1781  0.1856 -0.1285
16230TIP3    H170105   5.916   0.705  15.900  0.5504  1.3716  0.5955
16230TIP3    H270106   5.919   0.709  16.051  0.1140 -0.5185  0.6770
16231TIP3   OH270107   6.585   2.463  12.053 -0.1457 -0.3846  1.0771
16231TIP3    H170108   6.510   2.519  12.032  1.0163  0.7292 -0.3965
16231TIP3    H270109   6.561   2.377  12.020 -0.5866  0.0856  0.1008
16232TIP3   OH270110   3.199   3.501  16.765  0.1250 -0.3091  0.2985
16232TIP3    H170111   3.189   3.509  16.859  1.1216 -1.4550  0.5347
16232TIP3    H270112   3.189   3.407  16.748 -3.0244  0.1533 -1.1503
16233TIP3   OH270113   4.183   5.320  13.964  0.5777  0.3061 -0.0373
16233TIP3    H170114   4.098   5.358  13.946 -0.6797 -2.5003 -0.5456
16233TIP3    H270115   4.232   5.331  13.882 -0.1092 -0.0081 -0.4995
16234TIP3   OH270116   1.400   5.707  11.696 -0.1283 -0.1527  0.0310
16234TIP3    H170117   1.411   5.774  11.763 -0.2239 -0.7789  0.6916
16234TIP3    H270118   1.312   5.721  11.661  0.8013  1.7190 -1.7283
16235TIP3   OH270119   3.647   6.444  11.243 -0.3847 -0.0143  0.0384
16235TIP3    H170120   3.598   6.511  11.194  0.9077 -0.2640 -1.6871
16235TIP3    H270121   3.734   6.446  11.204 -0.3343 -2.7955 -0.1543
16236TIP3   OH270122   4.121   0.992  12.668  0.0638  0.3376  0.6645
16236TIP3    H170123   4.209   0.959  12.653  1.0163  2.7556  0.4697
16236TIP3    H270124   4.070   0.961  12.594  1.2882  0.5856 -0.3216
16237TIP3   OH270125   1.814   3.880  16.956  0.1633  0.1242  0.1197
16237TIP3    H170126   1.847   3.878  16.866 -0.0506  0.8811  0.0191
16237TIP3    H270127   1.820   3.972  16.982 -0.8733  0.1086  0.4704
16238TIP3   OH270128   3.643   2.933   2.236 -0.7388 -0.2207  0.1353
16238TIP3    H170129   3.554   2.958   2.213 -0.1359  0.6557 -1.4005
16238TIP3    H270130   3.678   3.007   2.286 -0.6419 -0.2443  0.1042
16239TIP3   OH270131   6.026   3.826  13.685  0.1976  0.1886  0.5429
16239TIP3    H170132   5.997   3.764  13.752  1.7412 -0.7364  0.4225
16239TIP3    H270133   6.097   3.875  13.727 -0.3231  1.1875  0.2957
16240TIP3   OH270134   5.634   2.101  12.624 -0.2401  0.4004  0.3568
16240TIP3    H170135   5.617   2.011  12.596 -1.3055  1.2779 -2.0768
16240TIP3    H270136   5.613   2.154  12.547  0.0664  2.7676  1.8251
16241TIP3   OH270137   2.983   0.425   3.685 -0.2340  0.3467  0.3163
16241TIP3    H170138   3.040   0.404   3.759  0.1364  1.2674  0.3037
16241TIP3    H270139   3.044   0.446   3.614 -0.5796  0.8690  0.1683
16242TIP3   OH270140   4.332   2.402  16.237  0.7172 -0.0016  0.2191
16242TIP3    H170141   4.395   2.474  16.229 -0.2626  0.7474 -1.2197
16242TIP3    H270142   4.247   2.445  16.249  0.2317 -0.9561  0.3451
16243TIP3   OH270143   2.866   3.179  11.286 -0.2806 -0.4381  0.2550
16243TIP3    H170144   2.815   3.247  11.243 -0.3232 -1.6480 -1.7596
16243TIP3    H270145   2.821   3.163  11.368 -0.0039  2.2411  1.0278
16244TIP3   OH270146   3.274   3.675   4.001 -0.3596  0.4571 -0.3165
16244TIP3    H170147   3.287   3.770   3.992 -0.5184  0.4200 -0.9903
16244TIP3    H270148   3.202   3.666   4.062 -1.6660  0.8384 -1.7281
16245TIP3   OH270149   4.904   5.677   0.957  0.2868  0.3961  0.7995
16245TIP3    H170150   4.887   5.645   0.868  0.4853  1.5233  0.3377
16245TIP3    H270151   4.883   5.770   0.954  0.2598  0.4470  1.9529
16246TIP3   OH270152   6.612   1.801   3.918 -0.2153 -0.9389  0.2939
16246TIP3    H170153   6.688   1.850   3.950 -0.6566 -0.4786  0.6397
16246TIP3    H270154   6.536   1.854   3.941 -0.5278  0.1952 -2.7943
16247TIP3   OH270155   0.649   5.929   6.290  0.1789 -0.1144  0.0989
16247TIP3    H170156   0.629   5.858   6.229  1.0113  0.3504 -0.7469
16247TIP3    H270157   0.745   5.930   6.294  0.1441 -0.4384  1.8010
16248TIP3   OH270158   3.050   4.028  16.513  0.4216 -0.3918  0.0232
16248TIP3    H170159   3.101   4.102  16.480  2.3824 -1.1344  1.1989
16248TIP3    H270160   3.018   3.984  16.434  0.2771  0.9672 -0.7132
16249TIP3   OH270161   6.716   4.748   0.710 -0.2952  0.4793 -0.2699
16249TIP3    H170162   6.811   4.746   0.694 -0.1207  0.1423  0.7202
16249TIP3    H270163   6.689   4.835   0.684  0.1528  0.3222 -1.3025
16250TIP3   OH270164   0.977   3.612   3.587 -0.5819  0.5283  0.0496
16250TIP3    H170165   0.960   3.676   3.518 -0.7530 -0.0147 -0.4192
16250TIP3    H270166   1.049   3.558   3.554 -0.0083  0.8699  0.7134
16251TIP3   OH270167   3.190   1.403   6.245  0.5970  0.0949  0.1793
16251TIP3    H170168   3.144   1.422   6.327  0.3563  1.3943 -0.2354
16251TIP3    H270169   3.215   1.311   6.253 -1.8720 -0.6162  0.5113
16252TIP3   OH270170   3.380   1.617   6.272  0.3686 -0.2110  0.6431
16252TIP3    H170171   3.338   1.692   6.313 -2.6302 -0.0075 -2.3802
16252TIP3    H270172   3.323   1.543   6.291  0.7032 -0.7506 -0.3539
16253TIP3   OH270173   3.436   6.380   0.081  0.5403  0.0702 -0.1460
16253TIP3    H170174   3.360   6.322   0.085 -0.3230  1.2156  2.0578
16253TIP3    H270175   3.512   6.321   0.082 -0.3228 -1.0595  0.2715
16254TIP3   OH270176   3.398   2.400  10.799  0.0340 -0.0451 -0.2999
16254TIP3    H170177   3.477   2.430  10.755  0.2852 -0.4074 -0.1018
16254TIP3    H270178   3.404   2.305  10.797  1.0736 -0.1230  2.2954
16255TIP3   OH270179   5.740   2.004  10.496 -0.2595  0.0305 -0.3384
16255TIP3    H170180   5.830   1.980  10.477 -0.1191  0.1879  0.1143
16255TIP3    H270181   5.744   2.098  10.516 -0.6398  0.2099 -1.0788
16256TIP3   OH270182   5.264   5.720  11.928  0.2055 -0.4009 -0.3650
16256TIP3    H170183   5.288   5.796  11.981  1.3305 -3.0844  3.4381
16256TIP3    H270184   5.337   5.708  11.868 -0.2341  1.7282 -1.3952
16257TIP3   OH270185   5.761   1.935   0.484 -0.2471 -0.1765 -0.0330
16257TIP3    H170186   5.675   1.963   0.516  0.4115 -0.1741  1.8670
16257TIP3    H270187   5.819   2.009   0.502  0.7666 -1.3142  1.6426
16258TIP3   OH270188   2.404   3.637  14.116 -0.1441  0.5523  0.4548
16258TIP3    H170189   2.337   3.589  14.067  0.6185 -0.0420 -0.0367
16258TIP3    H270190   2.480   3.578  14.117 -0.5861 -0.1607  3.7238
16259TIP3   OH270191   4.286   0.961  15.707 -0.3777 -0.1130 -0.3051
16259TIP3    H170192   4.292   0.885  15.648 -0.0992 -1.9607  1.9551
16259TIP3    H270193   4.193   0.981  15.712 -0.8277 -2.2049  1.1996
16260TIP3   OH270194   3.513   2.852   5.225  0.1551 -0.2737 -0.4130
16260TIP3    H170195   3.563   2.919   5.178  2.4628  0.2302  2.4893
16260TIP3    H270196   3.531   2.771   5.176 -1.1592  0.7840 -2.8600
16261TIP3   OH270197   4.442   2.315   4.781 -0.6325 -0.1130  0.0196
16261TIP3    H170198   4.516   2.322   4.721 -0.5733 -1.6526 -0.1496
16261TIP3    H270199   4.405   2.402   4.785  1.2765  0.7477  0.2231
16262TIP3   OH270200   0.563   2.059   2.673 -0.0693 -0.0872 -0.6339
16262TIP3    H170201   0.570   1.971   2.711 -1.4274 -0.0510 -0.2703
16262TIP3    H270202   0.643   2.068   2.621  0.1127 -1.5306 -0.6617
16263TIP3   OH270203   4.908   0.118  11.644 -0.0108 -0.1622  0.4536
16263TIP3    H170204   4.998   0.103  11.671 -0.4425  0.3271  2.3025
16263TIP3    H270205   4.904   0.211  11.622 -0.0646 -0.1842  0.3679
16264TIP3   OH270206   2.863   5.857  11.545 -0.5686 -0.2092 -0.0610
16264TIP3    H170207   2.862   5.856  11.450  0.7526  2.1130 -0.1627
16264TIP3    H270208   2.888   5.768  11.570 -2.0921 -1.1968 -1.7890
16265TIP3   OH270209   4.292   4.699  10.481 -0.3020  0.0442 -0.5036
16265TIP3    H170210   4.321   4.647  10.556  0.6142  2.0856  0.6454
16265TIP3    H270211   4.198   4.711  10.495 -0.0126  1.0880  0.8503
16266TIP3   OH270212   3.023   0.336  13.517  0.2783 -0.3445 -0.0064
16266TIP3    H170213   3.066   0.309  13.435  0.3298 -0.9743  0.2168
16266TIP3    H270214   2.944   0.382  13.489  0.2123 -0.6963 -0.4121
16267TIP3   OH270215   4.921   0.483   5.506 -0.5415 -0.1775 -0.5011
16267TIP3    H170216   4.912   0.578   5.508 -1.6608 -0.2742  0.2394
16267TIP3    H270217   4.927   0.458   5.599 -0.9051 -0.8838 -0.6645
16268TIP3   OH270218   1.720   0.512   4.541  0.7582  0.2331  0.3492
16268TIP3    H170219   1.690   0.511   4.450  0.2763 -1.0130  0.5041
16268TIP3    H270220   1.688   0.430   4.578 -0.1327  1.2790  2.0138
16269TIP3   OH270221   5.059   2.888   2.109  0.2079  0.1264 -0.1925
16269TIP3    H170222   4.975   2.871   2.067 -0.4011  1.0700  0.5795
16269TIP3    H270223   5.055   2.981   2.133  0.5899 -0.3036  1.7309
16270TIP3   OH270224   4.086   2.594  11.050 -0.1693 -0.0051 -0.8117
16270TIP3    H170225   4.050   2.507  11.037  1.3085 -0.6248 -0.9736
16270TIP3    H270226   4.164   2.580  11.103 -0.3491  1.3215 -0.1442
16271TIP3   OH270227   1.719   3.067  14.062 -0.4155  0.3094 -0.4130
16271TIP3    H170228   1.780   3.134  14.033 -0.6756  0.1724 -1.3147
16271TIP3    H270229   1.633   3.103  14.043 -0.6935  0.9397  1.7940
16272TIP3   OH270230   2.143   0.753  12.502  0.5498  0.6849  0.0345
16272TIP3    H170231   2.224   0.704  12.492  1.1644 -0.3984  6.1601
16272TIP3    H270232   2.171   0.844  12.506  1.5883  0.3507  1.7164
16273TIP3   OH270233   4.461   3.170  11.681 -0.0937 -0.1537 -0.5899
16273TIP3    H170234   4.486   3.195  11.592  0.5232  2.4803  0.2221
16273TIP3    H270235   4.406   3.093  11.670  1.3734 -0.9667 -3.1065
16274TIP3   OH270236   5.685   4.378   1.017  0.4045  0.1068 -0.0443
16274TIP3    H170237   5.687   4.393   0.922 -0.0623 -1.0647 -0.2568
16274TIP3    H270238   5.710   4.462   1.055  1.9303  0.2564 -1.2408
16275TIP3   OH270239   0.138   6.189  12.256  0.1220  0.3214 -0.3128
16275TIP3    H170240   0.123   6.274  12.296  4.7293 -0.4176  3.9443
16275TIP3    H270241   0.229   6.193  12.226 -0.2923 -2.3887 -2.2537
16276TIP3   OH270242   3.265   5.277   4.304  0.2535  0.0248 -0.4674
16276TIP3    H170243   3.279   5.233   4.388 -0.7827  0.7520  0.1072
16276TIP3    H270244   3.351   5.280   4.263  0.7071 -0.6461  0.4109
16277TIP3   OH270245   5.876   6.085  11.984  0.2239 -0.1738 -0.1881
16277TIP3    H170246   5.814   6.141  11.937  0.3741 -0.2647 -0.4986
16277TIP3    H270247   5.837   5.997  11.978 -0.2113 -0.0515  0.6350
16278TIP3   OH270248   6.388   5.418   6.252 -0.4863  0.5866 -0.5331
16278TIP3    H170249   6.477   5.389   6.229 -0.3517 -0.7131  1.4282
16278TIP3    H270250   6.346   5.435   6.168  1.8044  1.8623 -1.5178
16279TIP3   OH270251   3.542   0.199  16.820 -0.2599  0.0987  0.7673
16279TIP3    H170252   3.565   0.283  16.859 -1.0650  0.5159  0.3762
16279TIP3    H270253   3.624   0.165  16.784  0.3326  0.0915  2.0712
16280TIP3   OH270254   1.516   2.754  12.173 -0.3646  0.1394  0.4000
16280TIP3    H170255   1.577   2.756  12.247 -0.8971  1.4294  0.8412
16280TIP3    H270256   1.450   2.820  12.195 -1.5852 -0.7882 -0.3571
16281TIP3   OH270257   3.460   4.292   4.074  0.2776  0.4946  0.5248
16281TIP3    H170258   3.553   4.313   4.071  0.3359  0.2470  0.5478
16281TIP3    H270259   3.432   4.289   3.983  0.3708  0.2395  0.5017
16282TIP3   OH270260   1.164   6.070  14.099  0.6141  0.1863 -0.3854
16282TIP3    H170261   1.168   6.078  14.004  0.4613 -1.0500 -0.5197
16282TIP3    H270262   1.167   5.975  14.115 -1.5092  0.2400  0.7168
16283TIP3   OH270263   6.259   5.569  13.141 -0.3408  0.1076 -0.0661
16283TIP3    H170264   6.188   5.559  13.204 -0.3440  3.4694  0.6542
16283TIP3    H270265   6.218   5.559  13.056 -0.8683 -1.7117  0.3499
16284TIP3   OH270266   5.446   6.074   3.367  0.2450  0.2187  0.7513
16284TIP3    H170267   5.526   6.024   3.352  1.0420  0.9529  2.2653
16284TIP3    H270268   5.414   6.095   3.280  1.5995 -0.2579  0.1072
16285TIP3   OH270269   0.297   3.694  14.821 -0.0529 -0.0830 -0.0988
16285TIP3    H170270   0.295   3.672  14.914  1.4883 -1.2868 -0.3037
16285TIP3    H270271   0.363   3.763  14.815  0.8581 -0.9576 -0.4386
16286TIP3   OH270272   4.827   1.476  15.667  0.5284 -0.6009  0.2116
16286TIP3    H170273   4.808   1.562  15.706  0.2769 -0.2732 -0.6082
16286TIP3    H270274   4.915   1.455  15.698  0.2806 -0.4289  1.0732
16287TIP3   OH270275   1.383   0.181   2.779 -0.2925 -0.8425 -0.2657
16287TIP3    H170276   1.478   0.172   2.788 -0.1821  0.3583 -0.0675
16287TIP3    H270277   1.362   0.260   2.829 -0.8564  1.1766 -3.3961
16288TIP3   OH270278   3.917   4.181   1.254 -0.4635 -0.1785 -0.5088
16288TIP3    H170279   3.845   4.205   1.313  0.1042  2.1560 -0.6873
16288TIP3    H270280   3.909   4.241   1.180  0.6332 -1.0781 -1.3920
16289TIP3   OH270281   0.762   3.396  12.518  0.3842  0.5066  0.0660
16289TIP3    H170282   0.675   3.433  12.501 -0.3808 -1.1182  0.2298
16289TIP3    H270283   0.755   3.359  12.607  2.0726  2.5789  1.1455
16290TIP3   OH270284   4.022   0.284  14.062  0.0902 -0.1828  0.1264
16290TIP3    H170285   4.030   0.325  13.976 -1.8129 -0.4826 -0.2547
16290TIP3    H270286   4.008   0.357  14.122 -2.8755 -0.1103 -0.4889
16291TIP3   OH270287   6.421   4.351  12.957 -0.6147 -0.5697 -0.3859
16291TIP3    H170288   6.335   4.314  12.975  0.8457 -3.0887  2.2198
16291TIP3    H270289   6.472   4.278  12.921  0.8237  0.4792 -0.5877
16292TIP3   OH270290   2.278   5.990  13.257 -0.6636 -0.6417  0.8256
16292TIP3    H170291   2.237   5.934  13.192  0.8484  0.0137 -0.7903
16292TIP3    H270292   2.258   6.079  13.229  0.5858 -0.3365  0.8184
16293TIP3   OH270293   2.411   5.081  13.914  0.0776  0.7262  0.6326
16293TIP3    H170294   2.406   4.993  13.952  2.0081 -0.3512 -1.3515
16293TIP3    H270295   2.320   5.102  13.889 -0.4535 -0.5932  1.3657
16294TIP3   OH270296   0.513   0.579  13.739 -0.0474 -0.4885  0.2665
16294TIP3    H170297   0.591   0.623  13.772 -0.2732  0.3440 -0.2707
16294TIP3    H270298   0.442   0.613  13.793 -0.1266 -0.7672  0.3387
16295TIP3   OH270299   2.582   4.699   1.313 -0.0279  0.0234  0.1604
16295TIP3    H170300   2.514   4.636   1.338 -1.8728  1.8813  0.1333
16295TIP3    H270301   2.533   4.773   1.278  2.1845  0.2297 -2.8335
16296TIP3   OH270302   1.463   6.247  16.482  0.0559  0.2953  0.1600
16296TIP3    H170303   1.375   6.267  16.514  0.1406 -0.6874  1.0964
16296TIP3    H270304   1.477   6.308  16.410 -1.8733 -0.3277 -0.8284
16297TIP3   OH270305   3.806   1.349   4.469 -0.1145 -0.2691  0.3976
16297TIP3    H170306   3.735   1.359   4.532 -0.4008  0.6293 -0.0499
16297TIP3    H270307   3.868   1.290   4.512 -2.3472 -3.3854 -0.2733
16298TIP3   OH270308   2.791   3.508   3.363  0.3083  0.0898 -0.1892
16298TIP3    H170309   2.812   3.462   3.281 -1.3463 -0.6507 -0.2444
16298TIP3    H270310   2.822   3.450   3.432  2.1430  0.9367 -0.2622
16299TIP3   OH270311   6.306   0.923  15.778 -0.0397  0.6175 -0.4059
16299TIP3    H170312   6.305   0.886  15.689  0.0837 -1.8121  0.5168
16299TIP3    H270313   6.397   0.950  15.791  0.3373 -0.5581 -0.4683
16300TIP3   OH270314   4.349   4.745   4.313 -0.2043  0.2092  0.2164
16300TIP3    H170315   4.400   4.671   4.281  0.5978  0.3419  1.1659
16300TIP3    H270316   4.294   4.769   4.238  1.3740  0.2942 -0.9736
16301TIP3   OH270317   6.486   5.688  15.372 -0.0199 -0.2526  0.7862
16301TIP3    H170318   6.414   5.704  15.311  0.0875 -0.0854  0.7034
16301TIP3    H270319   6.444   5.681  15.458 -0.1850 -0.6209  0.6750
16302TIP3   OH270320   3.478   1.316   5.323  0.2339  0.3914 -0.3033
16302TIP3    H170321   3.460   1.281   5.410 -2.0569 -2.6204 -1.8082
16302TIP3    H270322   3.560   1.274   5.297 -1.4024 -2.4874 -1.2494
16303TIP3   OH270323   1.770   4.634  15.115 -0.0272 -0.2997 -0.4211
16303TIP3    H170324   1.744   4.549  15.150 -0.4154  0.0033  0.0521
16303TIP3    H270325   1.709   4.650  15.043 -1.6415  0.6825  1.0735
16304TIP3   OH270326   1.634   4.838   3.666 -0.1430 -0.1063  0.3618
16304TIP3    H170327   1.729   4.826   3.664 -0.2328 -0.9046  0.3503
16304TIP3    H270328   1.605   4.780   3.736 -0.5833  0.4293  0.6223
16305TIP3   OH270329   5.719   6.158   2.317  0.2119 -0.0856 -0.2100
16305TIP3    H170330   5.687   6.247   2.331  0.6377  0.1684 -0.8004
16305TIP3    H270331   5.652   6.102   2.355  1.3369  0.5309  2.9505
16306TIP3   OH270332   4.496   5.587   0.753  0.0535 -0.5550  0.4059
16306TIP3    H170333   4.537   5.545   0.678  0.6949 -1.2247  1.1118
16306TIP3    H270334   4.534   5.542   0.829 -2.0954 -1.3011  1.1022
16307TIP3   OH270335   3.230   5.605   0.742 -0.3044 -0.1766  0.1442
16307TIP3    H170336   3.240   5.697   0.715 -1.1429 -0.4951 -1.4135
16307TIP3    H270337   3.136   5.589   0.736 -0.0296 -1.5724 -1.2858
16308TIP3   OH270338   0.391   6.392   0.318 -0.2717  0.3418 -0.2810
16308TIP3    H170339   0.469   6.425   0.275 -1.1783 -0.0947 -2.4066
16308TIP3    H270340   0.336   6.359   0.247 -2.8885  1.6219  0.9661
16309TIP3   OH270341   0.024   3.691   1.596  0.2587 -0.2236  0.5254
16309TIP3    H170342  -0.002   3.621   1.536 -1.0977  1.4697 -0.9943
16309TIP3    H270343   0.120   3.687   1.599  0.3160 -0.7809 -1.2762
16310TIP3   OH270344   1.658   0.209   3.981 -0.5681 -0.0953 -0.1685
16310TIP3    H170345   1.568   0.183   3.999 -0.8950  0.6842 -0.6427
16310TIP3    H270346   1.654   0.252   3.896  0.6911 -2.4190 -1.5297
16311TIP3   OH270347   1.404   6.775  14.727 -0.7323  0.0703  0.7147
16311TIP3    H170348   1.379   6.858  14.688  3.0031  0.3663 -1.5709
16311TIP3    H270349   1.440   6.724  14.654  4.6043 -0.2756  3.0808
16312TIP3   OH270350   2.669   2.502   0.671  0.3427  0.3732  0.5317
16312TIP3    H170351   2.588   2.550   0.653  0.0879  0.0500  0.8185
16312TIP3    H270352   2.712   2.494   0.585  0.2294  0.8281  0.4325
16313TIP3   OH270353   4.437   2.689   0.246  0.0666  0.0271  0.1709
16313TIP3    H170354   4.352   2.678   0.288 -0.1826  0.3409 -0.2528
16313TIP3    H270355   4.448   2.610   0.193 -0.4759  0.5116 -0.6746
16314TIP3   OH270356   1.111   2.931   1.384  0.0787  0.1249 -0.1281
16314TIP3    H170357   1.105   2.904   1.476  1.0232 -1.7751 -0.5789
16314TIP3    H270358   1.024   2.964   1.363 -0.6082 -0.8719  1.0275
16315TIP3   OH270359   5.614   0.612  16.296  0.2641  0.3675 -0.2213
16315TIP3    H170360   5.550   0.680  16.318 -0.8140 -0.5725 -0.3757
16315TIP3    H270361   5.673   0.609  16.371 -1.6018 -0.7417  1.2862
16316TIP3   OH270362   0.571   3.240  15.117 -0.1113  0.1292  0.5367
16316TIP3    H170363   0.570   3.188  15.197 -0.7233 -0.7361 -0.0135
16316TIP3    H270364   0.653   3.289  15.121  0.3319 -0.6448  1.2186
16317TIP3   OH270365   5.117   4.730   4.737 -0.2021 -0.3623 -0.0602
16317TIP3    H170366   5.179   4.777   4.681  1.0931 -2.2530 -0.2884
16317TIP3    H270367   5.032   4.747   4.696  0.0955  2.2161  0.2139
16318TIP3   OH270368   3.262   2.986  12.259  0.2819 -0.6312 -0.1819
16318TIP3    H170369   3.261   3.046  12.184 -1.5559  0.5810  0.7528
16318TIP3    H270370   3.327   2.920  12.235  0.0736 -0.0460 -2.6455
16319TIP3   OH270371   5.959   3.836   4.931  0.4599 -0.0966 -0.7496
16319TIP3    H170372   6.027   3.770   4.922  0.0144 -0.6205 -0.3867
16319TIP3    H270373   5.973   3.872   5.019  1.3240  1.0158 -1.3243
16320TIP3   OH270374   4.226   0.466   4.163 -0.0663 -0.2381 -0.3841
16320TIP3    H170375   4.214   0.473   4.258 -1.0627 -1.4473 -0.3761
16320TIP3    H270376   4.320   0.458   4.151  0.0019 -1.5225  0.6647
16321TIP3   OH270377   4.947   0.673   2.515  0.1785 -0.0860 -0.0774
16321TIP3    H170378   4.972   0.699   2.604  0.2680 -1.3201  0.2728
16321TIP3    H270379   4.995   0.733   2.458  1.2449 -0.2090  0.6765
16322TIP3   OH270380   1.855   4.852  16.358 -0.7875 -0.2395 -0.6830
16322TIP3    H170381   1.869   4.825  16.448  0.9034  0.1555 -0.7890
16322TIP3    H270382   1.868   4.772  16.307  2.9757  0.3185 -0.8959
16323TIP3   OH270383   3.854   2.546   3.822 -0.1822 -0.2566  0.7383
16323TIP3    H170384   3.944   2.577   3.829  0.0379 -0.9780  1.2251
16323TIP3    H270385   3.836   2.506   3.907 -1.5473  1.3975  1.2693
16324TIP3   OH270386   1.885   5.206  13.683  0.3113  0.0494 -0.0818
16324TIP3    H170387   1.800   5.164  13.672  1.0276 -1.4199 -0.2461
16324TIP3    H270388   1.904   5.199  13.776  1.2930 -1.8214 -0.3737
16325TIP3   OH270389   4.085   2.553   0.579  0.3229  0.3383 -0.1054
16325TIP3    H170390   4.142   2.509   0.642 -0.1337  0.5870  0.4905
16325TIP3    H270391   3.996   2.533   0.609  0.1062  1.2337 -0.1137
16326TIP3   OH270392   1.857   4.275   3.789  0.2885 -0.2606  0.0580
16326TIP3    H170393   1.779   4.253   3.739  0.3473 -0.3995  0.0260
16326TIP3    H270394   1.902   4.191   3.802 -0.2303 -0.3798  1.1931
16327TIP3   OH270395   1.275   2.423  11.858  0.5638  0.2746 -0.4854
16327TIP3    H170396   1.261   2.517  11.845 -1.2852  0.6322  2.8586
16327TIP3    H270397   1.194   2.382  11.826  0.0643  0.2032  0.8087
16328TIP3   OH270398   4.048   2.142  15.216  0.4653 -0.7260 -0.1969
16328TIP3    H170399   3.999   2.065  15.245 -1.0976  0.2717 -0.0702
16328TIP3    H270400   3.981   2.206  15.194  1.7284  1.0333  0.8222
16329TIP3   OH270401   0.846   2.376   3.452 -0.0269  0.5095 -0.4008
16329TIP3    H170402   0.938   2.352   3.446  0.0452  0.1581  1.5111
16329TIP3    H270403   0.800   2.304   3.408  0.5798  0.7499 -1.4782
16330TIP3   OH270404   4.084   2.168  16.855 -0.2581  0.5730  0.1732
16330TIP3    H170405   3.990   2.151  16.855 -0.0541 -0.6100  0.1979
16330TIP3    H270406   4.123   2.095  16.807  0.6231  1.2567 -0.1916
16331TIP3   OH270407   3.081   3.567  17.085 -0.3909 -0.0070 -0.2100
16331TIP3    H170408   3.046   3.646  17.044  0.2383  1.0582  1.2086
16331TIP3    H270409   3.008   3.532  17.136 -0.7266 -0.4622 -0.9918
16332TIP3   OH270410   0.514   6.000  11.233  0.6725 -0.6184 -0.0229
16332TIP3    H170411   0.465   5.950  11.298  1.1226  0.2113  0.9670
16332TIP3    H270412   0.565   5.934  11.186  1.7125 -1.0543  1.6677
16333TIP3   OH270413   3.815   3.368   3.887 -0.3464 -0.1825 -0.0541
16333TIP3    H170414   3.876   3.361   3.813  1.0195  0.8808  0.9425
16333TIP3    H270415   3.752   3.435   3.860 -0.3521 -0.3887 -0.5720
16334TIP3   OH270416   1.172   5.003  12.600  0.0435 -0.1129  0.1614
16334TIP3    H170417   1.152   5.006  12.694  1.0203  0.4118  0.3723
16334TIP3    H270418   1.114   4.935  12.565 -0.7928  0.1371  1.0256
16335TIP3   OH270419   6.528   6.536   5.202  0.3133  0.1676 -0.1020
16335TIP3    H170420   6.583   6.604   5.163 -0.4014  1.4824  1.1268
16335TIP3    H270421   6.567   6.520   5.288  0.4566 -0.9832 -0.3632
16336TIP3   OH270422   4.586   1.540  16.779 -0.0778  0.4534 -0.5550
16336TIP3    H170423   4.572   1.449  16.807  0.5376  0.5060 -0.0525
16336TIP3    H270424   4.627   1.532  16.693  1.3100  0.2197  0.1101
16337TIP3   OH270425   1.717   3.381  14.725  0.3696 -0.5478  0.4868
16337TIP3    H170426   1.810   3.357  14.729  0.9031  1.1494 -0.5399
16337TIP3    H270427   1.702   3.429  14.807  1.4814  2.4085 -0.8716
16338TIP3   OH270428   1.429   5.837   0.227  0.0319  0.1495 -0.2603
16338TIP3    H170429   1.442   5.931   0.211  1.3288 -0.0065 -0.1790
16338TIP3    H270430   1.419   5.830   0.322 -0.8440  0.2766 -0.3294
16339TIP3   OH270431   2.458   1.952   6.695  0.2371  0.1478  0.0195
16339TIP3    H170432   2.367   1.939   6.720 -0.9668  1.1469 -3.2480
16339TIP3    H270433   2.472   2.046   6.702  0.8801  0.0478  0.1274
16340TIP3   OH270434   6.595   5.467  16.536  0.1398 -0.0833 -0.4615
16340TIP3    H170435   6.504   5.455  16.561 -0.1646 -0.5117 -1.7192
16340TIP3    H270436   6.616   5.391  16.483  1.0524  0.3036 -0.6733
16341TIP3   OH270437   0.952   3.624   2.459  0.1490 -0.2102 -0.5508
16341TIP3    H170438   0.966   3.714   2.431 -0.3695  0.7617  2.0275
16341TIP3    H270439   0.932   3.576   2.379  1.0313  1.8312 -2.0565
16342TIP3   OH270440   5.901   0.701  13.769  0.1605  0.2449 -0.7152
16342TIP3    H170441   5.807   0.691  13.753  0.1511 -2.1502  0.4013
16342TIP3    H270442   5.927   0.620  13.812  2.6189  1.1589 -0.2975
16343TIP3   OH270443   1.387   0.425  11.524  0.3950  0.2194  0.2047
16343TIP3    H170444   1.420   0.513  11.504  0.3628 -0.2070 -1.9141
16343TIP3    H270445   1.412   0.372  11.448 -0.1265 -1.4746  1.1693
16344TIP3   OH270446   5.391   2.562  15.080  0.2898 -0.4767  0.3044
16344TIP3    H170447   5.470   2.529  15.123 -0.2184 -1.5950  0.4096
16344TIP3    H270448   5.402   2.537  14.988 -0.2457 -1.2681  0.4421
16345TIP3   OH270449   2.340   1.737  11.991  0.2384  0.1028  0.3491
16345TIP3    H170450   2.340   1.772  12.080 -0.4629 -0.2481  0.4874
16345TIP3    H270451   2.397   1.797  11.942  2.2598 -0.8145  1.4536
16346TIP3   OH270452   4.733   5.424   5.562 -0.6928 -0.0023  0.2110
16346TIP3    H170453   4.739   5.347   5.619  0.9104 -0.2198 -0.2126
16346TIP3    H270454   4.816   5.469   5.573 -0.5049  0.1874 -1.6324
16347TIP3   OH270455   3.601   5.439  15.989 -0.1767 -0.2604  0.6436
16347TIP3    H170456   3.654   5.498  16.043  1.0064 -0.2608 -0.4865
16347TIP3    H270457   3.598   5.358  16.039  2.5141 -0.8903 -0.0754
16348TIP3   OH270458   0.462   6.331   2.590 -0.6113 -0.6819  0.4324
16348TIP3    H170459   0.402   6.262   2.563 -1.3332 -0.4595  1.4051
16348TIP3    H270460   0.436   6.352   2.680 -0.6132  1.0662  0.0680
16349TIP3   OH270461   3.530   5.739  11.362  0.6584  0.1592 -0.2272
16349TIP3    H170462   3.580   5.793  11.422  2.3261 -1.8237  0.2760
16349TIP3    H270463   3.561   5.764  11.275  1.4067  0.0156 -0.0040
16350TIP3   OH270464   3.937   0.204   2.334  0.6389 -0.3237  0.0571
16350TIP3    H170465   3.924   0.217   2.427 -0.1971 -1.6721  0.1478
16350TIP3    H270466   3.961   0.112   2.325  1.5906 -0.0015 -0.9814
16351TIP3   OH270467   2.074   4.178  12.125 -0.0416  0.5642  0.1510
16351TIP3    H170468   2.157   4.150  12.164  0.7242  1.5904 -0.6754
16351TIP3    H270469   2.035   4.097  12.091  0.6469  0.0741  0.5047
16352TIP3   OH270470   4.947   0.325   4.479 -0.2662 -0.0203  0.1347
16352TIP3    H170471   4.977   0.329   4.388  0.6631 -0.1561  0.4296
16352TIP3    H270472   5.024   0.350   4.531 -1.1381  1.3349  0.8328
16353TIP3   OH270473   1.354   2.641   0.064 -0.4632 -0.6834 -0.0790
16353TIP3    H170474   1.300   2.714   0.033  1.5453  0.5307 -0.9140
16353TIP3    H270475   1.326   2.628   0.155 -1.2800  0.7324 -0.0940
16354TIP3   OH270476   1.082   1.451   6.432  0.5167 -0.4357  0.3262
16354TIP3    H170477   1.150   1.494   6.484  0.0986 -1.4394  1.7633
16354TIP3    H270478   1.016   1.519   6.418  0.9760  0.0503  0.4799
16355TIP3   OH270479   5.204   0.004   2.733 -0.2761 -0.4893  0.0984
16355TIP3    H170480   5.300  -0.001   2.739 -0.2375  0.7280  0.7720
16355TIP3    H270481   5.173  -0.049   2.807 -0.1413 -1.2389 -0.3722
16356TIP3   OH270482   1.068   1.160  16.132 -0.0391 -0.1783 -0.1749
16356TIP3    H170483   0.992   1.107  16.153 -0.1697 -0.6944 -1.8249
16356TIP3    H270484   1.142   1.113  16.170 -0.4369 -0.0832  0.7485
16357TIP3   OH270485   0.221   4.051  16.987 -0.0768  0.1298 -0.0975
16357TIP3    H170486   0.157   4.044  17.058 -1.4084  1.4606 -1.0869
16357TIP3    H270487   0.298   4.090  17.027 -0.6324  0.4097  0.7284
16358TIP3   OH270488   6.364   5.689   0.917 -0.6142  0.1074 -0.3681
16358TIP3    H170489   6.274   5.713   0.893 -0.8865  0.0865  0.5823
16358TIP3    H270490   6.374   5.600   0.885 -1.1496 -0.1067  0.0337
16359TIP3   OH270491   5.328   4.508  11.372  0.4084 -0.2863 -0.1039
16359TIP3    H170492   5.318   4.603  11.382  1.4915 -0.2106  0.4140
16359TIP3    H270493   5.334   4.475  11.461  3.4318 -0.4009 -0.2295
16360TIP3   OH270494   4.735   3.225  11.858  0.3340  0.1625 -0.0557
16360TIP3    H170495   4.801   3.230  11.789  0.4422 -2.8434 -0.2950
16360TIP3    H270496   4.652   3.242  11.812  0.6398  0.8553 -0.3663
16361TIP3   OH270497   5.870   2.682   4.480  0.1878 -0.2982 -0.1134
16361TIP3    H170498   5.885   2.643   4.393  0.5082 -2.6029  0.9034
16361TIP3    H270499   5.880   2.609   4.541 -0.8309  1.1016  1.8265
16362TIP3   OH270500   0.072   0.025  15.213  0.3515  0.9541 -0.0695
16362TIP3    H170501   0.132  -0.031  15.262  0.2280 -0.5705 -1.5644
16362TIP3    H270502   0.081   0.111  15.254  2.2533  0.3820  0.8535
16363TIP3   OH270503   5.078   1.308  16.268  0.0794  0.4493 -0.1715
16363TIP3    H170504   5.003   1.293  16.210 -0.7909  0.2716  0.9654
16363TIP3    H270505   5.149   1.333  16.209 -0.4521 -0.8503 -1.4313
16364TIP3   OH270506   2.527   0.932  16.479 -0.4339  0.2471  0.4408
16364TIP3    H170507   2.606   0.908  16.527 -0.4949  0.0697  0.4511
16364TIP3    H270508   2.550   0.919  16.387  0.1526  1.8998  0.3088
16365TIP3   OH270509   3.649   2.526  11.642 -0.2479 -0.0601 -0.1086
16365TIP3    H170510   3.701   2.527  11.562 -0.1274 -0.9922 -0.0509
16365TIP3    H270511   3.635   2.433  11.661 -1.3091  0.1607  0.2820
16366TIP3   OH270512   3.456   4.344   1.098  0.7595  0.2449 -0.3639
16366TIP3    H170513   3.450   4.438   1.116  0.2952  0.0127  0.8017
16366TIP3    H270514   3.460   4.303   1.185  0.3833 -0.8438 -0.8405
16367TIP3   OH270515   6.242   2.021   4.178 -0.1506  0.0552 -0.0346
16367TIP3    H170516   6.227   1.927   4.166  0.8909 -0.0415 -0.7012
16367TIP3    H270517   6.218   2.060   4.093 -2.2779  0.6412  0.7708
16368TIP3   OH270518   2.413   4.961  12.463 -0.0577  0.4227 -0.6541
16368TIP3    H170519   2.402   4.867  12.478 -2.3485  0.8325  0.6990
16368TIP3    H270520   2.508   4.974  12.460  0.3114 -1.8566 -0.5160
16369TIP3   OH270521   2.720   6.086  11.647  0.4862  0.0648 -0.8158
16369TIP3    H170522   2.700   6.144  11.573  1.3990 -1.0040 -1.9389
16369TIP3    H270523   2.782   6.023  11.612  1.9243  0.2531  1.1958
16370TIP3   OH270524   5.967   5.656  16.500 -0.0485 -0.1558  0.2974
16370TIP3    H170525   5.987   5.616  16.584  0.2259 -1.2698 -0.2772
16370TIP3    H270526   6.048   5.700  16.474 -0.2975  0.6483  0.8502
16371TIP3   OH270527   0.924   4.578  14.858 -0.3191 -0.0223  0.2224
16371TIP3    H170528   0.987   4.569  14.928 -1.0264  1.4198  1.1001
16371TIP3    H270529   0.944   4.506  14.798  0.9076 -0.7192  1.4072
16372TIP3   OH270530   5.870   0.701   2.413 -0.2317 -0.0246  0.4059
16372TIP3    H170531   5.878   0.627   2.353  0.9236  0.5430 -0.1598
16372TIP3    H270532   5.786   0.741   2.392 -0.2067 -0.3221 -0.2610
16373TIP3   OH270533   2.123   1.645  14.185  0.5665 -0.4921  0.0667
16373TIP3    H170534   2.033   1.666  14.163  0.9025 -0.4837 -1.4438
16373TIP3    H270535   2.142   1.698  14.262 -0.9529 -1.1100  0.8998
16374TIP3   OH270536   1.057   1.110  16.572  0.6061 -0.2191  0.3903
16374TIP3    H170537   1.140   1.094  16.617  1.1420 -0.6745 -0.7314
16374TIP3    H270538   1.062   1.201  16.543  0.1358  0.1680  1.4709
16375TIP3   OH270539   2.827   2.033   5.193  0.0759 -0.4490 -0.0606
16375TIP3    H170540   2.918   2.040   5.166 -0.1227 -0.2129 -0.6862
16375TIP3    H270541   2.812   2.110   5.248 -0.2666  0.5780 -1.5277
16376TIP3   OH270542   1.816   2.608   3.785  1.0764  0.4692  0.8818
16376TIP3    H170543   1.785   2.673   3.849  2.9657  2.5768 -0.1716
16376TIP3    H270544   1.910   2.627   3.776  1.0884 -0.4414 -1.7162
16377TIP3   OH270545   2.579   6.727   2.010 -0.1693  0.0622  0.2846
16377TIP3    H170546   2.660   6.774   1.986  0.7206 -1.2429  0.6137
16377TIP3    H270547   2.551   6.686   1.928 -0.6047  0.6297  0.1380
16378TIP3   OH270548   0.943   4.510  13.305  0.0104  0.6059  0.1850
16378TIP3    H170549   0.858   4.555  13.312 -0.5791 -0.5790  1.0378
16378TIP3    H270550   0.971   4.500  13.396  0.2866 -0.4250 -0.0032
16379TIP3   OH270551   2.582   0.359   4.934 -0.0896  0.1514 -0.7818
16379TIP3    H170552   2.496   0.340   4.896 -1.3918 -0.7774  2.2715
16379TIP3    H270553   2.608   0.442   4.895 -3.3194  1.4843 -0.4425
16380TIP3   OH270554   3.981   2.097   3.402  0.3234  0.1525  0.0805
16380TIP3    H170555   3.917   2.139   3.460 -0.5590  0.0678 -0.8073
16380TIP3    H270556   4.059   2.086   3.457  0.4950  2.6319  0.4693
16381TIP3   OH270557   2.855   1.048   5.724 -0.1316 -0.5389 -0.2246
16381TIP3    H170558   2.777   1.000   5.696 -0.5404  0.8811 -1.7351
16381TIP3    H270559   2.873   1.017   5.813 -1.7687 -1.6816 -0.2567
16382TIP3   OH270560   6.507   5.725   4.543 -0.2671 -0.4658 -0.1275
16382TIP3    H170561   6.566   5.706   4.470 -1.3686  1.3079 -1.5520
16382TIP3    H270562   6.423   5.745   4.502 -1.3815 -1.0531  1.7425
16383TIP3   OH270563   6.572   5.557   3.623  0.4169  0.2261  0.4839
16383TIP3    H170564   6.602   5.565   3.532  0.6261 -2.8531  0.1418
16383TIP3    H270565   6.477   5.549   3.616  0.4351 -0.0300  0.5099
16384TIP3   OH270566   4.957   5.134  13.134  0.0512 -0.4077 -0.0109
16384TIP3    H170567   5.006   5.199  13.083 -0.2256 -1.5915 -1.8925
16384TIP3    H270568   5.014   5.058  13.137  0.0007 -0.4143  1.3973
16385TIP3   OH270569   0.006   4.839   2.511  0.7071  0.0649  0.7947
16385TIP3    H170570   0.065   4.914   2.506 -1.9386  2.2242 -0.2792
16385TIP3    H270571  -0.013   4.816   2.420 -1.3609  0.5541  1.0483
16386TIP3   OH270572   3.843   5.087   0.200 -0.0115  0.4306  0.2765
16386TIP3    H170573   3.853   5.160   0.261 -1.7972  0.3856  0.6722
16386TIP3    H270574   3.803   5.017   0.252  0.0751 -0.2313 -0.5188
16387TIP3   OH270575   5.058   4.842   1.138  0.2815  0.4315  0.5074
16387TIP3    H170576   4.995   4.841   1.210 -0.2760  2.4857  0.1108
16387TIP3    H270577   5.022   4.780   1.074  0.1009 -0.4206  1.4073
16388TIP3   OH270578   2.707   5.600  11.476 -0.3403 -0.0635 -0.0339
16388TIP3    H170579   2.796   5.611  11.509 -0.5672  4.4985 -0.3593
16388TIP3    H270580   2.683   5.511  11.503  2.6069  0.0985  4.2009
16389TIP3   OH270581   4.726   4.539  16.004 -0.1532  0.3791  0.4358
16389TIP3    H170582   4.734   4.597  16.079 -0.5105 -1.0396  1.6113
16389TIP3    H270583   4.815   4.509  15.987  0.0000  1.0694 -0.0384
16390TIP3   OH270584   5.818   4.442   1.500 -0.4600  0.3623 -0.4023
16390TIP3    H170585   5.863   4.435   1.584 -2.1299  0.4550  0.5317
16390TIP3    H270586   5.843   4.528   1.466  0.5932  0.1323 -0.2427
16391TIP3   OH270587   3.816   5.046  10.860  0.8379 -0.0410 -0.0560
16391TIP3    H170588   3.856   4.959  10.863  0.7850 -0.0615  0.0510
16391TIP3    H270589   3.747   5.043  10.925 -0.4193 -0.5348 -1.3645
16392TIP3   OH270590   4.020   3.290   0.152  0.2589 -0.1677  0.3360
16392TIP3    H170591   4.093   3.351   0.143  1.0183 -1.2602 -1.5911
16392TIP3    H270592   3.966   3.327   0.222  1.4762  1.8658  0.2846
16393TIP3   OH270593   6.013   1.944  15.930  0.0640  0.2187  0.5246
16393TIP3    H170594   6.030   1.861  15.974  0.9937  0.0890 -0.0506
16393TIP3    H270595   5.989   1.918  15.840 -1.1315  0.5096  0.7399
16394TIP3   OH270596   5.717   1.112   0.306  0.2906  1.1039 -0.4445
16394TIP3    H170597   5.717   1.102   0.210  1.1111 -0.7399 -0.3107
16394TIP3    H270598   5.786   1.175   0.323  3.1120 -1.5698 -0.9655
16395TIP3   OH270599   4.965   2.075  15.681  0.4528 -0.2682  0.0123
16395TIP3    H170600   4.982   1.982  15.671 -0.8604 -0.5490  0.2294
16395TIP3    H270601   4.935   2.085  15.771  1.7101  0.5614  0.3662
16396TIP3   OH270602   3.532   3.808   2.707 -0.4401 -0.6678  0.0207
16396TIP3    H170603   3.481   3.747   2.761 -1.0138 -0.7488 -0.5971
16396TIP3    H270604   3.497   3.894   2.730 -2.2156 -0.8517 -1.7632
16397TIP3   OH270605   5.586   4.063   4.933  0.4481  0.3476  0.2428
16397TIP3    H170606   5.641   4.120   4.881  2.0678 -0.5323  0.9262
16397TIP3    H270607   5.528   4.021   4.870  0.0258  1.8362 -0.4007
16398TIP3   OH270608   2.080   4.342   4.371 -0.6614 -0.0277  0.4261
16398TIP3    H170609   2.100   4.365   4.462 -0.2184  0.6073  0.1732
16398TIP3    H270610   1.986   4.323   4.372 -0.6999  0.1644  0.9770
16399TIP3   OH270611   0.342   3.299  11.352 -0.0571 -0.0298  0.2969
16399TIP3    H170612   0.398   3.307  11.429 -0.6066 -0.7700  0.7885
16399TIP3    H270613   0.361   3.377  11.300  1.4186 -0.2689  0.4517
16400TIP3   OH270614   1.136   2.357   1.799  0.3984  0.2606 -0.0997
16400TIP3    H170615   1.181   2.442   1.797 -1.9835  1.5956 -2.3961
16400TIP3    H270616   1.074   2.365   1.871  0.6858  0.1589  0.1628
16401TIP3   OH270617   1.242   5.026   3.003  0.4013 -0.0886  0.0891
16401TIP3    H170618   1.226   5.102   3.058  0.4337 -0.1262  0.1505
16401TIP3    H270619   1.155   4.989   2.987  0.1180  1.2157 -1.7549
16402TIP3   OH270620   6.293   2.605   5.488  0.4601  0.0165 -0.6806
16402TIP3    H170621   6.306   2.530   5.429 -0.0612 -0.0227 -0.7460
16402TIP3    H270622   6.244   2.568   5.562 -1.0282  0.5791 -1.3523
16403TIP3   OH270623   3.251   5.996  12.689 -0.2981 -0.3512  0.5752
16403TIP3    H170624   3.256   5.934  12.617  0.6646 -2.1410  2.0949
16403TIP3    H270625   3.335   6.041  12.688 -0.7484  0.5058 -0.1268
16404TIP3   OH270626   0.448   0.588   5.293  0.2225 -0.2979 -0.4110
16404TIP3    H170627   0.507   0.644   5.243  2.2362 -1.7897  0.1440
16404TIP3    H270628   0.418   0.522   5.230 -0.2744  0.0235 -0.5159
16405TIP3   OH270629   5.994   2.635  14.211 -0.2846  0.0732 -0.4606
16405TIP3    H170630   5.935   2.615  14.283 -0.9795 -0.1392 -1.0782
16405TIP3    H270631   5.947   2.607  14.132 -0.3099  1.9559 -1.1678
16406TIP3   OH270632   3.821   5.128   4.292  0.0079  0.2505 -0.5438
16406TIP3    H170633   3.832   5.220   4.269 -0.7312  0.5204  0.1234
16406TIP3    H270634   3.733   5.123   4.329  0.7196 -0.3792  1.1436
16407TIP3   OH270635   5.614   0.709   0.562  0.1173  0.2699 -0.1959
16407TIP3    H170636   5.566   0.635   0.601  0.2796 -0.6031 -1.5727
16407TIP3    H270637   5.688   0.668   0.517  0.9071  1.4047  0.0461
16408TIP3   OH270638   1.974   3.198   3.223  0.4150 -0.2389 -0.0300
16408TIP3    H170639   1.896   3.144   3.228  1.1169 -1.2571  0.4150
16408TIP3    H270640   2.044   3.138   3.197  0.6801  1.0579 -2.7304
16409TIP3   OH270641   3.838   4.834  16.514 -0.4750  0.0768  0.4043
16409TIP3    H170642   3.894   4.822  16.591  1.1708  0.8248 -0.6210
16409TIP3    H270643   3.887   4.894  16.458 -1.8884 -0.0105 -0.9913
16410TIP3   OH270644   3.381   5.608  16.103 -0.8023 -0.4650  0.0775
16410TIP3    H170645   3.428   5.687  16.131 -2.6518  0.3157  1.1987
16410TIP3    H270646   3.372   5.619  16.008 -0.5678  0.4116  0.1462
16411TIP3   OH270647   5.401   3.378   5.708 -0.1887 -0.0721 -0.2951
16411TIP3    H170648   5.368   3.463   5.738  2.0076  0.1329  1.7880
16411TIP3    H270649   5.353   3.314   5.761 -0.1615 -0.0011 -0.1845
16412TIP3   OH270650   4.287   3.783  14.251 -0.7579  0.2015 -0.1167
16412TIP3    H170651   4.295   3.862  14.198  0.9120  0.0275 -0.1764
16412TIP3    H270652   4.362   3.730  14.226 -0.0875 -0.0331  2.1841
16413TIP3   OH270653   2.296   1.522   1.139  0.3083  0.2348  0.2270
16413TIP3    H170654   2.238   1.569   1.080  0.2961 -0.3368 -0.2223
16413TIP3    H270655   2.278   1.560   1.225  0.2137  0.9595 -0.1098
16414TIP3   OH270656   1.090   5.013  11.567 -0.0488 -0.3683  0.3112
16414TIP3    H170657   1.032   5.086  11.543 -1.5604 -1.3314  0.8420
16414TIP3    H270658   1.177   5.052  11.572 -0.3472  0.8243 -2.1519
16415TIP3   OH270659   4.722   0.783   5.359 -0.0127  0.0747  0.1906
16415TIP3    H170660   4.766   0.807   5.278 -2.3650 -1.3812 -1.6593
16415TIP3    H270661   4.683   0.865   5.391  2.7134  1.0936  1.1383
16416TIP3   OH270662   2.257   0.316  16.921 -0.0496  0.3064 -0.0528
16416TIP3    H170663   2.332   0.257  16.923 -0.3106 -0.0288 -0.0432
16416TIP3    H270664   2.218   0.304  16.835 -1.4324 -1.2385  0.7398
16417TIP3   OH270665   0.412   3.981   1.921  0.3388  0.3806 -0.7607
16417TIP3    H170666   0.373   3.915   1.863 -0.4630 -0.4314  0.6341
16417TIP3    H270667   0.495   3.942   1.948 -1.1773 -1.3138  1.9762
16418TIP3   OH270668   4.060   3.211  15.827  0.3105  0.4130 -0.0332
16418TIP3    H170669   4.028   3.247  15.744  0.1428 -0.1923 -0.2380
16418TIP3    H270670   4.010   3.259  15.894  0.8168  1.2673 -0.2537
16419TIP3   OH270671   1.870   1.188  15.845  0.3532  0.2855 -0.1670
16419TIP3    H170672   1.780   1.220  15.846  1.0393  2.3894  0.0619
16419TIP3    H270673   1.902   1.205  15.933  1.9902  2.9180 -1.1479
16420TIP3   OH270674   5.489   3.255  14.984 -0.2256  0.2040 -0.7714
16420TIP3    H170675   5.569   3.299  14.955  0.0629 -1.7159 -3.2740
16420TIP3    H270676   5.507   3.229  15.074  1.5856  0.6901 -0.9465
16421TIP3   OH270677   0.105   3.618  12.973 -0.7279  0.1378 -0.4074
16421TIP3    H170678   0.115   3.625  13.068  2.1109  0.9767 -0.6765
16421TIP3    H270679   0.118   3.707  12.941 -2.8370  0.0840 -1.5614
16422TIP3   OH270680   2.092   5.243  12.889 -0.2946 -0.7790 -0.2611
16422TIP3    H170681   2.062   5.316  12.942  2.3613  0.7234 -0.6654
16422TIP3    H270682   2.030   5.240  12.815 -2.1018 -0.8511  1.1727
16423TIP3   OH270683   2.487   3.252  10.983 -0.0427 -0.0950  0.6884
16423TIP3    H170684   2.479   3.175  11.039 -0.9007  0.1557  0.9287
16423TIP3    H270685   2.522   3.219  10.901  1.8336 -0.3914  1.5482
16424TIP3   OH270686   4.140   0.909   5.806 -0.0612  0.7042 -0.0485
16424TIP3    H170687   4.224   0.867   5.824  0.8495  1.8089 -1.4689
16424TIP3    H270688   4.074   0.849   5.841  1.2569 -0.9250 -0.2605
16425TIP3   OH270689   6.017   2.969  12.004 -0.2625  0.5398 -0.0294
16425TIP3    H170690   5.924   2.986  12.020 -0.0786  0.4019  1.3745
16425TIP3    H270691   6.059   2.993  12.086  0.4525 -3.1262  0.8724
16426TIP3   OH270692   4.982   6.079  11.315  0.0218 -0.2270 -0.3832
16426TIP3    H170693   5.016   6.090  11.226 -0.9564  2.6081 -0.5136
16426TIP3    H270694   5.036   6.011  11.354  2.5801  0.6565 -2.1502
16427TIP3   OH270695   5.533   5.272  16.017  0.0654 -0.2429  0.4137
16427TIP3    H170696   5.625   5.280  16.043  0.0668 -0.0571  0.3462
16427TIP3    H270697   5.484   5.301  16.093  0.0705  0.4769  0.1432
16428TIP3   OH270698   0.183   5.668  14.234 -0.5067  0.1374 -0.2057
16428TIP3    H170699   0.204   5.616  14.157  0.2478  0.2444 -0.0771
16428TIP3    H270700   0.139   5.606  14.293 -1.9761  0.2785 -1.0832
16429TIP3   OH270701   0.978   5.293   4.028  0.2886 -0.4378 -1.1033
16429TIP3    H170702   0.888   5.322   4.013  0.4499  0.2992 -0.7520
16429TIP3    H270703   0.994   5.226   3.963 -0.8839 -1.3807 -0.4521
16430TIP3   OH270704   4.452   5.531   4.760 -0.3469 -0.2180  0.2332
16430TIP3    H170705   4.388   5.483   4.812 -1.7374  1.3738  0.0837
16430TIP3    H270706   4.522   5.552   4.821 -0.4750 -1.0315  0.6768
16431TIP3   OH270707   2.172   2.370   4.241  0.8769  0.0537  0.2752
16431TIP3    H170708   2.242   2.428   4.272  1.5114  0.1719 -1.2839
16431TIP3    H270709   2.103   2.378   4.307  1.2326  2.0339  0.4603
16432TIP3   OH270710   6.366   3.264   3.194 -0.5062 -0.2980  0.2460
16432TIP3    H170711   6.289   3.227   3.236 -0.2186  0.0165  1.0869
16432TIP3    H270712   6.428   3.191   3.189 -1.2952 -0.9079 -1.6538
16433TIP3   OH270713   4.573   2.683   3.969 -0.1498 -0.1970  0.4566
16433TIP3    H170714   4.493   2.717   4.008  0.0484  1.0018 -0.1299
16433TIP3    H270715   4.558   2.687   3.875  0.1740 -1.0425  0.3605
16434TIP3   OH270716   4.470   6.180   3.834  0.0399 -0.3566 -0.0178
16434TIP3    H170717   4.518   6.165   3.916  0.2719  2.0079  0.3653
16434TIP3    H270718   4.380   6.153   3.854  0.4821 -1.6198  0.3607
16435TIP3   OH270719   1.632   1.803   2.229 -1.2151  0.8777  0.2046
16435TIP3    H170720   1.592   1.726   2.272  1.2992  0.3157  1.7721
16435TIP3    H270721   1.627   1.872   2.295 -0.4661  1.0454  0.0986
16436TIP3   OH270722   2.619   0.077   1.747  0.7232 -0.1152 -0.3333
16436TIP3    H170723   2.537   0.064   1.699  0.4554 -0.8541  0.2994
16436TIP3    H270724   2.611   0.165   1.785  0.1504 -0.2408 -0.1554
16437TIP3   OH270725   1.341   1.475   4.852 -0.0377 -0.5106 -0.1163
16437TIP3    H170726   1.365   1.500   4.941 -1.0973  0.1483 -0.0097
16437TIP3    H270727   1.349   1.555   4.801 -0.4286 -0.6590 -0.4110
16438TIP3   OH270728   1.680   1.229   5.233  0.3206  0.1685 -0.3197
16438TIP3    H170729   1.613   1.190   5.288 -0.6577 -0.6614 -2.0101
16438TIP3    H270730   1.682   1.321   5.259 -2.1081  0.4080 -0.7914
16439TIP3   OH270731   0.981   5.321  12.515 -0.0117  0.0171  0.1930
16439TIP3    H170732   0.986   5.326  12.610  0.0966 -1.1924  0.2712
16439TIP3    H270733   0.910   5.380  12.491 -1.3902 -1.1561  1.2132
16440TIP3   OH270734   1.611   2.928   2.287  0.4889  0.1399  0.2280
16440TIP3    H170735   1.667   2.886   2.353 -0.6697  0.7362  1.6512
16440TIP3    H270736   1.595   2.859   2.223 -0.7793 -1.4704  2.1445
16441TIP3   OH270737   5.353   6.329  15.627  0.3323  0.3098 -0.5042
16441TIP3    H170738   5.306   6.304  15.706 -2.3274  1.6402 -1.5342
16441TIP3    H270739   5.366   6.247  15.580 -3.1221 -0.0016 -1.1951
16442TIP3   OH270740   3.350   4.989  12.056  0.3503  0.0896 -0.0081
16442TIP3    H170741   3.257   4.970  12.043  0.7610 -2.0529 -0.0968
16442TIP3    H270742   3.367   4.961  12.146  1.1534 -0.6375 -0.3791
16443TIP3   OH270743   2.977   6.162  15.613  0.0110  0.3819  0.6966
16443TIP3    H170744   2.992   6.242  15.664 -0.4655  1.1687 -0.3642
16443TIP3    H270745   2.882   6.150  15.614  0.1199 -0.5721  1.4097
16444TIP3   OH270746   6.197   0.634   1.580  0.1163  0.3250 -0.0601
16444TIP3    H170747   6.220   0.721   1.612 -3.2147  0.6984  1.8382
16444TIP3    H270748   6.238   0.574   1.643 -0.7757  0.7530  0.9561
16445TIP3   OH270749   1.537   1.667   0.316 -0.7010  0.4288 -0.7908
16445TIP3    H170750   1.443   1.682   0.307 -0.9947  0.0257  1.1585
16445TIP3    H270751   1.572   1.753   0.341 -0.4797  0.6527 -1.8238
16446TIP3   OH270752   6.582   3.707   0.744  0.1093  0.0499 -0.2337
16446TIP3    H170753   6.546   3.620   0.729  2.8419 -0.8630 -2.3746
16446TIP3    H270754   6.528   3.766   0.691 -0.0804 -0.7737 -0.9642
16447TIP3   OH270755   0.876   1.101  15.605 -0.3131  0.0777 -0.3058
16447TIP3    H170756   0.908   1.105  15.695 -0.2543 -2.0205 -0.1922
16447TIP3    H270757   0.824   1.022  15.601  0.3271 -0.3064 -2.3089
16448TIP3   OH270758   1.621   2.883  11.388 -0.1176 -0.1604 -0.6159
16448TIP3    H170759   1.655   2.859  11.474 -0.2155  0.9925 -0.2304
16448TIP3    H270760   1.531   2.912  11.405 -1.8342 -4.0997 -1.7413
16449TIP3   OH270761   0.071   2.707  13.929 -0.0556 -0.0415 -0.6008
16449TIP3    H170762  -0.006   2.734  13.978  0.4387  1.3415 -0.5458
16449TIP3    H270763   0.143   2.709  13.993  0.1148 -0.8612 -0.7575
16450TIP3   OH270764   1.717   5.928   4.037  0.1862  0.2893  0.6970
16450TIP3    H170765   1.796   5.913   3.985  2.6056  1.2230  3.7327
16450TIP3    H270766   1.658   5.976   3.979  1.8013 -0.4836 -1.7413
16451TIP3   OH270767   0.403   2.979  12.922  0.2216 -0.2688  0.5647
16451TIP3    H170768   0.386   2.901  12.975 -1.2671 -0.0143  0.4949
16451TIP3    H270769   0.454   2.946  12.848 -2.5342 -1.7583 -0.8519
16452TIP3   OH270770   1.754   1.755   0.606  0.4148 -0.0233 -0.2383
16452TIP3    H170771   1.660   1.770   0.614  0.3856 -0.2275 -0.1863
16452TIP3    H270772   1.788   1.834   0.565  0.1528 -0.1441 -0.6959
16453TIP3   OH270773   2.583   3.927  16.678  0.6264 -0.9088  0.0281
16453TIP3    H170774   2.603   3.995  16.614  1.0028 -0.5492  0.5204
16453TIP3    H270775   2.542   3.974  16.751  1.5120 -1.0972  0.6700
16454TIP3   OH270776   6.750   6.199  13.648 -0.1978  0.1260  0.2129
16454TIP3    H170777   6.745   6.131  13.580 -1.2295 -0.9927  1.3608
16454TIP3    H270778   6.659   6.214  13.673  0.2357 -1.0214  2.7826
16455TIP3   OH270779   3.267   5.677  16.709 -0.9447  0.4942  0.3862
16455TIP3    H170780   3.200   5.673  16.778 -1.9022  1.3191 -0.4577
16455TIP3    H270781   3.239   5.749  16.653  1.0125  1.2906  0.3484
16456TIP3   OH270782   5.830   5.771   2.021  0.1964 -0.1100  0.1639
16456TIP3    H170783   5.881   5.843   2.058 -0.2129  0.1623  0.1933
16456TIP3    H270784   5.759   5.757   2.084  0.3343 -0.6117  0.2159
16457TIP3   OH270785   5.998   5.652   1.407 -0.2709  0.2502 -0.3885
16457TIP3    H170786   6.036   5.652   1.319 -1.8211  2.3913 -1.1296
16457TIP3    H270787   6.074   5.661   1.466  0.8222 -1.6356 -1.4260
16458TIP3   OH270788   0.998   0.273  13.412  0.0923 -0.1212  0.0523
16458TIP3    H170789   1.076   0.316  13.378  0.6803 -0.4328  0.9877
16458TIP3    H270790   0.936   0.344  13.429  1.4133  0.5277  2.5528
16459TIP3   OH270791   4.927   4.882   5.192  0.2055  0.3297  0.2685
16459TIP3    H170792   4.879   4.853   5.114  0.8339 -2.9808  0.9630
16459TIP3    H270793   4.859   4.905   5.255 -0.7027 -3.9173  1.1107
16460TIP3   OH270794   6.135   2.943  13.327 -0.2441  0.3059 -0.1124
16460TIP3    H170795   6.059   2.941  13.386 -1.6082  1.2709 -1.7540
16460TIP3    H270796   6.158   3.036  13.321 -1.6720  0.5779 -2.8915
16461TIP3   OH270797   4.050   4.440  15.262 -0.4452 -0.0309 -0.1439
16461TIP3    H170798   4.114   4.505  15.234 -0.1723  0.2126  1.0123
16461TIP3    H270799   4.099   4.383  15.322 -0.8545 -0.9045 -0.6201
16462TIP3   OH270800   0.836   1.900  15.514  0.1332  0.2428 -0.2333
16462TIP3    H170801   0.924   1.884  15.481  0.4190 -1.7603  1.3371
16462TIP3    H270802   0.794   1.815  15.513 -1.5834  1.0456 -0.2901
16463TIP3   OH270803   3.748   3.036  16.744  0.2374 -0.5312  0.5065
16463TIP3    H170804   3.719   2.948  16.770  0.3925 -1.0144 -0.8680
16463TIP3    H270805   3.668   3.086  16.734  0.1206 -0.6559  0.7931
16464TIP3   OH270806   0.171   6.459   5.669 -0.2813  0.0654  0.1445
16464TIP3    H170807   0.239   6.499   5.616 -0.7113  0.6669  0.0312
16464TIP3    H270808   0.205   6.373   5.692  0.2328  0.1032 -0.4622
16465TIP3   OH270809   1.933   6.400   1.360 -0.5261 -0.2435 -0.4025
16465TIP3    H170810   1.882   6.323   1.335 -0.2940  0.3420 -3.0518
16465TIP3    H270811   1.875   6.474   1.340 -0.2772  0.3127  0.8712
16466TIP3   OH270812   1.784   0.993   3.798 -0.6605  0.1529  0.1328
16466TIP3    H170813   1.729   1.049   3.854 -0.5140  0.8269 -0.3851
16466TIP3    H270814   1.721   0.945   3.743 -0.7401  1.3146 -0.8316
16467TIP3   OH270815   1.195   3.108   5.018 -0.0016  0.5269  0.1513
16467TIP3    H170816   1.220   3.042   4.953 -1.6056 -0.0854  0.0993
16467TIP3    H270817   1.269   3.112   5.078 -0.5647 -2.7548  1.2639
16468TIP3   OH270818   0.533   3.877  15.571 -0.4452 -0.1017 -0.0961
16468TIP3    H170819   0.585   3.926  15.508  2.5183 -2.2666  0.4669
16468TIP3    H270820   0.504   3.943  15.635  0.1492  1.4401 -1.3576
16469TIP3   OH270821   1.526   2.712   0.473 -0.0682  0.1088 -0.4261
16469TIP3    H170822   1.557   2.622   0.483 -0.6541 -0.2895 -1.9930
16469TIP3    H270823   1.574   2.761   0.540  0.5780 -1.2840  0.1661
16470TIP3   OH270824   3.160   2.709  11.974 -0.0245 -0.1172  0.1468
16470TIP3    H170825   3.202   2.669  12.050  3.0259  2.4829  0.0393
16470TIP3    H270826   3.183   2.652  11.901  0.6777 -0.3830  0.5730
16471TIP3   OH270827   5.995   5.356  16.160  0.7420 -0.2888 -0.3464
16471TIP3    H170828   6.019   5.438  16.202  0.7377 -0.7758  0.6438
16471TIP3    H270829   5.908   5.336  16.195  0.2923 -0.1964 -1.3760
16472TIP3   OH270830   6.366   4.260  15.145 -0.1736 -0.4379 -0.1936
16472TIP3    H170831   6.406   4.237  15.229  0.8870  0.0223 -0.5552
16472TIP3    H270832   6.440   4.277  15.088 -0.8465  2.6027 -0.3055
16473TIP3   OH270833   5.737   4.264  12.194 -0.2748 -0.6147  0.5048
16473TIP3    H170834   5.754   4.312  12.276  2.3389  1.8026 -1.2771
16473TIP3    H270835   5.690   4.327  12.139  1.3315 -0.7859 -1.1479
16474TIP3   OH270836   2.027   4.132  15.336  0.3327  0.4891 -0.6333
16474TIP3    H170837   2.078   4.195  15.386 -0.5859  0.7196  0.0465
16474TIP3    H270838   2.077   4.118  15.256  1.4504  0.6920  0.0114
16475TIP3   OH270839   3.651   6.083  13.615  0.1791 -0.1106 -0.0238
16475TIP3    H170840   3.561   6.086  13.583 -0.3118  0.3342  1.2984
16475TIP3    H270841   3.690   6.006  13.573 -1.0670 -0.7702 -0.0068
16476TIP3   OH270842   1.102   0.612  16.867 -0.2619 -0.4716  0.1145
16476TIP3    H170843   1.072   0.668  16.939 -0.6630 -0.6338  0.0703
16476TIP3    H270844   1.178   0.566  16.904 -1.1588 -1.4176  0.8095
16477TIP3   OH270845   2.796   2.364  13.779  0.2573  0.4044  0.6609
16477TIP3    H170846   2.884   2.336  13.756  0.0908 -1.4902  2.0937
16477TIP3    H270847   2.765   2.298  13.841 -1.5639  1.9040  1.4517
16478TIP3   OH270848   1.050   1.657  12.102  0.0689 -0.3909 -0.1770
16478TIP3    H170849   1.071   1.691  12.015  0.2994  0.0634  0.0564
16478TIP3    H270850   1.037   1.563  12.088  1.6704 -0.6077 -0.4352
16479TIP3   OH270851   4.954   6.557   2.581 -0.2840  0.4148  0.3346
16479TIP3    H170852   4.958   6.465   2.554  0.3964 -0.7229  3.7895
16479TIP3    H270853   4.861   6.574   2.594 -0.2896 -0.5612  1.8045
16480TIP3   OH270854   3.735   0.539   4.487  0.4247  0.1661 -0.8905
16480TIP3    H170855   3.673   0.609   4.467  0.9820  0.2783 -2.2961
16480TIP3    H270856   3.757   0.501   4.402  0.6041 -1.3299 -0.2155
16481TIP3   OH270857   2.575   3.806   1.993  1.0468  0.0216 -0.2976
16481TIP3    H170858   2.612   3.889   2.023 -0.8973  0.5048  0.9099
16481TIP3    H270859   2.622   3.739   2.041  0.2675  0.6340  1.3907
16482TIP3   OH270860   2.936   0.860  11.246 -0.1746 -0.1646 -0.0456
16482TIP3    H170861   2.957   0.767  11.233  1.3857  0.3568 -1.5149
16482TIP3    H270862   2.999   0.907  11.191 -1.3600  1.7541  0.1622
16483TIP3   OH270863   5.870   4.327   0.024  0.4607  0.1293 -0.2017
16483TIP3    H170864   5.881   4.389  -0.048  0.8182 -0.0875 -0.3339
16483TIP3    H270865   5.944   4.268   0.017  0.0963 -0.3452 -0.1055
16484TIP3   OH270866   3.619   0.564   1.330 -0.1971  0.1709 -0.3858
16484TIP3    H170867   3.568   0.493   1.291 -0.1846  0.4430 -0.9090
16484TIP3    H270868   3.553   0.623   1.367 -0.2780  0.5779 -1.1572
16485TIP3   OH270869   5.411   2.497   5.588  0.3166 -0.0812  0.0540
16485TIP3    H170870   5.367   2.542   5.660  0.6336 -1.2069  0.9671
16485TIP3    H270871   5.370   2.534   5.509  0.9811  2.2526  0.7090
16486TIP3   OH270872   0.234   4.428  16.420  0.1015 -0.4430  0.1301
16486TIP3    H170873   0.209   4.404  16.509 -0.3430  2.6102  0.9301
16486TIP3    H270874   0.323   4.395  16.411  0.8647  0.7593  2.4220
16487TIP3   OH270875   5.050   0.377  15.199  0.0923 -0.6137  0.1827
16487TIP3    H170876   5.106   0.454  15.186  0.3326 -1.0439 -1.5405
16487TIP3    H270877   5.091   0.330  15.271  0.9229  0.0097  0.1332
16488TIP3   OH270878   6.094   3.548  11.580  0.0749  0.3029  0.6785
16488TIP3    H170879   6.121   3.457  11.574  0.0599  0.2640  1.1562
16488TIP3    H270880   6.106   3.583  11.492  1.2990  0.1748  0.7842
16489TIP3   OH270881   5.189   2.513   2.676 -0.0917  0.2691  0.3794
16489TIP3    H170882   5.241   2.510   2.595  0.9955 -1.1396  1.0709
16489TIP3    H270883   5.174   2.606   2.692  1.1787  0.6595 -0.5183
16490TIP3   OH270884   4.896   5.157   2.679 -0.5449 -0.0718  0.6102
16490TIP3    H170885   4.868   5.244   2.648  1.6259  0.8423  1.0362
16490TIP3    H270886   4.867   5.155   2.770 -0.3473  0.3494  0.6887
16491TIP3   OH270887   2.667   4.637  14.921 -0.4469  0.0879 -0.5530
16491TIP3    H170888   2.761   4.619  14.914  0.1297  1.1244  2.7456
16491TIP3    H270889   2.660   4.732  14.922 -1.5401  0.0260 -0.6492
16492TIP3   OH270890   3.318   2.832   4.612 -0.1215 -0.2723 -0.0765
16492TIP3    H170891   3.391   2.836   4.674 -0.6706  0.8453  0.5208
16492TIP3    H270892   3.358   2.850   4.527  0.0121  2.7276  0.5116
16493TIP3   OH270893   5.299   2.101   4.780  0.1207 -0.1583  0.5245
16493TIP3    H170894   5.209   2.081   4.805  0.3145 -2.8401 -0.6037
16493TIP3    H270895   5.290   2.159   4.705 -0.6007  0.7659  1.2924
16494TIP3   OH270896   4.356   3.488  11.560 -0.0213 -0.3812  0.9639
16494TIP3    H170897   4.314   3.426  11.619 -2.1764  1.6724  1.7877
16494TIP3    H270898   4.400   3.550  11.619 -4.0975  3.0425  0.8966
16495TIP3   OH270899   2.127   1.596   5.624  0.1600  0.0389 -0.3997
16495TIP3    H170900   2.169   1.676   5.592 -0.5703  0.6712  0.1725
16495TIP3    H270901   2.185   1.564   5.693 -0.4659  1.1300  0.6694
16496TIP3   OH270902   2.310   4.392   1.126 -0.1682 -0.3909  0.4246
16496TIP3    H170903   2.241   4.327   1.117 -1.6747  1.2082 -0.3748
16496TIP3    H270904   2.302   4.446   1.047  1.7013  0.1545  0.5520
16497TIP3   OH270905   4.221   6.412   3.958 -0.1085  0.1734 -0.2391
16497TIP3    H170906   4.312   6.413   3.986 -0.5764 -0.7900  1.4462
16497TIP3    H270907   4.184   6.334   3.998 -1.1006 -0.8793 -2.9497
16498TIP3   OH270908   2.362   3.903   1.665  0.5243 -0.3696 -0.1108
16498TIP3    H170909   2.393   3.985   1.626  2.0143 -0.5071  0.7183
16498TIP3    H270910   2.278   3.887   1.622  1.3288  0.3102 -2.0584
16499TIP3   OH270911   1.586   5.380  12.095  0.0136 -0.3133  0.3843
16499TIP3    H170912   1.637   5.400  12.174  1.6395  1.0930 -0.9239
16499TIP3    H270913   1.565   5.466  12.058  1.7034 -0.8483 -2.1062
16500TIP3   OH270914   6.313   5.384  11.698  0.2531  0.1376  0.9219
16500TIP3    H170915   6.307   5.289  11.708  2.5133 -0.1674  0.0874
16500TIP3    H270916   6.381   5.411  11.760 -0.6201  1.2714  1.4133
16501TIP3   OH270917   2.160   6.438  11.918  0.1395  0.0500  0.0173
16501TIP3    H170918   2.138   6.391  11.837  0.4893  0.2654 -0.2058
16501TIP3    H270919   2.184   6.369  11.980 -0.7899 -0.1612  0.1489
16502TIP3   OH270920   1.314   2.563   4.056  0.4995 -0.5564 -0.2840
16502TIP3    H170921   1.367   2.560   3.977 -0.9665 -0.6974 -1.3047
16502TIP3    H270922   1.227   2.533   4.028  0.7289 -4.0361  2.0319
16503TIP3   OH270923   3.502   4.196   3.416 -0.0075 -0.0598  0.2281
16503TIP3    H170924   3.436   4.166   3.479 -1.2320  2.3021  0.1883
16503TIP3    H270925   3.453   4.248   3.353  1.7722  0.9589 -0.3852
16504TIP3   OH270926   2.185   2.552   2.648 -0.3632 -0.0109  0.2947
16504TIP3    H170927   2.171   2.634   2.696 -1.6927 -0.4508  0.7049
16504TIP3    H270928   2.160   2.484   2.710 -3.5507 -0.5453 -1.4078
16505TIP3   OH270929   4.769   5.514  13.238  0.0929 -0.1099  0.6361
16505TIP3    H170930   4.744   5.606  13.224  0.1312 -0.2574 -0.5293
16505TIP3    H270931   4.844   5.501  13.179 -0.7362 -1.2449 -0.2121
16506TIP3   OH270932   4.701   1.926  11.364  0.3162 -0.3565  0.3621
16506TIP3    H170933   4.735   1.876  11.438  0.9315 -1.1208 -0.4120
16506TIP3    H270934   4.746   2.010  11.369 -1.6992  0.6956  2.4487
16507TIP3   OH270935   5.266   5.367  12.965 -0.0314 -0.4257  0.5982
16507TIP3    H170936   5.265   5.332  13.054  1.0858  0.6077  1.0336
16507TIP3    H270937   5.309   5.452  12.972 -0.3578 -0.1093 -0.8564
16508TIP3   OH270938   3.129   1.395  16.013  0.0770 -0.1247 -0.0125
16508TIP3    H170939   3.216   1.365  15.986 -0.6587 -0.8131 -1.7832
16508TIP3    H270940   3.109   1.468  15.954 -1.0428 -0.8019 -0.5110
16509TIP3   OH270941   1.143   1.647   6.073 -0.4682 -0.3863 -0.1103
16509TIP3    H170942   1.063   1.597   6.056 -0.4372 -0.0871 -1.2252
16509TIP3    H270943   1.210   1.580   6.089 -1.2266 -0.6325  2.4476
16510TIP3   OH270944   2.246   2.487   6.832 -0.0255 -0.0929  0.3691
16510TIP3    H170945   2.170   2.544   6.834 -0.4164 -0.6014  0.1030
16510TIP3    H270946   2.318   2.543   6.803 -0.5667  0.0809 -0.6657
16511TIP3   OH270947   4.346   5.582   5.349  0.2128 -0.7106 -0.2066
16511TIP3    H170948   4.394   5.579   5.266 -1.0242  0.1193 -0.9894
16511TIP3    H270949   4.356   5.673   5.378  0.3448 -0.9114  0.3906
16512TIP3   OH270950   3.520   3.418  15.630  0.3825  0.3495 -0.3804
16512TIP3    H170951   3.468   3.495  15.607  0.1671 -0.0069 -1.1243
16512TIP3    H270952   3.491   3.350  15.569  0.2718 -0.4492  0.5420
16513TIP3   OH270953   2.726   5.738   5.584  0.1401 -0.6446  0.2787
16513TIP3    H170954   2.650   5.721   5.528  0.7594  0.7085 -1.0576
16513TIP3    H270955   2.795   5.680   5.549  0.7894  0.8344 -1.0222
16514TIP3   OH270956   0.919   1.760  14.714 -1.2325  0.6819  0.4101
16514TIP3    H170957   0.959   1.673  14.714 -2.7632 -0.1390 -1.7927
16514TIP3    H270958   0.992   1.821  14.714  0.0006 -0.7013 -1.3515
16515TIP3   OH270959   0.122   0.833   0.064 -0.4594  0.0801 -0.6727
16515TIP3    H170960   0.083   0.907   0.017 -2.2850 -1.1186 -1.1865
16515TIP3    H270961   0.179   0.792  -0.001  0.9750  1.2974 -0.2220
16516TIP3   OH270962   3.688   5.652   5.294 -0.1797 -0.1852  0.6724
16516TIP3    H170963   3.725   5.723   5.347 -1.2580  1.8802 -1.1431
16516TIP3    H270964   3.763   5.601   5.265  0.6599  0.3558  1.8341
16517TIP3   OH270965   0.893   0.780  11.930  0.1439  0.2328 -0.2347
16517TIP3    H170966   0.912   0.839  12.003 -2.5599 -1.0000  1.6085
16517TIP3    H270967   0.797   0.781  11.922  0.1649 -1.9947 -1.7911
16518TIP3   OH270968   6.012   0.734  14.040  0.4265  0.0221 -0.1811
16518TIP3    H170969   5.920   0.761  14.042  0.2290 -0.6055 -0.5032
16518TIP3    H270970   6.035   0.736  13.947  0.4617 -0.7347 -0.1901
16519TIP3   OH270971   1.624   5.381   0.356 -0.0061  0.0494  0.0447
16519TIP3    H170972   1.648   5.424   0.274  1.6230  1.1073  1.0233
16519TIP3    H270973   1.635   5.448   0.423  0.1499 -1.1934  1.3223
16520TIP3   OH270974   0.066   2.153  12.921 -0.2510  0.1326  0.4624
16520TIP3    H170975   0.039   2.103  12.844 -2.0481  0.1397  1.0408
16520TIP3    H270976   0.067   2.244  12.892  0.9269 -0.0110 -0.0183
16521TIP3   OH270977   4.786   3.905  12.418 -0.6245  0.1511  0.1357
16521TIP3    H170978   4.843   3.954  12.478  0.4556 -1.2340  0.2978
16521TIP3    H270979   4.817   3.815  12.424 -1.7765 -0.3583 -1.0545
16522TIP3   OH270980   0.644   2.336   4.776 -0.0733 -0.7114 -0.6596
16522TIP3    H170981   0.602   2.295   4.852 -1.0304  0.2172 -0.6586
16522TIP3    H270982   0.657   2.264   4.714 -0.6953 -1.2104 -0.2290
16523TIP3   OH270983   4.216   1.185   4.454  0.8010  0.5847  0.2590
16523TIP3    H170984   4.282   1.139   4.505  1.9724 -1.6431 -2.9536
16523TIP3    H270985   4.247   1.275   4.450  2.4964  0.0500  0.6218
16524TIP3   OH270986   0.591   4.969   3.052 -0.1868  0.8498  0.0151
16524TIP3    H170987   0.679   4.931   3.048 -0.4425  0.2926 -0.7735
16524TIP3    H270988   0.571   4.990   2.961 -1.7418 -1.1426 -0.1654
16525TIP3   OH270989   1.507   0.987  14.133 -0.2838  0.1746  0.4317
16525TIP3    H170990   1.561   1.066  14.129 -0.1253  0.0175 -1.6789
16525TIP3    H270991   1.495   0.972  14.227  1.8414  1.2194  0.9556
16526TIP3   OH270992   5.566   1.692  12.804  0.0363  0.4882 -0.1525
16526TIP3    H170993   5.535   1.748  12.733  0.1792 -0.3240 -0.8675
16526TIP3    H270994   5.494   1.629  12.818 -0.5394  1.4184  1.3007
16527TIP3   OH270995   2.250   5.584   0.368 -0.2434 -0.0471 -0.2172
16527TIP3    H170996   2.174   5.544   0.412 -1.3676  2.5739  0.3899
16527TIP3    H270997   2.270   5.661   0.421  0.8409  1.0851 -2.1858
16528TIP3   OH270998   0.519   6.248  15.952 -0.2083 -0.2027  0.2051
16528TIP3    H170999   0.583   6.253  15.881 -1.4784 -1.8573 -1.1482
16528TIP3    H271000   0.558   6.298  16.024  2.4559 -0.9259 -0.6361
16529TIP3   OH271001   3.119   1.852  14.795  0.0579  0.3839  0.2118
16529TIP3    H171002   3.104   1.895  14.711  1.1024 -0.8972 -0.6568
16529TIP3    H271003   3.169   1.916  14.846 -2.3412  2.0166  0.6978
16530TIP3   OH271004   4.598   6.513  15.302  0.0003  0.3666  0.0174
16530TIP3    H171005   4.676   6.517  15.246  0.0298 -2.9976 -0.3498
16530TIP3    H271006   4.626   6.552  15.385  1.8812 -0.1580 -0.3234
16531TIP3   OH271007   2.447   4.589  13.980 -0.1478  0.2187 -0.1652
16531TIP3    H171008   2.468   4.523  14.046 -0.6508 -0.7218 -0.9208
16531TIP3    H271009   2.371   4.554  13.934 -1.5990  2.1926  0.5893
16532TIP3   OH271010   1.978   5.923  15.358  0.3465 -0.3483  0.3352
16532TIP3    H171011   2.023   5.849  15.317 -2.0214 -2.9812  2.0937
16532TIP3    H271012   2.002   5.917  15.451 -1.1934  0.0147  0.7859
16533TIP3   OH271013   4.627   5.758  13.590 -0.2995 -0.2700 -0.1505
16533TIP3    H171014   4.670   5.707  13.658 -1.2087  0.1325  0.7420
16533TIP3    H271015   4.690   5.825  13.566  0.2929 -0.8433 -0.2106
16534TIP3   OH271016   1.584   5.196  10.626 -0.0213  0.6837  0.0934
16534TIP3    H171017   1.611   5.261  10.561 -1.0638  0.1899 -0.8810
16534TIP3    H271018   1.637   5.119  10.607 -0.1079  0.6426  0.0130
16535TIP3   OH271019   5.011   0.904  17.141  0.3170 -0.1482 -0.2928
16535TIP3    H171020   4.933   0.859  17.109  1.3491 -0.5824 -2.4567
16535TIP3    H271021   5.015   0.985  17.090 -0.0245  1.0981  1.5831
16536TIP3   OH271022   5.997   6.709  12.954  0.2824  0.1127 -0.6490
16536TIP3    H171023   5.931   6.759  12.906  1.1373 -0.2770 -2.2683
16536TIP3    H271024   5.981   6.618  12.930 -3.2511 -1.0878  4.5828
16537TIP3   OH271025   2.441   0.741   3.934  0.1539  0.1310 -0.3222
16537TIP3    H171026   2.346   0.741   3.947 -0.0033  1.1869 -1.3135
16537TIP3    H271027   2.459   0.660   3.888 -0.0479 -0.7854  1.1381
16538TIP3   OH271028   1.389   5.757   2.534  0.1671 -0.2651  0.6740
16538TIP3    H171029   1.476   5.788   2.510  0.0840  0.5371  1.3582
16538TIP3    H271030   1.402   5.665   2.558  0.8085 -0.1710  0.6942
16539TIP3   OH271031   2.867   4.656   2.232 -0.3390  0.4019 -0.6212
16539TIP3    H171032   2.840   4.738   2.272  0.1565 -0.5897  1.9351
16539TIP3    H271033   2.952   4.675   2.192  0.0751  1.0077  0.5051
16540TIP3   OH271034   2.400   3.753   6.437 -0.0958 -0.5752 -0.0955
16540TIP3    H171035   2.470   3.757   6.502 -0.0945 -0.6223 -0.0941
16540TIP3    H271036   2.323   3.725   6.487  0.0156 -1.0940 -0.2039
16541TIP3   OH271037   4.678   6.106   4.729 -0.2295 -0.2250 -0.4328
16541TIP3    H171038   4.664   6.132   4.638 -0.1636  0.6112 -0.2141
16541TIP3    H271039   4.668   6.011   4.729 -2.0420 -0.0671 -0.9790
16542TIP3   OH271040   0.435   0.240   3.628 -0.3966  0.2519 -0.1894
16542TIP3    H171041   0.371   0.172   3.647 -1.6675  1.2047 -0.8856
16542TIP3    H271042   0.394   0.293   3.559  1.3552  0.6065 -1.0024
16543TIP3   OH271043   2.893   4.796  15.178 -0.7505  0.7355  0.7106
16543TIP3    H171044   2.985   4.784  15.155 -0.6534 -1.1662  1.8577
16543TIP3    H271045   2.846   4.798  15.095  0.2854  1.5246  0.1260
16544TIP3   OH271046   5.341   3.765   0.347 -0.0363 -0.2900 -0.0120
16544TIP3    H171047   5.327   3.792   0.437  0.6959  0.1578 -0.0276
16544TIP3    H271048   5.377   3.843   0.304  1.4457 -1.0555 -0.2259
16545TIP3   OH271049   1.472   2.927   3.109 -0.3749 -0.8200 -0.1685
16545TIP3    H171050   1.400   2.888   3.060  0.2369 -0.8450 -1.0774
16545TIP3    H271051   1.540   2.942   3.043  0.9647 -2.0106  0.8837
16546TIP3   OH271052   0.347   0.596  12.431 -0.3546 -0.4438  0.1967
16546TIP3    H171053   0.280   0.582  12.364  0.3577  0.8886 -0.8411
16546TIP3    H271054   0.430   0.577  12.387  0.1162  0.3217  0.7252
16547TIP3   OH271055   1.863   1.621   2.233  0.2260  0.9590  0.7826
16547TIP3    H171056   1.798   1.561   2.269  0.8589 -2.0078 -2.4766
16547TIP3    H271057   1.811   1.691   2.192 -1.0070 -1.0292 -1.2395
16548TIP3   OH271058   0.410   4.623  11.969 -0.1463  0.4554 -0.1582
16548TIP3    H171059   0.404   4.718  11.971  1.1854  0.5744 -1.1541
16548TIP3    H271060   0.349   4.594  12.038 -0.3144  2.0199  0.3846
16549TIP3   OH271061   4.462   3.671   5.097  0.4227  0.4784  0.2777
16549TIP3    H171062   4.488   3.629   5.179  1.8290  0.3666 -0.2017
16549TIP3    H271063   4.370   3.645   5.086  0.5382 -0.4362  1.2408
16550TIP3   OH271064   1.028   3.598   1.561 -0.1433 -0.0558 -0.0334
16550TIP3    H171065   0.949   3.645   1.534 -0.9327 -2.0151 -1.3784
16550TIP3    H271066   1.033   3.524   1.501  2.6444 -0.0965  0.1463
16551TIP3   OH271067   0.966   4.755   6.454  0.0556  0.0390  0.1392
16551TIP3    H171068   0.965   4.791   6.366 -1.1144  1.4599  0.6785
16551TIP3    H271069   0.891   4.695   6.456  1.3220 -1.6038 -0.4199
16552TIP3   OH271070   2.248   0.323  13.093 -0.0015  0.2116  0.3172
16552TIP3    H171071   2.223   0.416  13.091 -1.2334 -0.0784  1.0950
16552TIP3    H271072   2.257   0.300  13.000 -4.3024  0.0024 -0.2593
16553TIP3   OH271073   2.065   3.541  15.521  0.2247  0.1135  0.4087
16553TIP3    H171074   2.046   3.601  15.449  0.2414  0.6904  0.8684
16553TIP3    H271075   1.982   3.532  15.567 -0.4494 -2.2810 -1.1138
16554TIP3   OH271076   2.583   5.047  14.181 -0.0016 -0.0406  0.4519
16554TIP3    H171077   2.672   5.017  14.167  0.3643  0.7290  1.0744
16554TIP3    H271078   2.528   4.976  14.145  0.8272  0.6717 -2.4796
16555TIP3   OH271079   6.614   2.007  11.382  0.0601  0.5626 -0.0124
16555TIP3    H171080   6.708   2.017  11.391  0.0754  1.1790 -0.7785
16555TIP3    H271081   6.599   1.999  11.287 -0.7155  1.1496  0.0511
16556TIP3   OH271082   1.945   1.197  14.311 -0.4927  0.3067 -0.0442
16556TIP3    H171083   1.940   1.204  14.216  0.6673  0.4134 -0.1188
16556TIP3    H271084   1.943   1.288  14.342 -2.1629  0.2273  0.1323
16557TIP3   OH271085   1.564   0.421   3.795 -0.4573 -0.3080  0.5726
16557TIP3    H171086   1.515   0.501   3.814 -1.2396 -0.5258 -0.4210
16557TIP3    H271087   1.585   0.427   3.702  0.5708 -0.6897  0.7611
16558TIP3   OH271088   4.002   4.392   0.618  0.1883  0.4017 -0.1817
16558TIP3    H171089   4.091   4.358   0.632  0.5056  0.3574 -2.0271
16558TIP3    H271090   3.954   4.318   0.580 -0.4419  0.6476  0.1230
16559TIP3   OH271091   5.531   5.319  17.114 -0.6823  0.1593  0.0251
16559TIP3    H171092   5.446   5.352  17.143 -0.5036 -0.2446  1.0628
16559TIP3    H271093   5.512   5.270  17.034 -1.0702  2.0329 -1.1040
16560TIP3   OH271094   4.971   4.662  17.142  0.4739  0.0295  0.3907
16560TIP3    H171095   4.915   4.697  17.072  2.0131  0.8092 -0.5050
16560TIP3    H271096   4.917   4.669  17.221 -0.5438  1.1560 -0.3635
16561TIP3   OH271097   2.243   2.042  11.693  0.5923  0.2768 -0.3575
16561TIP3    H171098   2.323   1.995  11.667  0.0581 -1.0167  0.2255
16561TIP3    H271099   2.272   2.132  11.709  1.9227 -0.1428 -0.2643
16562TIP3   OH271100   6.524   0.739  15.526  0.2170  0.6173  0.2381
16562TIP3    H171101   6.437   0.777  15.511 -1.2969 -2.2403  1.1352
16562TIP3    H271102   6.529   0.727  15.621  1.4052  0.2974  0.1464
16563TIP3   OH271103   3.609   4.062  13.830  0.1806  0.1205  0.3386
16563TIP3    H171104   3.678   4.120  13.862 -0.5250  1.2414 -0.1100
16563TIP3    H271105   3.593   4.001  13.903 -0.9211  2.1740  1.9413
16564TIP3   OH271106   3.716   3.053   1.543  0.8276 -0.0922 -0.0455
16564TIP3    H171107   3.793   3.069   1.488  0.5551  0.7041 -0.2092
16564TIP3    H271108   3.648   3.026   1.481  0.6078  0.4995 -0.0676
16565TIP3   OH271109   4.778   6.668   5.317 -0.4486  0.1071  0.2570
16565TIP3    H171110   4.721   6.656   5.392  0.3916 -0.4572  0.8189
16565TIP3    H271111   4.824   6.584   5.307 -1.0734 -0.0866 -1.3392
16566TIP3   OH271112   3.352   0.792  14.644 -0.0629 -0.0277 -0.2014
16566TIP3    H171113   3.261   0.762  14.638 -0.3379  1.0747 -2.6013
16566TIP3    H271114   3.391   0.769  14.560  1.0388  1.9959 -0.3128
16567TIP3   OH271115   3.788   2.496   0.632  0.0098  0.1098  0.3481
16567TIP3    H171116   3.709   2.548   0.650 -0.1768  0.4492 -1.2773
16567TIP3    H271117   3.780   2.420   0.690 -0.7632  0.8530  1.2599
16568TIP3   OH271118   6.016   6.171   4.105  0.2832 -0.2770 -0.6784
16568TIP3    H171119   5.970   6.089   4.122  0.4482 -0.2868 -0.2655
16568TIP3    H271120   6.046   6.199   4.191  1.2156 -0.3708 -0.9693
16569TIP3   OH271121   3.153   5.835   2.036  0.7500  0.2043  0.0444
16569TIP3    H171122   3.182   5.913   2.083 -1.3330  0.5742  0.8135
16569TIP3    H271123   3.119   5.868   1.953  2.6394 -0.2490 -0.9625
16570TIP3   OH271124   5.220   5.882   3.754 -0.2194  0.0838  0.1512
16570TIP3    H171125   5.128   5.861   3.768  0.2215 -2.7145 -0.3687
16570TIP3    H271126   5.263   5.856   3.835 -0.0512  3.5784  1.3339
16571TIP3   OH271127   0.253   2.701   0.802 -0.4720  0.0646  0.0140
16571TIP3    H171128   0.168   2.698   0.757 -1.6908 -0.1887  2.2159
16571TIP3    H271129   0.282   2.792   0.790 -0.0778 -0.2959 -2.3418
16572TIP3   OH271130   4.650   2.780   2.226 -0.7075  0.3021 -0.5785
16572TIP3    H171131   4.587   2.848   2.251 -0.7268 -0.1215  0.5861
16572TIP3    H271132   4.701   2.819   2.155 -1.3341  1.1795 -0.5576
16573TIP3   OH271133   6.446   0.076   5.892 -0.1051  0.6014 -0.1634
16573TIP3    H171134   6.419  -0.010   5.923 -3.2669  1.2521 -0.7402
16573TIP3    H271135   6.438   0.133   5.968  0.5455  0.6432 -0.1272
16574TIP3   OH271136   0.487   1.181  13.076 -0.1322 -0.8247  0.1388
16574TIP3    H171137   0.439   1.257  13.043  1.0248  0.7548  1.8781
16574TIP3    H271138   0.437   1.106  13.045 -2.7746  0.6705  0.4226
16575TIP3   OH271139   1.656   0.801   3.029  0.6291  0.2877 -0.6586
16575TIP3    H171140   1.606   0.882   3.039  0.2338 -0.0685  0.3622
16575TIP3    H271141   1.607   0.750   2.964 -0.2669  0.0115  0.2115
16576TIP3   OH271142   1.122   0.158   0.103 -0.1793  0.2119  0.1669
16576TIP3    H171143   1.204   0.176   0.058 -0.2613  0.2116  0.0166
16576TIP3    H271144   1.106   0.236   0.156 -0.7104  0.7400 -0.7470
16577TIP3   OH271145   2.761   3.577   0.629 -0.1065  0.9790 -0.0895
16577TIP3    H171146   2.823   3.506   0.648  0.8121  1.8589  0.3414
16577TIP3    H271147   2.697   3.538   0.570  1.0146  0.0941 -0.7733
16578TIP3   OH271148   5.664   2.546  15.972  0.1212  0.2191 -0.5121
16578TIP3    H171149   5.649   2.524  16.064  0.8618  1.1470 -0.1485
16578TIP3    H271150   5.660   2.463  15.926 -0.8767 -0.1887  0.2727
16579TIP3   OH271151   3.757   6.786  12.193  0.5739  0.7600 -0.1099
16579TIP3    H171152   3.772   6.840  12.271 -1.1028  0.8703  0.1781
16579TIP3    H271153   3.786   6.841  12.120 -1.5110  2.3016  0.1403
16580TIP3   OH271154   1.754   3.062  17.147  0.3697 -0.2380 -0.1353
16580TIP3    H171155   1.802   2.986  17.114  1.1653  0.2043 -0.0201
16580TIP3    H271156   1.712   3.100  17.070  1.4747  0.2617 -0.5193
16581TIP3   OH271157   3.560   3.650  15.076 -0.5032  0.5009  0.5416
16581TIP3    H171158   3.650   3.641  15.045 -0.1568  0.8277  1.4156
16581TIP3    H271159   3.561   3.615  15.165 -1.2064  0.6511  0.6172
16582TIP3   OH271160   1.882   4.687   2.919  0.2830  0.2750 -0.1416
16582TIP3    H171161   1.894   4.593   2.933 -0.4921  0.2485  0.3641
16582TIP3    H271162   1.813   4.712   2.980  1.3095  1.4154  0.5716
16583TIP3   OH271163   0.739   1.382  11.062  0.2721 -0.2895 -0.5007
16583TIP3    H171164   0.664   1.347  11.014  0.6125  1.1021 -2.1312
16583TIP3    H271165   0.816   1.350  11.015  0.6299  0.5633 -0.5200
16584TIP3   OH271166   4.032   3.810  16.398  0.3459 -0.3681 -0.7159
16584TIP3    H171167   4.077   3.812  16.314  1.0883  1.6342 -0.3226
16584TIP3    H271168   4.019   3.902  16.421 -0.5590 -0.8681  0.9911
16585TIP3   OH271169   2.128   1.594  14.605  0.1192  0.3524 -0.3165
16585TIP3    H171170   2.202   1.601  14.666  0.5884  1.2422 -0.9625
16585TIP3    H271171   2.117   1.500  14.592  0.2417  0.1638  0.8560
16586TIP3   OH271172   0.206   0.162  11.728 -0.5450  0.3904 -0.5672
16586TIP3    H171173   0.135   0.225  11.715  0.0003  0.5882 -3.1997
16586TIP3    H271174   0.283   0.216  11.744 -0.2400  0.4005 -1.9581
16587TIP3   OH271175   1.719   6.485   0.250  0.8231 -0.0383 -0.2850
16587TIP3    H171176   1.793   6.427   0.269  1.8332  1.0231 -0.8470
16587TIP3    H271177   1.675   6.495   0.334  2.1133  0.3687  0.3798
16588TIP3   OH271178   2.546   3.970  10.944  0.2980  0.4294 -0.6268
16588TIP3    H171179   2.477   4.011  10.996 -0.0269  0.4680 -1.0808
16588TIP3    H271180   2.522   3.990  10.854  0.1454 -0.7613 -0.8551
16589TIP3   OH271181   3.282   0.200   1.130  0.8400 -0.5519  0.2204
16589TIP3    H171182   3.266   0.178   1.221 -2.0752 -0.8986 -0.2788
16589TIP3    H271183   3.256   0.291   1.121  1.4938 -0.3980 -0.1855
16590TIP3   OH271184   3.716   5.808   1.435  0.6838 -0.7801  0.2274
16590TIP3    H171185   3.806   5.806   1.466  0.9885 -2.4003 -0.6423
16590TIP3    H271186   3.702   5.722   1.396 -1.1964 -0.5140  0.2008
16591TIP3   OH271187   5.325   4.653   4.375  0.3303 -0.0995 -0.9048
16591TIP3    H171188   5.262   4.707   4.422  0.8762 -0.9079  0.8305
16591TIP3    H271189   5.272   4.600   4.316 -0.3648  0.9425 -1.2580
16592TIP3   OH271190   2.515   1.675   0.815  0.4661  0.1155  0.5952
16592TIP3    H171191   2.583   1.694   0.750 -1.4207  0.6481 -1.3626
16592TIP3    H271192   2.465   1.602   0.777 -0.0308 -0.3036  1.9954
16593TIP3   OH271193   2.058   6.077   0.961  0.2201  0.1158  0.3634
16593TIP3    H171194   1.980   6.110   1.006 -0.6157  1.4101 -1.8620
16593TIP3    H271195   2.035   5.986   0.938 -0.6082  0.4486 -0.1777
16594TIP3   OH271196   4.052   3.195  13.908  0.4254 -0.2301 -0.1798
16594TIP3    H171197   4.059   3.242  13.991 -0.3021 -0.0580 -0.2080
16594TIP3    H271198   4.037   3.264  13.843 -1.6671 -0.5252 -0.0908
16595TIP3   OH271199   0.234   0.213   3.226  0.0268 -0.2096 -0.5527
16595TIP3    H171200   0.169   0.281   3.241 -0.3090 -0.7734  0.6393
16595TIP3    H271201   0.307   0.258   3.184 -0.2018  0.8782  0.1887
16596TIP3   OH271202   1.713   0.028  12.971  0.3884 -0.3937  0.3369
16596TIP3    H171203   1.808   0.035  12.977  0.2977  1.1872  0.5295
16596TIP3    H271204   1.690   0.082  12.895 -0.6392  3.5045  3.0728
16597TIP3   OH271205   2.781   6.670   2.245  0.8606  0.5161  0.0243
16597TIP3    H171206   2.723   6.643   2.174 -0.0768  1.3796  0.4444
16597TIP3    H271207   2.865   6.687   2.201  1.0606 -1.4835 -0.4728
16598TIP3   OH271208   3.189   6.273   1.004  0.3925  0.1626 -0.0979
16598TIP3    H171209   3.193   6.324   1.085 -0.1233  0.6363 -0.3714
16598TIP3    H271210   3.183   6.182   1.034 -1.9112  0.4425  0.4458
16599TIP3   OH271211   0.340   6.608   0.021  0.1896  0.1303  0.9185
16599TIP3    H171212   0.359   6.701   0.008  0.4204  0.1247  1.1965
16599TIP3    H271213   0.403   6.580   0.088 -1.1487  0.2356  2.2752
16600TIP3   OH271214   2.816   3.503  17.128  0.3554  0.0368  0.4332
16600TIP3    H171215   2.768   3.426  17.159 -0.6026  0.7565  0.8171
16600TIP3    H271216   2.783   3.518  17.040  0.5935 -0.0343  0.3315
16601TIP3   OH271217   4.338   3.321  15.758 -0.4548  0.3603 -0.2661
16601TIP3    H171218   4.264   3.354  15.809 -0.4030  0.1075 -0.0259
16601TIP3    H271219   4.414   3.368  15.794 -0.3900  0.0352  0.0322
16602TIP3   OH271220   1.371   0.256   1.726 -0.4490  1.0337  0.6382
16602TIP3    H171221   1.281   0.232   1.746 -0.7568  0.8064 -0.9274
16602TIP3    H271222   1.412   0.175   1.695  0.2258  1.1929  1.0867
16603TIP3   OH271223   3.533   6.702  11.625 -0.4978 -0.1583 -0.5300
16603TIP3    H171224   3.502   6.621  11.585  1.7138 -1.2776 -0.1138
16603TIP3    H271225   3.496   6.701  11.713 -1.6085  0.0003 -0.9832
16604TIP3   OH271226   6.478   1.965   4.081 -0.3127  0.2143  0.1125
16604TIP3    H171227   6.388   1.950   4.108 -1.0687  0.1899 -2.2384
16604TIP3    H271228   6.479   2.057   4.053 -0.0726 -0.2434 -1.4572
16605TIP3   OH271229   2.430   5.489   1.076 -0.2770 -0.2651 -0.5262
16605TIP3    H171230   2.370   5.434   1.024 -1.9019  0.5715  0.3872
16605TIP3    H271231   2.497   5.428   1.107 -0.6696 -1.2529 -1.5357
16606TIP3   OH271232   0.830   5.031   5.482  0.1387 -0.5827 -0.2086
16606TIP3    H171233   0.860   5.091   5.415  1.1202  0.2930  0.9600
16606TIP3    H271234   0.889   4.956   5.477  0.2633 -0.4795 -0.2732
16607TIP3   OH271235   2.115   1.715  16.836  0.0955  0.1744 -0.4145
16607TIP3    H171236   2.068   1.669  16.766  2.0287 -1.3381 -0.8013
16607TIP3    H271237   2.107   1.657  16.912 -1.7735  1.6903  0.6512
16608TIP3   OH271238   4.430   5.987   3.025 -0.3915  0.5403 -0.9070
16608TIP3    H171239   4.495   6.057   3.029  0.7672 -0.3561 -2.5635
16608TIP3    H271240   4.448   5.943   2.942  0.2397 -2.9243  0.8715
16609TIP3   OH271241   2.700   2.830  13.549  0.1392  0.5538  0.2452
16609TIP3    H171242   2.617   2.805  13.590 -0.2828 -1.3836 -1.6119
16609TIP3    H271243   2.767   2.810  13.615 -0.6266 -0.9118  0.6095
16610TIP3   OH271244   1.586   1.639  16.949 -0.1564  0.2299 -0.2918
16610TIP3    H171245   1.536   1.559  16.932  0.7416 -0.2952 -0.5161
16610TIP3    H271246   1.560   1.665  17.037 -0.4353 -0.3260 -0.2046
16611TIP3   OH271247   2.115   2.049   4.610 -0.4472  0.1028 -0.2130
16611TIP3    H171248   2.172   1.999   4.669 -1.1553  0.5860  0.9091
16611TIP3    H271249   2.164   2.129   4.592  0.0878 -0.3669 -0.8919
16612TIP3   OH271250   6.580   5.599  17.111  0.3322 -0.9235  0.3026
16612TIP3    H171251   6.527   5.614  17.032  1.4805  0.9304 -0.1756
16612TIP3    H271252   6.650   5.541  17.081  0.3871 -0.7710  0.1338
16613TIP3   OH271253   4.826   5.373  10.238  0.3040 -0.1487 -0.1709
16613TIP3    H171254   4.776   5.292  10.240  0.9627 -0.6051 -1.2647
16613TIP3    H271255   4.800   5.419  10.317 -0.4771 -1.1868  0.2002
16614TIP3   OH271256   0.340   1.313  13.731 -0.5388 -0.6211  0.4382
16614TIP3    H171257   0.280   1.313  13.656  0.2383  1.5130 -0.2674
16614TIP3    H271258   0.421   1.351  13.697 -0.4928  1.3940  2.5748
16615TIP3   OH271259   0.613   1.228   0.566 -0.0523 -0.1834  0.2902
16615TIP3    H171260   0.600   1.150   0.620 -1.1118 -2.3100 -2.7968
16615TIP3    H271261   0.694   1.211   0.519 -0.1996  0.6760 -0.2922
16616TIP3   OH271262   1.270   1.144   2.836 -0.0911  0.3682  0.8955
16616TIP3    H171263   1.273   1.106   2.924  1.7032 -3.6597 -0.6228
16616TIP3    H271264   1.351   1.194   2.829 -0.4379  1.0518  1.6345
16617TIP3   OH271265   6.055   4.031  12.436 -0.3717  0.6057  0.4074
16617TIP3    H171266   6.063   4.064  12.347  0.0561 -0.1182  0.1688
16617TIP3    H271267   6.077   4.106  12.492  0.7336  0.6914 -0.1246
16618TIP3   OH271268   5.069   1.807   4.120  0.5130  0.4148  0.0171
16618TIP3    H171269   5.087   1.853   4.039 -0.2403 -0.0868 -0.4512
16618TIP3    H271270   4.984   1.764   4.105  0.2920  0.4315  1.1136
16619TIP3   OH271271   2.506   2.541   5.383  0.9221 -0.1173  0.8571
16619TIP3    H171272   2.499   2.570   5.293  0.8359  2.0454  1.5121
16619TIP3    H271273   2.436   2.477   5.394 -0.6877  1.4271  0.0456
16620TIP3   OH271274   5.375   6.363   4.236  0.1289  0.1274 -0.0249
16620TIP3    H171275   5.422   6.447   4.233  0.4438  0.0112  1.1020
16620TIP3    H271276   5.420   6.308   4.172  0.3768  0.5982 -0.2613
16621TIP3   OH271277   0.845   1.143   3.157 -0.0022  0.3735 -0.7467
16621TIP3    H171278   0.868   1.090   3.081  0.1370 -0.9032  0.1511
16621TIP3    H271279   0.897   1.106   3.228 -1.9346 -0.1131  0.5118
16622TIP3   OH271280   0.750   2.054   2.381  0.1830  0.7648  0.6328
16622TIP3    H171281   0.819   2.093   2.327  0.4749  0.9143  1.1117
16622TIP3    H271282   0.671   2.102   2.356  0.3074  0.8141  0.3184
16623TIP3   OH271283   5.110   6.131  13.486  0.2894 -0.2939 -0.8574
16623TIP3    H171284   5.195   6.089  13.491 -0.3625 -1.6726 -1.1065
16623TIP3    H271285   5.062   6.098  13.561  1.1587  3.3627  1.5901
16624TIP3   OH271286   1.943   1.549   0.666  0.4335  0.3066 -0.3649
16624TIP3    H171287   2.014   1.611   0.650 -0.0331  1.4682  1.7551
16624TIP3    H271288   1.864   1.593   0.633  0.3932 -0.0697 -0.7773
16625TIP3   OH271289   3.034   6.461   4.915 -0.0389 -0.0450  0.2067
16625TIP3    H171290   3.125   6.430   4.911  0.3387  0.8457  1.2437
16625TIP3    H271291   2.985   6.388   4.951  0.3480 -0.3938  0.0292
16626TIP3   OH271292   4.145   2.008  13.310  0.2028 -0.2407 -0.1110
16626TIP3    H171293   4.129   2.057  13.391 -0.8612 -3.8640  2.1431
16626TIP3    H271294   4.066   2.022  13.257  0.3993  1.2589 -0.0416
16627TIP3   OH271295   1.251   4.483  15.930  0.3490  0.3735  0.1084
16627TIP3    H171296   1.160   4.492  15.904  0.2958  0.7573  0.4074
16627TIP3    H271297   1.280   4.573  15.946  0.7124  0.2379  0.2361
16628TIP3   OH271298   2.779   1.768  15.716  0.0602 -0.0701  0.6146
16628TIP3    H171299   2.853   1.749  15.657 -1.1305 -0.1825 -0.9177
16628TIP3    H271300   2.768   1.689  15.767  0.2722 -0.4930  0.0220
16629TIP3   OH271301   1.042   4.806  15.156 -0.8281  0.1193  0.1117
16629TIP3    H171302   1.118   4.816  15.213  0.8377 -1.2531 -1.7342
16629TIP3    H271303   1.050   4.718  15.119 -2.9245  0.2111 -0.7096
16630TIP3   OH271304   2.873   3.168   4.482  0.8295 -0.2255  0.4963
16630TIP3    H171305   2.924   3.199   4.406 -0.1074 -1.3289 -0.6223
16630TIP3    H271306   2.932   3.108   4.527  0.9471 -0.5798 -0.1168
16631TIP3   OH271307   4.709   4.636   1.078 -0.6560  0.0903  0.3767
16631TIP3    H171308   4.757   4.689   1.015 -0.3670  1.2527  1.5500
16631TIP3    H271309   4.637   4.692   1.108 -1.3497 -0.7826  0.3941
16632TIP3   OH271310   0.146   4.121   2.848 -0.3458  0.0772 -0.0051
16632TIP3    H171311   0.140   4.212   2.822 -1.5843  0.2615  0.7850
16632TIP3    H271312   0.123   4.121   2.941 -1.1599 -1.1128 -0.1730
16633TIP3   OH271313   6.610   2.233  13.813 -0.3646  0.1549  0.0514
16633TIP3    H171314   6.597   2.167  13.745 -0.2147 -0.3014  0.4553
16633TIP3    H271315   6.694   2.210  13.853 -0.7510  0.0234  0.8165
16634TIP3   OH271316   4.790   5.014   0.105 -0.5113 -0.2164  0.3162
16634TIP3    H171317   4.861   5.053   0.157  0.1334 -1.4094  0.3657
16634TIP3    H271318   4.711   5.056   0.137  0.0094 -0.0060  1.3792
16635TIP3   OH271319   3.832   6.482   0.398  0.2169  0.7383  0.1549
16635TIP3    H171320   3.839   6.394   0.436 -0.2509 -0.4503 -2.2924
16635TIP3    H271321   3.742   6.510   0.416  1.1010  1.9834  3.2887
16636TIP3   OH271322   0.853   0.055  16.003  0.2209 -0.7485  0.4900
16636TIP3    H171323   0.888  -0.020  16.051 -0.6208 -1.2468  0.3560
16636TIP3    H271324   0.835   0.121  16.070 -0.0372 -1.0757  0.7468
16637TIP3   OH271325   6.485   4.233  14.194  0.1450  0.0367  0.0430
16637TIP3    H171326   6.396   4.233  14.160  0.6390  1.4481 -1.3683
16637TIP3    H271327   6.529   4.162  14.147 -0.0263 -0.1920  0.2203
16638TIP3   OH271328   0.046   1.682   5.903 -0.1282  0.2916  0.1808
16638TIP3    H171329   0.139   1.668   5.885 -0.0913  2.0580 -1.3049
16638TIP3    H271330   0.023   1.758   5.850 -2.9184 -1.2764 -1.0484
16639TIP3   OH271331   4.342   6.312   5.031  0.2919 -0.6905  0.2316
16639TIP3    H171332   4.364   6.373   4.960  1.7523  0.0272  1.2406
16639TIP3    H271333   4.370   6.226   4.998  1.6436 -0.2563  0.2020
16640TIP3   OH271334   2.343   5.488   1.327 -0.1838  0.1489  0.1983
16640TIP3    H171335   2.377   5.499   1.238 -1.1341  0.6753 -0.1145
16640TIP3    H271336   2.274   5.554   1.335 -0.3397 -0.1136  1.2161
16641TIP3   OH271337   4.365   2.883   2.587  0.9395  0.5301 -0.5724
16641TIP3    H171338   4.391   2.975   2.583  1.7537  0.3101 -0.5909
16641TIP3    H271339   4.339   2.861   2.498  1.3326  0.5829 -0.7036
16642TIP3   OH271340   4.860   0.506   3.185  0.1789 -0.2106 -0.0179
16642TIP3    H171341   4.945   0.548   3.196 -0.2460  0.5862  0.2655
16642TIP3    H271342   4.805   0.542   3.255 -0.1250 -1.4233  0.3875
16643TIP3   OH271343   5.478   6.702  10.972  0.2310 -0.2810 -0.2719
16643TIP3    H171344   5.452   6.718  10.881 -0.7303  1.4751  0.2479
16643TIP3    H271345   5.529   6.780  10.995 -0.3047 -0.2755  0.9463
16644TIP3   OH271346   2.916   4.247   2.962  0.6268 -0.3175  0.5908
16644TIP3    H171347   2.917   4.253   2.866  1.2150 -3.5586  0.2835
16644TIP3    H271348   2.833   4.287   2.987 -1.3490 -2.6142 -1.6745
16645TIP3   OH271349   1.983   5.050   5.624 -0.0826 -0.5917  0.2338
16645TIP3    H171350   2.022   5.039   5.538  0.9316 -1.5752  0.7974
16645TIP3    H271351   1.898   5.091   5.607 -0.0029 -1.0015 -1.2377
16646TIP3   OH271352   3.329   1.129  12.290 -0.4572  0.2234 -0.0241
16646TIP3    H171353   3.323   1.174  12.374 -1.8018 -2.6263  1.5441
16646TIP3    H271354   3.423   1.124  12.272 -0.1064  0.4522  1.6055
16647TIP3   OH271355   5.238   0.992  13.392  0.1832 -0.1321  0.1716
16647TIP3    H171356   5.207   0.995  13.482 -1.8636  2.3586 -0.4883
16647TIP3    H271357   5.160   1.006  13.339  1.5529  0.0190 -1.9413
16648TIP3   OH271358   6.260   1.926  14.967  0.2733 -0.2733 -0.1820
16648TIP3    H171359   6.334   1.986  14.963 -0.1742  0.4270  1.2792
16648TIP3    H271360   6.205   1.952  14.893  0.9560 -0.0991 -0.6440
16649TIP3   OH271361   4.766   4.648  11.687 -0.4481  0.1415  0.7169
16649TIP3    H171362   4.677   4.624  11.713 -0.8911  1.0646  0.0904
16649TIP3    H271363   4.803   4.567  11.650 -1.9972  0.4009 -1.5993
16650TIP3   OH271364   5.660   1.120  12.433 -0.1409 -0.5602  0.1478
16650TIP3    H171365   5.657   1.107  12.338 -4.9110 -0.3701  0.0075
16650TIP3    H271366   5.681   1.212  12.444  0.1741 -0.5185 -0.7325
16651TIP3   OH271367   3.357   2.462   1.717 -0.3326 -1.0727 -0.1144
16651TIP3    H171368   3.310   2.461   1.633  1.4537  1.2649 -1.2399
16651TIP3    H271369   3.354   2.553   1.746  0.1010 -1.6253  1.8081
16652TIP3   OH271370   4.704   5.439  16.366 -0.0144 -0.3865 -0.9201
16652TIP3    H171371   4.695   5.394  16.282 -0.5852  2.3953 -2.4640
16652TIP3    H271372   4.614   5.443  16.400 -0.0314 -0.0741 -0.9989
16653TIP3   OH271373   1.464   1.660  11.622  1.2166  0.2263  0.2462
16653TIP3    H171374   1.460   1.668  11.526  0.2097 -0.8884  0.1639
16653TIP3    H271375   1.421   1.739  11.654 -0.7968 -0.5481 -0.3207
16654TIP3   OH271376   0.926   4.395  11.551 -0.0260 -0.3146 -0.0316
16654TIP3    H171377   0.887   4.476  11.516  0.0029  0.0760  0.8213
16654TIP3    H271378   0.993   4.425  11.611  0.4281 -0.9902 -0.1916
16655TIP3   OH271379   4.777   0.741   3.576  0.6085 -0.1715  0.0509
16655TIP3    H171380   4.837   0.774   3.643 -1.2370 -1.2057  2.3333
16655TIP3    H271381   4.690   0.766   3.606 -0.4704 -2.6960 -0.6728
16656TIP3   OH271382   1.458   5.807  11.287  0.0852  0.6843 -0.0245
16656TIP3    H171383   1.553   5.819  11.290  0.3182 -1.1160  1.8812
16656TIP3    H271384   1.444   5.759  11.205  1.1868 -1.2240  0.8181
16657TIP3   OH271385   3.886   6.291  16.994 -0.0728 -0.0615  0.3003
16657TIP3    H171386   3.977   6.320  17.004  0.0158 -0.3494  0.3289
16657TIP3    H271387   3.845   6.359  16.941  0.7072 -0.9817 -1.5913
16658TIP3   OH271388   6.081   4.257   2.627 -0.2522 -0.2014  0.3683
16658TIP3    H171389   6.058   4.254   2.720 -2.7287 -0.3984 -0.1639
16658TIP3    H271390   6.111   4.169   2.607 -1.5041 -0.7127  0.6186
16659TIP3   OH271391   6.646   0.536   0.829  0.0120  0.0119  0.2517
16659TIP3    H171392   6.565   0.536   0.879  0.2262 -1.2552  0.6198
16659TIP3    H271393   6.622   0.574   0.745 -0.7059  0.6776  0.7463
16660TIP3   OH271394   3.657   3.241  12.303 -0.4652  0.0866 -0.1687
16660TIP3    H171395   3.660   3.152  12.338 -0.7277  0.8970  2.1465
16660TIP3    H271396   3.564   3.260  12.293 -0.3921 -0.3381 -2.0518
16661TIP3   OH271397   3.350   5.729   6.276  0.0407  0.3293 -0.0343
16661TIP3    H171398   3.389   5.649   6.311 -0.0256 -0.5102 -1.7664
16661TIP3    H271399   3.379   5.798   6.336  1.1381 -0.7984  0.7916
16662TIP3   OH271400   6.678   0.028  14.991 -0.2396  0.2650 -0.4266
16662TIP3    H171401   6.606   0.081  15.025  0.4438  0.5572  0.6051
16662TIP3    H271402   6.749   0.041  15.054  0.4216 -0.7234 -0.9497
16663TIP3   OH271403   0.457   0.966  16.385 -0.0156 -0.2720 -0.5438
16663TIP3    H171404   0.518   0.892  16.394 -0.5133 -0.6637 -0.3386
16663TIP3    H271405   0.504   1.040  16.423  1.3491  0.0253 -2.6745
16664TIP3   OH271406   5.912   1.312  14.520  0.0361  0.0940 -0.3789
16664TIP3    H171407   5.854   1.363  14.462 -0.2691 -1.8078 -1.8417
16664TIP3    H271408   5.854   1.278  14.588 -0.1742 -0.0756 -0.6400
16665TIP3   OH271409   0.976   5.694   2.350  0.1611 -0.0814 -0.4786
16665TIP3    H171410   1.014   5.615   2.310  3.5027  1.9825 -1.8627
16665TIP3    H271411   1.049   5.756   2.353 -2.0454  2.6605  1.4740
16666TIP3   OH271412   4.363   3.456  13.980  0.5617 -0.1309 -0.7831
16666TIP3    H171413   4.277   3.482  13.945  0.5587  0.2588 -0.5004
16666TIP3    H271414   4.403   3.539  14.006  0.9050 -0.3429 -0.6434
16667TIP3   OH271415   1.297   0.081  11.611 -0.2524 -0.5076 -0.1764
16667TIP3    H171416   1.202   0.064  11.616 -0.4412  0.7684  2.0817
16667TIP3    H271417   1.304   0.166  11.568 -0.2251 -0.1680  0.4807
16668TIP3   OH271418   1.343   5.961   6.041 -0.9786 -0.0730 -0.3302
16668TIP3    H171419   1.339   5.972   6.136 -0.6075 -1.9118 -0.0602
16668TIP3    H271420   1.265   6.004   6.008 -0.8875  0.9812  0.7554
16669TIP3   OH271421   5.819   4.146  13.642  0.1478  0.2406 -0.4868
16669TIP3    H171422   5.911   4.142  13.666  0.2194  1.5523 -0.5005
16669TIP3    H271423   5.773   4.172  13.722 -0.0068  1.2285 -0.8844
16670TIP3   OH271424   1.427   1.493   0.639 -0.3172 -0.1144 -0.3788
16670TIP3    H171425   1.477   1.430   0.587  0.8244  0.9072 -0.5895
16670TIP3    H271426   1.492   1.532   0.698 -0.6996  1.6945 -1.0758
16671TIP3   OH271427   3.449   2.889  13.473 -0.1213  0.4556  0.0588
16671TIP3    H171428   3.449   2.822  13.404 -0.5331  0.1361  0.3660
16671TIP3    H271429   3.495   2.848  13.546  1.2612  1.1746 -0.3733
16672TIP3   OH271430   1.336   6.155   2.304  0.3887 -0.5050 -0.2144
16672TIP3    H171431   1.417   6.130   2.348  0.3649 -1.7557 -0.8596
16672TIP3    H271432   1.268   6.104   2.348  0.2356 -1.0213 -1.0347
16673TIP3   OH271433   6.427   3.443   3.413 -0.0764 -0.3594 -0.5056
16673TIP3    H171434   6.425   3.388   3.491 -0.2505 -0.0017 -0.2498
16673TIP3    H271435   6.421   3.382   3.339  2.5453 -0.9123 -0.3518
16674TIP3   OH271436   6.404   5.939  15.944 -0.4975  0.1202 -0.0485
16674TIP3    H171437   6.377   5.997  15.873 -0.0493 -1.0067 -1.1671
16674TIP3    H271438   6.497   5.924  15.928 -0.4023 -0.1771  0.7605
16675TIP3   OH271439   4.812   2.910   4.502 -1.2057 -0.8329  0.7688
16675TIP3    H171440   4.819   2.996   4.460 -0.8141 -0.3857  1.7131
16675TIP3    H271441   4.837   2.848   4.434 -1.0207 -0.1600  0.2126
16676TIP3   OH271442   2.084   0.959  11.284 -0.0488 -0.3233  0.1103
16676TIP3    H171443   2.145   1.017  11.330 -0.6363  0.9310 -0.6223
16676TIP3    H271444   2.118   0.953  11.195  2.2160 -4.3497  0.9921
16677TIP3   OH271445   1.026   4.762  12.098  0.0588  0.5032  0.2685
16677TIP3    H171446   1.058   4.840  12.053  0.7186  1.5242  2.4059
16677TIP3    H271447   0.933   4.757  12.076  0.2828  1.1282 -0.9103
16678TIP3   OH271448   5.263   4.953  15.784 -0.6611 -0.1666 -0.5116
16678TIP3    H171449   5.323   4.904  15.839 -4.1650 -2.6794  1.5035
16678TIP3    H271450   5.247   4.896  15.708 -2.9020 -1.1904  0.6385
16679TIP3   OH271451   2.120   4.619   3.977 -0.0744 -0.3386 -0.4220
16679TIP3    H171452   2.047   4.562   3.953  0.7322 -2.2000  1.1839
16679TIP3    H271453   2.158   4.577   4.054  1.8506  1.3133 -0.3901
16680TIP3   OH271454   1.591   5.103  13.705  0.1692  0.7075 -0.0017
16680TIP3    H171455   1.573   5.013  13.733 -1.0405  0.4239 -1.5484
16680TIP3    H271456   1.529   5.156  13.755  1.6765  0.8728  1.7970
16681TIP3   OH271457   3.126   5.387  10.647  0.6388  0.5068 -0.0031
16681TIP3    H171458   3.195   5.336  10.688  0.5179  1.5209  1.5686
16681TIP3    H271459   3.164   5.474  10.636 -0.6135  1.3649  1.7947
16682TIP3   OH271460   3.575   0.033   3.067 -0.4793 -0.0108 -0.1554
16682TIP3    H171461   3.503  -0.030   3.066 -1.0651  0.5528 -3.1717
16682TIP3    H271462   3.534   0.116   3.091 -0.0928 -0.3253  1.7340
16683TIP3   OH271463   5.373   5.241  16.505 -0.1825  0.4515 -0.2084
16683TIP3    H171464   5.382   5.262  16.598  3.3478  2.2777 -0.7863
16683TIP3    H271465   5.397   5.148  16.499  0.3977  0.5289  0.6612
16684TIP3   OH271466   4.946   2.838  13.290  0.0459  0.3274  0.3308
16684TIP3    H171467   4.851   2.850  13.294 -0.0805 -0.4614 -0.1659
16684TIP3    H271468   4.979   2.890  13.363 -0.7076  1.1773  0.0834
16685TIP3   OH271469   3.654   6.229  11.072 -0.2371  0.4374 -0.2014
16685TIP3    H171470   3.726   6.190  11.121  0.5761  0.4125 -1.3940
16685TIP3    H271471   3.610   6.286  11.136 -0.2634 -0.8935  1.0258
16686TIP3   OH271472   5.084   6.569  16.526  0.1615 -0.4938  0.1394
16686TIP3    H171473   5.100   6.653  16.483 -0.3946  0.0121  0.9006
16686TIP3    H271474   5.112   6.504  16.461 -1.8002  0.2108 -1.5415
16687TIP3   OH271475   1.663   1.000   4.172 -0.3132 -0.1484 -0.0888
16687TIP3    H171476   1.596   0.932   4.177  1.0860 -1.6083 -0.3392
16687TIP3    H271477   1.629   1.063   4.110 -0.9080 -1.5209 -1.2188
16688TIP3   OH271478   6.628   6.195  14.025 -0.0464  0.3118 -0.4120
16688TIP3    H171479   6.601   6.104  14.033 -0.6221  0.5330  0.2768
16688TIP3    H271480   6.602   6.235  14.108  0.8421  0.9409 -0.4214
16689TIP3   OH271481   1.759   0.786  14.521 -0.2899  0.2233 -0.5658
16689TIP3    H171482   1.817   0.794  14.597 -0.9437  0.6929 -0.0964
16689TIP3    H271483   1.808   0.825  14.449 -0.0305  0.6443 -0.1694
16690TIP3   OH271484   6.744   3.386  16.737 -0.6245  0.2257 -0.0157
16690TIP3    H171485   6.764   3.322  16.669  1.2070 -0.1451  0.8022
16690TIP3    H271486   6.661   3.425  16.710 -0.8228 -1.1350 -1.5288
16691TIP3   OH271487   1.752   3.643  12.415  0.2696 -0.2237 -0.4239
16691TIP3    H171488   1.687   3.641  12.345  0.2821  0.6642 -0.4704
16691TIP3    H271489   1.819   3.580  12.387  0.8908  1.0175 -1.8429
16692TIP3   OH271490   5.905   1.079   5.810  0.1708  0.1099 -0.8654
16692TIP3    H171491   5.925   0.986   5.805  0.1801  0.1581 -2.3266
16692TIP3    H271492   5.987   1.120   5.838 -0.4217 -0.4845  1.9535
16693TIP3   OH271493   3.749   4.601  14.506  0.3397  0.0824  0.1025
16693TIP3    H171494   3.653   4.600  14.505  0.2875 -0.2495  2.1498
16693TIP3    H271495   3.773   4.653  14.429 -1.4619 -0.1284 -0.6503
16694TIP3   OH271496   5.970   4.840   1.596 -0.0906  0.5287  0.2731
16694TIP3    H171497   6.063   4.862   1.605  0.1203 -0.6969  1.4793
16694TIP3    H271498   5.924   4.917   1.628  0.5503  0.6136  1.0302
16695TIP3   OH271499   1.109   5.829  12.729 -0.5724 -0.1367 -0.0969
16695TIP3    H171500   1.076   5.743  12.754 -0.8069  0.4123  1.5727
16695TIP3    H271501   1.203   5.814  12.715 -0.0836 -0.2346  2.6723
16696TIP3   OH271502   2.233   1.840   2.443  0.3870 -0.1038  0.3350
16696TIP3    H171503   2.240   1.856   2.538 -0.5289 -1.2527  0.6105
16696TIP3    H271504   2.153   1.789   2.433  0.7201 -0.3831 -1.0261
16697TIP3   OH271505   4.856   1.520  14.729 -0.1076 -0.6996  0.3341
16697TIP3    H171506   4.820   1.561  14.807 -0.4413 -1.2253  0.4585
16697TIP3    H271507   4.780   1.503  14.673  0.1698  0.0800 -0.3074
16698TIP3   OH271508   3.492   1.492   1.140  0.0935  0.5218  0.3109
16698TIP3    H171509   3.415   1.512   1.088  0.4289 -2.1295 -1.3971
16698TIP3    H271510   3.479   1.401   1.168  2.0074  0.4399  1.0933
16699TIP3   OH271511   3.037   4.957  13.589  0.5623 -0.6806 -0.3633
16699TIP3    H171512   3.092   4.904  13.646 -0.6687 -2.3907 -0.6974
16699TIP3    H271513   2.991   4.894  13.534 -0.5258  0.7738 -1.2008
16700TIP3   OH271514   4.499   3.470  16.321 -0.0041 -0.1984  0.3589
16700TIP3    H171515   4.579   3.518  16.342  0.9708 -1.6383  0.0509
16700TIP3    H271516   4.490   3.406  16.393 -0.5369 -0.4592  0.0688
16701TIP3   OH271517   5.928   4.263   6.073 -0.1601  0.4089 -0.3578
16701TIP3    H171518   5.957   4.319   6.002 -1.1296  0.1368 -0.9892
16701TIP3    H271519   5.833   4.257   6.063 -0.0753 -1.5869 -0.5146
16702TIP3   OH271520   3.986   3.063   2.141 -0.0779  0.1040  0.3225
16702TIP3    H171521   3.971   2.998   2.072 -1.0849  0.0376  0.5824
16702TIP3    H271522   3.899   3.078   2.178 -0.1527  2.7309 -0.7023
16703TIP3   OH271523   5.224   5.700   6.266  0.1479 -0.0205 -0.3479
16703TIP3    H171524   5.143   5.682   6.218 -0.5542  1.2838  0.2834
16703TIP3    H271525   5.215   5.654   6.349  0.2059 -0.1337 -0.4033
16704TIP3   OH271526   5.680   1.664  15.565 -0.2996 -0.0438 -0.5362
16704TIP3    H171527   5.627   1.733  15.525 -0.7902 -1.3167 -2.2316
16704TIP3    H271528   5.738   1.634  15.495  0.5937 -0.7031  0.4405
16705TIP3   OH271529   5.667   6.493  13.589  0.5764 -0.0019  0.4835
16705TIP3    H171530   5.626   6.565  13.639  1.5713 -0.2211  1.6791
16705TIP3    H271531   5.615   6.486  13.510 -1.8053 -0.3820  2.0012
16706TIP3   OH271532   4.196   1.177  13.793 -0.7489 -0.2529  0.2269
16706TIP3    H171533   4.189   1.266  13.827 -0.5312  0.7454 -2.1113
16706TIP3    H271534   4.288   1.169  13.766 -0.9632 -0.8627 -0.3563
16707TIP3   OH271535   5.799   3.682  12.561  0.1909  0.0806  0.1301
16707TIP3    H171536   5.877   3.739  12.559 -0.9888  1.7699 -0.0266
16707TIP3    H271537   5.765   3.686  12.472 -0.9202  0.6190  0.5616
16708TIP3   OH271538   6.450   6.020  12.861  0.7760  0.1082  0.3201
16708TIP3    H171539   6.542   6.041  12.842  0.5319 -0.0107 -1.1375
16708TIP3    H271540   6.442   6.031  12.955  1.4009  3.6818  0.1103
16709TIP3   OH271541   2.942   3.330   2.566 -0.3237 -0.9506 -0.0194
16709TIP3    H171542   2.991   3.254   2.595  0.0988 -0.4297  0.6658
16709TIP3    H271543   2.991   3.405   2.601 -0.4337 -0.3449 -1.1221
16710TIP3   OH271544   3.154   6.676  14.974 -0.1075  0.0951  0.2179
16710TIP3    H171545   3.152   6.593  14.927 -2.3111  0.6147 -0.7446
16710TIP3    H271546   3.085   6.728  14.933 -0.0271  1.7287  2.0295
16711TIP3   OH271547   5.578   0.017   1.363  0.3872 -0.1207 -0.1288
16711TIP3    H171548   5.670   0.039   1.376 -0.1316  1.8550  0.5817
16711TIP3    H271549   5.541   0.014   1.451  0.1526 -3.0858 -0.2275
16712TIP3   OH271550   3.299   1.861   0.106 -0.2753  0.4220 -0.3224
16712TIP3    H171551   3.293   1.956   0.112  0.8357  0.5246 -0.7094
16712TIP3    H271552   3.208   1.831   0.116 -0.6218  1.5024 -0.0691
16713TIP3   OH271553   1.474   1.104   1.976  0.3130  0.5273 -0.1734
16713TIP3    H171554   1.416   1.166   1.932 -0.7547  0.2544  0.8189
16713TIP3    H271555   1.505   1.047   1.905 -0.6537  0.6707 -0.7360
16714TIP3   OH271556   1.407   5.821   5.279 -0.7462 -0.0928 -0.3142
16714TIP3    H171557   1.402   5.911   5.248 -0.0711  0.1944  0.3783
16714TIP3    H271558   1.389   5.827   5.372 -1.0906 -0.7300 -0.3355
16715TIP3   OH271559   1.146   1.478   5.804  0.1470 -0.1191  0.1034
16715TIP3    H171560   1.197   1.558   5.817  2.1759 -1.7865  4.1344
16715TIP3    H271561   1.066   1.491   5.854 -0.1303 -0.1909 -0.3099
16716TIP3   OH271562   1.690   4.775  14.563 -0.1880  0.5238 -0.3754
16716TIP3    H171563   1.686   4.814  14.476  0.1383  1.1106 -0.1293
16716TIP3    H271564   1.768   4.720  14.561 -1.6851 -1.7499 -1.3736
16717TIP3   OH271565   4.725   1.851  12.632 -0.2679  0.1510 -0.1773
16717TIP3    H171566   4.736   1.939  12.668  0.2719 -0.5644  1.4939
16717TIP3    H271567   4.748   1.792  12.704  1.7157 -1.3926 -1.9405
16718TIP3   OH271568   2.307   3.237  13.349 -0.5642  0.6832  0.1380
16718TIP3    H171569   2.400   3.240  13.329  0.5582  0.0716  4.3291
16718TIP3    H271570   2.287   3.143  13.355 -0.6480  0.7853  2.0117
16719TIP3   OH271571   5.301   3.472  11.240  0.2849 -0.0824  0.1869
16719TIP3    H171572   5.348   3.440  11.317  0.7004  0.8810  0.3505
16719TIP3    H271573   5.254   3.549  11.271  0.8040  0.5818 -0.6086
16720TIP3   OH271574   1.550   4.237   4.498 -0.2928  0.2227  0.4946
16720TIP3    H171575   1.516   4.318   4.534 -1.5981  0.0778 -0.3476
16720TIP3    H271576   1.487   4.170   4.524  1.1528 -0.6860  1.8251
16721TIP3   OH271577   3.333   1.697   3.290 -0.1983  0.2115 -0.2674
16721TIP3    H171578   3.376   1.613   3.274 -0.5148  0.2132 -1.1913
16721TIP3    H271579   3.400   1.751   3.333  0.3678 -0.1496 -0.6913
16722TIP3   OH271580   1.000   3.162  11.574  0.1299  0.3063 -0.2139
16722TIP3    H171581   0.952   3.183  11.654  1.1773  0.1385  0.4663
16722TIP3    H271582   0.934   3.169  11.505 -1.1143 -0.8686  0.8010
16723TIP3   OH271583   3.099   5.891   3.463  0.1374  0.1632 -0.2481
16723TIP3    H171584   3.028   5.951   3.485  0.7447  1.5962 -2.0156
16723TIP3    H271585   3.056   5.816   3.421 -0.5201 -0.2361  1.0592
16724TIP3   OH271586   4.319   3.655   5.727  0.0707  0.5077  1.2425
16724TIP3    H171587   4.414   3.648   5.732  0.3851  2.3539 -0.7885
16724TIP3    H271588   4.300   3.747   5.745 -0.9190  1.0566 -2.0227
16725TIP3   OH271589   1.894   4.691  15.489 -0.5315  0.4250 -0.4078
16725TIP3    H171590   1.858   4.757  15.429  0.0286  1.0000 -0.1214
16725TIP3    H271591   1.986   4.682  15.463 -0.4936  0.0813 -0.1628
16726TIP3   OH271592   1.211   2.783   4.863  0.1407  0.3372  0.3489
16726TIP3    H171593   1.204   2.758   4.771 -1.8104  1.7072  0.0650
16726TIP3    H271594   1.303   2.767   4.886  0.9514  0.9894 -2.1484
16727TIP3   OH271595   6.749   4.125  12.438 -0.3780  0.3523 -0.3637
16727TIP3    H171596   6.659   4.107  12.468 -0.3118  1.0166  0.2582
16727TIP3    H271597   6.737   4.166  12.353 -0.6120 -0.5667 -0.7925
16728TIP3   OH271598   5.220   6.725  13.617 -0.1826 -0.1418 -0.0442
16728TIP3    H171599   5.308   6.761  13.629 -0.3588  0.3298 -0.1458
16728TIP3    H271600   5.234   6.631  13.608  0.1904 -0.2195  1.1972
16729TIP3   OH271601   5.994   6.459   1.832  0.0383  0.2030  0.0041
16729TIP3    H171602   5.963   6.490   1.917  1.8318 -1.1266  1.2209
16729TIP3    H271603   6.065   6.519   1.809 -0.4047  0.5245 -0.5467
16730TIP3   OH271604   5.943   2.515   0.657  0.2513 -0.7967 -0.7717
16730TIP3    H171605   5.923   2.447   0.722 -1.8748 -0.0064 -0.5356
16730TIP3    H271606   5.858   2.547   0.628  1.0367 -1.6717 -4.6584
16731TIP3   OH271607   0.897   5.823  12.199  0.3441  0.1754 -0.1791
16731TIP3    H171608   0.802   5.836  12.191  0.0959 -1.3696 -0.0444
16731TIP3    H271609   0.910   5.793  12.288  0.6517 -1.8983 -0.8844
16732TIP3   OH271610   2.439   1.303   2.283  0.4252 -0.6724  0.4742
16732TIP3    H171611   2.527   1.297   2.320  0.2224 -1.1058  0.8926
16732TIP3    H271612   2.396   1.222   2.310 -0.1013 -0.4668  0.2674
16733TIP3   OH271613   3.914   2.759   1.409 -0.3332 -0.5373  0.2841
16733TIP3    H171614   3.993   2.735   1.359  0.3098 -0.8191  1.3993
16733TIP3    H271615   3.920   2.853   1.420 -0.0187 -0.5909  0.5809
16734TIP3   OH271616   4.527   0.355  10.982  0.7522  0.3166  1.2277
16734TIP3    H171617   4.527   0.372  10.887 -0.1676  0.9001  1.3155
16734TIP3    H271618   4.469   0.423  11.018  1.3666  0.3208  2.2524
16735TIP3   OH271619   4.122   5.365  15.414  0.4389 -0.0969  0.6198
16735TIP3    H171620   4.200   5.336  15.462  0.0940 -0.1602  1.1391
16735TIP3    H271621   4.049   5.319  15.455  0.0037  0.7335  0.7939
16736TIP3   OH271622   4.510   3.677  11.713  0.0277  0.6277  0.2036
16736TIP3    H171623   4.511   3.741  11.785  0.3968 -0.4400  1.1827
16736TIP3    H271624   4.595   3.633  11.720 -0.9220 -1.2087  0.7122
16737TIP3   OH271625   2.423   1.631   2.683  0.2542 -0.1402 -0.0638
16737TIP3    H171626   2.353   1.566   2.690 -1.7113  1.6439 -1.8572
16737TIP3    H271627   2.473   1.604   2.606 -0.6991  0.5059 -0.9464
16738TIP3   OH271628   1.518   1.670  13.844 -0.4935 -0.7714 -0.7668
16738TIP3    H171629   1.590   1.611  13.865 -0.1563 -0.4462 -0.9944
16738TIP3    H271630   1.555   1.731  13.781 -0.9690 -0.5966 -0.8806
16739TIP3   OH271631   4.509   2.864  15.885 -0.1649 -0.0486 -0.2061
16739TIP3    H171632   4.459   2.909  15.953  2.2010  0.3465  1.4061
16739TIP3    H271633   4.507   2.923  15.810  0.5592  1.4806  0.9288
16740TIP3   OH271634   3.173   4.485   5.314  0.0226  0.3601  0.1952
16740TIP3    H171635   3.212   4.430   5.383  1.0956 -1.4718 -1.7685
16740TIP3    H271636   3.140   4.562   5.361  2.9765  0.4181  2.4747
16741TIP3   OH271637   6.352   6.784  12.579  0.4242  0.0767  0.7129
16741TIP3    H171638   6.370   6.694  12.606 -0.4978 -0.0686  0.8614
16741TIP3    H271639   6.297   6.819  12.649  0.6796  0.7258  0.5981
16742TIP3   OH271640   1.439   6.034  11.004  0.0800 -0.7414 -0.5564
16742TIP3    H171641   1.529   6.051  11.034 -0.0423  0.5276 -0.8732
16742TIP3    H271642   1.394   6.000  11.081  0.1305  1.1850  0.3791
16743TIP3   OH271643   3.978   1.594  15.023 -0.2666  0.1775  0.3412
16743TIP3    H171644   4.056   1.543  15.000 -1.1549 -1.2885  0.4603
16743TIP3    H271645   4.001   1.638  15.105  0.4623 -0.1336  0.3111
16744TIP3   OH271646   6.211   5.911   3.310  0.2212  0.0896 -0.2899
16744TIP3    H171647   6.235   5.970   3.238  0.1890  2.1247  1.2805
16744TIP3    H271648   6.141   5.957   3.356  0.4622 -1.0096  1.2352
16745TIP3   OH271649   5.018   0.582  15.670  0.5507  0.1429  0.8385
16745TIP3    H171650   4.948   0.579  15.735 -1.3126  1.1101 -1.0324
16745TIP3    H271651   5.068   0.661  15.691  1.6008 -0.8897  2.5748
16746TIP3   OH271652   0.981   3.126   4.214  0.2620  0.3591  0.3929
16746TIP3    H171653   0.975   3.045   4.164  1.1907  0.2467  0.4551
16746TIP3    H271654   0.904   3.177   4.186 -0.9649 -0.9875  1.1841
16747TIP3   OH271655   1.453   1.119   6.363 -0.3928 -0.2428 -0.8057
16747TIP3    H171656   1.460   1.024   6.355  2.1220 -0.1674 -0.2772
16747TIP3    H271657   1.531   1.153   6.319  1.4094  1.2719  3.1228
16748TIP3   OH271658   1.648   5.437  13.607  0.4850 -0.3834 -0.2058
16748TIP3    H171659   1.635   5.429  13.702 -0.4534 -0.7047 -0.3444
16748TIP3    H271660   1.651   5.532  13.591 -2.9455 -0.1290 -0.2318
16749TIP3   OH271661   5.724   5.806   6.020 -0.2448  0.1583 -0.5374
16749TIP3    H171662   5.717   5.762   6.104  1.5138  0.8921  0.0294
16749TIP3    H271663   5.676   5.888   6.032 -0.0666  0.2251 -0.2785
16750TIP3   OH271664   2.718   1.062  12.584 -0.5771  0.1845  0.4836
16750TIP3    H171665   2.788   1.016  12.537  0.7068  1.0028  1.5293
16750TIP3    H271666   2.682   1.124  12.520  1.0251  1.1600  0.4854
16751TIP3   OH271667   4.714   1.074  11.799 -0.1763  0.3286  0.4155
16751TIP3    H171668   4.775   1.142  11.830  0.0280  0.0080  0.7317
16751TIP3    H271669   4.741   0.995  11.847  0.0890 -0.1652 -0.5277
16752TIP3   OH271670   3.203   6.660  14.285  0.1789 -0.6791 -0.1550
16752TIP3    H171671   3.199   6.735  14.345  0.8789 -0.6333 -0.1540
16752TIP3    H271672   3.145   6.595  14.324  1.7540 -1.2225  1.4074
16753TIP3   OH271673   4.959   2.328  12.744 -0.0605  0.7527  0.4795
16753TIP3    H171674   4.987   2.293  12.829  0.0753  0.6669  0.3988
16753TIP3    H271675   5.018   2.401  12.727 -1.2500  1.9763  1.3404
16754TIP3   OH271676   5.935   0.507   1.418  0.3870 -0.7474 -0.9880
16754TIP3    H171677   5.883   0.515   1.498 -1.1033 -0.8876 -1.8899
16754TIP3    H271678   6.003   0.573   1.427 -0.9535  0.6332 -0.4492
16755TIP3   OH271679   4.966   4.237  16.582  0.3754  0.0398  0.5600
16755TIP3    H171680   5.045   4.185  16.565  1.2790  1.2120  1.0924
16755TIP3    H271681   4.915   4.183  16.643  0.8821 -0.6113  0.4183
16756TIP3   OH271682   0.319   3.343  16.893  0.8238 -0.5330  0.1264
16756TIP3    H171683   0.412   3.342  16.915  0.4350 -1.5234  1.9122
16756TIP3    H271684   0.286   3.259  16.926 -0.5870 -0.4744 -1.0538
16757TIP3   OH271685   5.981   4.517  14.192  0.4521 -0.1747 -0.0731
16757TIP3    H171686   5.894   4.555  14.202  0.3612 -0.6105  0.9479
16757TIP3    H271687   6.018   4.520  14.280  1.9759  1.1611 -0.7000
16758TIP3   OH271688   6.679   6.372  15.132  0.2810 -0.4758  0.0485
16758TIP3    H171689   6.745   6.306  15.156  0.8514  0.5429  1.4291
16758TIP3    H271690   6.718   6.419  15.058  1.9541  1.1985  1.8612
16759TIP3   OH271691   4.072   5.031   1.244 -0.0187  0.4542 -0.1265
16759TIP3    H171692   4.136   4.989   1.301 -0.0666  0.2743 -0.2065
16759TIP3    H271693   3.992   5.034   1.297 -1.0680 -2.7853 -1.3172
16760TIP3   OH271694   5.386   4.603  17.166 -0.8738  0.1207 -0.0902
16760TIP3    H171695   5.462   4.647  17.204 -0.8995  0.2101 -0.1418
16760TIP3    H271696   5.396   4.512  17.191 -0.3875  0.0075 -0.6855
16761TIP3   OH271697   2.546   1.842   4.527  0.3702 -0.6753  0.2927
16761TIP3    H171698   2.458   1.816   4.500  0.2531 -0.5478  0.5488
16761TIP3    H271699   2.573   1.774   4.589 -0.4196  0.4263  1.9164
16762TIP3   OH271700   1.457   1.506   4.236 -0.1867  0.0068  0.0857
16762TIP3    H171701   1.419   1.567   4.299  1.2058  0.7945  0.1999
16762TIP3    H271702   1.493   1.436   4.290 -1.0448 -0.5062  0.0056
16763TIP3   OH271703   3.737   6.570   5.175 -0.4901  0.1184  0.8803
16763TIP3    H171704   3.822   6.548   5.213  0.3098 -0.9866 -1.3314
16763TIP3    H271705   3.741   6.664   5.161  0.2975  0.1177  1.0267
16764TIP3   OH271706   4.048   4.964   4.106  0.1300 -0.1869 -0.0104
16764TIP3    H171707   4.015   5.052   4.087  0.5609  0.0661  0.4191
16764TIP3    H271708   3.969   4.913   4.124  0.0087  0.7976  2.6372
16765TIP3   OH271709   1.972   5.478   3.134 -0.3754  0.1135 -0.5040
16765TIP3    H171710   1.992   5.450   3.223  1.8751 -0.1199 -1.0302
16765TIP3    H271711   1.980   5.573   3.136  0.9095  0.0213 -0.7108
16766TIP3   OH271712   5.754   1.405  15.977 -0.6007  0.5321 -0.1208
16766TIP3    H171713   5.818   1.384  15.908 -0.8925 -3.0059  0.4570
16766TIP3    H271714   5.769   1.497  15.996  2.3585  0.6087 -1.9930
16767TIP3   OH271715   2.973   6.442  11.350 -1.0100 -0.4306 -0.7016
16767TIP3    H171716   2.882   6.471  11.352 -1.5630 -2.0106 -1.3276
16767TIP3    H271717   2.975   6.372  11.284  0.6012 -0.5952 -0.5254
16768TIP3   OH271718   1.557   4.336  10.935  0.3630  0.0975  0.6780
16768TIP3    H171719   1.650   4.358  10.936  0.2429  0.6363  0.6159
16768TIP3    H271720   1.521   4.383  11.010  0.2832 -0.7791  1.2004
16769TIP3   OH271721   1.108   1.005  13.867 -0.3478  0.2445  0.3999
16769TIP3    H171722   1.149   0.961  13.941  1.2789  0.0683 -0.5695
16769TIP3    H271723   1.069   0.935  13.815 -0.6624  0.2856  0.5727
16770TIP3   OH271724   2.198   1.640  13.914 -0.5113  0.2030  0.0343
16770TIP3    H171725   2.175   1.727  13.881 -0.5165 -0.2424 -1.1889
16770TIP3    H271726   2.183   1.645  14.009  0.5214  1.8493  0.1489
16771TIP3   OH271727   1.123   0.569  11.927 -0.0096  0.0528 -0.0715
16771TIP3    H171728   1.173   0.580  12.008  0.2354  0.1399 -0.2359
16771TIP3    H271729   1.181   0.521  11.869 -0.5159 -0.8232  0.1141
16772TIP3   OH271730   0.509   3.294  11.561  0.0558 -0.6602  0.4389
16772TIP3    H171731   0.525   3.273  11.653  1.7132 -0.3848  0.2383
16772TIP3    H271732   0.533   3.215  11.513  0.0283 -0.5124  0.1750
16773TIP3   OH271733   3.596   0.641   0.561 -0.0139  0.1946 -0.4532
16773TIP3    H171734   3.596   0.729   0.523 -0.7334  1.2371  1.7658
16773TIP3    H271735   3.569   0.583   0.489  1.2784  1.6375 -2.1840
16774TIP3   OH271736   0.498   5.417  16.558  0.3571 -0.1696  0.8324
16774TIP3    H171737   0.515   5.391  16.467 -1.7004  0.1149  0.3215
16774TIP3    H271738   0.562   5.368  16.609  2.0478  0.2140 -0.8056
16775TIP3   OH271739   6.692   5.803   2.404 -0.3808  0.3281 -0.5941
16775TIP3    H171740   6.722   5.747   2.332 -1.0153 -0.0299 -0.5882
16775TIP3    H271741   6.701   5.892   2.370  1.2253  0.2846 -0.3798
16776TIP3   OH271742   4.623   5.061  15.243 -0.0748 -0.2292  0.0098
16776TIP3    H171743   4.544   5.089  15.196  1.4618  2.1185 -1.3993
16776TIP3    H271744   4.692   5.063  15.176  1.6725  0.4180  1.7421
16777TIP3   OH271745   1.596   2.329  13.547 -0.0787  0.0784 -0.7338
16777TIP3    H171746   1.508   2.312  13.515 -0.1681 -2.2110  0.5035
16777TIP3    H271747   1.649   2.259  13.507  0.4419 -0.7512  1.3119
16778TIP3   OH271748   1.616   3.643  10.977  0.1317 -0.1584 -0.1160
16778TIP3    H171749   1.595   3.631  11.070 -0.5570  0.4444 -0.1862
16778TIP3    H271750   1.562   3.578  10.932 -0.5005  0.3945 -0.1806
16779TIP3   OH271751   2.412   6.060  14.780 -0.3685 -0.6289  0.0273
16779TIP3    H171752   2.409   5.970  14.812  0.5709 -0.1421  1.5754
16779TIP3    H271753   2.343   6.105  14.829  0.4065 -0.1040  0.6656
16780TIP3   OH271754   2.100   3.932   5.800 -0.0222 -0.3665  0.4355
16780TIP3    H171755   2.076   3.841   5.819  0.9655 -0.5542  0.8601
16780TIP3    H271756   2.134   3.929   5.710 -0.5201 -0.3157  0.2479
16781TIP3   OH271757   1.719   1.473   1.548 -0.5863 -0.1095 -0.0813
16781TIP3    H171758   1.794   1.414   1.559 -1.6586 -1.5224 -0.1060
16781TIP3    H271759   1.645   1.414   1.532 -1.3930  1.3147 -1.9016
16782TIP3   OH271760   1.232   1.229   5.813  0.2002  0.3935  0.3134
16782TIP3    H171761   1.150   1.179   5.808  1.1667 -1.2136 -0.4286
16782TIP3    H271762   1.205   1.320   5.809 -1.6522 -0.0418  1.7230
16783TIP3   OH271763   6.558   3.899   2.838  0.3043  0.5558  0.0303
16783TIP3    H171764   6.560   3.805   2.853  1.5135  0.4557 -0.6715
16783TIP3    H271765   6.589   3.937   2.921  3.1618  0.1615 -0.7565
16784TIP3   OH271766   0.270   3.106   4.466  0.0615 -0.1740  0.4928
16784TIP3    H171767   0.334   3.035   4.468 -1.4674 -1.7034 -0.8727
16784TIP3    H271768   0.301   3.165   4.397 -0.0129 -0.9466 -0.2200
16785TIP3   OH271769   5.171   1.295  13.819 -0.2855  0.5048  0.3039
16785TIP3    H171770   5.092   1.296  13.767  0.2943 -1.8959 -0.7637
16785TIP3    H271771   5.227   1.229  13.777  1.3218  0.4515  2.3530
16786TIP3   OH271772   5.704   0.096   2.643 -0.4152 -0.0375  0.7605
16786TIP3    H171773   5.722   0.181   2.681 -1.0706  1.1518 -1.4040
16786TIP3    H271774   5.610   0.096   2.625 -0.3348 -0.9786  0.2120
16787TIP3   OH271775   5.819   5.260  14.221  0.3378  0.2010  0.3603
16787TIP3    H171776   5.735   5.305  14.236  0.3716  0.6290 -0.7050
16787TIP3    H271777   5.884   5.319  14.258  0.2788  0.4684  0.0395
16788TIP3   OH271778   1.472   1.476  14.140 -0.4342  0.1558 -0.5093
16788TIP3    H171779   1.389   1.437  14.167  0.2401 -0.4731  0.7959
16788TIP3    H271780   1.530   1.401  14.126 -0.0076  0.5913 -1.1097
16789TIP3   OH271781   1.012   0.337  12.553  0.1152  0.3998  0.3575
16789TIP3    H171782   1.001   0.256  12.503  0.7376  1.1072 -0.9737
16789TIP3    H271783   1.088   0.320  12.610  0.6739  0.2801 -0.4120
16790TIP3   OH271784   5.928   3.062  16.535 -0.3799  0.2073 -0.0058
16790TIP3    H171785   5.985   3.134  16.507  0.2186  0.3660  1.5219
16790TIP3    H271786   5.879   3.097  16.609 -2.1264 -0.1033 -0.9638
16791TIP3   OH271787   6.414   5.222   3.526 -0.2372 -0.5542 -0.2720
16791TIP3    H171788   6.380   5.310   3.540  0.3873 -0.2375 -0.6443
16791TIP3    H271789   6.363   5.166   3.583  0.3832  0.2667  1.1431
16792TIP3   OH271790   5.614   6.495  13.326 -0.3618 -0.0994  0.4407
16792TIP3    H171791   5.590   6.415  13.280 -0.8714 -0.3010  1.0393
16792TIP3    H271792   5.592   6.566  13.266  0.0131 -0.3962 -0.0597
16793TIP3   OH271793   4.835   0.639  16.432 -0.2333  0.1796 -0.3230
16793TIP3    H171794   4.766   0.616  16.494  0.3706  0.4805  0.4818
16793TIP3    H271795   4.797   0.622  16.346 -1.2167  0.0932  0.1146
16794TIP3   OH271796   6.563   0.894  12.544  0.3264 -0.7746 -0.0634
16794TIP3    H171797   6.580   0.858  12.631 -0.4235  0.5384  0.6665
16794TIP3    H271798   6.650   0.910  12.507  0.7051  0.5734  1.2986
16795TIP3   OH271799   1.316   1.603   4.484  0.4912 -0.7625  0.6603
16795TIP3    H171800   1.319   1.508   4.478  2.4216 -0.8137  1.5731
16795TIP3    H271801   1.229   1.627   4.451  0.4946 -2.7135 -0.9596
16796TIP3   OH271802   4.211   0.640  13.214  0.4249  0.3311 -0.1571
16796TIP3    H171803   4.289   0.585  13.205  0.5474  0.6326 -1.0420
16796TIP3    H271804   4.158   0.595  13.280  0.7828 -0.5417 -0.4439
16797TIP3   OH271805   1.082   2.638   2.662 -0.7117 -0.0868  0.3055
16797TIP3    H171806   1.023   2.703   2.700  1.6166  2.7245 -0.5102
16797TIP3    H271807   1.080   2.656   2.568  3.0072  1.7814  0.3987
16798TIP3   OH271808   5.156   2.273   0.543 -0.1064  0.6407  0.0958
16798TIP3    H171809   5.168   2.190   0.498 -1.2604  0.6876 -0.3112
16798TIP3    H271810   5.068   2.269   0.579 -1.0414  2.5307 -1.7592
16799TIP3   OH271811   2.473   2.485  15.621 -0.4081 -0.0036 -0.2578
16799TIP3    H171812   2.501   2.521  15.705  0.3097 -1.6749  0.2658
16799TIP3    H271813   2.474   2.559  15.561 -1.7039  1.3919  1.3685
16800TIP3   OH271814   5.418   3.442   6.482 -0.5336  0.3601 -0.2084
16800TIP3    H171815   5.361   3.447   6.558 -0.3471 -0.2424 -0.0259
16800TIP3    H271816   5.483   3.376   6.504  0.6304  1.4749 -0.1604
16801TIP3   OH271817   2.690   2.188  17.116 -0.7519 -0.3365 -0.1137
16801TIP3    H171818   2.615   2.217  17.167 -0.3021  3.6287 -1.3609
16801TIP3    H271819   2.657   2.114  17.064 -2.7357 -0.8941  1.8020
16802TIP3   OH271820   0.581   6.491   0.144  0.2655  0.0784 -0.1339
16802TIP3    H171821   0.622   6.411   0.111 -0.7914  0.1153 -1.6544
16802TIP3    H271822   0.627   6.562   0.099  1.2699  0.3735  1.2879
16803TIP3   OH271823   4.941   0.098   5.294 -0.4157 -0.3784  0.1137
16803TIP3    H171824   5.009   0.067   5.354  0.0922 -0.2788 -0.4043
16803TIP3    H271825   4.867   0.039   5.308  0.4979 -1.7795 -0.7716
16804TIP3   OH271826   3.957   3.059  15.190 -0.1136 -0.6102 -0.2335
16804TIP3    H171827   3.873   3.062  15.144 -0.1500  0.2357 -0.1325
16804TIP3    H271828   3.999   3.142  15.169 -0.4214  0.1237  1.7830
16805TIP3   OH271829   5.589   0.161   4.338 -0.1637 -0.4005 -0.0503
16805TIP3    H171830   5.584   0.236   4.396 -0.8876 -0.6142  0.1857
16805TIP3    H271831   5.507   0.164   4.288 -0.3801 -1.2396  0.2348
16806TIP3   OH271832   4.026   0.069  12.545  0.1273 -0.6641 -0.3471
16806TIP3    H171833   3.990  -0.020  12.550  0.3778 -0.7112  3.4017
16806TIP3    H271834   4.114   0.056  12.509 -0.5436 -1.6011 -1.7739
16807TIP3   OH271835   2.219   3.167   3.944 -0.1048 -0.1492 -0.1829
16807TIP3    H171836   2.163   3.206   4.011 -1.6522 -0.4693 -1.2525
16807TIP3    H271837   2.222   3.232   3.874 -0.7196 -0.9376 -0.9491
16808TIP3   OH271838   4.079   4.664  11.955 -0.2656  0.1988  0.2690
16808TIP3    H171839   4.043   4.662  12.044 -0.1494 -0.4935  0.3000
16808TIP3    H271840   4.049   4.748  11.920 -0.7094  0.2704  0.7960
16809TIP3   OH271841   0.855   5.256  16.197  0.3626 -0.1395  0.0287
16809TIP3    H171842   0.829   5.260  16.289 -1.9506 -0.3390 -0.5555
16809TIP3    H271843   0.914   5.330  16.186 -0.4482  0.7529  1.3595
16810TIP3   OH271844   5.055   6.356   3.932 -0.2905  0.0539 -0.3912
16810TIP3    H171845   4.963   6.331   3.935 -0.6507  1.4277  0.8238
16810TIP3    H271846   5.095   6.291   3.874 -1.8409 -1.0889 -0.2460
16811TIP3   OH271847   1.213   1.954   4.821 -0.3079 -0.2866 -0.0020
16811TIP3    H171848   1.306   1.949   4.798  0.2777 -3.3253  2.3504
16811TIP3    H271849   1.212   1.983   4.912 -1.6121 -0.8200  0.1759
16812TIP3   OH271850   1.016   3.011  17.136  0.0367 -0.1137 -0.1794
16812TIP3    H171851   1.057   2.967  17.062 -0.5654  1.6823 -1.6518
16812TIP3    H271852   0.924   3.021  17.110  0.1179  1.8128  0.1664
16813TIP3   OH271853   3.363   2.060  12.669  0.3111  0.1461 -0.0327
16813TIP3    H171854   3.422   1.987  12.648  0.6524  0.3130  0.3335
16813TIP3    H271855   3.276   2.025  12.657  0.4656 -0.4630  0.5809
16814TIP3   OH271856   0.670   5.111  16.072 -0.0324  0.1135 -0.0151
16814TIP3    H171857   0.715   5.176  16.126 -0.1584 -0.2105  0.4864
16814TIP3    H271858   0.716   5.113  15.989  0.0259  0.7759  0.0302
16815TIP3   OH271859   5.814   1.210  16.182  0.2693 -0.3391 -0.1425
16815TIP3    H171860   5.788   1.275  16.116  0.2327  0.3489  0.5319
16815TIP3    H271861   5.904   1.232  16.203  1.1546 -2.1150 -1.7527
16816TIP3   OH271862   6.789   0.607  10.817  0.0697  0.0363  0.1875
16816TIP3    H171863   6.740   0.685  10.791  2.4133  0.9347 -1.8996
16816TIP3    H271864   6.767   0.542  10.750  0.6627  0.0037  0.0213
16817TIP3   OH271865   6.717   1.189   6.074 -0.5756 -0.3180 -0.1544
16817TIP3    H171866   6.630   1.175   6.112  0.0012 -0.2770  1.2138
16817TIP3    H271867   6.755   1.259   6.127 -0.0707  0.3762 -1.3794
16818TIP3   OH271868   5.583   1.449  16.626  0.5408  0.2858 -0.1966
16818TIP3    H171869   5.600   1.367  16.580 -1.1574 -1.7946  2.5945
16818TIP3    H271870   5.615   1.434  16.715 -3.2988  1.0610  1.4980
16819TIP3   OH271871   2.428   1.593   4.414 -0.4991 -0.1465  0.5766
16819TIP3    H171872   2.427   1.512   4.362 -0.8647  0.3126 -0.1531
16819TIP3    H271873   2.354   1.584   4.473 -0.2061 -0.5856  0.8840
16820TIP3   OH271874   1.210   6.468  11.942 -0.3841 -0.0819 -0.4301
16820TIP3    H171875   1.154   6.526  11.890 -0.3155 -1.1767 -1.8130
16820TIP3    H271876   1.299   6.500  11.927 -0.4784  0.5316  0.2708
16821TIP3   OH271877   4.882   2.344   3.380  0.4701 -0.4549 -0.1171
16821TIP3    H171878   4.786   2.344   3.374  0.4555  1.7731 -0.6894
16821TIP3    H271879   4.910   2.415   3.322  2.5548 -1.6773 -0.7297
16822TIP3   OH271880   4.099   0.287   1.539  0.0522 -0.6235  0.1736
16822TIP3    H171881   4.077   0.221   1.605  0.3925 -1.4526 -0.5167
16822TIP3    H271882   4.099   0.239   1.457 -1.2130  0.5624 -0.5635
16823TIP3   OH271883   2.357   4.869  11.243  0.6204 -0.1019  0.2127
16823TIP3    H171884   2.352   4.908  11.330  0.0669 -1.9051  1.0628
16823TIP3    H271885   2.444   4.890  11.211  0.9207  0.3826  1.3179
16824TIP3   OH271886   6.107   1.875  12.410 -0.4991 -0.7559 -0.1763
16824TIP3    H171887   6.087   1.788  12.377 -1.3012  0.1555 -2.3236
16824TIP3    H271888   6.021   1.914  12.426 -0.2083  0.1173 -0.6623
16825TIP3   OH271889   3.502   6.089  12.743  0.5781 -0.7114 -0.2978
16825TIP3    H171890   3.575   6.124  12.692  0.8289  0.0002  0.5328
16825TIP3    H271891   3.529   6.100  12.834 -0.7078 -0.1129  0.0332
16826TIP3   OH271892   4.769   4.316   1.630  0.1457  0.1723  0.0017
16826TIP3    H171893   4.823   4.238   1.622  0.0253  0.1275 -0.4013
16826TIP3    H271894   4.813   4.370   1.695  0.3972 -0.0932  0.0507
16827TIP3   OH271895   5.475   1.889  16.045  0.0237 -0.1152  0.2771
16827TIP3    H171896   5.454   1.802  16.011  0.3764  0.5269 -1.7311
16827TIP3    H271897   5.390   1.933  16.054 -0.0619 -0.2090 -0.0581
16828TIP3   OH271898   3.245   0.795   4.520  0.1933 -0.1608 -0.0095
16828TIP3    H171899   3.202   0.768   4.440  1.1605 -1.3447 -0.1631
16828TIP3    H271900   3.177   0.839   4.571 -1.4510 -2.6648  0.1268
16829TIP3   OH271901   4.892   2.244   0.564  0.2436 -0.0170 -0.3677
16829TIP3    H171902   4.821   2.299   0.596  0.3981  0.4627 -0.8261
16829TIP3    H271903   4.860   2.209   0.481 -0.5265 -2.0066  0.7044
16830TIP3   OH271904   4.633   5.547  14.277 -0.2001  0.2664 -0.1737
16830TIP3    H171905   4.628   5.451  14.283 -0.0662  0.3328  1.5278
16830TIP3    H271906   4.580   5.569  14.200 -0.9706 -1.1142 -0.0793
16831TIP3   OH271907   6.727   3.403   3.113 -0.1159  0.2158  0.7693
16831TIP3    H171908   6.766   3.319   3.134  1.0463  0.0407 -1.6933
16831TIP3    H271909   6.665   3.384   3.042  0.9815  1.5273 -0.6124
16832TIP3   OH271910   6.182   2.846   3.203 -0.2204  0.6443  0.1278
16832TIP3    H171911   6.135   2.798   3.272 -0.2793  1.5397  0.7200
16832TIP3    H271912   6.125   2.837   3.126  0.0112 -0.6577  0.0777
16833TIP3   OH271913   2.641   5.636  14.018  0.2437  0.1322 -0.5615
16833TIP3    H171914   2.607   5.578  14.086  3.0577 -0.8584  0.1351
16833TIP3    H271915   2.721   5.593  13.988  0.1371  1.5529 -3.1120
16834TIP3   OH271916   0.656   0.856   3.942 -0.0754 -0.3719  0.2298
16834TIP3    H171917   0.707   0.908   4.004 -1.5212  0.2158  0.9723
16834TIP3    H271918   0.584   0.913   3.916  0.4536 -0.6031 -2.0260
16835TIP3   OH271919   2.043   6.332  14.541 -0.0315  0.3353 -0.1881
16835TIP3    H171920   2.075   6.344  14.451  1.6993 -0.3428  0.3001
16835TIP3    H271921   2.069   6.243  14.564  0.4206  0.8199  1.3078
16836TIP3   OH271922   2.492   0.783  12.301  0.1678  0.3226  0.2686
16836TIP3    H171923   2.400   0.792  12.277 -0.0997 -0.9291  0.7335
16836TIP3    H271924   2.537   0.762  12.219 -0.1411 -0.1420  0.2135
16837TIP3   OH271925   0.563   4.370   4.256 -0.4787 -0.5532  0.2914
16837TIP3    H171926   0.656   4.368   4.235  0.1138 -0.7817  2.6910
16837TIP3    H271927   0.542   4.464   4.263 -1.1767 -0.3519 -2.8951
16838TIP3   OH271928   1.610   1.944  17.022  0.2705 -0.1438  0.3808
16838TIP3    H171929   1.525   1.950  16.978 -0.2974 -0.3463  1.4139
16838TIP3    H271930   1.673   1.931  16.951 -0.4357  0.9749 -0.4869
16839TIP3   OH271931   3.442   2.237  14.772 -0.4783  0.1733 -0.4221
16839TIP3    H171932   3.515   2.277  14.726  1.8416 -3.0179  0.1389
16839TIP3    H271933   3.439   2.280  14.857 -0.2566  1.3400 -0.9971
16840TIP3   OH271934   2.966   4.312   4.121  0.0225 -0.5416  0.1698
16840TIP3    H171935   2.947   4.246   4.054 -1.4021  1.4353 -1.5210
16840TIP3    H271936   2.896   4.304   4.185  0.0593 -0.8961  0.1650
16841TIP3   OH271937   2.222   0.767  14.768  0.0865 -0.4677  0.0519
16841TIP3    H171938   2.274   0.724  14.836  0.0720  1.4720  1.3626
16841TIP3    H271939   2.280   0.773  14.692 -0.1282 -3.3264 -0.4476
16842TIP3   OH271940   2.526   6.695   2.525  0.0877  0.6912  0.0579
16842TIP3    H171941   2.434   6.718   2.524  0.2325  1.4273 -2.5212
16842TIP3    H271942   2.568   6.759   2.467  2.0714 -0.2082  0.4083
16843TIP3   OH271943   4.969   0.878  12.906 -0.4051 -0.0809  0.4148
16843TIP3    H171944   4.985   0.865  12.812 -1.6927  1.9244 -0.1635
16843TIP3    H271945   5.036   0.940  12.934 -2.0305  2.0299 -0.0865
16844TIP3   OH271946   2.375   5.169  11.758 -0.2875  0.2445 -0.0097
16844TIP3    H171947   2.389   5.177  11.853 -1.7158  0.8194  0.1938
16844TIP3    H271948   2.322   5.090  11.748  2.7873 -1.9141 -0.7458
16845TIP3   OH271949   2.359   6.558   5.578  0.3843 -0.0647 -1.0643
16845TIP3    H171950   2.426   6.614   5.538  0.4419  0.7128  0.0577
16845TIP3    H271951   2.292   6.620   5.609  0.1516 -0.6564 -0.3492
16846TIP3   OH271952   5.675   0.490   3.384  0.1774 -0.2997  0.0244
16846TIP3    H171953   5.613   0.562   3.380  1.9710  1.4893  1.8431
16846TIP3    H271954   5.733   0.512   3.457  1.0707 -3.4146  0.4026
16847TIP3   OH271955   0.810   3.812   2.845 -0.4393  0.1273  0.2985
16847TIP3    H171956   0.773   3.812   2.757  0.1330 -0.0720  0.0545
16847TIP3    H271957   0.904   3.825   2.832 -0.3497  0.1012  0.8807
16848TIP3   OH271958   3.505   4.445  16.631 -0.3797  0.1435 -0.3869
16848TIP3    H171959   3.521   4.467  16.722  1.8749  1.0490 -0.9424
16848TIP3    H271960   3.477   4.527  16.591 -1.1557 -0.2017 -0.5823
16849TIP3   OH271961   2.288   0.528  14.303  0.3958 -0.3817  0.0244
16849TIP3    H171962   2.223   0.593  14.332  1.8109  0.0095  2.6162
16849TIP3    H271963   2.235   0.457  14.266 -1.2947  1.3768 -1.1350
16850TIP3   OH271964   6.753   4.225  16.966 -0.0183  0.3045 -0.1504
16850TIP3    H171965   6.704   4.144  16.954 -1.8892  1.3215  0.3219
16850TIP3    H271966   6.818   4.225  16.895 -1.2617 -0.6772 -1.3276
16851TIP3   OH271967   4.056   5.402   2.831 -0.1596 -0.3731 -0.0459
16851TIP3    H171968   3.987   5.383   2.768  0.2718  0.2290 -0.7112
16851TIP3    H271969   4.134   5.358   2.796  0.0105 -0.3032  0.2360
16852TIP3   OH271970   4.530   6.008   5.030  0.2615  0.2017  0.3283
16852TIP3    H171971   4.625   6.012   5.022  0.1733  2.8566 -0.4209
16852TIP3    H271972   4.497   6.057   4.954 -1.6922 -0.1771  0.8594
16853TIP3   OH271973   2.439   3.458   2.838  0.4669 -0.4642  0.0601
16853TIP3    H171974   2.478   3.379   2.802  0.5547  0.1413 -1.2521
16853TIP3    H271975   2.502   3.488   2.904 -0.3891 -2.3850  1.8372
16854TIP3   OH271976   2.614   5.305   4.721 -0.1171 -0.2980  0.1056
16854TIP3    H171977   2.649   5.217   4.729 -0.3347 -0.6279 -2.0505
16854TIP3    H271978   2.524   5.293   4.692 -0.5814  0.6253  1.0930
16855TIP3   OH271979   5.029   6.431   1.641 -0.1761 -0.0290 -0.3722
16855TIP3    H171980   5.044   6.367   1.572 -0.5738  0.6701 -1.1228
16855TIP3    H271981   5.026   6.379   1.722  2.6034 -0.6272 -0.5525
16856TIP3   OH271982   1.736   4.550  12.287 -0.4719 -0.1927  0.6679
16856TIP3    H171983   1.737   4.630  12.339  2.4669 -0.4336  1.1576
16856TIP3    H271984   1.656   4.557  12.234 -0.9014  2.4919  1.4977
16857TIP3   OH271985   6.198   6.614   3.895  0.5040 -0.3936 -0.5402
16857TIP3    H171986   6.230   6.636   3.982  1.6885 -1.3270 -0.7082
16857TIP3    H271987   6.160   6.695   3.862  2.2978  0.6617 -0.1286
16858TIP3   OH271988   6.672   3.538   1.301  0.4160 -0.4154 -0.2227
16858TIP3    H171989   6.764   3.561   1.288  0.0481  0.8474 -0.7065
16858TIP3    H271990   6.624   3.595   1.241 -1.0320  2.2056  3.1602
16859TIP3   OH271991   3.778   2.451   0.339  0.0175  0.0697  0.3425
16859TIP3    H171992   3.719   2.376   0.336  0.3485 -0.1631 -1.4083
16859TIP3    H271993   3.786   2.471   0.432 -1.8938 -0.6058  0.7013
16860TIP3   OH271994   1.132   4.818  10.733  0.2653 -0.0923  0.2939
16860TIP3    H171995   1.183   4.853  10.660  1.7042 -0.9435  0.8549
16860TIP3    H271996   1.083   4.745  10.694 -1.6225  1.5095 -0.5390
16861TIP3   OH271997   2.093   4.808  11.193 -0.5120  0.4003 -1.1744
16861TIP3    H171998   2.186   4.833  11.188  0.0258 -1.2359  0.0739
16861TIP3    H271999   2.094   4.715  11.213 -2.4509  0.4371 -0.7667
16862TIP3   OH272000   4.646   2.113  16.575 -0.0834 -0.5177 -0.2528
16862TIP3    H172001   4.623   2.206  16.567 -0.9518 -0.5019  1.7156
16862TIP3    H272002   4.565   2.072  16.603  1.1638 -1.2087  2.6837
16863TIP3   OH272003   1.599   6.572  16.689 -0.0836  0.2004 -0.0917
16863TIP3    H172004   1.505   6.559  16.680 -0.0081 -2.5896  1.8236
16863TIP3    H272005   1.611   6.598  16.781  1.0992 -1.3044  0.2238
16864TIP3   OH272006   0.576   3.236   3.051 -0.4302 -0.0162 -0.2928
16864TIP3    H172007   0.513   3.290   3.100  1.0286 -0.3344  2.0871
16864TIP3    H272008   0.556   3.146   3.076  0.1223 -0.2208 -0.5562
16865TIP3   OH272009   1.500   5.473   4.460  0.3908  0.3253  0.1919
16865TIP3    H172010   1.577   5.528   4.471  1.0326 -0.9528  2.7912
16865TIP3    H272011   1.535   5.387   4.439 -0.4283  0.0618 -0.1437
16866TIP3   OH272012   6.400   1.178  12.819 -0.0175  0.5150 -0.5211
16866TIP3    H172013   6.455   1.226  12.757  1.4106 -1.3871 -0.7768
16866TIP3    H272014   6.461   1.131  12.875 -1.3437  0.3818  0.8821
16867TIP3   OH272015   6.353   1.987  16.733 -0.2599  0.2761  0.2653
16867TIP3    H172016   6.446   1.983  16.757 -0.5276  1.5088  1.6655
16867TIP3    H272017   6.307   1.988  16.817 -1.4290  1.4862 -0.3583
16868TIP3   OH272018   1.672   6.156  10.841  0.1154 -0.1149 -0.0163
16868TIP3    H172019   1.762   6.156  10.807  0.3698 -0.2300  0.6433
16868TIP3    H272020   1.677   6.104  10.922 -0.7637 -1.0353 -0.5352
16869TIP3   OH272021   4.219   3.610   4.744  0.6478 -0.5174 -0.2482
16869TIP3    H172022   4.254   3.521   4.733  0.5456 -0.5856 -0.0160
16869TIP3    H272023   4.153   3.617   4.675 -0.8646 -1.3837  1.0632
16870TIP3   OH272024   5.392   0.907  15.897 -1.1944 -0.0055  0.0878
16870TIP3    H172025   5.415   0.847  15.968 -2.4961 -1.0241 -0.3250
16870TIP3    H272026   5.449   0.983  15.911 -0.2295 -0.8996  1.2090
16871TIP3   OH272027   1.466   4.268   4.083 -0.5076  0.7265 -0.0727
16871TIP3    H172028   1.402   4.238   4.147 -1.3184  0.1764 -1.0928
16871TIP3    H272029   1.507   4.187   4.050  1.4428  1.1091  1.2441
16872TIP3   OH272030   5.356   2.660   4.737  0.3560  0.2435 -0.2690
16872TIP3    H172031   5.304   2.611   4.801  2.4210 -0.7360  0.7580
16872TIP3    H272032   5.375   2.743   4.781  2.2489 -0.6495  0.7144
16873TIP3   OH272033   4.226   5.355  10.466  0.1466 -0.1388  0.1472
16873TIP3    H172034   4.146   5.407  10.458  0.6478  0.5911 -0.2333
16873TIP3    H272035   4.293   5.407  10.421  0.2850 -1.9680 -1.9762
16874TIP3   OH272036   4.684   1.524  16.517  0.2565 -0.5438 -0.1977
16874TIP3    H172037   4.602   1.525  16.467 -0.4585  1.1916  0.9130
16874TIP3    H272038   4.751   1.551  16.454 -0.2742 -0.4797 -0.7436
16875TIP3   OH272039   1.282   1.677  13.978  0.0679 -0.1169  0.4410
16875TIP3    H172040   1.370   1.698  13.948  0.8094 -1.2296  1.7576
16875TIP3    H272041   1.278   1.708  14.068 -0.1376 -1.9412  1.1091
16876TIP3   OH272042   4.482   3.131   4.656 -0.0717  0.0640  0.1975
16876TIP3    H172043   4.480   3.053   4.599  0.8329 -0.3396  0.6912
16876TIP3    H272044   4.574   3.138   4.682  0.3154  2.5296 -1.4959
16877TIP3   OH272045   6.377   5.151  14.172  0.1545  0.4544 -0.0631
16877TIP3    H172046   6.450   5.204  14.204 -0.5213 -0.4283  3.3488
16877TIP3    H272047   6.405   5.060  14.185 -0.3507  0.0148 -1.7706
16878TIP3   OH272048   2.276   0.044   6.200 -0.0542 -0.3836  0.2124
16878TIP3    H172049   2.309   0.036   6.111  1.3523  0.8177  0.5896
16878TIP3    H272050   2.273  -0.047   6.232 -1.4652 -0.9320 -1.3061
16879TIP3   OH272051   5.500   0.138   3.743  0.2159  0.0877 -0.8720
16879TIP3    H172052   5.539   0.184   3.668  2.6823 -0.2575  0.1202
16879TIP3    H272053   5.518   0.195   3.818  0.8209 -1.1625 -0.0403
16880TIP3   OH272054   2.148   1.195   4.861 -0.0098 -0.0623  0.3314
16880TIP3    H172055   2.147   1.182   4.766 -0.6119 -0.9477  0.4435
16880TIP3    H272056   2.057   1.185   4.887  0.2636 -0.5939  1.1000
16881TIP3   OH272057   3.550   1.142  16.749  0.0666 -0.5502 -0.2408
16881TIP3    H172058   3.533   1.048  16.748  0.2397 -0.5979 -2.4808
16881TIP3    H272059   3.627   1.154  16.694  1.3090  0.7407  1.6358
16882TIP3   OH272060   3.309   2.680  14.117  0.2179 -0.6058 -0.4717
16882TIP3    H172061   3.216   2.660  14.109  0.0798 -0.3981  0.5242
16882TIP3    H272062   3.352   2.594  14.123 -0.0368 -0.6880  0.2868
16883TIP3   OH272063   3.845   5.094  12.183 -0.5387 -0.2318 -0.6112
16883TIP3    H172064   3.905   5.020  12.182  0.0613  0.2488 -0.9838
16883TIP3    H272065   3.786   5.076  12.256  0.0170 -0.7499 -0.2782
16884TIP3   OH272066   2.997   2.450  15.117  0.2515 -0.8571 -0.2747
16884TIP3    H172067   2.953   2.372  15.083 -0.7422 -1.2709  1.8086
16884TIP3    H272068   2.933   2.520  15.108 -0.0005 -0.9607  0.6545
16885TIP3   OH272069   1.542   3.096   1.586 -1.0189  0.5713  0.9128
16885TIP3    H172070   1.498   3.065   1.666  1.6390 -1.1555  1.8155
16885TIP3    H272071   1.584   3.019   1.550 -0.0831  1.8189 -0.8019
16886TIP3   OH272072   5.173   4.786   5.713  0.3151 -0.3521  0.5773
16886TIP3    H172073   5.238   4.824   5.653 -0.0208  0.7453  0.8755
16886TIP3    H272074   5.219   4.779   5.796  0.0161  0.6178  0.8407
16887TIP3   OH272075   1.055   6.387  10.915  0.6088 -0.0606  0.7199
16887TIP3    H172076   1.128   6.325  10.915  0.7876  0.1506  0.1868
16887TIP3    H272077   1.067   6.438  10.836  0.4537  0.6519  1.1488
16888TIP3   OH272078   2.324   2.998  11.798 -0.2682  0.4304  0.5078
16888TIP3    H172079   2.268   3.006  11.721  0.2334  0.3098  0.1230
16888TIP3    H272080   2.407   2.965  11.764 -0.1650  0.0008  1.1576
16889TIP3   OH272081   3.556   0.936  12.389  0.2061 -0.1723 -0.3862
16889TIP3    H172082   3.540   0.990  12.466 -2.5055 -0.0253 -0.9506
16889TIP3    H272083   3.506   0.856  12.404  1.7254 -1.2675 -0.9032
16890TIP3   OH272084   4.568   2.824   0.443  0.3915 -0.4112  0.0494
16890TIP3    H172085   4.513   2.779   0.379 -0.2789 -0.1578  0.4366
16890TIP3    H272086   4.631   2.758   0.472  1.2556 -0.3051 -1.4717
16891TIP3   OH272087   6.642   3.578  12.896  0.3846  0.2998  0.0462
16891TIP3    H172088   6.736   3.578  12.919  0.2729 -0.3293  0.5409
16891TIP3    H272089   6.640   3.561  12.802  0.7472 -0.4978  0.1743
16892TIP3   OH272090   0.496   4.915  16.397  0.3084 -0.0072  0.7732
16892TIP3    H172091   0.430   4.855  16.433 -0.3489 -0.2713 -0.8040
16892TIP3    H272092   0.549   4.940  16.473 -1.0153 -0.5312  1.9206
16893TIP3   OH272093   0.447   6.563   2.242  0.6548 -0.3028  0.1803
16893TIP3    H172094   0.379   6.506   2.276  1.2968 -0.9396  0.4267
16893TIP3    H272095   0.415   6.652   2.258 -0.4544 -0.5859 -0.4128
16894TIP3   OH272096   3.727   6.053   5.777 -0.5641 -0.0315 -0.8609
16894TIP3    H172097   3.823   6.055   5.775 -0.5145 -1.5124 -0.7734
16894TIP3    H272098   3.705   6.023   5.865 -1.2285  2.8994  0.1087
16895TIP3   OH272099   5.521   2.100  13.613 -0.2432  0.0393 -0.0857
16895TIP3    H172100   5.602   2.095  13.563 -0.0320  1.1821  0.1136
16895TIP3    H272101   5.454   2.123  13.549 -0.0554  1.0314  0.0574
16896TIP3   OH272102   6.603   4.421   5.565  0.1897 -0.7594 -0.2436
16896TIP3    H172103   6.594   4.375   5.649 -0.5657  0.6772  0.4925
16896TIP3    H272104   6.518   4.463   5.552  0.6795 -0.0348 -1.1679
16897TIP3   OH272105   4.511   1.545  15.701  0.1602 -0.0191  0.1625
16897TIP3    H172106   4.588   1.583  15.743  0.3512 -3.0848  2.9607
16897TIP3    H272107   4.440   1.604  15.726  1.2769  2.0605 -1.2529
16898TIP3   OH272108   0.609   1.992  15.910 -0.2574  0.0248 -0.2308
16898TIP3    H172109   0.527   2.041  15.921 -1.1192 -0.9184 -2.0054
16898TIP3    H272110   0.639   2.015  15.822  0.0365 -1.5630 -0.5675
16899TIP3   OH272111   1.148   2.578   0.581 -0.0467  0.2065  0.0044
16899TIP3    H172112   1.117   2.522   0.652  0.1713  0.2573  0.1402
16899TIP3    H272113   1.071   2.591   0.526 -0.1802  0.0442  0.1500
16900TIP3   OH272114   6.206   1.760   4.501  0.3905 -0.3287 -0.6974
16900TIP3    H172115   6.151   1.792   4.572  1.6583 -0.2975  0.3161
16900TIP3    H272116   6.289   1.806   4.512  1.1757 -1.5619 -1.1863
16901TIP3   OH272117   3.079   4.633  15.032 -0.0494  0.1212 -0.2281
16901TIP3    H172118   3.021   4.642  14.956  1.1868  0.7385 -1.1483
16901TIP3    H272119   3.160   4.597  14.995  0.0931 -0.9311  1.0515
16902TIP3   OH272120   3.296   6.643  13.127  0.4720  0.4612  0.2515
16902TIP3    H172121   3.382   6.679  13.102 -0.3669  2.5916  0.2133
16902TIP3    H272122   3.236   6.678  13.062 -0.9536  1.9599  2.2390
16903TIP3   OH272123   6.598   4.989  16.485  0.0720 -0.6992 -0.2119
16903TIP3    H172124   6.526   5.051  16.478  2.8117  2.8647  0.3658
16903TIP3    H272125   6.615   4.961  16.395 -0.2907  0.6244 -0.7088
16904TIP3   OH272126   1.035   1.794  11.523  0.1160 -0.0765 -0.0346
16904TIP3    H172127   1.105   1.786  11.459 -0.0471  1.4559 -0.4610
16904TIP3    H272128   0.964   1.740  11.488  1.0274 -1.5906  0.3710
16905TIP3   OH272129   0.144   0.419   0.182  0.4120  0.1590  0.4164
16905TIP3    H172130   0.083   0.352   0.153  0.9570  0.2065 -0.9168
16905TIP3    H272131   0.108   0.450   0.265  0.7373 -2.5270  1.6580
16906TIP3   OH272132   6.532   2.048  15.053 -0.1490 -0.0719 -0.0916
16906TIP3    H172133   6.622   2.072  15.033  1.2653 -2.4203  2.7490
16906TIP3    H272134   6.508   2.105  15.126 -0.8618  0.1912 -0.5106
16907TIP3   OH272135   4.797   0.278  14.477  0.2102 -0.4073  0.0934
16907TIP3    H172136   4.777   0.289  14.384  2.0344 -1.0742 -0.4232
16907TIP3    H272137   4.853   0.201  14.481  0.2987 -0.3002  1.7387
16908TIP3   OH272138   4.433   2.456   5.497 -0.2395 -0.1213 -0.5263
16908TIP3    H172139   4.410   2.439   5.589 -0.2702  1.5572 -0.1992
16908TIP3    H272140   4.424   2.371   5.454 -4.0025 -0.2628  0.2336
16909TIP3   OH272141   1.940   5.180  12.522  0.2645  0.6440  0.2306
16909TIP3    H172142   1.878   5.119  12.484  1.4640 -0.5282  0.0732
16909TIP3    H272143   1.892   5.223  12.593 -0.1797 -1.6328  1.3880
16910TIP3   OH272144   3.551   1.758   0.144 -0.0969 -0.1536 -0.0260
16910TIP3    H172145   3.555   1.671   0.103 -0.5465 -0.0881 -0.2201
16910TIP3    H272146   3.459   1.782   0.139  0.2920  1.1489 -1.6652
16911TIP3   OH272147   0.168   5.847   5.335  0.3941  0.2360  0.0957
16911TIP3    H172148   0.201   5.895   5.411 -0.3149 -1.0625  1.2876
16911TIP3    H272149   0.081   5.817   5.363 -0.0720  0.1276 -1.4191
16912TIP3   OH272150   5.296   3.583   5.853 -0.6423 -0.6137  0.4078
16912TIP3    H172151   5.302   3.670   5.892  2.2918 -1.7678  2.9264
16912TIP3    H272152   5.224   3.541   5.900  0.1713 -0.6113  1.7048
16913TIP3   OH272153   4.180   0.358   4.687 -0.4250  0.2209 -0.3780
16913TIP3    H172154   4.115   0.301   4.726 -0.4709  0.5247  0.0003
16913TIP3    H272155   4.262   0.336   4.732 -0.5575  0.8549  0.1947
16914TIP3   OH272156   0.827   2.243   1.785 -0.6427 -0.1091  0.6540
16914TIP3    H172157   0.797   2.183   1.853 -0.5962  0.0549  0.8210
16914TIP3    H272158   0.920   2.221   1.774 -0.0735  1.2912  2.1837
16915TIP3   OH272159   6.716   0.407  10.633  0.2843 -0.6009 -0.1974
16915TIP3    H172160   6.643   0.387  10.692  1.2984 -1.2086  0.9216
16915TIP3    H272161   6.701   0.352  10.556 -1.5613  0.8859 -0.9681
16916TIP3   OH272162   3.059   0.884  16.957  0.1214  0.0435  0.7472
16916TIP3    H172163   2.995   0.833  17.007  0.3885 -1.3233 -0.2201
16916TIP3    H272164   3.085   0.955  17.015  0.9475 -1.8650  2.8331
16917TIP3   OH272165   6.404   0.827   3.801 -0.3276  0.1041  0.5009
16917TIP3    H172166   6.474   0.763   3.804 -2.6798 -2.7868 -0.7101
16917TIP3    H272167   6.437   0.896   3.744  1.3979 -1.3347 -0.3337
16918TIP3   OH272168   5.981   4.356  15.946 -0.3210 -0.3542 -0.0388
16918TIP3    H172169   6.052   4.417  15.966 -1.0464  0.3538  0.4428
16918TIP3    H272170   6.016   4.300  15.876  1.1367 -0.8383  1.0391
16919TIP3   OH272171   4.104   5.286   0.118  0.3237  0.3491  0.8103
16919TIP3    H172172   4.019   5.325   0.139  0.0892  0.1693  0.2169
16919TIP3    H272173   4.167   5.355   0.136 -0.0460  0.8469  0.2479
16920TIP3   OH272174   6.068   4.843   0.948 -0.5778  0.5540  0.3385
16920TIP3    H172175   6.135   4.901   0.984 -1.0399  0.7323  0.9339
16920TIP3    H272176   6.091   4.756   0.979 -0.6494  0.6241  0.5910
16921TIP3   OH272177   6.615   5.300   1.859 -0.1335  0.0803  0.1416
16921TIP3    H172178   6.700   5.282   1.820  0.5510  1.3869  0.9821
16921TIP3    H272179   6.569   5.216   1.854  1.2759 -0.7139 -0.1209
16922TIP3   OH272180   4.875   1.919  14.953 -0.0667  0.4109  0.1046
16922TIP3    H172181   4.842   1.883  15.035 -0.9830 -0.5108 -0.6317
16922TIP3    H272182   4.828   2.002  14.942  2.5920  2.3835  2.1805
16923TIP3   OH272183   4.620   2.786   1.431 -0.1033 -0.0803 -0.0186
16923TIP3    H172184   4.699   2.759   1.478 -1.2034 -1.4472  1.1317
16923TIP3    H272185   4.598   2.710   1.377 -0.1570  0.6253 -1.0117
16924TIP3   OH272186   3.597   3.820  17.112 -0.2519 -0.0710 -0.0625
16924TIP3    H172187   3.501   3.819  17.107 -0.3487  1.5635  0.7631
16924TIP3    H272188   3.621   3.728  17.123 -1.7843 -0.4500  0.4863
16925TIP3   OH272189   1.093   0.701  10.851 -0.3252  0.8957 -0.4064
16925TIP3    H172190   1.113   0.768  10.786  0.9634  4.0688  2.8790
16925TIP3    H272191   1.162   0.636  10.841  1.3816  2.6635 -0.5888
16926TIP3   OH272192   6.097   5.554  10.395  0.0695 -0.0175 -0.2185
16926TIP3    H172193   6.118   5.502  10.472  0.1174 -2.0506 -1.5533
16926TIP3    H272194   6.134   5.641  10.414  2.3192 -1.1644  0.9808
16927TIP3   OH272195   1.930   0.057   5.910  0.2189  0.5641 -0.0073
16927TIP3    H172196   1.926   0.088   6.000  0.4796  0.2600  0.1091
16927TIP3    H272197   1.984   0.122   5.864 -0.4931  1.0928 -0.1011
16928TIP3   OH272198   1.539   0.317  15.475  0.6216 -0.1616 -0.1853
16928TIP3    H172199   1.607   0.253  15.454  0.7281 -0.8070  1.8286
16928TIP3    H272200   1.473   0.306  15.406  1.6075 -0.9633 -1.0296
16929TIP3   OH272201   1.608   5.621   4.061  0.1829  0.6693 -0.1193
16929TIP3    H172202   1.536   5.684   4.064  0.6069  1.1370  0.5447
16929TIP3    H272203   1.652   5.639   3.978 -0.1810  0.7055 -0.3055
16930TIP3   OH272204   0.396   4.306   5.241 -0.5666 -0.1414 -0.1425
16930TIP3    H172205   0.340   4.309   5.164  0.4011 -1.2251 -0.9229
16930TIP3    H272206   0.405   4.213   5.261  1.5161 -0.0686 -0.4929
16931TIP3   OH272207   4.233   2.048  15.383 -0.8930 -0.1775  0.1494
16931TIP3    H172208   4.203   1.957  15.390 -0.0260 -0.4477  0.4047
16931TIP3    H272209   4.160   2.093  15.341 -1.4678 -0.9225  0.3217
16932TIP3   OH272210   3.061   3.953  16.771 -0.4362  0.6062  0.2894
16932TIP3    H172211   2.972   3.976  16.796 -0.9528  0.3762 -1.2377
16932TIP3    H272212   3.064   3.966  16.676  0.9018 -0.1939  0.1873
16933TIP3   OH272213   1.942   4.188   1.304  0.1776  0.1580  0.1911
16933TIP3    H172214   2.004   4.196   1.232 -2.1786 -2.2438 -2.3706
16933TIP3    H272215   1.941   4.274   1.345  2.0597  1.5008 -2.3186
16934TIP3   OH272216   1.708   3.661   5.963  0.0393  0.2818  0.0158
16934TIP3    H172217   1.647   3.675   6.035 -1.0194 -1.7808 -0.4001
16934TIP3    H272218   1.789   3.634   6.005 -0.6057 -1.0165  0.4637
16935TIP3   OH272219   1.775   3.944   1.143  0.6315  0.5819  0.2708
16935TIP3    H172220   1.789   3.853   1.168  2.1683  0.5954 -0.4181
16935TIP3    H272221   1.681   3.956   1.147  0.5105 -0.5354  2.1069
16936TIP3   OH272222   3.790   2.428  16.807 -0.1792 -0.7657  0.4795
16936TIP3    H172223   3.784   2.523  16.791 -0.1010 -1.0289 -1.2986
16936TIP3    H272224   3.859   2.420  16.874  1.9822  0.2972 -1.4572
16937TIP3   OH272225   3.136   4.127  13.763 -0.3447 -0.0342 -0.5259
16937TIP3    H172226   3.132   4.200  13.826 -2.0098  0.7492 -1.4815
16937TIP3    H272227   3.051   4.083  13.771  0.2547 -1.2615 -0.6938
16938TIP3   OH272228   1.715   2.317  13.861 -0.1380 -0.1032  0.0825
16938TIP3    H172229   1.789   2.341  13.916 -0.6809  0.7668  0.4528
16938TIP3    H272230   1.725   2.223  13.847 -1.0063 -0.7588  3.2245
16939TIP3   OH272231   1.470   3.435  14.270  0.6034  0.0224 -0.2580
16939TIP3    H172232   1.565   3.434  14.261  0.4880 -2.2162 -2.0457
16939TIP3    H272233   1.439   3.484  14.194  0.3058  1.1219  0.5475
16940TIP3   OH272234   3.707   1.309   3.422  0.1575  0.5430  0.2625
16940TIP3    H172235   3.784   1.253   3.415 -0.5353 -0.3876  0.0026
16940TIP3    H272236   3.649   1.264   3.483 -0.3190  1.0804  0.2216
16941TIP3   OH272237   2.216   6.088   4.384  0.4150 -0.2844 -0.5047
16941TIP3    H172238   2.240   6.132   4.303  1.1093 -0.4824 -0.4084
16941TIP3    H272239   2.223   5.994   4.364  0.7712 -0.3310 -0.1609
16942TIP3   OH272240   4.157   2.353   3.490 -0.1071  0.1166 -0.1577
16942TIP3    H172241   4.189   2.270   3.454 -1.2187 -0.3246 -0.1663
16942TIP3    H272242   4.105   2.327   3.566 -1.5322  0.6884 -0.8967
16943TIP3   OH272243   3.002   1.293   6.019  0.3662 -0.0138  0.3773
16943TIP3    H172244   3.097   1.297   6.033  0.4263  0.7602 -0.1404
16943TIP3    H272245   2.971   1.225   6.079  1.5081 -1.7144 -0.8711
16944TIP3   OH272246   5.950   5.680  16.800 -0.8014  0.1786  0.0796
16944TIP3    H172247   5.877   5.699  16.858 -1.0073 -2.2993  0.7591
16944TIP3    H272248   6.019   5.648  16.858  0.2618  0.9766 -0.7148
16945TIP3   OH272249   0.787   0.195   5.051  0.2953 -0.1225 -0.4086
16945TIP3    H172250   0.712   0.253   5.067 -0.7520 -1.1314 -1.4363
16945TIP3    H272251   0.822   0.177   5.138 -1.4916 -0.6794  0.2479
16946TIP3   OH272252   1.976   5.340  11.535  0.4272  0.3771 -0.6338
16946TIP3    H172253   2.000   5.402  11.603 -1.8595  1.4802 -0.7542
16946TIP3    H272254   2.040   5.269  11.544  0.3292  0.5497  2.5146
16947TIP3   OH272255   4.913   2.927   2.407  0.0713  0.1505 -0.2080
16947TIP3    H172256   4.826   2.964   2.419 -1.4246 -1.8187 -3.5117
16947TIP3    H272257   4.968   3.001   2.382 -0.8639  1.2552  0.8871
16948TIP3   OH272258   6.223   0.998  16.952 -0.5870 -0.0889 -0.1450
16948TIP3    H172259   6.197   0.938  17.023 -0.7145 -1.0545 -0.9922
16948TIP3    H272260   6.199   1.085  16.985 -1.8886 -0.6444  0.4498
16949TIP3   OH272261   2.683   3.081   3.568  0.0911 -0.3927  0.3225
16949TIP3    H172262   2.681   2.994   3.530 -2.4613 -0.3248  0.1156
16949TIP3    H272263   2.706   3.139   3.496  0.2183 -0.7406  0.0844
16950TIP3   OH272264   4.659   2.165  13.456 -0.0515 -0.4454 -0.5415
16950TIP3    H172265   4.690   2.190  13.543 -1.6830 -0.0012 -0.0692
16950TIP3    H272266   4.655   2.069  13.459 -0.7459 -0.4018  0.1119
16951TIP3   OH272267   3.387   0.167  13.604  0.5362  0.1456  0.0874
16951TIP3    H172268   3.346   0.121  13.677 -1.6896  1.2848 -0.3466
16951TIP3    H272269   3.401   0.256  13.636 -0.5123  0.6738 -0.8306
16952TIP3   OH272270   3.878   5.906  12.177  0.4119  0.0102  0.3197
16952TIP3    H172271   3.866   5.821  12.217 -0.2936  0.8961  2.0806
16952TIP3    H272272   3.972   5.924  12.186  0.3753 -0.1113  0.9491
16953TIP3   OH272273   2.685   6.269  11.446  0.4106  0.1892 -0.4460
16953TIP3    H172274   2.687   6.209  11.371 -0.5304  0.0496 -0.3739
16953TIP3    H272275   2.622   6.337  11.419 -0.6237 -0.3402  0.5664
16954TIP3   OH272276   0.253   6.186  13.419 -0.1671 -0.2752 -0.0126
16954TIP3    H172277   0.207   6.270  13.424 -2.2019 -1.3518  0.6154
16954TIP3    H272278   0.332   6.199  13.472 -0.1286  1.4054 -0.4295
16955TIP3   OH272279   4.819   0.249  16.002  0.7100 -0.0135 -0.2286
16955TIP3    H172280   4.827   0.222  15.910  1.2171 -0.3657 -0.0851
16955TIP3    H272281   4.741   0.304  16.004 -0.9488 -2.2205 -0.3794
16956TIP3   OH272282   0.006   4.563   0.504  0.1066  0.6327 -0.3014
16956TIP3    H172283  -0.058   4.562   0.575 -0.5642  0.1688 -0.9011
16956TIP3    H272284  -0.000   4.651   0.467 -1.3309  0.1235 -1.3588
16957TIP3   OH272285   0.412   5.253  12.325  0.0602 -0.5211  0.2045
16957TIP3    H172286   0.470   5.211  12.388  1.6389 -0.0952 -0.9100
16957TIP3    H272287   0.333   5.274  12.375  0.6726 -1.5217  1.6518
16958TIP3   OH272288   4.256   5.702  16.256 -0.1516 -0.1416 -0.0046
16958TIP3    H172289   4.199   5.750  16.195  0.5834  0.7480 -0.0313
16958TIP3    H272290   4.345   5.733  16.233  0.3136 -1.2857  0.2116
16959TIP3   OH272291   5.926   1.983   4.204  0.6260 -0.0667 -0.3377
16959TIP3    H172292   5.855   2.029   4.160 -0.4981 -1.3419  0.0881
16959TIP3    H272293   5.988   2.053   4.228 -0.3017  1.0267 -1.0162
16960TIP3   OH272294   4.366   0.697   2.447  0.0753  0.2197 -0.2535
16960TIP3    H172295   4.367   0.792   2.435 -0.3659  0.4708  1.3841
16960TIP3    H272296   4.375   0.686   2.542  0.2507 -1.3818 -0.4428
16961TIP3   OH272297   0.639   3.899   2.295  0.5867 -0.0258 -0.7563
16961TIP3    H172298   0.679   3.864   2.374  0.1823  1.5284  0.1740
16961TIP3    H272299   0.547   3.911   2.318  0.6015  1.0909 -1.2168
16962TIP3   OH272300   2.492   4.210  15.182 -0.8491 -0.5803 -0.4638
16962TIP3    H172301   2.527   4.275  15.120 -0.3059 -1.9944 -1.6997
16962TIP3    H272302   2.476   4.260  15.262  0.4719  0.8897 -1.0548
16963TIP3   OH272303   1.533   6.360  13.110  0.4109  0.4442  0.1239
16963TIP3    H172304   1.456   6.390  13.061 -1.7563  1.1242  3.6142
16963TIP3    H272305   1.506   6.278  13.151  2.3232 -0.3957 -0.1712
16964TIP3   OH272306   3.425   1.967  15.264  0.2247  0.6808  0.1253
16964TIP3    H172307   3.490   1.897  15.262 -1.5451 -1.0630 -0.1860
16964TIP3    H272308   3.374   1.950  15.343 -0.4672  1.4135 -0.1482
16965TIP3   OH272309   1.166   6.664   5.979  0.1316 -0.4811 -0.5295
16965TIP3    H172310   1.144   6.580   5.940 -1.9076 -0.5186  0.6166
16965TIP3    H272311   1.141   6.656   6.071 -1.7194  1.9089 -0.7447
16966TIP3   OH272312   3.672   0.346   3.982  0.4408 -0.6330 -0.3143
16966TIP3    H172313   3.582   0.344   3.950 -0.7243  2.3350  2.2861
16966TIP3    H272314   3.722   0.390   3.914 -0.1515 -1.6951 -1.4788
16967TIP3   OH272315   5.755   0.479  13.322  0.2313  1.2128  0.6240
16967TIP3    H172316   5.690   0.547  13.341 -0.6304  0.6130 -0.0614
16967TIP3    H272317   5.717   0.399  13.358  0.7285  0.9025  0.4660
16968TIP3   OH272318   4.733   3.396  14.439 -0.2155 -0.1014  0.1782
16968TIP3    H172319   4.724   3.489  14.418  2.4772  0.1588 -0.1270
16968TIP3    H272320   4.711   3.351  14.358 -1.3782  0.2469  0.2801
16969TIP3   OH272321   3.600   3.151  12.946 -0.2525 -0.0155  0.0372
16969TIP3    H172322   3.544   3.192  13.013  1.0130  1.3913  0.2986
16969TIP3    H272323   3.618   3.221  12.884  2.7189  0.2102  0.9668
16970TIP3   OH272324   3.329   2.968  15.280  0.3824 -0.0799 -0.4587
16970TIP3    H172325   3.247   2.953  15.327  1.1894 -0.4095  0.9036
16970TIP3    H272326   3.312   2.938  15.191 -0.9715 -0.1427 -0.1964
16971TIP3   OH272327   5.767   6.040   2.730  0.7453 -0.1315  0.1503
16971TIP3    H172328   5.691   6.037   2.673  1.7496 -0.0530 -1.2535
16971TIP3    H272329   5.820   6.113   2.696  1.2045  0.1551  1.4140
16972TIP3   OH272330   0.388   5.674  17.061 -0.2289  0.0081  0.1768
16972TIP3    H172331   0.414   5.649  17.150  0.6482  1.2039  0.2894
16972TIP3    H272332   0.304   5.631  17.047  0.3270 -1.4155  1.0181
16973TIP3   OH272333   6.591   4.089   6.497  0.5003 -0.4782  0.9291
16973TIP3    H172334   6.572   4.068   6.405  2.2003  0.2611  0.3747
16973TIP3    H272335   6.575   4.007   6.543  1.9329 -1.5891 -0.4164
16974TIP3   OH272336   4.516   4.229  13.143 -0.1194 -0.0568  0.0486
16974TIP3    H172337   4.519   4.141  13.182 -1.3645 -0.7609 -1.3569
16974TIP3    H272338   4.423   4.244  13.127  0.3111  0.2360 -2.5009
16975TIP3   OH272339   5.491   2.174  14.036 -0.3134 -0.2377 -0.9622
16975TIP3    H172340   5.564   2.219  13.995  0.7240 -0.9944 -0.0199
16975TIP3    H272341   5.413   2.214  13.998  0.5156 -1.5163 -4.4204
16976TIP3   OH272342   6.129   6.018  11.454 -0.2774  0.0184  0.5439
16976TIP3    H172343   6.148   5.961  11.379 -0.9079  1.4419 -0.7506
16976TIP3    H272344   6.214   6.050  11.482 -0.0474 -0.4276  0.3695
16977TIP3   OH272345   1.009   6.463   1.151  0.0293  0.3423 -0.2352
16977TIP3    H172346   0.952   6.386   1.153  0.7995 -0.2455 -0.4303
16977TIP3    H272347   0.980   6.512   1.074  0.6446 -0.6460 -1.1383
16978TIP3   OH272348   4.298   4.305  11.330 -0.5375  0.8637  0.4177
16978TIP3    H172349   4.207   4.286  11.351 -0.1474 -0.1669  1.2770
16978TIP3    H272350   4.321   4.241  11.262 -0.0485  0.1061  1.2663
16979TIP3   OH272351   4.875   1.799  13.739 -0.2354 -0.3920 -0.9450
16979TIP3    H172352   4.894   1.724  13.795 -1.3178 -0.7328 -0.9969
16979TIP3    H272353   4.948   1.860  13.753 -1.0999  0.1366  1.8794
16980TIP3   OH272354   0.153   5.693  13.196 -0.3284  0.3339 -0.2096
16980TIP3    H172355   0.158   5.772  13.249  1.0090 -0.4158  0.8606
16980TIP3    H272356   0.175   5.722  13.108  0.4504  1.1213  0.2216
16981TIP3   OH272357   0.529   4.513   1.195  0.4407 -0.5344 -0.2067
16981TIP3    H172358   0.452   4.569   1.182 -0.8214 -1.8540  1.1262
16981TIP3    H272359   0.585   4.531   1.120 -0.1886  2.0124 -0.1446
16982TIP3   OH272360   2.254   0.128  12.472  0.5934  0.4101 -0.0266
16982TIP3    H172361   2.297   0.055  12.516  0.7755  0.8225  0.4821
16982TIP3    H272362   2.177   0.146  12.525 -1.1186 -1.3031 -1.7233
16983TIP3   OH272363   5.687   3.371   0.548 -0.0005  0.0592 -0.3483
16983TIP3    H172364   5.776   3.393   0.520 -0.2159  2.9786  0.9159
16983TIP3    H272365   5.634   3.448   0.526 -1.9816 -1.1157  0.0279
16984TIP3   OH272366   2.286   0.910  16.182 -0.0756 -0.2582 -0.8007
16984TIP3    H172367   2.239   0.978  16.230 -2.5916 -1.0609 -1.9774
16984TIP3    H272368   2.325   0.854  16.250  1.6784  2.0035  0.1859
16985TIP3   OH272369   5.176   6.578  11.251 -0.4757 -0.2231  0.7581
16985TIP3    H172370   5.204   6.487  11.241 -2.0602 -0.7982  1.2225
16985TIP3    H272371   5.161   6.608  11.161 -1.9602 -1.1185  0.6727
16986TIP3   OH272372   1.162   0.439   2.057  0.6287  0.7865  0.2362
16986TIP3    H172373   1.146   0.435   2.151  0.2448  1.0238  0.1838
16986TIP3    H272374   1.075   0.440   2.018  0.6184 -3.4782 -0.3451
16987TIP3   OH272375   0.333   1.618  11.847 -0.1176 -0.4792 -0.0076
16987TIP3    H172376   0.280   1.593  11.771 -0.9378 -1.4363  0.8390
16987TIP3    H272377   0.269   1.654  11.909  0.7152  1.5624 -0.2401
16988TIP3   OH272378   2.490   2.492  15.005 -0.1656  0.3496  0.2730
16988TIP3    H172379   2.428   2.420  14.991 -0.0915  0.3455 -0.0416
16988TIP3    H272380   2.486   2.509  15.099 -0.5801  0.2928  0.2675
16989TIP3   OH272381   0.694   5.781  15.388 -0.6272  0.1776 -0.1976
16989TIP3    H172382   0.692   5.799  15.294  0.3464 -2.0322 -0.7101
16989TIP3    H272383   0.628   5.839  15.425 -0.2053  1.9570 -2.0663
16990TIP3   OH272384   5.675   5.511   0.338  0.8183 -0.0064  0.1629
16990TIP3    H172385   5.647   5.602   0.345  1.0537  0.0831 -0.0751
16990TIP3    H272386   5.599   5.466   0.299  0.1981 -0.1660  1.5031
16991TIP3   OH272387   0.997   1.083  15.122  0.4351 -0.5129 -0.1033
16991TIP3    H172388   0.951   1.047  15.046  1.7315 -2.4996 -0.0177
16991TIP3    H272389   0.967   1.030  15.196 -0.0070  0.7130  0.6424
16992TIP3   OH272390   6.660   3.104  14.988 -0.2798 -0.5403  0.4056
16992TIP3    H172391   6.629   3.037  14.928  0.5450 -0.2369 -0.3876
16992TIP3    H272392   6.743   3.070  15.021 -0.2018 -0.2278  0.5397
16993TIP3   OH272393   6.772   5.031   4.787  0.0050  0.3582  0.0972
16993TIP3    H172394   6.783   5.094   4.716 -2.1107  0.4871 -0.1586
16993TIP3    H272395   6.800   5.078   4.866 -1.6542  1.7060 -0.0674
16994TIP3   OH272396   6.661   1.789  15.569 -0.0331  0.1459  0.2671
16994TIP3    H172397   6.676   1.802  15.663  1.5760 -1.0786  0.2389
16994TIP3    H272398   6.653   1.877  15.533 -1.1280  0.6145  1.6062
16995TIP3   OH272399   5.473   3.396  11.470  0.3188 -0.4322 -0.3750
16995TIP3    H172400   5.456   3.391  11.564 -2.2623 -0.8356 -0.7829
16995TIP3    H272401   5.452   3.308  11.437 -0.3683  0.1369 -1.5195
16996TIP3   OH272402   1.971   3.248   4.873 -0.0199  0.3817 -0.0467
16996TIP3    H172403   2.027   3.294   4.935 -0.4010 -1.1116  1.4688
16996TIP3    H272404   2.030   3.225   4.801  1.5232 -1.5331  1.6964
16997TIP3   OH272405   3.925   0.012   1.603  0.2102 -0.1934  0.5571
16997TIP3    H172406   3.879   0.054   1.530 -0.3600 -1.0590  0.4017
16997TIP3    H272407   3.972  -0.061   1.563 -1.1346 -1.4746  1.1964
16998TIP3   OH272408   1.619   0.863   1.167  0.3896 -0.4577  0.0749
16998TIP3    H172409   1.684   0.802   1.201  0.4272  0.0421  0.9287
16998TIP3    H272410   1.560   0.879   1.240 -0.0916 -0.1043 -0.3802
16999TIP3   OH272411   3.193   3.989   0.251 -0.2486 -0.4035 -0.4097
16999TIP3    H172412   3.234   4.044   0.318 -0.4584 -0.8050  0.0539
16999TIP3    H272413   3.151   3.918   0.300  0.0865 -1.0270 -1.0017
17000TIP3   OH272414   2.660   0.384   5.378 -0.0322  0.5371  0.4157
17000TIP3    H172415   2.700   0.313   5.328 -1.3495  1.4460 -2.0568
17000TIP3    H272416   2.724   0.401   5.448  1.7955 -0.9490 -0.7668
17001TIP3   OH272417   5.196   0.294   2.990  0.3632  0.1004  0.6048
17001TIP3    H172418   5.283   0.295   2.950  0.1555  0.3334  0.1476
17001TIP3    H272419   5.208   0.337   3.075  0.4530  1.2707  0.0201
17002TIP3   OH272420   2.482   3.470  16.692 -0.2945  0.2867  0.1434
17002TIP3    H172421   2.425   3.417  16.747 -0.3465 -1.4048 -1.4638
17002TIP3    H272422   2.459   3.446  16.602  5.0015 -3.1605 -0.7644
17003TIP3   OH272423   2.738   5.109   2.673 -0.3633 -0.2501 -0.3698
17003TIP3    H172424   2.654   5.127   2.715 -0.9446 -0.8745 -1.2493
17003TIP3    H272425   2.803   5.148   2.733 -1.0579 -2.1057  1.7225
17004TIP3   OH272426   5.245   6.743   3.762  0.3019  0.1909 -0.5051
17004TIP3    H172427   5.218   6.745   3.670 -1.3465  0.2007 -0.0604
17004TIP3    H272428   5.325   6.796   3.764  0.7749 -0.3900 -2.0319
17005TIP3   OH272429   6.096   4.145   3.810  0.0320 -0.0851 -0.3552
17005TIP3    H172430   6.008   4.178   3.830 -0.1686 -1.6524  1.6875
17005TIP3    H272431   6.147   4.223   3.791 -0.8339  1.3103  2.4844
17006TIP3   OH272432   1.197   5.827  15.831 -0.5817  0.6759  0.7646
17006TIP3    H172433   1.141   5.836  15.908  2.2718  0.8857  2.9783
17006TIP3    H272434   1.264   5.764  15.858 -2.3925 -3.6572 -3.4819
17007TIP3   OH272435   3.252   2.960   6.158  0.1411 -0.3908 -0.4306
17007TIP3    H172436   3.266   2.895   6.227  0.0408  0.3962  0.3483
17007TIP3    H272437   3.324   2.946   6.097  1.0194 -0.2129  0.5416
17008TIP3   OH272438   0.908   5.172   1.086  0.1284 -0.1848  0.5293
17008TIP3    H172439   0.939   5.236   1.151 -0.7549  0.2704  0.5199
17008TIP3    H272440   0.900   5.090   1.135 -0.4745  0.1423  0.9837
17009TIP3   OH272441   4.581   0.102  11.618  0.2955  0.2478 -0.6612
17009TIP3    H172442   4.630   0.086  11.698  0.8180  1.7558 -0.6518
17009TIP3    H272443   4.489   0.086  11.642  0.2880  2.0018  0.6321
17010TIP3   OH272444   1.892   2.804   0.138 -0.6966 -0.3633 -0.9427
17010TIP3    H172445   1.895   2.730   0.199 -2.1960  0.2829 -0.0519
17010TIP3    H272446   1.803   2.803   0.103 -0.0635 -0.3063 -2.6545
17011TIP3   OH272447   6.738   2.011   1.408  0.1073  0.0758 -0.4018
17011TIP3    H172448   6.816   2.067   1.410 -0.0681  0.4009 -1.5164
17011TIP3    H272449   6.743   1.959   1.488  1.1931  0.4612 -0.1997
17012TIP3   OH272450   4.993   0.012   2.342 -0.1839 -0.1337  0.5582
17012TIP3    H172451   5.047  -0.040   2.401  1.2798  1.2119  0.4989
17012TIP3    H272452   4.942   0.069   2.400  0.8473  0.8044  0.5751
17013TIP3   OH272453   4.742   4.470  13.590  0.6460 -0.2583 -0.0913
17013TIP3    H172454   4.838   4.465  13.588  0.6060 -1.1916 -0.5556
17013TIP3    H272455   4.714   4.380  13.575 -0.3162 -0.4725  2.4981
17014TIP3   OH272456   3.800   0.351  13.244  0.3139 -0.0686 -0.0726
17014TIP3    H172457   3.765   0.397  13.321 -1.5899  0.8461 -1.3939
17014TIP3    H272458   3.800   0.417  13.175 -1.9972 -1.8004 -1.9036
17015TIP3   OH272459   3.600   6.341   1.546 -0.5931  0.1963  0.2461
17015TIP3    H172460   3.565   6.349   1.457 -1.0962  1.1659  0.5193
17015TIP3    H272461   3.577   6.252   1.573  0.1216 -0.3330 -0.8207
17016TIP3   OH272462   2.889   4.975  11.952  0.5042 -0.8139  0.1688
17016TIP3    H172463   2.841   5.018  12.022 -0.8304 -1.5772 -0.2542
17016TIP3    H272464   2.826   4.915  11.912  1.0875 -0.0932 -1.9747
17017TIP3   OH272465   6.222   0.873  11.995  0.1037 -0.3748 -0.0047
17017TIP3    H172466   6.200   0.904  12.083  2.5773 -0.4464  0.7277
17017TIP3    H272467   6.161   0.918  11.937  1.3260  3.3497  1.3277
17018TIP3   OH272468   2.357   3.986   0.355 -0.0816  0.1990 -0.4688
17018TIP3    H172469   2.301   3.992   0.433  0.5369  0.6777 -0.0587
17018TIP3    H272470   2.432   3.933   0.384  0.0353  0.1815 -0.8083
17019TIP3   OH272471   5.547   4.815  14.632 -0.2748  0.0351  0.0883
17019TIP3    H172472   5.586   4.893  14.593 -0.6843  0.2772  0.1529
17019TIP3    H272473   5.616   4.778  14.687  0.4538 -0.5516 -1.1852
17020TIP3   OH272474   2.543   0.442   4.002  0.1616  0.2183  0.3228
17020TIP3    H172475   2.604   0.412   3.935 -0.4460  2.0407 -1.1177
17020TIP3    H272476   2.599   0.471   4.074  0.9228  0.2475 -0.2661
17021TIP3   OH272477   2.595   5.369  11.555 -0.5555  0.2925 -0.4893
17021TIP3    H172478   2.593   5.304  11.626 -1.2215  1.6152  0.7659
17021TIP3    H272479   2.503   5.383  11.534 -0.5153  1.7745  0.2015
17022TIP3   OH272480   5.463   4.136  11.641  0.6136 -0.0434 -0.1177
17022TIP3    H172481   5.498   4.218  11.676 -0.3844  0.3693 -0.0555
17022TIP3    H272482   5.432   4.089  11.718 -0.5173  0.3508 -0.3235
17023TIP3   OH272483   6.496   1.342  11.679 -0.6898 -0.0882  0.1003
17023TIP3    H172484   6.558   1.302  11.740  1.2220 -0.3878 -1.9533
17023TIP3    H272485   6.549   1.396  11.621 -2.5723  1.0435 -0.6568
17024TIP3   OH272486   3.355   6.585   3.988 -0.1898  0.4994 -0.2500
17024TIP3    H172487   3.385   6.519   3.926 -0.2983  0.9138 -0.7474
17024TIP3    H272488   3.411   6.661   3.971 -0.0162  0.5156  0.3699
17025TIP3   OH272489   0.538   4.563   5.401  0.1727  0.3605  0.4716
17025TIP3    H172490   0.599   4.597   5.335  1.1831 -1.9630  0.0823
17025TIP3    H272491   0.499   4.485   5.359 -2.3939  1.2174  1.0733
17026TIP3   OH272492   2.755   0.570   6.684 -0.1080  0.0776  0.5346
17026TIP3    H172493   2.821   0.518   6.730  0.9172  1.3045  0.4890
17026TIP3    H272494   2.778   0.560   6.591 -0.1802  0.2428  0.4987
17027TIP3   OH272495   0.402   5.208  13.300 -0.1101 -0.2487 -0.2951
17027TIP3    H172496   0.402   5.164  13.215  1.1418  1.0711 -1.0225
17027TIP3    H272497   0.317   5.251  13.305  0.1147  0.3422 -1.2692
17028TIP3   OH272498   1.598   5.975   5.900 -0.5022 -0.5257 -0.0097
17028TIP3    H172499   1.509   5.962   5.932 -0.1576 -0.9784  0.8016
17028TIP3    H272500   1.649   5.996   5.979  0.6544 -3.1279  0.0534
17029TIP3   OH272501   5.158   0.393  15.502  0.4451  0.1262 -0.3535
17029TIP3    H172502   5.109   0.473  15.516  0.5910  0.2565 -0.5819
17029TIP3    H272503   5.250   0.419  15.510  0.6426  0.5917 -3.3283
17030TIP3   OH272504   5.797   4.081   0.628  0.0795 -0.2302  0.3030
17030TIP3    H172505   5.880   4.129   0.632  0.5052 -0.3347 -3.7152
17030TIP3    H272506   5.822   3.991   0.607 -1.0218 -0.5276  0.2158
17031TIP3   OH272507   6.545   4.083  13.023 -0.1358  0.3519 -0.1451
17031TIP3    H172508   6.617   4.120  12.973  1.1200 -1.4293  0.2368
17031TIP3    H272509   6.467   4.099  12.969  0.6186  1.7737 -0.8502
17032TIP3   OH272510   5.541   4.255  14.062  0.2604  0.3991 -0.4203
17032TIP3    H172511   5.597   4.207  14.122  1.1693 -0.0000 -1.5667
17032TIP3    H272512   5.598   4.321  14.023 -0.5245  1.2041 -0.2406
17033TIP3   OH272513   2.154   4.170  11.315 -0.6095 -0.4603  0.1838
17033TIP3    H172514   2.172   4.084  11.351 -0.8330 -0.5450  0.0954
17033TIP3    H272515   2.148   4.228  11.392  0.6853 -0.2995  0.1833
17034TIP3   OH272516   4.051   6.121  15.137  0.2024 -0.0852  0.5238
17034TIP3    H172517   3.957   6.119  15.118 -0.1647  2.3774  1.6257
17034TIP3    H272518   4.059   6.075  15.221 -0.2083  0.5308  0.9158
17035TIP3   OH272519   0.315   6.115   2.719  0.2326 -0.4676 -0.5168
17035TIP3    H172520   0.238   6.078   2.763 -0.4847 -0.2040 -1.5146
17035TIP3    H272521   0.364   6.038   2.688 -0.0082 -0.6238 -0.5151
17036TIP3   OH272522   5.203   3.623   1.355 -0.4456 -0.1999  1.0900
17036TIP3    H172523   5.284   3.603   1.403  0.9124  1.0563 -0.5425
17036TIP3    H272524   5.221   3.707   1.313 -2.5820  0.0354  0.5605
17037TIP3   OH272525   3.975   1.666   3.554 -0.3759 -0.0817  0.1149
17037TIP3    H172526   4.007   1.742   3.602 -1.4492  0.3397  0.1901
17037TIP3    H272527   4.009   1.679   3.465  1.0800 -0.5391  0.5707
17038TIP3   OH272528   1.929   4.380   2.900 -0.0533  0.0652  0.8118
17038TIP3    H172529   1.944   4.294   2.940 -1.2664 -0.0606  1.0388
17038TIP3    H272530   1.922   4.361   2.806  0.0399 -0.0301  0.8233
17039TIP3   OH272531   4.631   4.371   2.756 -1.0371  0.6415 -0.1172
17039TIP3    H172532   4.698   4.343   2.694  1.2916  2.7118  1.2436
17039TIP3    H272533   4.604   4.291   2.801  2.1942 -0.0769  0.7587
17040TIP3   OH272534   4.018   4.802  16.722 -0.0278  0.0704  0.2659
17040TIP3    H172535   4.086   4.862  16.693 -0.3281  1.2751  1.8724
17040TIP3    H272536   4.055   4.715  16.711  1.8079  0.7017  1.1682
17041TIP3   OH272537   1.871   4.282  14.294 -0.1659 -0.0324 -0.2374
17041TIP3    H172538   1.845   4.322  14.377  2.1483  0.4430  0.3208
17041TIP3    H272539   1.880   4.356  14.234  0.0305 -0.1558 -0.3636
17042TIP3   OH272540   0.743   5.647  13.052 -0.6251 -0.4298  0.5616
17042TIP3    H172541   0.687   5.573  13.074  0.5201 -0.9351  1.8869
17042TIP3    H272542   0.832   5.619  13.075  0.4481 -0.1698 -2.7139
17043TIP3   OH272543   3.138   3.230  10.383 -0.3822 -0.1353 -0.3994
17043TIP3    H172544   3.044   3.236  10.368 -0.6070  0.1563  0.9667
17043TIP3    H272545   3.147   3.170  10.457  0.5662 -0.7511 -0.9831
17044TIP3   OH272546   2.638   4.996   4.561 -0.2145  0.5257 -0.2875
17044TIP3    H172547   2.731   4.979   4.548 -0.1350 -0.4251  1.2220
17044TIP3    H272548   2.620   5.076   4.511  0.9973 -0.2301 -2.0558
17045TIP3   OH272549   2.325   1.162  12.864 -0.4194  0.1292  0.1853
17045TIP3    H172550   2.322   1.069  12.844  1.1473  0.1087 -0.0723
17045TIP3    H272551   2.242   1.197  12.831 -0.4738 -0.9528 -0.8492
17046TIP3   OH272552   0.780   3.182  11.407 -0.4633  0.1942  0.0950
17046TIP3    H172553   0.700   3.136  11.434  0.1373 -0.1661  1.3153
17046TIP3    H272554   0.748   3.261  11.364 -1.4865  1.0660  2.3238
17047TIP3   OH272555   5.592   1.431  13.865 -0.1480  0.5818  0.1687
17047TIP3    H172556   5.572   1.523  13.880 -1.5722  0.3449 -0.1257
17047TIP3    H272557   5.614   1.425  13.772  1.6074  0.8819  0.5436
17048TIP3   OH272558   4.941   1.524   0.710 -0.1504 -0.1535  0.5166
17048TIP3    H172559   5.036   1.517   0.713 -0.1127  0.1610  0.1668
17048TIP3    H272560   4.920   1.597   0.769 -0.1742 -0.2121  0.5809
17049TIP3   OH272561   6.588   5.989   0.839  0.1805 -0.0526  0.3583
17049TIP3    H172562   6.588   5.902   0.798  1.5349  0.0817  0.0272
17049TIP3    H272563   6.652   5.982   0.910  0.2310  0.6498  0.3887
17050TIP3   OH272564   4.979   5.390   5.931  0.0826 -0.0444  0.9618
17050TIP3    H172565   4.893   5.364   5.963 -0.6766  0.9071 -0.2312
17050TIP3    H272566   5.031   5.309   5.934 -0.4601 -0.3862  2.8114
17051TIP3   OH272567   6.636   2.753   5.169  0.3957 -0.3323  0.2534
17051TIP3    H172568   6.719   2.785   5.203  0.6350  1.5692 -1.8873
17051TIP3    H272569   6.574   2.766   5.241  1.6367 -0.4204  1.3734
17052TIP3   OH272570   3.745   5.381   2.205  0.3400  0.0325  0.0964
17052TIP3    H172571   3.716   5.408   2.292 -1.5480  1.5758 -0.9187
17052TIP3    H272572   3.762   5.287   2.214 -2.4860 -0.4618  1.5237
17053TIP3   OH272573   5.126   4.391  12.846  0.3826 -0.3308  0.0140
17053TIP3    H172574   5.095   4.316  12.794  0.4940  0.5083 -1.3194
17053TIP3    H272575   5.074   4.465  12.814  0.9294  0.3366  0.6363
17054TIP3   OH272576   3.521   1.430   3.820  0.3433  0.0918  0.2797
17054TIP3    H172577   3.551   1.354   3.770 -0.7546 -0.0493 -0.1911
17054TIP3    H272578   3.582   1.499   3.797 -0.3312  0.1410 -1.5930
17055TIP3   OH272579   5.156   3.692   4.240  0.2750 -0.1974  0.4819
17055TIP3    H172580   5.126   3.748   4.311  2.0200 -0.0741  1.1594
17055TIP3    H272581   5.218   3.631   4.281 -0.4446 -1.6703 -0.5162
17056TIP3   OH272582   4.412   0.558  13.036 -0.1477 -0.3984  0.4210
17056TIP3    H172583   4.364   0.612  12.973  2.2140 -1.2515 -2.3542
17056TIP3    H272584   4.471   0.619  13.079  0.4833 -0.2702 -0.5918
17057TIP3   OH272585   3.242   1.979   2.477  0.1066 -0.1609 -0.3401
17057TIP3    H172586   3.170   2.040   2.492  1.7361  1.6967  0.4376
17057TIP3    H272587   3.297   1.989   2.555  1.6827 -0.7892 -1.3337
17058TIP3   OH272588   2.469   3.548  15.049 -0.0800  0.2446  0.4351
17058TIP3    H172589   2.553   3.559  15.006 -0.1399  0.3557  0.3458
17058TIP3    H272590   2.482   3.586  15.136 -0.1042  0.4686  0.3420
17059TIP3   OH272591   3.608   4.594   4.350 -0.4049 -0.0097  0.0954
17059TIP3    H172592   3.591   4.519   4.406  0.1932 -0.2657 -0.0633
17059TIP3    H272593   3.671   4.562   4.285 -0.8413  0.3687 -0.5302
17060TIP3   OH272594   4.486   5.396  11.911 -0.1701  0.2019  0.3033
17060TIP3    H172595   4.535   5.315  11.929 -1.1556 -1.3194 -3.0183
17060TIP3    H272596   4.482   5.400  11.815 -2.4866  2.7802  0.4027
17061TIP3   OH272597   6.268   1.639  14.912 -0.6282  0.4855 -0.1450
17061TIP3    H172598   6.180   1.621  14.944 -0.2694 -1.4644 -0.1254
17061TIP3    H272599   6.283   1.731  14.932 -0.5728 -0.3740  4.9686
17062TIP3   OH272600   0.968   5.639   0.792  0.6553  0.2588 -0.1159
17062TIP3    H172601   1.023   5.570   0.754  0.3519  0.8394 -1.7031
17062TIP3    H272602   0.880   5.601   0.794  0.5888  0.3957 -0.4417
17063TIP3   OH272603   1.527   0.704  11.523 -0.2043  0.0190  0.4364
17063TIP3    H172604   1.468   0.760  11.573  0.3121  1.2611 -0.2790
17063TIP3    H272605   1.557   0.760  11.450  2.1184 -0.4136  0.9632
17064TIP3   OH272606   0.787   1.255  13.718 -0.3023 -0.2668 -0.0077
17064TIP3    H172607   0.772   1.161  13.723 -2.5492  0.1060  2.3279
17064TIP3    H272608   0.835   1.277  13.798 -1.6363  0.8062  0.5436
17065TIP3   OH272609   1.063   5.897   5.941  0.3053  0.2112 -0.7690
17065TIP3    H172610   1.054   5.818   5.888 -2.6224 -0.4777  0.5519
17065TIP3    H272611   0.973   5.921   5.963  1.2746  2.0308  1.6231
17066TIP3   OH272612   5.736   3.177  13.640 -0.4560  0.1748 -0.1049
17066TIP3    H172613   5.645   3.180  13.670 -0.5568  0.2316 -0.4122
17066TIP3    H272614   5.736   3.225  13.558 -0.5413 -1.4947 -1.1166
17067TIP3   OH272615   3.954   2.472   1.423 -0.0376 -0.5610 -0.8105
17067TIP3    H172616   3.941   2.566   1.426 -1.3643 -0.7054  3.1942
17067TIP3    H272617   4.043   2.462   1.389  0.4024  2.1627 -0.6876
17068TIP3   OH272618   5.966   0.393   4.891  0.2709 -0.7798  0.1182
17068TIP3    H172619   5.972   0.488   4.887  1.2909 -0.7212  2.0120
17068TIP3    H272620   5.981   0.363   4.801 -1.0661  0.8635 -0.6958
17069TIP3   OH272621   0.911   3.417  15.511 -0.2486 -0.2467  0.3131
17069TIP3    H172622   0.832   3.456  15.549  0.0337 -1.1777  1.9273
17069TIP3    H272623   0.978   3.484  15.522 -0.6282  0.2848 -0.4565
17070TIP3   OH272624   1.827   1.912  15.363 -0.1220 -0.2218  0.1018
17070TIP3    H172625   1.834   1.998  15.404  0.5523 -0.0167 -0.4193
17070TIP3    H272626   1.895   1.860  15.406  0.6659  0.0261 -0.7972
17071TIP3   OH272627   1.965   5.046  12.134 -0.0675  0.3410 -0.1948
17071TIP3    H172628   2.037   5.058  12.196 -0.7968  0.3967  0.6632
17071TIP3    H272629   1.929   5.134  12.122 -0.8082  0.1298  0.4029
17072TIP3   OH272630   3.065   5.077  11.478 -0.1672 -0.1176 -0.0577
17072TIP3    H172631   3.154   5.061  11.444 -0.5454 -3.3979  0.1549
17072TIP3    H272632   3.072   5.058  11.572 -0.8585  0.7823  0.1801
17073TIP3   OH272633   1.967   5.264   0.965 -0.0180  0.5183 -0.3212
17073TIP3    H172634   1.988   5.174   0.942  1.0418  0.5525  0.4405
17073TIP3    H272635   1.883   5.259   1.011 -1.7607  0.3531 -3.2745
17074TIP3   OH272636   3.880   2.676   4.637 -0.3682  0.4063  0.2342
17074TIP3    H172637   3.845   2.638   4.556 -2.0115 -0.5626  1.3442
17074TIP3    H272638   3.943   2.612   4.669 -0.4496  0.3189  0.2214
17075TIP3   OH272639   4.484   3.793  14.692 -0.1145  0.1530 -0.5654
17075TIP3    H172640   4.511   3.851  14.622 -0.5905  1.4869  0.3040
17075TIP3    H272641   4.541   3.717  14.685  2.7678  2.0710  0.1646
17076TIP3   OH272642   3.130   0.935   0.708 -0.0023  0.2973  0.1168
17076TIP3    H172643   3.117   1.023   0.745 -0.1804 -0.0568  0.9100
17076TIP3    H272644   3.226   0.925   0.705  0.0348  0.8315 -0.7462
17077TIP3   OH272645   1.587   5.377   4.161 -0.0739 -0.6369  0.6111
17077TIP3    H172646   1.584   5.467   4.128 -1.0690 -0.4907  1.0705
17077TIP3    H272647   1.673   5.345   4.135  0.5597  0.6717  1.0090
17078TIP3   OH272648   0.629   1.673  15.906  0.1189  0.5352 -0.4253
17078TIP3    H172649   0.563   1.656  15.839 -0.2437  2.2341 -0.5564
17078TIP3    H272650   0.613   1.764  15.932  2.1688  0.8589 -0.1732
17079TIP3   OH272651   0.688   4.746   3.328 -0.1246  0.1513  0.2216
17079TIP3    H172652   0.640   4.771   3.407  1.0897  0.1409  0.9799
17079TIP3    H272653   0.773   4.788   3.337  0.0392  0.1418 -1.0860
17080TIP3   OH272654   3.731   1.250   3.067  0.1703 -0.1610 -0.2008
17080TIP3    H172655   3.710   1.337   3.034  2.3797  0.1161 -1.0485
17080TIP3    H272656   3.658   1.195   3.040  0.0063  0.9076 -2.0361
17081TIP3   OH272657   2.202   0.704  13.912 -0.6943  0.2699  0.4927
17081TIP3    H172658   2.277   0.748  13.952 -0.3993  1.2109 -1.0215
17081TIP3    H272659   2.131   0.769  13.916 -1.5866 -0.7240  2.2147
17082TIP3   OH272660   5.976   2.081  16.911 -0.7493 -0.0334  0.1301
17082TIP3    H172661   6.009   1.993  16.893  0.2555  0.4188 -0.2893
17082TIP3    H272662   5.980   2.088  17.007 -1.8771 -0.8275  0.2541
17083TIP3   OH272663   5.751   2.265  12.431 -0.2195 -0.0608  0.4586
17083TIP3    H172664   5.751   2.361  12.430 -0.2113  0.0987  3.8738
17083TIP3    H272665   5.661   2.241  12.408 -0.8806  0.9085  1.9321
17084TIP3   OH272666   6.237   3.030  15.663  0.1418  0.2306  0.0782
17084TIP3    H172667   6.196   2.952  15.701 -0.2121  0.2985 -0.1594
17084TIP3    H272668   6.276   2.999  15.581  1.5710 -0.0839  0.8450
17085TIP3   OH272669   3.573   0.134  13.430 -0.7200  0.5303  0.5269
17085TIP3    H172670   3.620   0.216  13.419 -0.0208  0.3095  1.7141
17085TIP3    H272671   3.503   0.154  13.491  0.4165 -0.0659  2.1124
17086TIP3   OH272672   3.273   5.366   1.565 -0.5779  0.0091  0.4422
17086TIP3    H172673   3.258   5.448   1.612  0.5672 -0.0024  0.8570
17086TIP3    H272674   3.185   5.332   1.549 -1.0797  1.3230  0.2400
17087TIP3   OH272675   3.429   4.648   2.217 -0.2184  0.4221 -0.3319
17087TIP3    H172676   3.470   4.645   2.303 -0.8790 -0.1361 -0.0303
17087TIP3    H272677   3.462   4.729   2.177  1.9780 -0.5119 -0.5242
17088TIP3   OH272678   1.114   5.240   5.697  0.1983 -0.6948 -0.0191
17088TIP3    H172679   1.125   5.209   5.607  1.4847 -1.8779  0.5027
17088TIP3    H272680   1.131   5.334   5.692 -0.2901 -0.6392 -1.0782
17089TIP3   OH272681   5.679   1.798  13.043 -0.2385 -0.0598 -0.0042
17089TIP3    H172682   5.765   1.839  13.033  0.6800 -1.5962  1.1023
17089TIP3    H272683   5.685   1.716  12.995 -0.8005 -0.5373  0.7080
17090TIP3   OH272684   3.060   5.692   1.107 -0.1184 -0.5494 -0.5908
17090TIP3    H172685   2.986   5.716   1.162 -0.5696 -2.0735 -0.4972
17090TIP3    H272686   3.025   5.627   1.046  0.6251  0.3149 -1.9997
17091TIP3   OH272687   1.400   3.273   2.755  0.3075  0.3794  0.4194
17091TIP3    H172688   1.403   3.327   2.676 -1.4649  0.6071  0.4671
17091TIP3    H272689   1.466   3.311   2.813 -0.7002  2.3714  0.3463
17092TIP3   OH272690   4.597   0.930   2.144  0.0767  0.3785  0.1073
17092TIP3    H172691   4.518   0.878   2.131 -0.7889  1.3701  1.1943
17092TIP3    H272692   4.650   0.913   2.065  0.0034 -2.3535  0.5300
17093TIP3   OH272693   5.885   0.140  12.287  0.3448  0.7989 -0.3610
17093TIP3    H172694   5.797   0.113  12.263  0.7304  0.1252 -1.0594
17093TIP3    H272695   5.937   0.126  12.208  0.9556  1.7914 -0.1569
17094TIP3   OH272696   5.029   1.243   0.447  0.0199 -0.4929  0.0458
17094TIP3    H172697   4.982   1.324   0.430 -1.6691 -1.6176 -0.9669
17094TIP3    H272698   4.963   1.185   0.485  0.4721 -2.2130 -1.6241
17095TIP3   OH272699   2.778   0.548   5.119 -0.2845  0.0862  0.2909
17095TIP3    H172700   2.738   0.477   5.069  1.6997 -0.0572 -1.2522
17095TIP3    H272701   2.849   0.505   5.167 -0.9459  0.5626  1.7279
17096TIP3   OH272702   2.308   1.398   4.986  0.9194 -0.3888 -0.0976
17096TIP3    H172703   2.241   1.337   4.955  0.9017 -1.5208  1.9785
17096TIP3    H272704   2.385   1.380   4.932  0.0096 -0.0682 -1.5537
17097TIP3   OH272705   3.380   3.804  15.302 -0.2581 -0.1668  0.0154
17097TIP3    H172706   3.445   3.828  15.236  0.2539 -0.1421  0.5295
17097TIP3    H272707   3.296   3.807  15.255  0.0305  0.5095 -0.4619
17098TIP3   OH272708   4.717   2.710   1.045  0.8291  0.1532 -0.2806
17098TIP3    H172709   4.752   2.786   1.092 -0.3864 -0.1503  1.1836
17098TIP3    H272710   4.718   2.639   1.110 -2.1656  0.0606 -0.2236
17099TIP3   OH272711   6.795   5.904   1.075  0.0527  0.3142 -0.1118
17099TIP3    H172712   6.781   5.973   1.140  2.1035  0.4486  0.2533
17099TIP3    H272713   6.731   5.837   1.098  0.3296  0.6116  1.7024
17100TIP3   OH272714   6.226   0.911   3.493  0.2907 -0.1440 -0.5534
17100TIP3    H172715   6.183   0.967   3.557  0.7314  0.6415 -0.9380
17100TIP3    H272716   6.164   0.839   3.478  0.0199 -0.1294  0.4572
17101TIP3   OH272717   4.794   0.659  12.915  0.4884  0.5461  0.1574
17101TIP3    H172718   4.869   0.718  12.907  0.3392  0.6709 -0.3536
17101TIP3    H272719   4.755   0.680  13.000  0.6874  0.8812  0.1664
17102TIP3   OH272720   5.857   2.019  14.421  0.5300 -0.2244 -0.1717
17102TIP3    H172721   5.850   2.115  14.414 -1.1205 -0.3617 -1.1780
17102TIP3    H272722   5.772   1.992  14.457  0.5833 -1.3681 -0.8517
17103TIP3   OH272723   3.168   3.739  13.057 -0.3320 -0.1637 -0.4627
17103TIP3    H172724   3.144   3.718  12.966 -1.5776  1.8689 -0.6811
17103TIP3    H272725   3.122   3.822  13.074  0.1017 -0.3717  1.9451
17104TIP3   OH272726   2.390   0.209   3.023 -0.0025 -0.0568  0.7668
17104TIP3    H172727   2.474   0.251   3.004  0.6081 -1.8745 -0.8414
17104TIP3    H272728   2.378   0.145   2.953 -2.1434 -0.7184  1.6477
17105TIP3   OH272729   3.327   1.318   3.411  0.6396  0.4271  0.1326
17105TIP3    H172730   3.311   1.354   3.499 -1.0835  0.8646 -0.3191
17105TIP3    H272731   3.384   1.383   3.369 -1.9416  2.4845 -0.4638
17106TIP3   OH272732   6.283   6.699   2.470  0.3880  0.1314 -0.1415
17106TIP3    H172733   6.292   6.636   2.399  0.2233  0.4049 -0.4106
17106TIP3    H272734   6.306   6.783   2.430  1.7368  0.0941  0.4960
17107TIP3   OH272735   0.177   4.657  13.262 -0.1879  0.0879 -0.1431
17107TIP3    H172736   0.201   4.621  13.177  1.6242 -1.3184  0.8716
17107TIP3    H272737   0.155   4.580  13.315 -0.0845  0.8163  0.9880
17108TIP3   OH272738   6.038   5.425   2.237 -0.6051 -0.0918  0.0118
17108TIP3    H172739   6.089   5.504   2.254  1.2260 -1.3641  0.6485
17108TIP3    H272740   5.999   5.441   2.151 -0.1145  1.4074  0.0299
17109TIP3   OH272741   6.183   4.446   3.367  0.1879 -0.0273 -0.1653
17109TIP3    H172742   6.206   4.499   3.443 -0.1594  0.3455 -0.3176
17109TIP3    H272743   6.191   4.505   3.293  1.8279 -0.7318 -0.5865
17110TIP3   OH272744   1.187   3.326   3.741  0.1084  0.5314 -0.1889
17110TIP3    H172745   1.167   3.251   3.684 -0.2159  0.1604  0.3969
17110TIP3    H272746   1.102   3.348   3.781  0.2415  1.0917 -0.2112
17111TIP3   OH272747   6.091   2.325   4.268 -0.3258  0.1367  1.0701
17111TIP3    H172748   6.146   2.336   4.190 -1.7745 -0.2109 -0.0459
17111TIP3    H272749   6.007   2.364   4.243 -1.0829 -0.7522  2.1504
17112TIP3   OH272750   3.797   3.718  15.881 -0.0619  0.1682  0.1820
17112TIP3    H172751   3.852   3.790  15.850  1.9812 -0.6089  1.7572
17112TIP3    H272752   3.759   3.751  15.962 -1.0839  0.2997 -0.3363
17113TIP3   OH272753   0.130   2.552  14.245 -0.3886  0.0992  0.0559
17113TIP3    H172754   0.184   2.631  14.245 -0.4114  0.1231  0.8043
17113TIP3    H272755   0.175   2.492  14.185 -0.1733  0.5436 -0.2346
17114TIP3   OH272756   1.044   1.597   3.655  0.0802 -0.1801  0.8625
17114TIP3    H172757   1.044   1.552   3.570 -0.6008 -0.1515  0.8389
17114TIP3    H272758   1.109   1.550   3.707  0.9603  0.1947  0.1276
17115TIP3   OH272759   0.773   5.114   1.908 -0.0798 -0.1137  0.6436
17115TIP3    H172760   0.758   5.047   1.975 -0.5144  1.3022  2.0188
17115TIP3    H272761   0.703   5.100   1.844  2.5558 -4.0341 -1.8150
17116TIP3   OH272762   0.082   6.495   3.989 -0.5355  0.7226 -0.0852
17116TIP3    H172763   0.121   6.578   3.962  0.4103 -0.0543 -1.2154
17116TIP3    H272764   0.062   6.450   3.907  0.8283 -1.0066  0.4667
17117TIP3   OH272765   0.288   0.230   2.417 -0.4702 -0.1336  0.0086
17117TIP3    H172766   0.368   0.277   2.438 -0.0136 -0.7020 -0.4401
17117TIP3    H272767   0.254   0.274   2.339 -0.2355 -0.3140 -0.1968
17118TIP3   OH272768   3.006   2.133   1.406  0.0913  0.3194 -0.4736
17118TIP3    H172769   2.991   2.210   1.461 -0.4086  0.7982 -1.2502
17118TIP3    H272770   3.083   2.090   1.444  1.5982  2.2619 -1.1179
17119TIP3   OH272771   4.120   1.180  15.082  0.0900 -0.7263  0.1444
17119TIP3    H172772   4.070   1.108  15.121 -0.0149 -1.0047 -0.5014
17119TIP3    H272773   4.157   1.143  15.002 -0.0563 -0.0320 -0.2518
17120TIP3   OH272774   3.378   5.801  13.553 -0.6140 -0.0949 -0.6954
17120TIP3    H172775   3.410   5.881  13.512 -2.4411  0.9814 -0.1281
17120TIP3    H272776   3.304   5.774  13.498 -2.1574  0.5391  0.9536
17121TIP3   OH272777   1.722   0.464   2.054 -0.0082 -0.4064 -0.1090
17121TIP3    H172778   1.696   0.485   2.143 -0.4687 -1.7985  0.1024
17121TIP3    H272779   1.664   0.393   2.028 -0.6771  0.7435 -1.9508
17122TIP3   OH272780   4.581   1.354  14.816 -1.0309  0.1488 -0.1274
17122TIP3    H172781   4.594   1.319  14.728 -1.4161 -0.3978  0.0314
17122TIP3    H272782   4.617   1.287  14.874 -0.0801  0.8410  0.1113
17123TIP3   OH272783   0.033   1.265   3.585  0.0305  0.2493  0.9466
17123TIP3    H172784  -0.030   1.313   3.639 -0.4161  0.2825  0.4029
17123TIP3    H272785   0.011   1.289   3.495 -0.1002 -0.8371  0.6740
17124TIP3   OH272786   3.012   2.714  15.408 -0.7590  0.0800 -0.1094
17124TIP3    H172787   2.996   2.628  15.446 -0.6951 -0.1230 -0.5396
17124TIP3    H272788   2.925   2.754  15.404 -0.9048 -0.2673 -0.6217
17125TIP3   OH272789   5.474   0.119  14.689 -0.1229 -0.2540 -0.4127
17125TIP3    H172790   5.473   0.031  14.653 -0.5527 -1.0499  1.4163
17125TIP3    H272791   5.533   0.113  14.765 -0.1585  1.0266 -0.2591
17126TIP3   OH272792   3.787   1.371  12.503  0.2424  0.5946  0.1657
17126TIP3    H172793   3.765   1.464  12.498 -0.8741  0.3260 -0.2158
17126TIP3    H272794   3.789   1.341  12.412 -1.0494 -0.1044  0.3445
17127TIP3   OH272795   2.039   2.116   3.733 -0.0471 -0.3243 -0.2425
17127TIP3    H172796   2.093   2.052   3.687 -0.9868 -1.4233  0.1195
17127TIP3    H272797   2.023   2.076   3.819  1.3664  1.5096  0.9583
17128TIP3   OH272798   2.350   3.971  15.190  0.8519  0.4544  0.4336
17128TIP3    H172799   2.289   3.996  15.121  1.1503 -0.4021 -0.1626
17128TIP3    H272800   2.401   4.050  15.207  1.1056  0.5490 -0.6951
17129TIP3   OH272801   2.111   0.543  17.181 -0.2008 -0.0000 -0.3679
17129TIP3    H172802   2.111   0.577  17.270 -0.1040 -0.3794 -0.2192
17129TIP3    H272803   2.142   0.453  17.190  1.0707  0.3557 -0.9384
17130TIP3   OH272804   1.451   6.117  14.221  0.1771  0.4469 -0.0714
17130TIP3    H172805   1.428   6.137  14.312 -1.0452 -1.2298  0.0225
17130TIP3    H272806   1.371   6.082  14.182  1.1279 -0.4710 -1.3037
17131TIP3   OH272807   0.774   3.171   3.715  0.0214  0.2696 -0.6090
17131TIP3    H172808   0.815   3.250   3.751 -0.4619  0.2260  0.0626
17131TIP3    H272809   0.680   3.188   3.721 -0.2028 -1.3560  1.9819
17132TIP3   OH272810   1.809   2.484  15.359  0.3174  0.2419 -0.0256
17132TIP3    H172811   1.802   2.476  15.264 -1.4592 -1.6323  0.1952
17132TIP3    H272812   1.802   2.395  15.391 -0.7243  0.9789  1.9503
17133TIP3   OH272813   6.349   2.427   4.895  0.0713  0.7417 -0.1911
17133TIP3    H172814   6.402   2.423   4.975  1.1294  1.6530 -0.8161
17133TIP3    H272815   6.378   2.352   4.843  1.6204  1.8519 -1.0154
17134TIP3   OH272816   1.459   6.251  11.281 -0.3338 -0.1685 -0.3764
17134TIP3    H172817   1.449   6.333  11.330 -0.5036  1.3477 -2.7826
17134TIP3    H272818   1.385   6.197  11.308 -1.8425  1.6158 -0.7981
17135TIP3   OH272819   4.753   1.035   2.595  0.0601  0.1350 -0.1671
17135TIP3    H172820   4.778   0.987   2.674 -1.3785 -0.5288 -0.0739
17135TIP3    H272821   4.683   0.981   2.556  0.4370  0.6810 -1.6460
17136TIP3   OH272822   5.175   4.243  15.073  0.7361 -0.0874  0.2585
17136TIP3    H172823   5.256   4.293  15.062  0.5041  0.1112 -0.5864
17136TIP3    H272824   5.105   4.306  15.059  0.4046 -1.0774 -3.5602
17137TIP3   OH272825   2.856   3.133  17.024 -0.3307  0.4767  0.6248
17137TIP3    H172826   2.791   3.063  17.022  0.7823 -0.5897 -1.1221
17137TIP3    H272827   2.845   3.178  16.940  0.7217  0.7060  0.6014
17138TIP3   OH272828   3.684   4.461   2.256 -0.2581  0.2576  0.6084
17138TIP3    H172829   3.662   4.408   2.333  1.4304 -1.1994  0.1696
17138TIP3    H272830   3.693   4.550   2.290 -0.2501 -0.2348  1.9613
17139TIP3   OH272831   0.891   1.541  11.758 -0.4426 -0.5856 -0.2175
17139TIP3    H172832   0.894   1.446  11.770 -1.0583 -0.4960  0.7641
17139TIP3    H272833   0.982   1.569  11.764 -0.2896 -1.0817 -0.2071
17140TIP3   OH272834   4.142   1.461   4.008 -0.4832  0.0120 -0.4649
17140TIP3    H172835   4.224   1.426   4.042 -1.5259 -1.1335  0.9438
17140TIP3    H272836   4.081   1.388   4.009 -1.3807  0.6716 -2.1181
17141TIP3   OH272837   5.701   4.017   1.960  0.4978 -0.0596  0.0531
17141TIP3    H172838   5.639   3.962   1.912  0.0498  0.0304  0.5164
17141TIP3    H272839   5.670   4.106   1.948  0.1915 -0.0637  0.7713
17142TIP3   OH272840   4.638   4.872   1.733  1.0266 -0.1548  0.2328
17142TIP3    H172841   4.570   4.920   1.780 -1.4458 -1.3914 -1.8142
17142TIP3    H272842   4.688   4.939   1.687 -1.1457  0.6734 -1.0569
17143TIP3   OH272843   4.789   5.054   3.504 -0.0952 -0.1643 -0.2821
17143TIP3    H172844   4.857   5.096   3.557  1.5256 -0.5050 -1.9732
17143TIP3    H272845   4.707   5.095   3.532  1.1432  2.4201 -0.2410
17144TIP3   OH272846   2.947   5.164   2.506 -0.1736 -0.1458 -0.1205
17144TIP3    H172847   2.962   5.252   2.471 -0.4302 -0.9074 -2.2995
17144TIP3    H272848   2.857   5.166   2.539 -1.1483 -0.2592 -2.5720
17145TIP3   OH272849   4.785   3.632  12.348 -0.5032  0.5080 -0.1621
17145TIP3    H172850   4.828   3.625  12.263  0.6159 -0.3474  0.4433
17145TIP3    H272851   4.691   3.629  12.328 -0.3363 -3.2727 -1.2110
17146TIP3   OH272852   3.649   1.908   5.636 -0.0659  0.3945  0.3151
17146TIP3    H172853   3.735   1.868   5.648  0.1379  0.6237 -0.3400
17146TIP3    H272854   3.598   1.841   5.589 -0.0742  0.4750  0.2103
17147TIP3   OH272855   4.355   4.999   1.422 -0.1138  0.6882  0.0658
17147TIP3    H172856   4.450   4.990   1.431 -0.3622 -1.3208  1.4861
17147TIP3    H272857   4.325   5.024   1.509 -1.0063 -0.1577  0.0202
17148TIP3   OH272858   0.949   0.135  12.088  0.8914 -0.1540  0.4021
17148TIP3    H172859   0.937   0.102  11.999  1.4828 -0.9731  0.6096
17148TIP3    H272860   0.868   0.182  12.108  0.3917 -0.7307 -0.2477
17149TIP3   OH272861   2.427   5.964  16.866 -0.5657 -0.0079  0.2674
17149TIP3    H172862   2.361   6.026  16.899 -0.3245 -0.2628  1.2602
17149TIP3    H272863   2.448   5.909  16.941  0.5083 -0.1774 -0.1403
17150TIP3   OH272864   2.649   1.728  10.990 -0.4143  0.1839  0.2091
17150TIP3    H172865   2.740   1.737  10.961 -0.4244 -0.7030 -0.1550
17150TIP3    H272866   2.598   1.756  10.914 -0.4716  2.3454  0.9989
17151TIP3   OH272867   4.389   6.165  13.509  0.0841 -0.3384  0.0798
17151TIP3    H172868   4.462   6.116  13.471  0.2107 -0.1911  0.1341
17151TIP3    H272869   4.312   6.132  13.462  0.0341 -1.3371  0.8238
17152TIP3   OH272870   6.277   0.396   1.309 -0.1443  0.8936 -0.4551
17152TIP3    H172871   6.226   0.367   1.385 -1.1058  1.8126 -0.7277
17152TIP3    H272872   6.304   0.486   1.331 -0.3701  1.1392 -1.1661
17153TIP3   OH272873   5.043   2.694   3.385 -0.5488 -0.2140  0.3202
17153TIP3    H172874   5.131   2.720   3.356  0.0305 -0.7102  1.5629
17153TIP3    H272875   5.013   2.767   3.438 -0.8678 -0.0709 -0.0564
17154TIP3   OH272876   6.260   6.181   0.139 -1.3315 -0.2883  0.0059
17154TIP3    H172877   6.228   6.116   0.201  0.4039 -1.5381 -0.3456
17154TIP3    H272878   6.280   6.258   0.193  0.8735 -1.6014  1.2346
17155TIP3   OH272879   1.028   5.196   5.991 -0.0300  0.5713 -0.5221
17155TIP3    H172880   1.025   5.212   5.897  0.6570  0.1415 -0.6309
17155TIP3    H272881   0.937   5.201   6.020 -0.4499 -0.7744 -1.4771
17156TIP3   OH272882   3.333   5.068   5.202 -0.3016  0.0174  0.7763
17156TIP3    H172883   3.313   5.085   5.294 -0.1307 -0.2012  0.8538
17156TIP3    H272884   3.257   5.103   5.155 -0.0431  0.8376  0.9394
17157TIP3   OH272885   5.830   0.353  11.867 -0.2002 -0.1996 -0.4047
17157TIP3    H172886   5.813   0.405  11.945 -0.0592  1.1905 -1.2650
17157TIP3    H272887   5.750   0.302  11.855 -1.1283  1.2360 -0.5870
17158TIP3   OH272888   4.117   5.145  14.548  0.5502  0.1442  0.2189
17158TIP3    H172889   4.070   5.066  14.575 -2.7145  2.4108  1.9211
17158TIP3    H272890   4.139   5.189  14.631 -0.9756  2.6726 -0.6205
17159TIP3   OH272891   5.725   1.314   5.720 -0.1876 -0.3386 -0.2241
17159TIP3    H172892   5.718   1.248   5.789 -1.4112 -1.0929 -1.0377
17159TIP3    H272893   5.772   1.270   5.649  2.5150  0.9234  0.6469
17160TIP3   OH272894   5.817   2.306  15.923 -0.2568  0.1132 -0.2599
17160TIP3    H172895   5.913   2.306  15.925 -0.2289 -0.1576 -1.0830
17160TIP3    H272896   5.791   2.297  16.014  0.5017  0.1981 -0.0261
17161TIP3   OH272897   1.539   0.502  10.862 -0.8206  0.2815 -0.1317
17161TIP3    H172898   1.466   0.448  10.832 -1.1461  1.1948 -1.0616
17161TIP3    H272899   1.498   0.572  10.912 -0.5395  0.5209 -0.2326
17162TIP3   OH272900   3.137   2.781   3.359  0.5044  0.4829  0.7156
17162TIP3    H172901   3.160   2.689   3.349 -2.7237 -0.2868 -0.8101
17162TIP3    H272902   3.114   2.790   3.451 -0.5310 -0.6577  0.5963
17163TIP3   OH272903   5.206   5.565  12.398  0.9041  0.2489 -0.2621
17163TIP3    H172904   5.132   5.506  12.411  0.2763  1.4138  1.8356
17163TIP3    H272905   5.168   5.652  12.399  1.9169  0.7910 -2.5095
17164TIP3   OH272906   2.104   0.615   3.530 -0.0719  0.1681 -0.2513
17164TIP3    H172907   2.119   0.542   3.469 -3.1502 -1.0556  0.2877
17164TIP3    H272908   2.009   0.621   3.538  0.1541  1.0938  3.4743
17165TIP3   OH272909   0.350   3.713   5.738  0.2067  0.0326  0.3470
17165TIP3    H172910   0.285   3.778   5.709  1.0786 -0.4184 -2.9617
17165TIP3    H272911   0.427   3.765   5.761 -0.0028  0.3256  0.3921
17166TIP3   OH272912   4.220   6.631   2.061 -0.1170 -0.2045 -0.0222
17166TIP3    H172913   4.160   6.696   2.026 -0.3580  0.3520  1.3565
17166TIP3    H272914   4.176   6.547   2.048 -0.4809  0.0469 -0.4325
17167TIP3   OH272915   4.933   0.795   4.731  0.8844  0.3689  0.3123
17167TIP3    H172916   4.955   0.881   4.695  0.9594 -0.5047 -1.9072
17167TIP3    H272917   5.016   0.746   4.727  0.4871 -0.2892  0.0817
17168TIP3   OH272918   4.720   3.687  14.416  0.3340 -0.2416 -0.3905
17168TIP3    H172919   4.665   3.758  14.448  0.1518 -0.5933  0.0831
17168TIP3    H272920   4.804   3.729  14.398  0.1647  0.1351 -0.3136
17169TIP3   OH272921   3.668   2.984  15.730  0.2503  0.4894 -0.5993
17169TIP3    H172922   3.636   3.035  15.656 -1.3369  1.1507  0.4969
17169TIP3    H272923   3.763   2.988  15.722  0.1325  0.5008 -2.5964
17170TIP3   OH272924   0.975   0.211   3.687  0.1150  0.1597 -0.1515
17170TIP3    H172925   0.887   0.179   3.670 -0.2470  0.5971  0.8514
17170TIP3    H272926   1.031   0.160   3.628 -0.5743 -1.5590  0.6254
17171TIP3   OH272927   2.690   4.120   6.512  0.2044  0.5568 -0.4724
17171TIP3    H172928   2.711   4.040   6.463 -1.0826  0.3929 -0.7888
17171TIP3    H272929   2.768   4.137   6.565 -0.9117 -3.2588  2.8632
17172TIP3   OH272930   6.493   5.713   3.235 -0.2595 -0.5789 -0.1712
17172TIP3    H172931   6.419   5.743   3.288 -0.0399 -0.5492  0.1204
17172TIP3    H272932   6.454   5.688   3.151 -0.6156 -0.6709  0.0213
17173TIP3   OH272933   6.716   0.548   1.244  0.1781  0.7060  0.5274
17173TIP3    H172934   6.788   0.590   1.197  1.1712  0.6661  1.9212
17173TIP3    H272935   6.706   0.463   1.201 -0.2296  1.3927 -0.7883
17174TIP3   OH272936   1.852   3.932  15.425  0.1860 -0.0902 -0.0313
17174TIP3    H172937   1.881   4.010  15.378 -0.6179 -0.2502 -0.8108
17174TIP3    H272938   1.933   3.894  15.459  0.6086  0.9611  0.1852
17175TIP3   OH272939   3.213   6.147   3.361 -0.7680 -0.0002  0.0994
17175TIP3    H172940   3.235   6.148   3.268 -1.3803  1.9348 -0.0719
17175TIP3    H272941   3.175   6.060   3.375  0.7955 -0.9365 -1.0551
17176TIP3   OH272942   4.472   6.406  16.891  0.3375 -0.1929 -0.3081
17176TIP3    H172943   4.566   6.420  16.902 -0.0342  2.3883  0.4948
17176TIP3    H272944   4.445   6.476  16.831 -1.0234 -1.0376 -0.7082
17177TIP3   OH272945   1.637   5.179   4.782  0.2353  0.2942 -0.4707
17177TIP3    H172946   1.676   5.120   4.847 -2.2218 -1.5461 -0.5101
17177TIP3    H272947   1.665   5.144   4.698  0.0661  0.1461 -0.4660
17178TIP3   OH272948   4.828   1.126  11.504 -0.0560 -0.1315  0.1392
17178TIP3    H172949   4.846   1.034  11.486 -1.7960 -0.4265 -0.2475
17178TIP3    H272950   4.906   1.157  11.550  1.5054 -1.2072 -1.6264
17179TIP3   OH272951   4.263   3.236  12.498 -0.0960  0.2042  0.2480
17179TIP3    H172952   4.246   3.180  12.574  1.1152  2.3751  2.2417
17179TIP3    H272953   4.176   3.255  12.463 -0.5679 -2.7196 -0.4820
17180TIP3   OH272954   3.949   5.050  15.313  0.2215  0.5146 -0.3992
17180TIP3    H172955   3.944   5.099  15.395  0.0107  1.4437 -0.9498
17180TIP3    H272956   3.878   4.986  15.318  0.3338  0.4375  0.2236
17181TIP3   OH272957   6.326   2.360  15.814 -0.0934 -0.1104 -0.7487
17181TIP3    H172958   6.404   2.339  15.763  1.4813  1.2705  0.9351
17181TIP3    H272959   6.275   2.279  15.815  1.2550 -1.0176 -1.9968
17182TIP3   OH272960   1.207   4.646  12.682  0.1973  0.2274  0.4231
17182TIP3    H172961   1.290   4.598  12.694 -0.7551 -2.0310 -1.3697
17182TIP3    H272962   1.145   4.599  12.738 -0.7049 -0.6193 -1.2085
17183TIP3   OH272963   0.667   4.054   1.297 -0.0258 -0.3515  0.3040
17183TIP3    H172964   0.624   4.116   1.238  1.3917  0.6992  0.3223
17183TIP3    H272965   0.651   4.091   1.385  1.3017  0.3483  0.2793
17184TIP3   OH272966   5.090   4.996  16.049 -0.1960  0.2668 -0.3164
17184TIP3    H172967   5.055   4.908  16.062 -1.0879  0.5631 -0.6258
17184TIP3    H272968   5.127   4.994  15.961  1.9197 -0.4661  0.5310
17185TIP3   OH272969   1.671   2.762  12.384 -0.2850 -0.5446  0.4614
17185TIP3    H172970   1.755   2.784  12.345 -0.3750  0.1151  0.6330
17185TIP3    H272971   1.641   2.843  12.425 -0.7867 -0.8947  0.8032
17186TIP3   OH272972   5.087   5.461  13.779 -0.6800 -0.6783 -0.3205
17186TIP3    H172973   5.031   5.427  13.709 -0.0431 -1.1698 -0.5943
17186TIP3    H272974   5.139   5.386  13.808  0.3806 -0.0613 -0.5834
17187TIP3   OH272975   4.545   4.778  12.809 -0.3595  0.7395  0.3424
17187TIP3    H172976   4.589   4.725  12.876 -1.8671  0.6461  1.2995
17187TIP3    H272977   4.504   4.714  12.751  1.8408  0.7790 -1.3967
17188TIP3   OH272978   2.730   3.812  11.999  0.2443 -0.1962  0.6357
17188TIP3    H172979   2.749   3.851  11.913 -1.5499  0.9131  0.7082
17188TIP3    H272980   2.771   3.871  12.062 -0.7205  0.4759  0.6484
17189TIP3   OH272981   3.049   1.921  14.187  0.2360  0.4838 -0.1713
17189TIP3    H172982   3.085   2.008  14.199  0.5058  0.2953  0.4148
17189TIP3    H272983   2.990   1.908  14.261 -0.4352  0.4793 -0.6957
17190TIP3   OH272984   3.514   5.350   3.723  0.5766 -0.3797 -0.0565
17190TIP3    H172985   3.450   5.308   3.780  1.9415  0.3084  2.0922
17190TIP3    H272986   3.581   5.282   3.709  0.8518 -0.1566  0.1790
17191TIP3   OH272987   6.788   6.388   3.468 -0.0423  0.2303 -0.0595
17191TIP3    H172988   6.803   6.395   3.374 -1.0905  1.6746 -0.1518
17191TIP3    H272989   6.866   6.343   3.501  0.8031  0.5646 -1.4919
17192TIP3   OH272990   2.980   2.493   4.341 -0.1725 -0.0991  0.2116
17192TIP3    H172991   3.043   2.542   4.394  0.1621  0.9806 -1.1289
17192TIP3    H272992   3.029   2.416   4.310  0.4540  0.6177 -0.6389
17193TIP3   OH272993   0.851   3.634  12.079 -0.2027  0.0591 -0.1684
17193TIP3    H172994   0.789   3.620  12.151  1.7337 -1.4391  1.2784
17193TIP3    H272995   0.803   3.604  12.001 -2.3151  1.6468  0.3971
17194TIP3   OH272996   4.988   2.144   4.174 -0.6883 -0.7048  0.7612
17194TIP3    H172997   5.004   2.059   4.133  1.6297  0.4193 -0.9226
17194TIP3    H272998   4.893   2.155   4.172 -0.8589 -1.8465 -2.0874
17195TIP3   OH272999   2.175   6.497   5.240  0.8072 -0.0008 -0.2105
17195TIP3    H173000   2.249   6.454   5.197  1.6300 -0.8147  1.8589
17195TIP3    H273001   2.141   6.432   5.301  0.6880  1.5315  1.4432
17196TIP3   OH273002   3.961   5.036   5.292 -0.0191 -0.0600 -0.3304
17196TIP3    H173003   3.982   5.116   5.341  0.6111 -0.4796  0.0952
17196TIP3    H273004   4.040   4.982   5.300 -0.5841 -0.8884 -0.2972
17197TIP3   OH273005   6.584   4.539   2.298 -0.3851  0.3052  0.1441
17197TIP3    H173006   6.656   4.496   2.345  0.5774  0.3160 -1.2551
17197TIP3    H273007   6.603   4.633   2.306 -1.9093  0.5120  2.2903
17198TIP3   OH273008   3.909   2.683  16.560  0.0003 -0.5959  0.2377
17198TIP3    H173009   3.840   2.690  16.625 -0.1722 -0.9324  0.0904
17198TIP3    H273010   3.864   2.683  16.476  0.1908 -0.6350  0.1335
17199TIP3   OH273011   2.453   6.248  17.111 -0.2180  0.2253  0.0983
17199TIP3    H173012   2.505   6.323  17.140 -0.1785  0.2636 -0.0653
17199TIP3    H273013   2.494   6.173  17.153 -0.2260  0.2905  0.2222
17200TIP3   OH273014   2.562   1.935   5.324 -0.1214 -0.0028 -0.4279
17200TIP3    H173015   2.555   2.030   5.327  1.9026  0.1867  0.3949
17200TIP3    H273016   2.511   1.909   5.247 -1.1315  1.6713 -0.3776
17201TIP3   OH273017   4.575   1.206  13.229 -0.7359  0.5783 -0.5694
17201TIP3    H173018   4.542   1.268  13.295  1.6449  1.8994 -0.4703
17201TIP3    H273019   4.506   1.202  13.163 -1.6112  2.1910  0.1740
17202TIP3   OH273020   0.521   3.467  13.796 -0.2126  0.3211 -0.2966
17202TIP3    H173021   0.503   3.414  13.874  1.2558 -0.1899 -0.2916
17202TIP3    H273022   0.484   3.416  13.724  0.1444 -0.1422 -0.1555
17203TIP3   OH273023   0.014   3.556  13.256  0.6198  0.9294  0.0561
17203TIP3    H173024   0.070   3.589  13.327 -0.1340 -0.4027  1.3238
17203TIP3    H273025   0.044   3.466  13.242 -1.0045  0.2805  0.5716
17204TIP3   OH273026   1.821   0.802  12.664  0.2538 -0.0644  0.4483
17204TIP3    H173027   1.777   0.846  12.736  0.9888 -0.1356  0.9439
17204TIP3    H273028   1.904   0.847  12.654 -0.2655  0.6468 -1.0737
17205TIP3   OH273029   5.439   4.624   5.296  0.1509  0.7101  0.1131
17205TIP3    H173030   5.520   4.676   5.304  0.5324  0.4014 -1.4082
17205TIP3    H273031   5.427   4.614   5.202 -2.9975  2.7996  0.1553
17206TIP3   OH273032   2.804   3.244   5.264 -0.2250 -0.0976 -0.3711
17206TIP3    H173033   2.765   3.305   5.327  0.4013 -0.4845  0.4067
17206TIP3    H273034   2.882   3.288   5.232  0.0329 -0.3358 -0.0774
17207TIP3   OH273035   2.460   4.725  12.575 -0.6746  0.2531 -1.2014
17207TIP3    H173036   2.450   4.731  12.670 -3.0082  0.3172 -1.3992
17207TIP3    H273037   2.551   4.700  12.562 -0.7762 -1.6601  1.1205
17208TIP3   OH273038   5.223   6.219  15.284  0.4427  0.1097 -0.2402
17208TIP3    H173039   5.292   6.155  15.298 -1.4899 -2.1274 -0.3170
17208TIP3    H273040   5.262   6.303  15.309  2.6422 -1.2561  1.2389
17209TIP3   OH273041   5.455   4.673   3.044  0.1335 -0.8246  0.4748
17209TIP3    H173042   5.501   4.705   3.121  0.7185 -1.8558  0.5584
17209TIP3    H273043   5.478   4.735   2.975 -0.1580 -0.0637  1.0484
17210TIP3   OH273044   0.403   4.349  12.693  0.0564  0.1554  0.3337
17210TIP3    H173045   0.440   4.294  12.624 -0.5174 -0.5517  0.5761
17210TIP3    H273046   0.474   4.410  12.715 -0.4683  1.8897 -2.3879
17211TIP3   OH273047   2.063   3.636   3.064  0.1756  0.9529  0.1573
17211TIP3    H173048   2.109   3.602   3.141  1.0291  3.2890  0.7533
17211TIP3    H273049   2.124   3.620   2.992 -1.7249 -3.8060 -0.7615
17212TIP3   OH273050   3.675   6.734   3.829  0.6797 -0.4493  0.0290
17212TIP3    H173051   3.733   6.658   3.829 -1.3674 -2.1069  0.2642
17212TIP3    H273052   3.606   6.711   3.766  0.1442  1.3501 -0.0944
17213TIP3   OH273053   0.259   2.135   3.612  0.2520 -0.7213  0.3021
17213TIP3    H173054   0.291   2.171   3.529 -1.2137 -0.2459 -0.0859
17213TIP3    H273055   0.316   2.060   3.630  1.0347 -0.4030 -0.7604
17214TIP3   OH273056   3.856   1.493   6.577  0.0275 -0.3169  0.2765
17214TIP3    H173057   3.932   1.476   6.521  1.0931  3.1399  0.4362
17214TIP3    H273058   3.891   1.490   6.666 -0.1603  0.6573  0.3869
17215TIP3   OH273059   5.389   4.427   1.783 -0.2162  0.1518  0.0621
17215TIP3    H173060   5.413   4.480   1.860 -1.1499 -0.7021  0.9709
17215TIP3    H273061   5.364   4.492   1.717 -0.6318  0.8820  0.9058
17216TIP3   OH273062   1.145   4.521   4.193 -0.7124 -0.6088  0.2090
17216TIP3    H173063   1.183   4.486   4.112  1.5454  0.9137  0.5403
17216TIP3    H273064   1.063   4.562   4.165 -0.2022 -0.5124 -1.2397
17217TIP3   OH273065   2.834   3.035   2.652 -0.1504 -0.1464 -0.2380
17217TIP3    H173066   2.793   2.949   2.651  0.5694 -0.4973 -1.0832
17217TIP3    H273067   2.928   3.017   2.659 -0.0198  0.5906  0.0637
17218TIP3   OH273068   2.240   5.082  11.099 -0.1585 -0.0739  0.1811
17218TIP3    H173069   2.300   5.022  11.144 -1.3550 -0.1268  1.8047
17218TIP3    H273070   2.233   5.048  11.010  0.1563 -1.6186  0.7224
17219TIP3   OH273071   5.281   4.414  11.635  0.6219  0.2858  0.5043
17219TIP3    H173072   5.218   4.482  11.656 -0.8297 -0.9873  0.4732
17219TIP3    H273073   5.328   4.398  11.717 -1.5757 -1.1900  1.5685
17220TIP3   OH273074   3.981   6.502   4.516  0.3002 -0.3197 -0.2441
17220TIP3    H173075   3.938   6.419   4.535 -0.3320  0.0832  0.1540
17220TIP3    H273076   3.913   6.554   4.473  1.2690 -0.6881 -2.3333
17221TIP3   OH273077   1.516   4.890  11.429 -0.5252 -0.0998 -0.4887
17221TIP3    H173078   1.491   4.838  11.352  0.2633 -3.2766  1.2362
17221TIP3    H273079   1.551   4.971  11.392 -1.6328 -0.8167 -3.4052
17222TIP3   OH273080   5.035   5.196  14.070 -0.5117  0.4701  0.8527
17222TIP3    H173081   4.948   5.236  14.062 -2.2430 -2.3964  3.2604
17222TIP3    H273082   5.038   5.130  14.001  1.9348  3.5933 -2.4444
17223TIP3   OH273083   3.058   2.760  13.347  0.1840 -0.5856  0.4039
17223TIP3    H173084   3.087   2.701  13.417 -1.0382 -1.8516 -0.1168
17223TIP3    H273085   3.009   2.829  13.392 -1.4234 -1.9072  0.7633
17224TIP3   OH273086   2.537   5.268  13.755 -0.7624  0.1750 -0.2198
17224TIP3    H173087   2.534   5.198  13.821 -1.4947  1.5224  1.2472
17224TIP3    H273088   2.629   5.274  13.731 -0.4514 -0.3013  0.7695
17225TIP3   OH273089   2.099   3.833   0.340 -0.2496  0.3940  0.4354
17225TIP3    H173090   2.024   3.773   0.343 -0.4699  0.4386 -2.1949
17225TIP3    H273091   2.060   3.920   0.334  0.0252  0.4746 -0.1996
17226TIP3   OH273092   4.924   6.656  14.894  0.5845 -0.2131  0.9141
17226TIP3    H173093   4.991   6.688  14.834 -1.3585  1.6066 -0.4291
17226TIP3    H273094   4.918   6.562  14.875 -0.4998  0.3877 -2.4594
17227TIP3   OH273095   1.118   2.415  13.400 -0.4027  0.1534 -0.6584
17227TIP3    H173096   1.121   2.359  13.478 -0.5727  0.5734 -0.3465
17227TIP3    H273097   1.163   2.495  13.427  1.5452 -0.5423 -1.6939
17228TIP3   OH273098   1.334   4.551  13.781  0.0099 -0.2980 -0.1744
17228TIP3    H173099   1.359   4.471  13.826  0.3573  0.8053  1.6950
17228TIP3    H273100   1.239   4.553  13.785 -0.0405 -0.9069 -0.8141
17229TIP3   OH273101   4.921   4.001   2.935 -0.0988  0.4052 -0.0595
17229TIP3    H173102   4.931   3.967   2.847  1.5525  0.1792  0.1799
17229TIP3    H273103   4.960   4.089   2.931 -0.6313  0.6640  0.2926
17230TIP3   OH273104   4.338   3.841  10.902 -0.1069 -0.1012  0.4836
17230TIP3    H173105   4.352   3.936  10.911 -0.1035  0.0617 -0.9599
17230TIP3    H273106   4.309   3.813  10.988  1.1189  0.9991  1.2886
17231TIP3   OH273107   6.397   6.115   3.389 -0.4550  0.3780  0.5343
17231TIP3    H173108   6.372   6.166   3.467 -0.2544 -0.4244  1.1352
17231TIP3    H273109   6.329   6.048   3.382 -0.2539  0.2020  0.2520
17232TIP3   OH273110   0.177   5.353   6.196 -1.0844 -0.0180 -0.3064
17232TIP3    H173111   0.097   5.308   6.224 -1.7204  1.1482 -0.1979
17232TIP3    H273112   0.212   5.393   6.276 -0.5714 -0.2424 -0.4154
17233TIP3   OH273113   5.641   5.832  15.539  0.5336  0.0299  0.1492
17233TIP3    H173114   5.581   5.818  15.612  0.4348 -1.1131 -0.1462
17233TIP3    H273115   5.700   5.757  15.540 -0.4738 -0.8654 -1.9308
17234TIP3   OH273116   2.766   0.469  13.362 -0.0507  0.2820  0.3009
17234TIP3    H173117   2.765   0.559  13.395 -1.7415  0.1128  0.8322
17234TIP3    H273118   2.675   0.452  13.339 -0.0006 -1.7055  1.3620
17235TIP3   OH273119   4.742   1.228   2.388 -0.2447 -0.0957 -0.3943
17235TIP3    H173120   4.650   1.219   2.363 -0.2591 -0.3020 -0.2681
17235TIP3    H273121   4.764   1.146   2.431  1.1338 -1.7589 -3.8726
17236TIP3   OH273122   4.229   4.743   0.805  0.1488  0.3843 -0.0767
17236TIP3    H173123   4.271   4.710   0.884 -1.7114  0.1057  0.8367
17236TIP3    H273124   4.185   4.823   0.833 -0.6863  0.1846 -0.7894
17237TIP3   OH273125   2.923   6.351   0.491 -0.0756 -0.2574  0.6898
17237TIP3    H173126   2.934   6.263   0.528  3.3725 -0.5718 -0.7958
17237TIP3    H273127   2.958   6.410   0.558  0.9042 -0.3429  0.2624
17238TIP3   OH273128   6.636   4.275   2.087  0.3437  0.2312 -0.7333
17238TIP3    H173129   6.666   4.220   2.015  1.1661 -0.2905 -0.0163
17238TIP3    H273130   6.707   4.272   2.151 -0.1521  1.0860 -0.1136
17239TIP3   OH273131   3.374   2.243  11.911 -0.0468  0.1779  0.4840
17239TIP3    H173132   3.450   2.184  11.910 -0.7591 -0.7679  0.5116
17239TIP3    H273133   3.307   2.193  11.957 -0.4546  1.3096  1.1308
17240TIP3   OH273134   0.471   0.611  11.030  0.3261 -0.1443  0.0664
17240TIP3    H173135   0.493   0.666  10.955  0.7920 -1.7626 -1.0299
17240TIP3    H273136   0.448   0.526  10.992  0.6524 -1.0386  1.7539
17241TIP3   OH273137   3.522   5.402  13.086  0.3106  1.1503  0.0629
17241TIP3    H173138   3.460   5.407  13.159 -1.0286  0.0512 -0.9522
17241TIP3    H273139   3.573   5.483  13.093 -0.7090  1.7241  1.3898
17242TIP3   OH273140   5.655   2.629   3.598  0.1547  0.1749 -0.2103
17242TIP3    H173141   5.630   2.609   3.508 -2.1212 -0.0236  0.4248
17242TIP3    H273142   5.594   2.580   3.652 -0.7347  2.8780  1.4333
17243TIP3   OH273143   5.647   1.564   5.502 -0.1151  0.2044  0.2620
17243TIP3    H173144   5.576   1.539   5.562 -0.0376 -0.0308  0.2568
17243TIP3    H273145   5.671   1.482   5.458  0.4247  0.2130  0.5435
17244TIP3   OH273146   3.560   0.086  12.791 -0.6472 -0.2783  0.4560
17244TIP3    H173147   3.555   0.168  12.841  0.2594  0.9214 -1.3200
17244TIP3    H273148   3.654   0.072  12.778 -0.8378 -0.9991 -0.2055
17245TIP3   OH273149   3.224   5.647   4.352  0.0836  0.3216  0.1301
17245TIP3    H173150   3.220   5.618   4.444  1.2719  2.5542  0.9643
17245TIP3    H273151   3.313   5.681   4.342 -0.5121  1.5180 -1.4005
17246TIP3   OH273152   5.100   6.261  11.761 -0.1955  0.2216 -0.1395
17246TIP3    H173153   5.123   6.330  11.699 -0.1291  0.5536  0.2433
17246TIP3    H273154   5.015   6.228  11.731 -0.7258  1.1749  0.2407
17247TIP3   OH273155   2.242   3.539   3.253 -0.2760 -0.5244  0.3487
17247TIP3    H173156   2.243   3.470   3.187 -0.4866  0.2950 -0.5369
17247TIP3    H273157   2.334   3.561   3.267 -0.2301 -0.7054  0.3265
17248TIP3   OH273158   6.028   0.403  13.601  0.4078  0.5559 -0.4594
17248TIP3    H173159   6.034   0.475  13.539 -0.2180  0.8129 -0.2282
17248TIP3    H273160   6.056   0.326  13.551  0.7232  0.8995 -0.8122
17249TIP3   OH273161   2.036   5.059   4.184  0.4131  0.1931  0.3743
17249TIP3    H173162   2.084   4.994   4.133  0.3090  0.3333  0.1001
17249TIP3    H273163   2.103   5.103   4.237  0.3797 -0.7842  1.2836
17250TIP3   OH273164   4.661   3.231   2.763  0.4384  0.0091 -0.5182
17250TIP3    H173165   4.676   3.316   2.804 -1.3988  0.1371 -0.0074
17250TIP3    H273166   4.626   3.252   2.676  0.3101 -0.2296 -0.5257
17251TIP3   OH273167   4.525   5.586   5.147 -0.2082 -0.1616 -0.2091
17251TIP3    H173168   4.508   5.501   5.107  1.8268 -0.1116 -1.2970
17251TIP3    H273169   4.548   5.644   5.074 -0.8792  1.1642  0.5822
17252TIP3   OH273170   2.776   2.270   4.919 -0.0537  0.4067  0.2610
17252TIP3    H173171   2.684   2.266   4.946 -0.3912 -2.5330 -0.9129
17252TIP3    H273172   2.803   2.178   4.912  2.8551  1.1544  0.0531
17253TIP3   OH273173   1.007   2.769  16.540  0.2069  0.4431  0.2312
17253TIP3    H173174   0.992   2.859  16.567 -0.0609 -0.7609  4.9331
17253TIP3    H273175   1.102   2.759  16.541  0.2165 -0.1861  3.8116
17254TIP3   OH273176   0.558   4.972  13.630 -0.0890  0.3993  0.3901
17254TIP3    H173177   0.545   4.925  13.713  0.3269  1.6249  1.1896
17254TIP3    H273178   0.473   5.014  13.614  0.0828  0.8790  0.6887
17255TIP3   OH273179   3.647   1.144   0.561 -0.2127  0.0156  0.0967
17255TIP3    H173180   3.636   1.052   0.586  0.6439 -0.4241 -1.0781
17255TIP3    H273181   3.613   1.149   0.472 -0.4785  0.9025  0.2397
17256TIP3   OH273182   3.307   2.121  16.136 -0.2100 -0.4921 -0.2047
17256TIP3    H173183   3.238   2.054  16.131 -1.1443  0.5098 -1.3750
17256TIP3    H273184   3.266   2.193  16.184 -0.2803  0.4119 -1.5598
17257TIP3   OH273185   3.085   0.392   4.117 -0.9254  0.0582 -0.2206
17257TIP3    H173186   3.166   0.360   4.156 -0.8293  0.3714 -0.1646
17257TIP3    H273187   3.082   0.485   4.141 -0.5996  0.3860 -1.4039
17258TIP3   OH273188   6.629   3.194  12.778  0.0001 -0.1582  0.6866
17258TIP3    H173189   6.721   3.220  12.780  0.1731 -0.7760  2.3198
17258TIP3    H273190   6.607   3.176  12.869 -0.9143 -2.8288  0.0318
17259TIP3   OH273191   5.261   3.245   3.382  0.4899  0.2475  0.2911
17259TIP3    H173192   5.270   3.340   3.372 -1.4400  0.5542  1.1734
17259TIP3    H273193   5.256   3.213   3.292 -1.2376  1.2647 -0.0156
17260TIP3   OH273194   2.060   4.261   4.062  0.2549 -0.0789 -0.1563
17260TIP3    H173195   2.089   4.345   4.097 -0.1104 -0.2570  0.6008
17260TIP3    H273196   2.128   4.236   3.999  1.8318 -0.5181  1.6232
17261TIP3   OH273197   4.546   1.460  12.454  0.0374  0.5430 -0.0656
17261TIP3    H173198   4.593   1.543  12.450 -0.3546  0.7185 -1.7877
17261TIP3    H273199   4.498   1.456  12.371 -0.7743 -0.9219  0.4454
17262TIP3   OH273200   5.167   5.813   2.291  0.4462  0.3468  0.2318
17262TIP3    H173201   5.106   5.868   2.243  3.0406 -0.3107 -4.3511
17262TIP3    H273202   5.127   5.726   2.290  0.7866  0.1874 -1.5441
17263TIP3   OH273203   2.748   5.904   3.767 -0.3896 -0.0942 -0.3633
17263TIP3    H173204   2.821   5.875   3.822 -0.3329 -2.4974 -1.6005
17263TIP3    H273205   2.711   5.979   3.814  1.2057 -0.4837  1.6398
17264TIP3   OH273206   5.707   6.422   5.523 -0.3307 -0.0239  0.1505
17264TIP3    H173207   5.788   6.456   5.487 -0.5681  0.5453  0.1509
17264TIP3    H273208   5.677   6.489   5.584 -1.3542  0.2698 -0.6514
17265TIP3   OH273209   4.975   5.806   5.385 -0.0214 -0.5122 -0.1434
17265TIP3    H173210   4.915   5.874   5.413 -0.3570 -0.6421 -0.5302
17265TIP3    H273211   4.952   5.730   5.438  0.4716 -0.2811  0.4143
17266TIP3   OH273212   3.620   4.486  16.341 -0.4060 -0.1296  0.2079
17266TIP3    H173213   3.630   4.493  16.246 -1.1743 -2.7291 -0.1407
17266TIP3    H273214   3.707   4.502  16.376  0.6639 -2.4498 -1.2262
17267TIP3   OH273215   6.454   4.673   5.994 -0.7386 -0.4670  0.3285
17267TIP3    H173216   6.477   4.600   5.937 -0.7965  0.8126 -1.4434
17267TIP3    H273217   6.359   4.677   5.991 -0.6952  0.3162 -0.4812
17268TIP3   OH273218   3.084   4.525   0.774 -0.3098  0.1571 -0.4201
17268TIP3    H173219   3.121   4.448   0.817  0.3943 -0.0041 -1.2808
17268TIP3    H273220   3.014   4.554   0.832  0.1823 -0.4413  0.4939
17269TIP3   OH273221   0.757   4.546  16.457  0.5782  0.3619  0.1019
17269TIP3    H173222   0.813   4.495  16.399  1.6692  0.8873  0.6744
17269TIP3    H273223   0.815   4.610  16.497 -0.6990  1.8512 -0.3352
17270TIP3   OH273224   4.266   4.993  11.476 -0.0137  0.0319 -0.0561
17270TIP3    H173225   4.264   4.946  11.392 -0.4381 -3.5125  1.7487
17270TIP3    H273226   4.230   5.079  11.456 -1.3758 -1.1329 -3.2452
17271TIP3   OH273227   6.399   1.788   1.567 -0.3163 -1.0013 -0.3650
17271TIP3    H173228   6.469   1.853   1.572 -0.8982 -0.3357 -0.6663
17271TIP3    H273229   6.439   1.713   1.523  0.5392 -1.0989  0.5480
17272TIP3   OH273230   0.236   4.334  14.524  0.1620  0.0532 -0.2113
17272TIP3    H173231   0.195   4.312  14.607  1.1298  0.6516  0.4413
17272TIP3    H273232   0.177   4.399  14.485  0.2007  0.5046  0.4655
17273TIP3   OH273233   1.735   0.302  14.834 -0.0401 -0.0993  0.8643
17273TIP3    H173234   1.824   0.335  14.817 -0.2630  1.1595  1.9486
17273TIP3    H273235   1.740   0.260  14.920 -0.5391  0.1986  1.0450
17274TIP3   OH273236   1.131   5.138  15.207  0.5842 -0.2344  0.4034
17274TIP3    H173237   1.145   5.183  15.291 -2.6932 -0.9284  1.5047
17274TIP3    H273238   1.043   5.166  15.180 -0.3475 -3.5062 -0.4106
17275TIP3   OH273239   2.992   5.695   5.480  0.6885  0.3863  0.6890
17275TIP3    H173240   2.995   5.667   5.389  0.7504 -0.2277  0.8748
17275TIP3    H273241   3.021   5.786   5.478  2.3852 -0.1355  0.3015
17276TIP3   OH273242   4.171   2.084  13.765  0.1072 -0.5196 -0.3556
17276TIP3    H173243   4.214   2.163  13.799 -1.9548  0.6278 -0.2437
17276TIP3    H273244   4.230   2.013  13.789  2.3961  1.0169 -1.0606
17277TIP3   OH273245   0.103   6.581  12.826 -0.2589 -0.5334 -0.1135
17277TIP3    H173246   0.121   6.522  12.753 -1.5914 -0.0783 -0.8294
17277TIP3    H273247   0.017   6.555  12.858 -0.0305 -0.2117  0.8017
17278TIP3   OH273248   5.319   2.980   0.970  0.1200  0.0774  0.2226
17278TIP3    H173249   5.404   3.010   0.937  0.6774 -0.7060  0.8882
17278TIP3    H273250   5.273   3.059   0.995 -0.8829  0.9071 -3.5582
17279TIP3   OH273251   2.908   3.103   6.012 -0.0440  0.2446  0.2959
17279TIP3    H173252   2.927   3.138   5.925  2.3279  1.2614  1.1192
17279TIP3    H273253   2.942   3.170   6.072  1.3141 -1.8144  1.9830
17280TIP3   OH273254   2.973   3.753   2.070  0.1101  0.5858  0.5860
17280TIP3    H173255   3.003   3.675   2.023  1.0546  1.5343 -0.4149
17280TIP3    H273256   2.884   3.731   2.097 -0.2750 -0.1913 -1.1953
17281TIP3   OH273257   3.941   1.545   2.062 -0.3791 -0.2651 -0.0761
17281TIP3    H173258   4.015   1.533   2.003  0.1653 -0.8620  0.7101
17281TIP3    H273259   3.926   1.640   2.063  2.0076  0.1949  1.6694
17282TIP3   OH273260   6.794   2.963  14.129 -0.4410 -0.6159  0.2314
17282TIP3    H173261   6.722   3.022  14.152  1.2666  1.5942  0.1793
17282TIP3    H273262   6.788   2.892  14.192 -1.9000  0.1695  1.0280
17283TIP3   OH273263   5.831   4.502  12.762  0.0918  0.2115 -0.3147
17283TIP3    H173264   5.896   4.489  12.693 -0.5513  0.7453 -1.0391
17283TIP3    H273265   5.768   4.431  12.749  0.1387  0.1251 -0.0726
17284TIP3   OH273266   0.241   4.601   4.318 -0.5287  0.6846 -0.5239
17284TIP3    H173267   0.293   4.527   4.349  0.5058  2.2360  1.6297
17284TIP3    H273268   0.260   4.606   4.224  1.2934 -0.2733 -0.2337
17285TIP3   OH273269   5.210   3.603   3.507  0.1084  0.5033 -0.3124
17285TIP3    H173270   5.220   3.645   3.421 -1.7423  1.0833 -0.2922
17285TIP3    H273271   5.299   3.598   3.542  0.9158  0.2310 -2.2646
17286TIP3   OH273272   2.585   6.560  11.421 -0.1959  0.0946  0.5880
17286TIP3    H173273   2.613   6.644  11.458  0.6881 -1.0334  2.6683
17286TIP3    H273274   2.619   6.560  11.331 -0.1857  1.9171  0.5616
17287TIP3   OH273275   3.854   2.422  14.955 -0.3378  0.2061  0.4466
17287TIP3    H173276   3.943   2.394  14.937 -0.9915  0.0174 -3.3052
17287TIP3    H273277   3.850   2.512  14.924 -1.0189  0.8535  2.3084
17288TIP3   OH273278   0.920   2.308   5.024 -0.0690  0.4493 -0.4166
17288TIP3    H173279   0.883   2.386   4.982  2.1525  0.3068 -2.9292
17288TIP3    H273280   1.012   2.331   5.041  0.2156 -1.0687  0.3036
17289TIP3   OH273281   3.956   2.124   5.585 -0.0667 -0.1738  0.6002
17289TIP3    H173282   3.992   2.036   5.578  0.7831  0.1971  0.1396
17289TIP3    H273283   3.888   2.128   5.517 -1.5196 -1.1007  1.9233
17290TIP3   OH273284   6.067   5.155   1.609 -0.3150  0.2795  0.4262
17290TIP3    H173285   6.131   5.204   1.557 -0.5910  1.2908  1.0075
17290TIP3    H273286   6.119   5.090   1.657  0.0062 -0.2826 -0.6625
17291TIP3   OH273287   6.760   6.436   3.202 -0.1238  0.3730  0.1936
17291TIP3    H173288   6.701   6.378   3.250 -1.1075  0.4519 -0.8897
17291TIP3    H273289   6.775   6.392   3.119  1.0587  0.5396  0.3040
17292TIP3   OH273290   5.147   0.777  14.651  0.1895 -1.0763 -0.6783
17292TIP3    H173291   5.061   0.742  14.627  0.5126 -2.5787  0.1830
17292TIP3    H273292   5.141   0.871  14.634 -1.9673 -0.9771  0.3280
17293TIP3   OH273293   4.800   2.296   1.935  0.1442  0.3198 -0.0928
17293TIP3    H173294   4.706   2.314   1.933  0.6754  3.6738 -0.1402
17293TIP3    H273295   4.814   2.251   2.018 -1.3846  0.5050  0.2938
17294TIP3   OH273296   5.690   2.659  13.282 -0.5775 -0.0703  0.5820
17294TIP3    H173297   5.757   2.612  13.233 -0.2312 -0.2405  1.2223
17294TIP3    H273298   5.647   2.714  13.216  0.5230  0.4230  0.2537
17295TIP3   OH273299   6.271   1.790   2.482  0.1090  0.1307  0.3603
17295TIP3    H173300   6.338   1.823   2.541 -0.2853 -0.9334  1.4588
17295TIP3    H273301   6.192   1.840   2.505 -0.1349 -0.5365  1.0204
17296TIP3   OH273302   6.497   5.358   0.199  0.1194 -0.2027  0.1471
17296TIP3    H173303   6.527   5.449   0.192 -1.5175  0.5602  2.1152
17296TIP3    H273304   6.576   5.309   0.221  0.5273  1.2731  2.2617
17297TIP3   OH273305   5.415   3.991   5.322  0.1349 -0.4896  0.0730
17297TIP3    H173306   5.324   3.980   5.348  0.1010 -0.4421 -0.0244
17297TIP3    H273307   5.418   4.078   5.281 -0.1874 -1.2171 -1.6094
17298TIP3   OH273308   4.607   0.391   1.155 -0.6678  0.1576  0.5754
17298TIP3    H173309   4.635   0.301   1.169 -1.1874 -0.0602  0.2499
17298TIP3    H273310   4.676   0.429   1.099 -0.9729 -0.3481 -0.1574
17299TIP3   OH273311   3.614   4.199  15.353 -0.1821 -0.4498  0.0050
17299TIP3    H173312   3.541   4.203  15.415 -1.1555 -0.6695 -1.0910
17299TIP3    H273313   3.635   4.290  15.334 -0.9066 -0.3831 -0.4992
17300TIP3   OH273314   6.570   1.733   3.661  0.0958  0.9711 -0.0553
17300TIP3    H173315   6.663   1.743   3.641  0.2046 -0.8975 -0.6293
17300TIP3    H273316   6.565   1.738   3.756  1.2817 -2.0299  0.2763
17301TIP3   OH273317   0.240   6.432  15.212  0.4701 -0.0162  0.7406
17301TIP3    H173318   0.253   6.492  15.286  0.7847  0.2852  0.4419
17301TIP3    H273319   0.193   6.484  15.147 -0.3545 -0.4641  0.9632
17302TIP3   OH273320   3.233   1.747  12.875  0.5824 -1.2881  0.8067
17302TIP3    H173321   3.323   1.779  12.867  0.5121 -1.3920 -0.9286
17302TIP3    H273322   3.240   1.667  12.927  0.9995  0.4959  3.6412
17303TIP3   OH273323   4.648   3.066  16.389  0.3012  0.0779  0.4272
17303TIP3    H173324   4.604   3.051  16.306  0.8758  1.6376 -0.2016
17303TIP3    H273325   4.601   3.139  16.429  0.6905  0.0510  0.9486
17304TIP3   OH273326   0.293   0.945  11.173 -0.2254 -0.7737  0.0949
17304TIP3    H173327   0.222   1.002  11.202  2.4704  2.2249  1.4141
17304TIP3    H273328   0.311   0.973  11.083  1.2613  0.7996  0.8257
17305TIP3   OH273329   4.043   3.810   0.043  0.4552  0.0282  0.2531
17305TIP3    H173330   4.044   3.878  -0.025  1.3448 -0.4769 -0.2480
17305TIP3    H273331   4.065   3.857   0.123  0.9922  0.3571 -0.0789
17306TIP3   OH273332   3.550   2.732  11.356  0.1416 -0.1706 -0.2700
17306TIP3    H173333   3.638   2.745  11.320  0.0125  1.1178 -0.1664
17306TIP3    H273334   3.522   2.819  11.382  0.2565 -0.9895  3.0187
17307TIP3   OH273335   3.717   5.036   5.440 -0.2152  0.1004  0.2934
17307TIP3    H173336   3.791   4.982   5.469 -1.0359 -0.6757  0.9961
17307TIP3    H273337   3.753   5.089   5.370  0.5137 -1.7591 -0.8262
17308TIP3   OH273338   5.813   5.087  12.373  0.3447 -0.1512 -0.2967
17308TIP3    H173339   5.874   5.032  12.423 -1.3783 -2.0275 -0.1195
17308TIP3    H273340   5.823   5.057  12.282 -0.5196 -0.7331 -0.2150
17309TIP3   OH273341   2.149   0.108   2.239  0.1683  0.3565 -0.2135
17309TIP3    H173342   2.210   0.058   2.185  0.1226  0.2770 -0.1912
17309TIP3    H273343   2.137   0.190   2.191 -2.6764 -1.0711 -2.2723
17310TIP3   OH273344   5.303   0.382  16.870  0.2608 -0.5491  0.1265
17310TIP3    H173345   5.382   0.436  16.868  0.7503 -1.2726 -0.5086
17310TIP3    H273346   5.247   0.418  16.801 -0.8570  1.2400  1.8719
17311TIP3   OH273347   1.384   6.054   4.461  0.1110  0.3461  0.3277
17311TIP3    H173348   1.332   6.031   4.384 -0.8580  1.7364  0.5281
17311TIP3    H273349   1.467   6.084   4.424 -0.1984  0.6219 -0.1634
17312TIP3   OH273350   2.821   3.881   5.174 -0.3265  0.0818  0.5695
17312TIP3    H173351   2.908   3.843   5.170 -0.1972  0.4516 -0.5071
17312TIP3    H273352   2.763   3.807   5.193  0.2261 -0.1283  1.5330
17313TIP3   OH273353   4.486   3.730   3.399 -0.0737  0.0256  0.1752
17313TIP3    H173354   4.425   3.691   3.463 -0.7993 -0.2436 -0.6590
17313TIP3    H273355   4.568   3.740   3.447 -0.7780  0.4163  1.3415
17314TIP3   OH273356   1.573   2.540  14.493 -0.3646 -0.3020  0.3249
17314TIP3    H173357   1.633   2.494  14.434 -2.1504  0.2055 -2.0464
17314TIP3    H273358   1.542   2.615  14.443 -1.8925  0.2541  1.9775
17315TIP3   OH273359   6.129   1.178  13.390 -0.1565  0.0270 -0.0488
17315TIP3    H173360   6.162   1.268  13.394  0.8646 -0.3461  0.2564
17315TIP3    H273361   6.164   1.144  13.308  1.1923 -0.7262  0.8056
17316TIP3   OH273362   4.614   6.736   3.871  0.2427  0.1102  0.7336
17316TIP3    H173363   4.546   6.690   3.919 -0.2721 -0.6640 -0.6892
17316TIP3    H273364   4.586   6.828   3.871 -1.0333 -0.2583 -0.1834
17317TIP3   OH273365   1.353   4.188   0.023 -0.1602 -0.1896  0.5993
17317TIP3    H173366   1.402   4.136  -0.041 -1.1649  0.4260 -0.7328
17317TIP3    H273367   1.420   4.228   0.078  0.7671 -0.3514 -0.3844
17318TIP3   OH273368   5.509   6.745   4.494  0.2773  0.1628 -0.0542
17318TIP3    H173369   5.486   6.827   4.451 -0.3404  0.3528  0.6107
17318TIP3    H273370   5.555   6.772   4.574 -2.2108  0.0087  1.5447
17319TIP3   OH273371   4.653   5.740   3.721  0.1563 -0.3958  0.0682
17319TIP3    H173372   4.577   5.796   3.709  0.4661  0.7380  2.7036
17319TIP3    H273373   4.672   5.706   3.634 -1.8612  1.2376 -1.0911
17320TIP3   OH273374   5.138   2.129  15.347 -0.1911 -0.1136  0.3883
17320TIP3    H173375   5.138   2.130  15.252  0.8234  3.7540  0.2674
17320TIP3    H273376   5.045   2.133  15.371 -0.5447 -2.7927 -0.2928
17321TIP3   OH273377   5.255   5.581   2.529  0.3049  0.0249  0.2247
17321TIP3    H173378   5.170   5.560   2.568  1.8757 -0.8170  3.6087
17321TIP3    H273379   5.268   5.514   2.462 -1.4718 -0.1252 -0.0172
17322TIP3   OH273380   1.483   1.499  14.836  0.1984 -0.0350  0.3922
17322TIP3    H173381   1.537   1.492  14.915  2.0065 -1.8321 -0.9201
17322TIP3    H273382   1.519   1.574  14.789  0.3130 -0.0722  0.4200
17323TIP3   OH273383   2.460   0.626   5.830  0.2526 -0.0728  0.1955
17323TIP3    H173384   2.426   0.658   5.747 -0.8822  0.0505  0.6795
17323TIP3    H273385   2.412   0.676   5.896  0.4877 -0.7988  0.9340
17324TIP3   OH273386   5.537   5.490  12.973  0.4469 -1.1428  0.3630
17324TIP3    H173387   5.596   5.565  12.966  0.4417 -1.2724 -1.6540
17324TIP3    H273388   5.592   5.418  13.004  0.2566 -0.1752  3.2884
17325TIP3   OH273389   2.554   3.311   3.173 -0.0221  0.1678 -0.2422
17325TIP3    H173390   2.640   3.353   3.168  0.1961 -0.0093  1.5189
17325TIP3    H273391   2.512   3.350   3.249 -1.3348 -0.0776 -0.8222
17326TIP3   OH273392   0.767   2.101  16.113 -0.0314  0.2221 -0.4302
17326TIP3    H173393   0.719   2.065  16.038  0.0037  0.0634 -0.3769
17326TIP3    H273394   0.848   2.133  16.075  0.2319 -0.3640 -0.3804
17327TIP3   OH273395   5.225   1.796  11.382 -0.1100  0.1900 -0.3912
17327TIP3    H173396   5.231   1.788  11.286  0.6367 -0.1577 -0.3240
17327TIP3    H273397   5.220   1.890  11.398  2.0433  0.4144 -0.6860
17328TIP3   OH273398   4.310   5.278  13.121 -0.1712  0.1248  0.5103
17328TIP3    H173399   4.346   5.356  13.162 -1.1352  1.5204 -1.1836
17328TIP3    H273400   4.243   5.247  13.182 -0.9439  1.6173  0.4434
17329TIP3   OH273401   6.036   0.050   2.562 -0.4076 -0.0010 -0.3201
17329TIP3    H173402   5.986   0.052   2.480  0.5068 -0.7077 -0.9185
17329TIP3    H273403   6.111  -0.006   2.542 -0.7038 -1.0246  1.3297
17330TIP3   OH273404   3.090   6.456   5.876 -0.0009  0.1382  0.1629
17330TIP3    H173405   3.082   6.369   5.914 -2.0041 -0.7346 -2.0706
17330TIP3    H273406   3.008   6.500   5.898 -0.6250  0.0837 -1.9047
17331TIP3   OH273407   5.318   3.630  12.257 -0.5883  0.6696  0.3807
17331TIP3    H173408   5.232   3.597  12.284 -0.8684  0.0360 -1.1816
17331TIP3    H273409   5.380   3.588  12.317 -1.0043 -2.1856 -1.0399
17332TIP3   OH273410   0.387   2.426   1.712  0.6359  0.0030 -0.0614
17332TIP3    H173411   0.428   2.512   1.720  1.1393 -0.2972  0.6733
17332TIP3    H273412   0.455   2.371   1.673  0.1371  0.0598 -1.0240
17333TIP3   OH273413   1.568   2.462   3.035  0.7714 -0.0630 -0.3279
17333TIP3    H173414   1.564   2.520   3.111  0.6528  0.0951 -0.4520
17333TIP3    H273415   1.648   2.411   3.048  0.5388 -0.3214  0.1029
17334TIP3   OH273416   5.981   3.937  14.830  0.5899  0.6592 -0.3639
17334TIP3    H173417   6.039   3.987  14.887 -2.2774  1.3558  2.2166
17334TIP3    H273418   5.913   3.999  14.804 -2.5376 -1.3595  2.1332
17335TIP3   OH273419   1.975   2.641  16.331 -0.0212  0.1827  0.6983
17335TIP3    H173420   2.039   2.630  16.401  0.9157 -0.8520 -0.2827
17335TIP3    H273421   1.893   2.606  16.367  0.2394  0.4401  1.5549
17336TIP3   OH273422   5.145   2.550   0.190 -0.1697 -0.1933  0.0461
17336TIP3    H173423   5.110   2.639   0.198 -1.2112 -0.5423 -0.5009
17336TIP3    H273424   5.239   2.563   0.177 -0.1655  0.7845  0.8838
17337TIP3   OH273425   0.548   4.413  16.674  0.1203 -0.1013 -0.1014
17337TIP3    H173426   0.533   4.508  16.680  1.6607  0.1129  1.0380
17337TIP3    H273427   0.588   4.400  16.588 -0.1556  0.2709 -0.2883
17338TIP3   OH273428   2.864   6.477   3.358  0.3612 -0.0546 -0.0992
17338TIP3    H173429   2.837   6.472   3.450  0.4429  1.4478  0.0220
17338TIP3    H273430   2.885   6.569   3.343  1.0237 -0.3901 -1.4454
17339TIP3   OH273431   1.137   2.316   3.517  0.3050 -0.3700 -0.3835
17339TIP3    H173432   1.150   2.280   3.429  0.1338 -0.7133 -0.2660
17339TIP3    H273433   1.082   2.252   3.562  0.2779 -0.1270 -0.0692
17340TIP3   OH273434   1.657   6.013  16.186 -0.0065 -0.0965  0.4392
17340TIP3    H173435   1.644   5.980  16.275 -0.4999  0.0321  0.4194
17340TIP3    H273436   1.633   5.940  16.129  1.0430 -0.4340  0.4108
17341TIP3   OH273437   0.608   2.905   5.398 -0.1019  0.1768 -0.4397
17341TIP3    H173438   0.547   2.836   5.423  1.0605 -0.6981  0.0855
17341TIP3    H273439   0.603   2.908   5.302  1.3742 -2.1798 -0.6858
17342TIP3   OH273440   2.372   5.231   5.502  0.7264 -0.2526  0.5864
17342TIP3    H173441   2.407   5.177   5.432 -1.9074 -0.1120 -0.9800
17342TIP3    H273442   2.421   5.313   5.497 -0.5848  0.4742 -2.4330
17343TIP3   OH273443   3.097   2.785   1.566  0.1176  0.0467  0.6065
17343TIP3    H173444   3.071   2.796   1.474 -0.0541 -1.3390  0.4668
17343TIP3    H273445   3.167   2.849   1.578 -0.6418  1.0610 -0.1524
17344TIP3   OH273446   5.875   4.529   1.779  0.4428  0.8336 -0.3930
17344TIP3    H173447   5.816   4.461   1.812 -0.0283  1.1529 -0.5636
17344TIP3    H273448   5.962   4.491   1.787  0.3645  0.8939  1.2758
17345TIP3   OH273449   0.448   4.603  15.004  0.1984 -0.5983  0.3476
17345TIP3    H173450   0.405   4.518  14.991 -0.5338 -0.2784  0.6114
17345TIP3    H273451   0.403   4.641  15.079  1.0137 -0.2826  0.6904
17346TIP3   OH273452   5.038   2.590   3.822 -0.2022  0.3654  0.1197
17346TIP3    H173453   5.127   2.622   3.809  0.4413 -1.8595 -1.4053
17346TIP3    H273454   4.988   2.628   3.750 -0.1862  0.4691  0.1619
17347TIP3   OH273455   6.246   4.574   0.536 -0.1516  0.0786  0.2200
17347TIP3    H173456   6.309   4.510   0.569 -0.2917  0.8732  2.1298
17347TIP3    H273457   6.252   4.648   0.596 -1.3052  1.1208 -0.8694
17348TIP3   OH273458   4.251   2.730  11.329  0.6918  0.2924 -0.4440
17348TIP3    H173459   4.242   2.801  11.265 -0.2413 -0.2573 -0.9435
17348TIP3    H273460   4.162   2.715  11.361  0.5851 -1.6825 -1.5084
17349TIP3   OH273461   1.799   0.864   3.260  0.0380  0.1946 -0.3299
17349TIP3    H173462   1.742   0.841   3.187  0.0140  0.8490 -0.5213
17349TIP3    H273463   1.781   0.956   3.277  0.0479  0.0543  0.4978
17350TIP3   OH273464   6.027   4.398   4.631 -0.1742  0.1451  0.5284
17350TIP3    H173465   6.058   4.439   4.712 -0.6812 -0.1465  0.8805
17350TIP3    H273466   6.066   4.310   4.633  1.2103  0.7179 -0.4054
17351TIP3   OH273467   0.175   1.892   0.088  0.2454  0.6977 -0.0606
17351TIP3    H173468   0.146   1.975   0.050  0.2649 -0.0806 -1.8801
17351TIP3    H273469   0.268   1.907   0.109  0.4036  0.9706 -0.9192
17352TIP3   OH273470   4.129   6.695   5.863 -0.3647 -0.4937 -0.1414
17352TIP3    H173471   4.218   6.730   5.874 -1.6909  2.4373  3.1805
17352TIP3    H273472   4.127   6.618   5.919 -0.1170  0.0092  0.5844
17353TIP3   OH273473   0.996   3.459   1.827  0.8895 -0.1130  0.0442
17353TIP3    H173474   1.081   3.450   1.870  0.2362  2.3354  2.0506
17353TIP3    H273475   1.010   3.526   1.760  0.2819  1.2450  1.2477
17354TIP3   OH273476   6.521   2.616  14.391  0.3914  0.0303 -0.2984
17354TIP3    H173477   6.541   2.525  14.373 -2.3514 -0.4672 -1.4148
17354TIP3    H273478   6.511   2.620  14.486  1.7488 -0.5137 -0.1156
17355TIP3   OH273479   1.212   4.630  17.069  0.4783 -0.1823 -0.3133
17355TIP3    H173480   1.190   4.669  17.153  0.6757  0.3807 -0.5219
17355TIP3    H273481   1.174   4.542  17.073  1.3358 -0.5258  0.7545
17356TIP3   OH273482   1.804   4.060   5.273 -0.2922 -0.1276  0.0280
17356TIP3    H173483   1.819   4.137   5.217  0.6511 -0.1921  0.1726
17356TIP3    H273484   1.824   3.985   5.217  2.0414 -0.1631  0.7813
17357TIP3   OH273485   6.337   6.559  14.894 -0.1089  0.4118  0.4572
17357TIP3    H173486   6.295   6.482  14.858  0.3712  0.3658 -0.0191
17357TIP3    H273487   6.425   6.530  14.917  0.6109  1.1743 -1.1678
17358TIP3   OH273488   1.103   5.390  11.239 -0.5311  0.1339  0.0107
17358TIP3    H173489   1.141   5.412  11.324  0.0236  0.5683 -0.3464
17358TIP3    H273490   1.125   5.298  11.226 -0.1874  0.1987  0.1146
17359TIP3   OH273491   1.136   6.239  11.702  0.0812  0.2852  0.2145
17359TIP3    H173492   1.116   6.159  11.653 -1.0007  0.9986 -0.5323
17359TIP3    H273493   1.099   6.223  11.789  1.0434 -0.5405  0.4971
17360TIP3   OH273494   1.246   1.890  12.552  0.4183  0.1663  0.0331
17360TIP3    H173495   1.179   1.873  12.486 -0.6255  2.7908  0.2982
17360TIP3    H273496   1.196   1.902  12.633  1.0723  2.7441  0.1312
17361TIP3   OH273497   0.918   4.963  15.371 -0.4142 -0.2242  0.5012
17361TIP3    H173498   0.943   4.917  15.291  0.9654  0.1271  0.7034
17361TIP3    H273499   0.829   4.931  15.391 -0.4040 -1.0126 -0.6375
17362TIP3   OH273500   4.079   0.045  16.375  0.1675 -0.5518  0.5000
17362TIP3    H173501   4.141   0.118  16.380 -1.8186  1.2156  0.9703
17362TIP3    H273502   4.074   0.023  16.282  1.2575 -0.5251  0.4241
17363TIP3   OH273503   5.406   5.334  15.470  0.2627  0.3917  0.1834
17363TIP3    H173504   5.337   5.312  15.408  1.3324  0.7528 -1.1979
17363TIP3    H273505   5.360   5.367  15.547 -1.1172 -0.2611 -0.3287
17364TIP3   OH273506   4.094   4.104  14.810 -0.7565  0.2334 -0.4674
17364TIP3    H173507   4.039   4.112  14.888 -1.7794 -0.8524 -1.0365
17364TIP3    H273508   4.032   4.107  14.737  0.1695  1.0975 -1.2349
17365TIP3   OH273509   0.434   1.219  10.639 -0.1284  0.1352  0.0524
17365TIP3    H173510   0.427   1.284  10.570 -1.0799 -1.0401 -0.9996
17365TIP3    H273511   0.492   1.151  10.602 -1.6145 -1.0919 -0.1215
17366TIP3   OH273512   6.147   6.402  11.381  0.1453  0.1671  0.5229
17366TIP3    H173513   6.083   6.353  11.432  0.0668 -0.1724  0.1130
17366TIP3    H273514   6.232   6.374  11.415  0.1038 -0.3597  0.2040
17367TIP3   OH273515   0.612   0.222  11.114 -0.2368  0.1377 -0.2095
17367TIP3    H173516   0.651   0.184  11.193  0.4912  3.5222  1.2391
17367TIP3    H273517   0.518   0.227  11.133 -0.1986  0.0284  0.0071
17368TIP3   OH273518   6.034   3.411  12.269  0.0347  0.5512 -0.2037
17368TIP3    H173519   6.105   3.474  12.277 -0.7333  1.5226 -0.7977
17368TIP3    H273520   5.993   3.431  12.185 -0.5586 -0.3945 -0.1544
17369TIP3   OH273521   2.395   6.570  11.130  0.2915  0.1493  0.2608
17369TIP3    H173522   2.470   6.628  11.118  1.0965 -1.0070 -0.5742
17369TIP3    H273523   2.333   6.596  11.061  0.7600 -0.1388 -0.2795
17370TIP3   OH273524   5.144   2.673  14.501  0.5599  0.4097 -0.1005
17370TIP3    H173525   5.149   2.582  14.528  0.2944  0.2935 -0.4335
17370TIP3    H273526   5.165   2.723  14.580  0.6219  0.0637  0.1032
17371TIP3   OH273527   5.515   6.495  11.134 -0.4413 -0.0514 -0.5241
17371TIP3    H173528   5.491   6.551  11.060  0.7241  0.8291 -0.2583
17371TIP3    H273529   5.584   6.543  11.180  1.4939 -2.2213 -0.9608
17372TIP3   OH273530   4.136   4.396   4.658  0.2310 -0.0993  0.0814
17372TIP3    H173531   4.171   4.343   4.730  0.9074 -1.2823 -1.0625
17372TIP3    H273532   4.064   4.343   4.623 -0.7508  0.9208  0.4676
17373TIP3   OH273533   1.659   1.863   3.250  0.2653 -0.1379  0.0175
17373TIP3    H173534   1.619   1.949   3.238  1.3629  0.7607  2.0955
17373TIP3    H273535   1.728   1.860   3.184 -0.3960  0.1548 -0.7026
17374TIP3   OH273536   1.209   2.213   2.805  0.5713 -0.4529 -0.1216
17374TIP3    H173537   1.145   2.228   2.735  0.9850 -0.0666 -0.4206
17374TIP3    H273538   1.261   2.293   2.807  0.2740 -0.2695  0.9466
17375TIP3   OH273539   6.662   2.264   6.411 -0.0592  0.4530  0.2832
17375TIP3    H173540   6.631   2.321   6.482 -1.9574  0.7919 -0.7529
17375TIP3    H273541   6.706   2.323   6.350 -0.2041  0.4881  0.2114
17376TIP3   OH273542   1.597   2.439   1.867  0.2235 -0.3963  0.0440
17376TIP3    H173543   1.542   2.372   1.826  1.4665 -0.4606 -1.6695
17376TIP3    H273544   1.573   2.520   1.823  1.6094 -0.4715 -0.9339
17377TIP3   OH273545   2.922   1.463  12.906  0.5624 -0.5752  0.2607
17377TIP3    H173546   2.915   1.558  12.890 -1.6568 -1.2257 -4.5181
17377TIP3    H273547   3.016   1.447  12.912  1.1493  1.7707 -1.1528
17378TIP3   OH273548   5.622   0.100  13.625 -0.3880 -0.1029  0.2475
17378TIP3    H173549   5.676   0.176  13.649 -0.0374 -0.2936  0.0728
17378TIP3    H273550   5.541   0.112  13.675 -0.5083  0.6057 -0.1080
17379TIP3   OH273551   2.040   0.177  11.782  0.3854 -0.8481  0.5712
17379TIP3    H173552   1.981   0.172  11.857 -0.0119 -0.0275  0.3208
17379TIP3    H273553   1.991   0.139  11.710 -0.1786  0.5864  0.1691
17380TIP3   OH273554   4.471   4.045   4.725 -0.1706  1.0730 -0.5272
17380TIP3    H173555   4.501   3.990   4.653  2.1904  2.0537 -0.3849
17380TIP3    H273556   4.479   3.989   4.803  0.3899  1.0118 -0.6253
17381TIP3   OH273557   4.357   2.261   4.433  0.1169  0.6914 -0.8395
17381TIP3    H173558   4.274   2.238   4.473  0.2660  1.5945  0.0234
17381TIP3    H273559   4.339   2.260   4.339 -0.3831 -0.8886 -0.7519
17382TIP3   OH273560   6.725   1.106  13.420  0.4646  0.7727 -0.2793
17382TIP3    H173561   6.731   1.202  13.420  1.2102  0.7378 -0.6947
17382TIP3    H273562   6.663   1.086  13.490 -0.9169  1.6204 -1.2028
17383TIP3   OH273563   6.126   2.313  14.278 -0.0562  0.1904  0.0659
17383TIP3    H173564   6.081   2.280  14.200  0.9708 -1.9512  0.3092
17383TIP3    H273565   6.217   2.325  14.250  0.6728 -2.0863  1.2500
17384TIP3   OH273566   5.465   0.029  15.744  1.0093 -0.1776 -0.0871
17384TIP3    H173567   5.389  -0.018  15.778  1.5941 -0.6029  0.6586
17384TIP3    H273568   5.469   0.109  15.795  1.6732 -0.6470  0.6177
17385TIP3   OH273569   2.626   0.871  12.808  0.5569 -0.3697  0.8121
17385TIP3    H173570   2.659   0.781  12.805 -1.4106 -1.1279 -0.8983
17385TIP3    H273571   2.631   0.901  12.717 -3.2265 -0.5917  0.3655
17386TIP3   OH273572   3.872   6.348   1.584 -0.2125  0.0795 -0.1039
17386TIP3    H173573   3.896   6.259   1.560  0.7969  0.4714 -0.6351
17386TIP3    H273574   3.779   6.355   1.563 -0.4046 -0.9826  0.3742
17387TIP3   OH273575   0.470   1.575   0.297 -0.0689  0.1097  0.0485
17387TIP3    H173576   0.400   1.630   0.261  0.8848  0.9179 -0.6050
17387TIP3    H273577   0.427   1.491   0.313 -1.2264  0.6236 -0.2038
17388TIP3   OH273578   4.936   1.791  10.807  0.0081  0.5369  0.5429
17388TIP3    H173579   4.909   1.767  10.896  0.3751 -0.5358  0.3810
17388TIP3    H273580   4.889   1.873  10.789 -0.0632  0.7722  1.7216
17389TIP3   OH273581   5.599   1.308   4.538 -0.3470  0.3144 -0.1584
17389TIP3    H173582   5.549   1.232   4.510 -0.5168  0.3442  0.0549
17389TIP3    H273583   5.611   1.360   4.459  0.6041 -0.3972 -0.5035
17390TIP3   OH273584   0.611   4.185   1.525  0.1750  0.0093 -0.0543
17390TIP3    H173585   0.614   4.117   1.592 -0.0072  2.3226  2.4728
17390TIP3    H273586   0.538   4.241   1.551  2.1357  2.8644 -0.1922
17391TIP3   OH273587   4.369   4.099   4.178  0.4306 -0.5458  0.0890
17391TIP3    H173588   4.403   4.010   4.171  0.2747 -0.6948  1.0768
17391TIP3    H273589   4.401   4.130   4.263 -0.3826 -0.0353  0.2219
17392TIP3   OH273590   5.743   3.739  13.539  0.2287  0.4838  0.0777
17392TIP3    H173591   5.682   3.813  13.540  1.5100  1.6611 -1.8600
17392TIP3    H273592   5.700   3.673  13.486  0.0845  0.7870 -0.1885
17393TIP3   OH273593   0.518   4.242   1.088  0.2264 -0.3525 -0.1860
17393TIP3    H173594   0.432   4.216   1.057  0.5221  1.2224 -2.5292
17393TIP3    H273595   0.501   4.319   1.144 -0.0226 -1.2869  1.0681
17394TIP3   OH273596   0.807   0.519   3.680 -0.0371 -0.0570  0.1897
17394TIP3    H173597   0.724   0.479   3.706 -0.0351 -0.4292 -0.3384
17394TIP3    H273598   0.811   0.601   3.728  0.0804 -0.8144  1.5235
17395TIP3   OH273599   6.427   2.785  14.220 -0.1717 -0.2050  0.0260
17395TIP3    H173600   6.412   2.737  14.302 -3.2670 -1.3069 -1.0247
17395TIP3    H273601   6.508   2.749  14.185 -0.9173 -2.7211  0.6809
17396TIP3   OH273602   4.842   3.242  12.987 -0.3048  0.5023  0.1952
17396TIP3    H173603   4.794   3.191  12.922 -1.3375  0.6601  0.8040
17396TIP3    H273604   4.902   3.180  13.027  2.4920  1.0033 -2.8282
17397TIP3   OH273605   1.705   5.122  14.040 -0.0916  0.0225 -0.1371
17397TIP3    H173606   1.712   5.067  13.962 -0.5584 -0.8368  0.4050
17397TIP3    H273607   1.720   5.211  14.009 -0.8897 -0.2332 -1.3055
17398TIP3   OH273608   5.329   2.858  13.194  0.3685 -0.0232  0.0615
17398TIP3    H173609   5.272   2.896  13.261  2.2982  1.0504  1.1892
17398TIP3    H273610   5.356   2.774  13.231 -0.1325 -0.3385 -0.2811
17399TIP3   OH273611   5.668   5.097  11.379  0.6526 -0.1568  0.6024
17399TIP3    H173612   5.585   5.078  11.334  0.2459  1.8461  0.4027
17399TIP3    H273613   5.643   5.150  11.454  1.4717 -2.3399  2.5389
17400TIP3   OH273614   2.840   1.711  14.572 -0.1040 -0.6518 -0.1312
17400TIP3    H173615   2.777   1.719  14.643 -0.8877 -1.8256 -0.6663
17400TIP3    H273616   2.919   1.675  14.614  0.4716  1.4114  0.6498
17401TIP3   OH273617   5.886   6.637   5.446 -0.6855  0.0553 -0.4665
17401TIP3    H173618   5.871   6.695   5.370  0.1956 -0.9365 -1.4303
17401TIP3    H273619   5.923   6.558   5.408 -1.7229 -1.1075  0.8558
17402TIP3   OH273620   5.720   2.889  14.736  0.1554 -0.5677 -0.3844
17402TIP3    H173621   5.797   2.883  14.793  0.7018  1.1320 -0.8728
17402TIP3    H273622   5.726   2.977  14.697 -1.4400 -0.8205 -1.2902
17403TIP3   OH273623   2.314   4.502   5.554  0.0552 -0.2327  0.2638
17403TIP3    H173624   2.391   4.461   5.594  0.0666 -0.4910 -0.0256
17403TIP3    H273625   2.287   4.568   5.618  2.0493  1.6713 -0.7544
17404TIP3   OH273626   3.507   0.381  12.328  0.0916 -0.0089 -0.2954
17404TIP3    H173627   3.449   0.308  12.304  2.0601 -1.2951 -1.3947
17404TIP3    H273628   3.574   0.382  12.260  0.4045  2.5691 -0.0435
17405TIP3   OH273629   6.033   4.617  12.511  0.8008 -0.2552 -0.2467
17405TIP3    H173630   6.056   4.649  12.424 -0.0576 -0.5842 -0.5982
17405TIP3    H273631   5.971   4.682  12.545  1.6826  0.2640  0.4265
17406TIP3   OH273632   5.107   1.735  13.536 -0.3849 -0.4504 -0.4341
17406TIP3    H173633   5.018   1.702  13.546 -0.4185 -0.3802 -0.5016
17406TIP3    H273634   5.146   1.724  13.623 -0.5647 -0.1765 -0.3187
17407TIP3   OH273635   3.062   0.807  15.121 -0.8382  0.2367 -0.0136
17407TIP3    H173636   2.995   0.873  15.101  0.2143  0.5708 -2.9212
17407TIP3    H273637   3.136   0.831  15.065  2.1321  0.3492  3.6068
17408TIP3   OH273638   4.867   3.591   5.402  0.1953 -0.2743 -0.1423
17408TIP3    H173639   4.849   3.607   5.309 -0.7084 -0.3829  0.0052
17408TIP3    H273640   4.880   3.678   5.439 -2.0486  0.0026  0.1282
17409TIP3   OH273641   1.935   0.383   6.603 -0.2093 -0.2280  0.2972
17409TIP3    H173642   1.867   0.447   6.580 -0.4122 -0.9805 -1.3156
17409TIP3    H273643   1.888   0.300   6.609 -0.1226 -0.1609  3.3456
17410TIP3   OH273644   0.080   4.772  15.645  0.9386 -0.0699  0.1818
17410TIP3    H173645   0.146   4.710  15.673  2.3657  1.3817  0.1678
17410TIP3    H273646   0.128   4.839  15.595 -0.2355  1.8858  1.5049
17411TIP3   OH273647   3.642   6.079   0.638 -0.2096  0.4922 -0.1329
17411TIP3    H173648   3.721   6.044   0.597 -0.6025  1.1680 -1.5437
17411TIP3    H273649   3.570   6.047   0.583 -0.9019  0.2366  0.8798
17412TIP3   OH273650   1.678   3.385   5.606  0.0362  0.4801 -0.1234
17412TIP3    H173651   1.708   3.476   5.606 -0.1491  0.5470  0.4455
17412TIP3    H273652   1.590   3.389   5.644 -0.4553  0.2063 -1.1923
17413TIP3   OH273653   1.030   1.637  15.759 -0.2257  0.2957  0.2060
17413TIP3    H173654   0.986   1.618  15.842  0.5323  1.8433  1.0056
17413TIP3    H273655   1.007   1.728  15.740 -1.2001 -0.3173 -1.8284
17414TIP3   OH273656   1.192   1.565   1.924  0.2531  0.1568 -0.4509
17414TIP3    H173657   1.160   1.573   1.834 -0.2537  0.6460 -0.2308
17414TIP3    H273658   1.143   1.491   1.960  0.3437  0.0588 -0.5286
17415TIP3   OH273659   4.554   5.035  12.678 -0.0911  0.1470  0.2216
17415TIP3    H173660   4.523   4.953  12.717 -2.7704  0.7120 -0.5072
17415TIP3    H273661   4.603   5.078  12.749 -0.8225 -0.9593  1.4461
17416TIP3   OH273662   3.240   1.454   1.677 -0.5262  0.5490 -0.2281
17416TIP3    H173663   3.262   1.487   1.591 -0.6308 -0.1310 -0.5230
17416TIP3    H273664   3.301   1.498   1.737 -1.0777  1.7491 -0.5121
17417TIP3   OH273665   6.693   2.069   3.267  0.6839 -0.6081  0.2836
17417TIP3    H173666   6.676   1.985   3.224  0.9824 -0.0750 -0.9110
17417TIP3    H273667   6.764   2.108   3.216  1.5200 -0.2400  1.6865
17418TIP3   OH273668   5.481   6.587   4.828  0.2553  0.6430  0.1731
17418TIP3    H173669   5.520   6.560   4.745 -0.2231  0.9279 -0.1467
17418TIP3    H273670   5.389   6.604   4.807  0.3118  1.5064  0.5881
17419TIP3   OH273671   3.934   4.961   3.547 -0.1975 -0.0885 -0.2185
17419TIP3    H173672   3.957   5.004   3.630 -1.6110  0.8407 -0.2741
17419TIP3    H273673   3.991   5.003   3.482 -0.0717  0.1794  0.0595
17420TIP3   OH273674   2.121   4.168   5.226  0.1893  0.3071  0.1899
17420TIP3    H173675   2.038   4.182   5.271 -1.4585 -2.0337 -1.8811
17420TIP3    H273676   2.180   4.233   5.264 -1.9964  0.7403  3.1714
17421TIP3   OH273677   2.690   1.204  14.083 -0.1985  0.5719 -0.0258
17421TIP3    H173678   2.655   1.122  14.116 -2.9883  1.0831 -1.4346
17421TIP3    H273679   2.617   1.266  14.086  0.9140  2.1379 -1.8838
17422TIP3   OH273680   1.322   1.911   3.203  0.3142 -0.4843  0.1895
17422TIP3    H173681   1.349   1.953   3.285 -0.4557 -1.4290  0.9424
17422TIP3    H273682   1.232   1.882   3.219 -0.3261  0.4541 -1.4424
17423TIP3   OH273683   2.056   5.972  11.478  0.5136 -0.3311 -0.6593
17423TIP3    H173684   2.056   5.876  11.475  0.4751 -0.3147 -1.1773
17423TIP3    H273685   1.972   5.997  11.440  0.9912 -0.0657 -1.5732
17424TIP3   OH273686   6.210   3.040  13.693 -0.1689 -0.5054  0.5010
17424TIP3    H173687   6.210   3.129  13.728 -0.0203 -0.2715 -0.0913
17424TIP3    H273688   6.294   3.003  13.721  0.4519  0.0611 -0.5539
17425TIP3   OH273689   2.521   0.143  12.697 -0.2601 -0.0199  0.2379
17425TIP3    H173690   2.486   0.064  12.655  0.6239 -0.2014 -0.1843
17425TIP3    H273691   2.526   0.120  12.790  1.9918 -1.2865 -0.1209
17426TIP3   OH273692   2.378   5.892  16.244  0.1648 -0.8343 -0.2975
17426TIP3    H173693   2.308   5.896  16.310  0.1616  0.9048 -0.3755
17426TIP3    H273694   2.358   5.813  16.194 -1.7421 -0.3931 -0.3084
17427TIP3   OH273695   1.753   5.230   1.123  0.2241  1.0584  0.7861
17427TIP3    H173696   1.758   5.170   1.197 -1.6854  1.6448  1.4475
17427TIP3    H273697   1.668   5.212   1.083  1.7775 -0.2571 -2.2115
17428TIP3   OH273698   1.314   1.778   2.057  0.1622  0.0519 -0.1527
17428TIP3    H173699   1.317   1.772   2.153 -2.4108  0.5443  0.0179
17428TIP3    H273700   1.294   1.690   2.027  3.0289 -0.5882 -0.4571
17429TIP3   OH273701   4.631   6.472   1.747 -0.6110 -0.6014 -0.3940
17429TIP3    H173702   4.613   6.492   1.656 -0.5403 -1.5349 -0.6213
17429TIP3    H273703   4.723   6.494   1.759  0.1460 -2.9954 -1.2964
17430TIP3   OH273704   2.618   3.584  13.322 -0.0371 -0.4752 -0.2205
17430TIP3    H173705   2.636   3.544  13.236  0.7094 -1.2401  0.2728
17430TIP3    H273706   2.688   3.648  13.334  0.7614 -1.4458  0.4645
17431TIP3   OH273707   2.466   3.170  11.606 -0.3659  0.2718 -0.1439
17431TIP3    H173708   2.478   3.076  11.621 -3.0137 -0.1800 -0.3518
17431TIP3    H273709   2.535   3.211  11.658  1.6421 -1.7801 -1.0256
17432TIP3   OH273710   1.591   0.568  13.035 -0.1734  0.0070  0.1703
17432TIP3    H173711   1.510   0.616  13.050 -1.3708 -2.1517  1.0770
17432TIP3    H273712   1.638   0.575  13.118 -0.5625 -0.7318  0.4605
17433TIP3   OH273713   1.087   4.604  13.002  0.1611  0.2176  0.4906
17433TIP3    H173714   1.180   4.587  13.018  0.1307 -0.3784  0.0558
17433TIP3    H273715   1.044   4.584  13.085  0.2428 -1.0020  0.2638
17434TIP3   OH273716   4.507   5.146   0.162 -0.3929 -0.1952 -0.2357
17434TIP3    H173717   4.479   5.164   0.072 -0.8162 -0.9138 -0.2566
17434TIP3    H273718   4.437   5.092   0.199 -1.1870  1.6778  1.1754
17435TIP3   OH273719   3.587   2.762  11.951 -0.2939  0.2455 -0.1866
17435TIP3    H173720   3.564   2.671  11.931  1.3725 -0.1524 -0.4152
17435TIP3    H273721   3.653   2.785  11.887  0.9003  0.8836  1.2180
17436TIP3   OH273722   3.546   6.675  15.578 -0.2541  0.4487  0.2635
17436TIP3    H173723   3.637   6.667  15.605 -0.7222  1.4128  2.3215
17436TIP3    H273724   3.540   6.762  15.538  0.1840 -0.5236 -2.0372
17437TIP3   OH273725   5.701   2.209   4.868  0.1805  0.3614 -0.1207
17437TIP3    H173726   5.731   2.216   4.777 -0.8765  0.7230 -0.4594
17437TIP3    H273727   5.772   2.247   4.919  0.1773  1.5218 -0.9232
17438TIP3   OH273728   5.396   0.850  15.381  0.9813  0.2554  0.2750
17438TIP3    H173729   5.420   0.901  15.303  1.3497  0.0578  0.2583
17438TIP3    H273730   5.401   0.913  15.453  1.2332  0.2942  0.2244
17439TIP3   OH273731   3.728   6.673  16.592  0.4344  0.3008  0.0316
17439TIP3    H173732   3.677   6.668  16.673  2.5055  2.4311  1.6132
17439TIP3    H273733   3.688   6.744  16.542  0.1808  0.0957 -0.0636
17440TIP3   OH273734   2.429   3.951   0.898  0.0442  0.2591  0.0603
17440TIP3    H173735   2.473   4.028   0.860 -1.0316 -0.0079 -1.8824
17440TIP3    H273736   2.464   3.877   0.848 -2.4377  0.0302 -1.4621
17441TIP3   OH273737   0.892   4.272   3.872 -0.4311 -0.2240  0.0306
17441TIP3    H173738   0.906   4.357   3.914  4.2736 -0.1258 -1.1886
17441TIP3    H273739   0.837   4.292   3.795  0.2216  1.6371  0.0068
17442TIP3   OH273740   2.113   4.179   1.064 -0.1353 -0.3621  0.4936
17442TIP3    H173741   2.142   4.092   1.036 -1.6586 -0.4100 -1.1295
17442TIP3    H273742   2.063   4.213   0.989  1.6767  2.5829  0.4645
17443TIP3   OH273743   3.328   0.522  15.992 -0.5629  0.1746  0.7906
17443TIP3    H173744   3.378   0.489  15.917  2.6041  0.5697  2.5312
17443TIP3    H273745   3.309   0.613  15.969  0.5908  0.3693  0.5361
17444TIP3   OH273746   2.001   5.515  15.446 -0.0807  0.1317  0.7489
17444TIP3    H173747   1.923   5.470  15.413 -0.1678 -0.1132  1.2942
17444TIP3    H273748   2.065   5.446  15.461  0.3890  0.3700 -0.0779
17445TIP3   OH273749   4.244   0.285  16.380  0.5435 -0.0271  0.4743
17445TIP3    H173750   4.289   0.307  16.462 -0.8059  0.6690  1.0575
17445TIP3    H273751   4.253   0.364  16.326 -0.6520  0.4446  0.9228
17446TIP3   OH273752   4.088   5.675   3.034  0.2080 -0.1136 -0.2231
17446TIP3    H173753   4.176   5.663   3.069 -0.8549 -0.1630  2.7821
17446TIP3    H273754   4.037   5.605   3.076 -1.5235  0.8071 -0.7246
17447TIP3   OH273755   5.641   1.306   5.352  0.1231 -0.0085 -0.3147
17447TIP3    H173756   5.681   1.299   5.265  1.5914 -1.2177  0.4267
17447TIP3    H273757   5.702   1.261   5.410 -1.1632  0.2097  1.2510
17448TIP3   OH273758   2.910   1.303   2.834 -0.4850 -0.2321  0.0982
17448TIP3    H173759   2.817   1.282   2.825 -1.0251  1.8038  0.6366
17448TIP3    H273760   2.953   1.242   2.773 -2.3755  0.4297 -2.0589
17449TIP3   OH273761   1.724   0.732  12.414 -0.0527  0.5281  0.0911
17449TIP3    H173762   1.794   0.676  12.380  0.0168  0.5004  0.2781
17449TIP3    H273763   1.753   0.755  12.502 -0.0474  0.9164 -0.0097
17450TIP3   OH273764   4.776   5.299  14.083 -0.3347  0.5301  0.3874
17450TIP3    H173765   4.696   5.261  14.119 -0.9244  0.6683 -0.7417
17450TIP3    H273766   4.751   5.333  13.997  1.0347  0.1880 -0.1790
17451TIP3   OH273767   6.272   1.208  16.382 -0.4632 -0.1382  0.6720
17451TIP3    H173768   6.363   1.205  16.411 -0.4317 -0.4899  0.5397
17451TIP3    H273769   6.238   1.291  16.417 -0.1589 -0.1169  0.9156
17452TIP3   OH273770   3.467   3.073  13.198 -0.0495  0.8699  0.5153
17452TIP3    H173771   3.550   3.030  13.180 -0.6860  0.6940 -2.6235
17452TIP3    H273772   3.423   3.016  13.260  0.9789 -0.5863 -0.0456
17453TIP3   OH273773   4.508   3.071   0.658 -0.0374  0.5558 -0.1698
17453TIP3    H173774   4.472   3.096   0.744  0.5785 -0.2959  0.3534
17453TIP3    H273775   4.536   2.980   0.669  2.5575  1.2355 -0.4236
17454TIP3   OH273776   1.259   2.874   3.678 -0.3094  0.7107 -0.6111
17454TIP3    H173777   1.286   2.909   3.593  1.3193 -0.9779 -0.8353
17454TIP3    H273778   1.340   2.850   3.722 -1.1942  0.2487  0.8686
17455TIP3   OH273779   2.598   2.720   1.208  0.3340 -0.5391  0.5398
17455TIP3    H173780   2.644   2.638   1.226 -0.5565 -0.7757  1.8909
17455TIP3    H273781   2.642   2.785   1.263 -1.0709 -0.8410  2.1447
17456TIP3   OH273782   2.131   5.910   1.615 -0.2163 -0.1632 -0.0541
17456TIP3    H173783   2.156   5.871   1.699 -0.4642  0.9968  0.5918
17456TIP3    H273784   2.055   5.964   1.637  0.4208  1.0619 -0.7979
17457TIP3   OH273785   0.655   6.246   0.407 -0.3155  0.2915 -0.0892
17457TIP3    H173786   0.678   6.223   0.317 -1.9248 -1.7347 -0.0670
17457TIP3    H273787   0.566   6.213   0.418 -0.1459  0.4303  2.2683
17458TIP3   OH273788   3.593   2.911   1.014  0.5245  0.0257 -0.3707
17458TIP3    H173789   3.528   2.862   0.963 -2.0317  1.5870  1.1334
17458TIP3    H273790   3.572   3.003   0.996  0.5336  0.6109  2.1950
17459TIP3   OH273791   4.320   3.620   1.671 -0.4757 -0.1085  0.0641
17459TIP3    H173792   4.225   3.614   1.665 -0.5802  0.6229  0.8051
17459TIP3    H273793   4.341   3.706   1.634  0.0341 -0.8229 -1.3536
17460TIP3   OH273794   1.811   3.370  10.938 -0.0205 -0.1871  0.5341
17460TIP3    H173795   1.838   3.297  10.882 -1.0193  0.6045 -1.0702
17460TIP3    H273796   1.716   3.371  10.934 -0.0420  1.0513  0.6921
17461TIP3   OH273797   1.188   3.302   0.317 -0.1061  0.4002  0.1715
17461TIP3    H173798   1.254   3.235   0.336  2.5797  2.6773 -0.3886
17461TIP3    H273799   1.119   3.256   0.269  1.7614 -1.8797 -0.4848
17462TIP3   OH273800   1.441   6.252  15.170  0.8404  0.0910 -0.0739
17462TIP3    H173801   1.376   6.243  15.099  1.3721 -3.1587 -0.2709
17462TIP3    H273802   1.489   6.332  15.147 -1.2052  1.0323 -1.4749
17463TIP3   OH273803   1.912   3.661  11.384  0.1160 -0.7447  0.1330
17463TIP3    H173804   1.930   3.570  11.410 -1.1742 -1.0499  0.0453
17463TIP3    H273805   1.887   3.655  11.292  0.2162 -0.2703  0.0757
17464TIP3   OH273806   1.224   3.857   5.077  0.0088 -0.5323  0.2123
17464TIP3    H173807   1.197   3.805   5.001 -3.4813  1.7701 -0.3545
17464TIP3    H273808   1.160   3.833   5.145  1.8856 -1.1055  1.8590
17465TIP3   OH273809   2.518   1.563   3.446  0.1468  0.1912  0.0261
17465TIP3    H173810   2.442   1.505   3.461  0.4622 -0.7640 -1.7750
17465TIP3    H273811   2.580   1.537   3.514 -0.4574 -0.2422  0.4356
17466TIP3   OH273812   0.547   3.940   5.022  0.5136 -0.0106 -0.3817
17466TIP3    H173813   0.600   4.007   4.979  1.1192 -0.4287 -0.2977
17466TIP3    H273814   0.559   3.958   5.116 -0.0860  0.3467 -0.3706
17467TIP3   OH273815   1.669   6.015   0.111 -0.0520  0.5410 -0.6048
17467TIP3    H173816   1.612   6.029   0.187  0.1357 -0.1480 -0.3337
17467TIP3    H273817   1.610   5.984   0.042 -0.3826  2.0616 -1.0472
17468TIP3   OH273818   1.459   6.550   6.815 -0.4379 -0.7916  0.2943
17468TIP3    H173819   1.463   6.515   6.726  1.6085  1.3659 -0.5899
17468TIP3    H273820   1.372   6.589   6.822 -0.1274  0.3031 -1.3727
17469TIP3   OH273821   1.262   3.260  14.287  0.1578  0.0206 -0.1614
17469TIP3    H173822   1.189   3.307  14.327 -0.1668 -2.0285  1.8590
17469TIP3    H273823   1.326   3.328  14.266 -1.8113  1.7466 -0.9634
17470TIP3   OH273824   2.640   2.954   3.812 -0.6361 -0.1075  0.1286
17470TIP3    H173825   2.554   2.917   3.791 -1.1460  0.9421  0.3083
17470TIP3    H273826   2.670   2.993   3.730 -0.9904  0.8043  0.4301
17471TIP3   OH273827   3.231   2.587   5.261 -0.0357  0.1952  0.1195
17471TIP3    H173828   3.264   2.675   5.247 -1.9129  1.1175  1.0675
17471TIP3    H273829   3.224   2.549   5.173  1.2170  0.8030 -0.2629
17472TIP3   OH273830   3.697   3.066   1.807  0.1589  0.2720 -0.4991
17472TIP3    H173831   3.708   3.064   1.712  0.4555  0.9655 -0.4828
17472TIP3    H273832   3.748   2.991   1.838 -1.5672 -1.2096 -1.0159
17473TIP3   OH273833   0.224   4.214  12.878 -0.0395 -0.7262 -0.2823
17473TIP3    H173834   0.284   4.190  12.948 -1.6013 -1.0403  1.0109
17473TIP3    H273835   0.280   4.247  12.807  1.5679 -0.1587  1.2014
17474TIP3   OH273836   4.499   3.020   1.281  0.7469  0.0045 -0.1684
17474TIP3    H173837   4.538   2.955   1.339 -1.2981 -0.9070  0.2775
17474TIP3    H273838   4.532   2.996   1.194 -0.3284 -1.9970 -0.0936
17475TIP3   OH273839   5.126   4.409   0.772 -0.7206  0.5536 -0.0578
17475TIP3    H173840   5.211   4.369   0.787 -0.7755  0.2096 -0.6336
17475TIP3    H273841   5.073   4.340   0.732 -1.5570  0.4898  1.1128
17476TIP3   OH273842   3.592   5.050   0.456 -0.1528  0.3849  0.4408
17476TIP3    H173843   3.602   5.116   0.524  0.5628 -0.8082  1.5366
17476TIP3    H273844   3.681   5.023   0.435 -0.4572 -1.5234  1.3743
17477TIP3   OH273845   2.653   1.981  13.696  0.4473 -0.0957 -0.4263
17477TIP3    H173846   2.696   1.987  13.611 -1.6178  0.1286 -1.5255
17477TIP3    H273847   2.611   1.895  13.696 -2.3369  1.1263 -1.1410
17478TIP3   OH273848   2.308   2.323   5.183 -0.4410 -0.1264  0.3015
17478TIP3    H173849   2.238   2.265   5.212 -2.8262  1.4571 -1.8314
17478TIP3    H273850   2.275   2.411   5.198  2.0276  0.7542  1.1194
17479TIP3   OH273851   6.093   2.648   3.563  0.5399 -0.0705  0.1807
17479TIP3    H173852   6.095   2.619   3.472  1.9513  0.7566 -0.0881
17479TIP3    H273853   6.046   2.579   3.610  0.9239 -1.1389 -0.9527
17480TIP3   OH273854   6.532   0.786  11.328 -0.1482 -0.4222  0.6008
17480TIP3    H173855   6.580   0.820  11.403  1.5278  0.6392 -0.8685
17480TIP3    H273856   6.596   0.734  11.279 -1.4197 -1.7994  0.3106
17481TIP3   OH273857   1.373   0.895  15.604  0.6151  0.5566  0.4537
17481TIP3    H173858   1.466   0.883  15.623  1.0394  0.9529 -1.1449
17481TIP3    H273859   1.334   0.921  15.687  1.3902 -2.3490  1.8312
17482TIP3   OH273860   2.448   2.979   5.429 -0.2570  0.2299 -0.6436
17482TIP3    H173861   2.500   2.898   5.429 -0.6154 -0.0314  0.8602
17482TIP3    H273862   2.410   2.983   5.341 -0.3350 -1.3123 -0.7118
17483TIP3   OH273863   5.566   2.009   0.869  0.3323  0.0024 -0.1107
17483TIP3    H173864   5.539   2.038   0.956  2.4399 -0.8588  0.8958
17483TIP3    H273865   5.491   2.031   0.813 -1.0549  0.6742  1.8626
17484TIP3   OH273866   3.061   5.853   1.722  0.8619  0.4822  0.4666
17484TIP3    H173867   3.136   5.824   1.670 -0.9370 -0.3260 -1.8612
17484TIP3    H273868   2.987   5.800   1.689 -1.1203  2.6110  1.2223
17485TIP3   OH273869   3.525   1.723  12.881  0.1207  0.2687  0.4870
17485TIP3    H173870   3.543   1.665  12.955  1.5897 -3.9484 -2.7793
17485TIP3    H273871   3.611   1.750  12.850 -0.3898  0.6488 -0.6448
17486TIP3   OH273872   5.739   5.053   2.248  0.1854  0.4667  0.0839
17486TIP3    H173873   5.804   5.098   2.195  0.9937  0.3915  0.9904
17486TIP3    H273874   5.703   4.986   2.190 -1.0331  2.1972 -1.2998
17487TIP3   OH273875   2.097   2.218   5.290  0.1448  0.5879  0.0079
17487TIP3    H173876   2.032   2.233   5.358 -0.9649  0.1967 -0.9507
17487TIP3    H273877   2.102   2.123   5.281 -0.4199  0.6499 -1.1082
17488TIP3   OH273878   6.690   5.916   4.125 -0.1715 -0.0462  0.3714
17488TIP3    H173879   6.600   5.916   4.159 -0.7567  0.7922 -1.0980
17488TIP3    H273880   6.706   5.826   4.099 -0.9985  0.0122 -0.3670
17489TIP3   OH273881   5.404   6.641  13.117 -0.7881 -0.3409  0.9144
17489TIP3    H173882   5.379   6.566  13.063 -0.3761  1.1534 -1.5569
17489TIP3    H273883   5.329   6.655  13.175 -0.3628 -3.3219  2.3231
17490TIP3   OH273884   0.400   0.740   3.039  0.3920  0.0648  0.3636
17490TIP3    H173885   0.461   0.813   3.039  0.2273  0.2268 -0.9885
17490TIP3    H273886   0.331   0.766   2.978  0.3462 -1.2202 -0.1798
17491TIP3   OH273887   2.296   3.214  14.179  0.8715 -0.6613 -0.0891
17491TIP3    H173888   2.260   3.152  14.115  0.9645 -2.8408  1.8422
17491TIP3    H273889   2.222   3.271  14.201  0.5150 -0.6596 -1.1975
17492TIP3   OH273890   4.428   3.673  13.341 -0.1795  0.5071  0.0473
17492TIP3    H173891   4.509   3.713  13.308  1.0951 -2.7695 -1.2699
17492TIP3    H273892   4.370   3.671  13.265 -0.1293 -0.2914  0.0219
17493TIP3   OH273893   2.802   4.524  11.702 -0.0723 -0.4289 -0.0331
17493TIP3    H173894   2.885   4.480  11.684  0.0888 -0.6121  1.0763
17493TIP3    H273895   2.755   4.521  11.619  0.7786 -0.8754 -0.5124
17494TIP3   OH273896   4.518   5.066  15.719 -0.1882  0.5881 -0.4313
17494TIP3    H173897   4.558   4.993  15.765 -0.2554  0.6589 -0.2586
17494TIP3    H273898   4.535   5.049  15.627  0.5255  0.7825 -0.3426
17495TIP3   OH273899   3.988   1.719   5.329  0.2378  0.2704 -0.7263
17495TIP3    H173900   3.923   1.675   5.274 -0.8518 -0.4092  1.0114
17495TIP3    H273901   3.939   1.744   5.407  1.7860  0.9867  0.0567
17496TIP3   OH273902   5.616   5.453  14.176 -0.4288  0.1922 -0.2047
17496TIP3    H173903   5.523   5.440  14.191 -0.6810 -0.9737 -2.4484
17496TIP3    H273904   5.625   5.547  14.159 -1.5994  0.0119 -2.1039
17497TIP3   OH273905   4.521   5.327   4.126  0.4121  0.2464  0.5487
17497TIP3    H173906   4.554   5.258   4.184  0.0133  0.2302  0.7593
17497TIP3    H273907   4.518   5.286   4.040 -0.8394 -0.3507  0.8490
17498TIP3   OH273908   1.996   2.426  14.481  0.1102 -0.0906  0.2617
17498TIP3    H173909   2.001   2.476  14.400 -2.9195 -0.9213 -0.6037
17498TIP3    H273910   1.931   2.472  14.534  1.4518 -0.0071  1.9280
17499TIP3   OH273911   0.860   1.965  11.382 -0.4746  0.2434  0.2564
17499TIP3    H173912   0.894   1.936  11.466  0.7335  1.7111  0.3131
17499TIP3    H273913   0.779   1.914  11.370  1.1214 -2.5769  0.6155
17500TIP3   OH273914   6.042   6.474  14.797  0.1522 -0.6950  0.9618
17500TIP3    H173915   5.951   6.495  14.815  0.4786 -0.2586  2.1814
17500TIP3    H273916   6.052   6.384  14.825  0.0519 -0.8090  0.6367
17501TIP3   OH273917   3.590   4.256   5.884 -0.1118  0.0798 -0.0796
17501TIP3    H173918   3.653   4.189   5.858  0.2586  0.0581  0.8368
17501TIP3    H273919   3.542   4.217   5.958  1.4195  1.4991  1.7564
17502TIP3   OH273920   1.581   4.034  16.057 -0.2817 -0.4316  0.1616
17502TIP3    H173921   1.640   4.006  16.126 -1.4208 -1.5734  0.6957
17502TIP3    H273922   1.515   3.965  16.051 -0.7979  0.1470 -1.3513
17503TIP3   OH273923   1.066   0.821  14.884 -0.1835  0.5667  0.3928
17503TIP3    H173924   1.019   0.903  14.872  0.3358  0.5644 -2.3095
17503TIP3    H273925   1.158   0.844  14.875 -0.0083 -0.2308 -0.0138
17504TIP3   OH273926   1.143   0.169   1.872  0.0015 -0.1615 -0.2262
17504TIP3    H173927   1.069   0.215   1.912 -1.2254 -1.8510 -0.4057
17504TIP3    H273928   1.187   0.127   1.946  1.0301  1.1462 -0.0777
17505TIP3   OH273929   3.176   3.820  11.578  0.0198  0.2585 -0.8374
17505TIP3    H173930   3.207   3.871  11.503  1.4771 -1.4735 -1.4878
17505TIP3    H273931   3.254   3.774  11.610 -1.2916 -1.9664 -0.6357
17506TIP3   OH273932   6.317   2.524   2.557 -0.0021  0.1692 -0.2936
17506TIP3    H173933   6.273   2.505   2.639 -1.6001 -1.6877 -1.5004
17506TIP3    H273934   6.282   2.610   2.531 -2.1243 -0.7179 -0.6234
17507TIP3   OH273935   6.201   5.938  15.577  0.0753  0.1092 -0.0785
17507TIP3    H173936   6.118   5.894  15.595  0.4503 -0.3558  0.5454
17507TIP3    H273937   6.228   5.975  15.661 -0.2294  1.5736 -0.5811
17508TIP3   OH273938   4.573   3.217  13.389  0.0528  0.1278 -0.0050
17508TIP3    H173939   4.510   3.230  13.318 -0.4654  0.1416  0.4510
17508TIP3    H273940   4.519   3.200  13.466  0.6348 -1.1681  0.1394
17509TIP3   OH273941   6.659   6.422   4.162 -0.3861  0.1510  0.1008
17509TIP3    H173942   6.754   6.436   4.161 -0.2064 -1.0213 -0.2744
17509TIP3    H273943   6.626   6.485   4.097  0.2696 -0.2828 -0.6855
17510TIP3   OH273944   4.161   4.565  12.965  0.1346  0.5651 -0.5487
17510TIP3    H173945   4.173   4.560  13.060 -0.2831  0.3799 -0.5023
17510TIP3    H273946   4.144   4.475  12.938  1.1235  0.4764 -0.9292
17511TIP3   OH273947   5.246   1.590  10.824 -0.4105  0.6479 -0.1770
17511TIP3    H173948   5.272   1.628  10.739 -1.0231  0.2965 -0.5254
17511TIP3    H273949   5.276   1.499  10.819  0.2916  0.8409  0.3214
17512TIP3   OH273950   6.725   4.230  15.274 -0.3636 -0.1756  0.0606
17512TIP3    H173951   6.705   4.228  15.181  0.1740 -3.2854 -0.1105
17512TIP3    H273952   6.639   4.238  15.317 -0.8472 -1.0465 -0.7121
17513TIP3   OH273953   3.216   3.061  15.827 -0.0335 -0.1126 -0.2939
17513TIP3    H173954   3.197   3.133  15.767 -0.2665 -0.3876 -0.5516
17513TIP3    H273955   3.295   3.089  15.873  0.5737 -0.2207 -1.2528
17514TIP3   OH273956   4.595   0.319  15.267  0.5647  0.1051 -0.0328
17514TIP3    H173957   4.674   0.350  15.224  1.5669  1.6671  2.6598
17514TIP3    H273958   4.523   0.359  15.217  1.5309  0.0103 -1.5389
17515TIP3   OH273959   0.012   3.321  12.550  0.9632 -0.2173 -0.1007
17515TIP3    H173960  -0.075   3.302  12.586  1.6522 -2.0089  0.7240
17515TIP3    H273961   0.047   3.390  12.606 -0.7699  2.3550 -1.8820
17516TIP3   OH273962   5.220   6.322  10.867 -0.0636 -0.0086  0.4208
17516TIP3    H173963   5.205   6.254  10.801  0.9183  2.0679 -2.1288
17516TIP3    H273964   5.269   6.390  10.821  0.0403  1.9325  3.1397
17517TIP3   OH273965   6.605   1.458   0.786  0.8827  0.0770  0.3407
17517TIP3    H173966   6.592   1.545   0.749 -0.4733 -0.3391 -0.2039
17517TIP3    H273967   6.652   1.410   0.718  0.0750 -0.1194 -0.0956
17518TIP3   OH273968   5.833   0.884   4.242 -0.2848 -0.2137  0.3941
17518TIP3    H173969   5.898   0.886   4.171  1.6607 -2.8715  1.9466
17518TIP3    H273970   5.862   0.952   4.302 -0.9777  0.9062 -0.4870
17519TIP3   OH273971   3.864   4.747  13.653 -0.2831  0.1449  0.0230
17519TIP3    H173972   3.952   4.725  13.683 -0.9024  0.7124  2.5387
17519TIP3    H273973   3.819   4.663  13.645  0.4300 -0.1406 -1.2188
17520TIP3   OH273974   1.881   6.385  11.525  0.2293  0.1197  0.1779
17520TIP3    H173975   1.838   6.367  11.441  1.6508  1.1547 -0.8145
17520TIP3    H273976   1.818   6.439  11.573  0.0149  0.8182 -0.8617
17521TIP3   OH273977   3.016   0.405   2.484 -0.1903  0.7236 -0.1002
17521TIP3    H173978   2.936   0.376   2.440  0.2623 -1.2887  0.3359
17521TIP3    H273979   3.083   0.404   2.415 -0.1969  0.9231 -0.1122
17522TIP3   OH273980   5.846   3.844   5.793 -0.4416 -0.0091  0.1106
17522TIP3    H173981   5.900   3.892   5.856 -1.0058  1.4269 -0.4493
17522TIP3    H273982   5.852   3.895   5.713 -2.6216  0.2433  0.0304
17523TIP3   OH273983   6.044   2.030   6.278 -0.1385  0.0625  0.2785
17523TIP3    H173984   6.125   1.991   6.247  0.8137  1.7575  0.4953
17523TIP3    H273985   6.007   1.966   6.339  0.1694 -1.4370 -1.0402
17524TIP3   OH273986   1.776   6.279   2.729 -0.2944  0.6222 -0.3313
17524TIP3    H173987   1.732   6.215   2.785  0.0586  1.3937  0.8751
17524TIP3    H273988   1.859   6.238   2.706 -0.9175 -0.1597 -1.2357
17525TIP3   OH273989   2.650   2.290  10.668 -0.0146  0.3675 -0.1203
17525TIP3    H173990   2.702   2.367  10.644  0.2827  0.2514  0.1513
17525TIP3    H273991   2.712   2.217  10.666 -0.0995  0.2744  0.4789
17526TIP3   OH273992   3.033   4.933  15.713  0.5722  0.2291 -0.2751
17526TIP3    H173993   3.089   5.010  15.705 -1.5089  2.0673  1.4390
17526TIP3    H273994   3.021   4.921  15.808 -2.1368  0.1671 -0.5352
17527TIP3   OH273995   0.789   4.334   2.042  0.2279 -0.1918  0.4660
17527TIP3    H173996   0.807   4.269   1.974  2.4022 -0.5412  1.2730
17527TIP3    H273997   0.763   4.413   1.995  0.1732 -0.8792 -0.6779
17528TIP3   OH273998   4.786   6.519   0.836 -0.5255 -0.3969  0.4784
17528TIP3    H173999   4.876   6.488   0.846 -0.9179 -1.0710  2.2784
17528TIP3    H274000   4.735   6.465   0.896 -2.5969 -1.7188 -2.2818
17529TIP3   OH274001   0.356   1.879  15.214 -0.2915  0.0333 -0.7380
17529TIP3    H174002   0.391   1.817  15.150  1.7153 -0.1271  0.4394
17529TIP3    H274003   0.411   1.868  15.291  0.7625  3.8244 -0.7094
17530TIP3   OH274004   5.720   2.379  17.004 -0.1487 -0.3151 -0.1138
17530TIP3    H174005   5.749   2.291  17.028  0.1996  0.1536  1.3188
17530TIP3    H274006   5.795   2.435  17.024 -0.1610  0.2600 -1.5577
17531TIP3   OH274007   2.189   1.117  16.338 -0.3492  0.0382  0.1454
17531TIP3    H174008   2.208   1.072  16.421  0.2417 -0.3136 -0.1704
17531TIP3    H274009   2.119   1.179  16.360  1.2242  1.4723  1.4155
17532TIP3   OH274010   4.172   3.262  11.153 -0.2822  0.3172 -0.5691
17532TIP3    H174011   4.171   3.191  11.089 -2.3029 -1.4081  1.1936
17532TIP3    H274012   4.237   3.236  11.218  0.8445  1.4293 -1.2061
17533TIP3   OH274013   5.301   3.136  12.697  0.2272  0.0058 -0.4336
17533TIP3    H174014   5.254   3.066  12.651  1.0646 -0.2529 -0.9254
17533TIP3    H274015   5.297   3.111  12.789 -0.7950  0.1183 -0.4380
17534TIP3   OH274016   4.111   2.386   5.323  0.3314 -0.1812 -0.5935
17534TIP3    H174017   4.177   2.378   5.392 -2.0062 -1.0506  1.7139
17534TIP3    H274018   4.086   2.296   5.304 -2.9388  0.0998  1.5738
17535TIP3   OH274019   4.237   0.182  15.780  0.5553 -0.4158  0.3025
17535TIP3    H174020   4.202   0.228  15.703  0.4665 -0.6558  0.1989
17535TIP3    H274021   4.325   0.217  15.791  0.7608 -0.7616 -0.2239
17536TIP3   OH274022   3.309   6.395   4.955 -0.1989 -0.3351  0.0169
17536TIP3    H174023   3.345   6.318   4.910  0.3143  0.6572 -1.3353
17536TIP3    H274024   3.383   6.429   5.006  0.2650  0.5908 -1.2384
17537TIP3   OH274025   2.527   0.729   0.670  0.2950 -0.2127 -0.2008
17537TIP3    H174026   2.514   0.759   0.580  0.7868  0.8013  0.0498
17537TIP3    H274027   2.620   0.709   0.677 -0.2146 -3.3035 -0.7636
17538TIP3   OH274028   1.255   3.079   1.221  0.6323 -0.2197  0.0390
17538TIP3    H174029   1.241   3.045   1.133  0.9568  0.1754 -0.1724
17538TIP3    H274030   1.192   3.032   1.276 -0.6077  0.5697 -0.6453
17539TIP3   OH274031   1.583   6.297   5.230  0.6362 -0.1615 -0.0649
17539TIP3    H174032   1.606   6.261   5.144  1.7300 -2.5018  1.1300
17539TIP3    H274033   1.495   6.334   5.217  0.1976 -1.6704 -1.8738
17540TIP3   OH274034   3.467   3.588  14.115  0.3579 -0.4970 -0.0668
17540TIP3    H174035   3.487   3.555  14.202 -0.8106 -1.5524 -0.1675
17540TIP3    H274036   3.425   3.514  14.070  0.4144  0.2030 -1.3255
17541TIP3   OH274037   2.799   4.525  17.159  0.3457 -0.0026 -0.1825
17541TIP3    H174038   2.712   4.547  17.125  0.7012 -0.0837 -1.1614
17541TIP3    H274039   2.859   4.576  17.106  0.9753 -0.8630 -0.3141
17542TIP3   OH274040   0.534   1.260   3.984 -0.3735 -0.2461 -0.4868
17542TIP3    H174041   0.489   1.291   3.906 -1.0766  1.0579  0.3870
17542TIP3    H274042   0.489   1.305   4.056  2.1620  0.9288  0.4705
17543TIP3   OH274043   3.172   4.912   0.674  0.1051  0.3065  0.1360
17543TIP3    H174044   3.119   4.938   0.750  0.7855  0.6786  0.4959
17543TIP3    H274045   3.186   4.994   0.626 -1.8296 -0.1944 -1.4020
17544TIP3   OH274046   0.925   0.340   6.521  0.4674 -0.2014 -0.1420
17544TIP3    H174047   0.884   0.261   6.485 -0.9075  0.5364 -0.2626
17544TIP3    H274048   0.873   0.412   6.486  0.5875  0.6696  1.3998
17545TIP3   OH274049   0.096   4.121  15.477  0.5923 -0.5305 -0.3201
17545TIP3    H174050   0.034   4.155  15.413 -2.3150  0.9788  2.9813
17545TIP3    H274051   0.056   4.039  15.507  2.5828 -1.9178 -1.2216
17546TIP3   OH274052   5.194   0.021   0.410  0.0927 -0.3301 -0.5274
17546TIP3    H174053   5.231  -0.066   0.398  0.1006 -0.6960  1.7044
17546TIP3    H274054   5.268   0.074   0.442 -0.5261 -0.2517  0.8540
17547TIP3   OH274055   4.228   3.109  12.739 -0.8530 -0.5957 -0.0078
17547TIP3    H174056   4.246   3.158  12.819 -0.9792 -0.2137 -0.2082
17547TIP3    H274057   4.218   3.019  12.767  0.7293 -0.7320  0.2035
17548TIP3   OH274058   3.091   4.310   3.801  0.4030 -0.4378  0.7423
17548TIP3    H174059   3.039   4.390   3.805  2.5335  0.9695  2.3527
17548TIP3    H274060   3.033   4.242   3.835 -2.0599 -0.0727 -2.2263
17549TIP3   OH274061   1.658   1.810  13.104 -0.1330  0.4339 -0.5492
17549TIP3    H174062   1.591   1.807  13.172  0.8217 -0.5673  0.4027
17549TIP3    H274063   1.609   1.813  13.022 -1.4342 -2.1344  0.0059
17550TIP3   OH274064   2.876   2.485  12.401  0.6357  0.4426 -0.0120
17550TIP3    H174065   2.813   2.449  12.463  1.6479 -0.5048  0.4978
17550TIP3    H274066   2.848   2.576  12.387 -0.7808  0.0652  0.2530
17551TIP3   OH274067   2.896   2.541  12.072 -0.7737  0.1571  0.5370
17551TIP3    H174068   2.982   2.517  12.107  0.2244  0.2634 -1.6882
17551TIP3    H274069   2.835   2.480  12.113  0.5264 -0.6641  1.2969
17552TIP3   OH274070   5.553   3.388  12.851  0.2396 -0.0180 -0.3546
17552TIP3    H174071   5.584   3.420  12.766 -1.6691 -2.5513 -2.1763
17552TIP3    H274072   5.459   3.406  12.850 -0.0129 -1.1827  0.6753
17553TIP3   OH274073   1.860   0.236   2.276 -0.0286 -0.2587  0.2606
17553TIP3    H174074   1.900   0.320   2.299  0.6937 -0.9047  1.4802
17553TIP3    H274075   1.909   0.206   2.200 -0.0852  0.2910  0.0097
17554TIP3   OH274076   4.457   0.975   5.171  0.2907  0.7675 -0.0020
17554TIP3    H174077   4.420   0.887   5.168 -0.7785  1.1981 -0.0251
17554TIP3    H274078   4.551   0.963   5.160  0.3114 -0.4757  1.3845
17555TIP3   OH274079   0.584   5.864  14.931 -0.8329 -0.1897  0.1667
17555TIP3    H174080   0.605   5.880  14.839 -1.7497  1.4317  0.1950
17555TIP3    H274081   0.551   5.948  14.963  0.6769 -0.3426  2.3505
17556TIP3   OH274082   5.093   3.759   5.192 -0.5426 -0.1568  0.1176
17556TIP3    H174083   5.155   3.769   5.120  0.4862 -1.6093  0.7562
17556TIP3    H274084   5.056   3.846   5.204  1.4020  0.7772 -0.2549
17557TIP3   OH274085   5.335   5.087  14.891 -0.0166 -0.8044  0.1449
17557TIP3    H174086   5.313   5.028  14.819  0.8264 -0.4318 -0.4291
17557TIP3    H274087   5.428   5.106  14.879 -0.1552  0.2315  0.6330
17558TIP3   OH274088   2.151   5.145  16.684  0.1959  0.1241  0.1042
17558TIP3    H174089   2.154   5.179  16.595 -1.7451 -1.0800 -0.4860
17558TIP3    H274090   2.106   5.214  16.734  2.2529  1.2852  0.4607
17559TIP3   OH274091   0.615   4.668   3.815  0.4434  0.7150 -1.0322
17559TIP3    H174092   0.625   4.583   3.857  2.6112  1.2231 -0.4129
17559TIP3    H274093   0.639   4.731   3.882 -2.4400  1.9806 -1.0262
17560TIP3   OH274094   6.368   3.413  11.451 -0.3535  0.6872  0.3136
17560TIP3    H174095   6.341   3.453  11.369  0.7723 -0.0452 -0.4422
17560TIP3    H274096   6.365   3.319  11.435  0.5554  0.5470  0.8716
17561TIP3   OH274097   5.671   1.913  11.695 -0.0724 -0.2749 -0.0482
17561TIP3    H174098   5.575   1.906  11.690 -0.1201  0.3059 -0.0000
17561TIP3    H274099   5.701   1.876  11.612 -0.1932 -2.7087  0.9039
17562TIP3   OH274100   6.069   2.050  14.811  0.3413  0.3259  0.0076
17562TIP3    H174101   6.100   2.100  14.735 -0.0049 -2.1244 -1.8741
17562TIP3    H274102   5.974   2.048  14.801  0.2626  0.2795  0.7377
17563TIP3   OH274103   1.373   4.110  16.386 -0.8030 -0.8515  0.5382
17563TIP3    H174104   1.433   4.184  16.395 -1.2869 -0.5156  1.0484
17563TIP3    H274105   1.336   4.120  16.298 -0.3793 -0.8570  0.3585
17564TIP3   OH274106   3.487   5.036   5.591 -0.3378  0.9858  0.0779
17564TIP3    H174107   3.563   5.039   5.533  0.0361 -0.6489  0.4332
17564TIP3    H274108   3.485   5.122   5.632  1.9695  0.7510  0.8356
17565TIP3   OH274109   4.589   0.266  15.543 -0.0603 -0.7520  0.9516
17565TIP3    H174110   4.568   0.285  15.452  1.1670 -1.1296  0.5738
17565TIP3    H274111   4.532   0.193  15.566 -2.0671  0.8291  1.2417
17566TIP3   OH274112   0.472   2.663   4.704 -0.2837 -0.1681 -0.3887
17566TIP3    H174113   0.496   2.741   4.654 -0.0567 -0.7733 -1.2428
17566TIP3    H274114   0.540   2.655   4.771  0.5392 -0.4613 -1.2334
17567TIP3   OH274115   0.485   1.702  15.008 -0.0326 -0.2094 -0.1025
17567TIP3    H174116   0.531   1.699  14.924 -1.1577  1.5561 -0.8501
17567TIP3    H274117   0.434   1.621  15.010  0.8103 -0.7676 -0.6221
17568TIP3   OH274118   0.935   5.348   3.125  0.6186  0.0284 -0.5487
17568TIP3    H174119   1.015   5.298   3.145  0.6705  0.7519  1.2867
17568TIP3    H274120   0.864   5.290   3.149  0.5814 -0.4681 -1.8091
17569TIP3   OH274121   4.852   6.225  11.679  0.1291 -0.4842  0.2304
17569TIP3    H174122   4.778   6.245  11.735  0.7506  0.3741  0.7754
17569TIP3    H274123   4.831   6.141  11.639 -1.8472  0.4608 -0.8536
17570TIP3   OH274124   2.177   4.633  15.496 -0.5456 -0.5474  0.0034
17570TIP3    H174125   2.187   4.620  15.590  0.8708  1.3083  0.1624
17570TIP3    H274126   2.266   4.641  15.463 -1.0359 -0.6957 -1.4389
17571TIP3   OH274127   1.251   5.520  13.236  0.1167  0.3065  0.1929
17571TIP3    H174128   1.281   5.464  13.308  0.7036  0.8854  0.4011
17571TIP3    H274129   1.303   5.600  13.243 -0.0318  0.4974 -0.6914
17572TIP3   OH274130   5.524   3.524   2.115  0.1618 -0.6236 -0.3407
17572TIP3    H174131   5.604   3.486   2.151  1.0174  0.3757 -1.1473
17572TIP3    H274132   5.471   3.449   2.090  0.8597 -1.2966  0.1652
17573TIP3   OH274133   1.851   5.039   2.287 -0.4619  0.1742  0.0341
17573TIP3    H174134   1.923   5.034   2.350 -0.2239 -0.2963 -0.2754
17573TIP3    H274135   1.825   5.132   2.289 -0.2280  0.2346  0.5647
17574TIP3   OH274136   5.000   4.628  14.486 -0.8678 -0.0176  0.3206
17574TIP3    H174137   5.090   4.608  14.512 -1.3427 -2.0883  0.5816
17574TIP3    H274138   4.946   4.592  14.557 -1.9754 -0.8272 -0.8767
17575TIP3   OH274139   5.555   3.928  13.211  0.2024 -0.3381  0.4287
17575TIP3    H174140   5.642   3.964  13.226 -0.0647  0.5635 -0.0905
17575TIP3    H274141   5.546   3.857  13.275  0.9926  0.0970  1.0319
17576TIP3   OH274142   3.186   1.985  12.100 -0.1455 -0.0501 -0.2860
17576TIP3    H174143   3.272   1.947  12.118  0.2112 -0.0651 -1.8814
17576TIP3    H274144   3.124   1.912  12.108  0.1153 -0.2538 -0.1308
17577TIP3   OH274145   1.345   2.834  16.947 -0.5108  0.8066 -0.2218
17577TIP3    H174146   1.270   2.809  17.001  0.6275  0.1545  1.1280
17577TIP3    H274147   1.331   2.926  16.927 -0.7220  1.2204  1.6661
17578TIP3   OH274148   4.989   0.199  15.560 -0.1433  0.3563 -0.0448
17578TIP3    H174149   5.061   0.261  15.547  0.4230 -0.0938  0.8296
17578TIP3    H274150   4.953   0.185  15.472  0.5183  0.9754 -0.4229
17579TIP3   OH274151   0.152   4.778   3.113 -0.0378  0.4618 -0.1457
17579TIP3    H174152   0.119   4.811   3.030  1.6656  0.4524 -0.8779
17579TIP3    H274153   0.165   4.684   3.099  0.0379  0.4165  0.2076
17580TIP3   OH274154   6.667   0.591   0.038 -0.5294 -0.1686 -0.4767
17580TIP3    H174155   6.664   0.496   0.048 -1.3751 -0.0467  0.5016
17580TIP3    H274156   6.578   0.620   0.053 -0.4510  0.7271 -1.5531
17581TIP3   OH274157   4.598   4.512  12.128  0.6167 -0.3299 -0.1523
17581TIP3    H174158   4.643   4.596  12.116  0.9000 -0.4920 -0.2376
17581TIP3    H274159   4.544   4.503  12.049  1.4677 -0.7663 -0.7094
17582TIP3   OH274160   3.245   1.814  14.376  0.4771  0.3811 -0.2699
17582TIP3    H174161   3.178   1.801  14.309  0.7167  1.6763 -0.7961
17582TIP3    H274162   3.261   1.726  14.412 -1.5290  0.0561 -0.0803
17583TIP3   OH274163   0.062   3.046  16.729  0.0211  0.3324  0.2026
17583TIP3    H174164  -0.006   3.086  16.675  0.3055  1.8065  0.8866
17583TIP3    H274165   0.016   2.982  16.782 -0.2463 -1.2654 -1.8230
17584TIP3   OH274166   5.359   2.051  15.643 -0.1873 -0.0799 -0.5046
17584TIP3    H174167   5.327   1.963  15.622 -1.9527  0.8129 -1.8901
17584TIP3    H274168   5.377   2.091  15.558 -0.8216  1.3641  0.0054
17585TIP3   OH274169   5.032   3.476  14.803  0.0469 -0.2274  0.2125
17585TIP3    H174170   4.972   3.402  14.790 -0.1331 -0.3421  1.5648
17585TIP3    H274171   5.116   3.435  14.824  0.0836 -0.0490  0.4137
17586TIP3   OH274172   1.853   1.553  13.662 -0.1666 -0.5352 -0.0202
17586TIP3    H174173   1.843   1.588  13.573  0.8561 -1.4040 -0.4978
17586TIP3    H274174   1.803   1.614  13.717  2.2880  2.2798 -0.6412
17587TIP3   OH274175   5.308   2.722  13.713 -0.4959 -0.6398  0.3362
17587TIP3    H174176   5.313   2.628  13.697  1.3514 -1.0570  2.8174
17587TIP3    H274177   5.319   2.731  13.808 -2.8152  1.9710  0.4806
17588TIP3   OH274178   2.345   6.369   0.285 -0.1169  0.0050 -0.0890
17588TIP3    H174179   2.418   6.388   0.226  0.9916 -1.7257  0.6554
17588TIP3    H274180   2.337   6.274   0.284 -1.4535  0.0683  0.9571
17589TIP3   OH274181   6.718   1.180  11.790 -1.0368 -0.2076 -0.0435
17589TIP3    H174182   6.781   1.210  11.724  0.6159  0.9100  1.9240
17589TIP3    H274183   6.733   1.085  11.796 -1.0317 -0.2793 -1.0777
17590TIP3   OH274184   3.681   0.808  11.734 -0.1146  0.3359 -0.1052
17590TIP3    H174185   3.767   0.767  11.730 -0.1510  0.1223  0.9634
17590TIP3    H274186   3.695   0.897  11.702  0.2808 -0.0145 -0.9253
17591TIP3   OH274187   4.601   2.228  15.776 -0.2878  0.6622  0.6489
17591TIP3    H174188   4.585   2.313  15.818  0.0944  1.8600 -1.4753
17591TIP3    H274189   4.673   2.244  15.716 -0.1999 -1.2011  0.1963
17592TIP3   OH274190   6.121   6.437   3.476  0.0682 -0.5859 -0.2106
17592TIP3    H174191   6.107   6.414   3.568 -0.7221  1.3939  0.2217
17592TIP3    H274192   6.176   6.515   3.479 -2.2161  1.1782 -1.2409
17593TIP3   OH274193   1.487   6.424  13.767  0.0598  0.4215  0.0551
17593TIP3    H174194   1.452   6.434  13.679 -0.7565  1.5734  0.4910
17593TIP3    H274195   1.529   6.509  13.786 -1.1514  0.7572  1.3520
17594TIP3   OH274196   3.874   4.252  16.341 -0.8106  0.2045 -0.1112
17594TIP3    H174197   3.826   4.226  16.262 -0.1338 -0.0445 -0.4498
17594TIP3    H274198   3.928   4.326  16.313  0.8264 -1.0427 -0.3939
17595TIP3   OH274199   1.555   0.681  14.361  0.2221  0.7557 -0.3835
17595TIP3    H174200   1.644   0.710  14.385  0.8127  0.2778 -1.8891
17595TIP3    H274201   1.550   0.591  14.394 -0.1724  1.1768  0.7727
17596TIP3   OH274202   1.797   0.922   6.312 -0.3088  0.5534 -0.0987
17596TIP3    H174203   1.800   0.830   6.285  0.9791  0.1589  1.2327
17596TIP3    H274204   1.785   0.971   6.231 -0.0056 -0.7449 -0.9589
17597TIP3   OH274205   0.120   5.097   1.426  0.6509 -0.2268 -0.0303
17597TIP3    H174206   0.044   5.050   1.392  0.2631  0.3292  0.0566
17597TIP3    H274207   0.195   5.045   1.397  0.2641 -0.4797 -0.6004
17598TIP3   OH274208   2.582   2.066  14.141  0.0254  0.2571 -0.1888
17598TIP3    H174209   2.641   2.029  14.205  0.1397  1.2110  0.2803
17598TIP3    H274210   2.537   2.137  14.188  0.0909  0.9544 -1.1371
17599TIP3   OH274211   1.038   4.209  12.890  0.0570 -0.4548  0.2644
17599TIP3    H174212   0.973   4.234  12.824  0.0461 -0.1620  0.3817
17599TIP3    H274213   1.003   4.129  12.930 -0.1619 -0.3778  0.2278
17600TIP3   OH274214   4.012   3.581   5.862  0.0398 -0.0948  0.0710
17600TIP3    H174215   3.965   3.510   5.906  0.6485 -0.5620 -0.0311
17600TIP3    H274216   4.046   3.634   5.934 -2.0630  1.2416  0.1815
17601TIP3   OH274217   5.088   1.954   3.244  0.1508  0.7430  0.1655
17601TIP3    H174218   5.007   1.928   3.289 -0.0339  0.1527 -0.4745
17601TIP3    H274219   5.065   2.035   3.199 -0.3596  0.1400 -0.7013
17602TIP3   OH274220   2.788   2.952  12.436 -0.5003 -0.0482  1.1606
17602TIP3    H174221   2.720   3.005  12.392 -0.1331 -1.7006 -1.6475
17602TIP3    H274222   2.869   2.998  12.417 -0.5023  0.2155  1.7631
17603TIP3   OH274223   2.772   1.458   4.127  0.0884 -0.1454  0.5005
17603TIP3    H174224   2.826   1.525   4.084  0.1620  0.5116  1.5710
17603TIP3    H274225   2.768   1.386   4.065 -1.7214  1.6472 -1.6172
17604TIP3   OH274226   1.165   6.584   4.875  0.5581  0.4078 -0.4337
17604TIP3    H174227   1.252   6.563   4.907  0.8569  0.3642 -1.2391
17604TIP3    H274228   1.123   6.631   4.947 -0.0002 -2.4852  1.2943
17605TIP3   OH274229   1.544   2.690   1.788 -0.3253  0.4927 -0.0515
17605TIP3    H174230   1.636   2.704   1.810 -0.8429  0.9045  2.1351
17605TIP3    H274231   1.509   2.777   1.773 -0.6868  0.4849  0.6924
17606TIP3   OH274232   2.240   5.610   4.095  0.5431  0.3234  0.2941
17606TIP3    H174233   2.307   5.558   4.140  1.0405 -0.1596 -0.9469
17606TIP3    H274234   2.226   5.564   4.013  0.1150  1.5056 -0.3142
17607TIP3   OH274235   0.858   3.186  16.830 -0.4520 -0.2956 -0.1923
17607TIP3    H174236   0.785   3.133  16.797 -0.9520  0.8067 -0.9133
17607TIP3    H274237   0.828   3.218  16.915  0.0000 -1.4567  0.4127
17608TIP3   OH274238   2.610   3.440  14.116  0.2723  0.0916  0.1747
17608TIP3    H174239   2.642   3.372  14.058  1.2024 -0.1857  0.9795
17608TIP3    H274240   2.687   3.469  14.165 -0.4127  0.5300  1.0455
17609TIP3   OH274241   0.644   2.844   2.019  0.3448  0.0492  0.1224
17609TIP3    H174242   0.734   2.825   1.992  1.0529  2.8574  0.2334
17609TIP3    H274243   0.595   2.847   1.937  0.5830 -0.3234 -0.0380
17610TIP3   OH274244   6.585   0.151  11.311  0.3945  0.4857 -0.5627
17610TIP3    H174245   6.494   0.123  11.309  0.1144  1.3848 -0.4359
17610TIP3    H274246   6.582   0.246  11.309  1.2520  0.6186  1.7524
17611TIP3   OH274247   5.553   6.003   6.100  0.5698 -0.0290 -0.5620
17611TIP3    H174248   5.599   6.084   6.078  2.1250 -0.0749  2.0985
17611TIP3    H274249   5.495   6.028   6.171  0.2380 -1.0397 -0.4692
17612TIP3   OH274250   5.088   0.123   4.269 -0.0944 -0.7087 -0.0151
17612TIP3    H174251   5.101   0.035   4.304 -1.3583 -0.8919  0.0361
17612TIP3    H274252   5.000   0.122   4.233 -0.5511  0.8528  0.9444
17613TIP3   OH274253   6.438   5.717  10.478 -0.3248  0.6675 -0.0235
17613TIP3    H174254   6.494   5.789  10.450  1.4006 -1.1649 -1.6354
17613TIP3    H274255   6.415   5.672  10.397 -0.4188 -1.2082  0.9821
17614TIP3   OH274256   3.165   1.752  11.218  0.2181  0.2816  0.1604
17614TIP3    H174257   3.153   1.839  11.255 -0.3164 -0.3244  1.5258
17614TIP3    H274258   3.107   1.696  11.270 -1.3081 -0.5277 -2.2364
17615TIP3   OH274259   3.118   4.541   1.847 -0.8137 -0.2950 -0.0986
17615TIP3    H174260   3.114   4.447   1.860  0.0465 -0.3131  0.1248
17615TIP3    H274261   3.202   4.567   1.887 -0.2695  0.3238 -1.5771
17616TIP3   OH274262   4.922   2.393  15.864  0.1305  0.2440  0.3681
17616TIP3    H174263   4.952   2.327  15.927 -0.9278  0.6970  1.3883
17616TIP3    H274264   4.958   2.475  15.898 -1.6056  0.7020  1.2478
17617TIP3   OH274265   1.876   0.074  11.553 -0.0354  0.5786 -0.4097
17617TIP3    H174266   1.932   0.145  11.520  1.2460 -0.5954 -0.8164
17617TIP3    H274267   1.857   0.021  11.477  1.1683 -0.9585  0.3079
17618TIP3   OH274268   4.150   6.726  15.825  0.4309 -0.2005 -0.2224
17618TIP3    H174269   4.230   6.692  15.786  0.7723 -0.7925  0.9584
17618TIP3    H274270   4.157   6.821  15.815  0.8411 -0.3033 -0.9517
17619TIP3   OH274271   0.815   1.991   3.739  0.0185  0.5906 -0.2306
17619TIP3    H174272   0.821   1.966   3.647 -0.2102  0.0035 -0.0886
17619TIP3    H274273   0.879   2.061   3.749  1.6809 -0.8552 -0.3336
17620TIP3   OH274274   6.356   1.268   1.185  0.4826 -0.3313 -0.4064
17620TIP3    H174275   6.334   1.181   1.151  0.8749 -0.0071 -1.5277
17620TIP3    H274276   6.358   1.324   1.108 -1.0097  0.9644  0.4348
17621TIP3   OH274277   3.422   3.153  16.968  0.2716 -0.7397 -0.1380
17621TIP3    H174278   3.327   3.147  16.980  0.1601  1.9288  1.2063
17621TIP3    H274279   3.458   3.084  17.022 -0.8852 -1.3848 -0.1593
17622TIP3   OH274280   1.634   1.240  14.158  0.4032  0.5329  0.1583
17622TIP3    H174281   1.727   1.254  14.176  1.1653 -2.6778 -0.5794
17622TIP3    H274282   1.596   1.215  14.242  0.8526 -0.7095  0.0216
17623TIP3   OH274283   2.709   0.588  10.940  0.4751 -0.2555 -0.0528
17623TIP3    H174284   2.796   0.550  10.928  1.5785  2.1471 -0.1137
17623TIP3    H274285   2.714   0.675  10.901 -2.8876 -1.0627 -2.8425
17624TIP3   OH274286   0.185   2.249   1.742 -0.1990  0.3275 -0.1016
17624TIP3    H174287   0.247   2.320   1.728 -0.6502  0.6116 -0.6995
17624TIP3    H274288   0.232   2.186   1.797  0.5768  0.5935 -0.4506
17625TIP3   OH274289   0.646   2.989  11.791  0.5120 -0.5374  0.1096
17625TIP3    H174290   0.637   3.034  11.875  1.0311  0.8741 -0.5709
17625TIP3    H274291   0.679   3.055  11.731 -1.0669 -1.1537 -1.5482
17626TIP3   OH274292   6.134   0.165   5.435  0.0589  0.4313 -0.2869
17626TIP3    H174293   6.114   0.180   5.527 -1.0796  0.0412 -0.4599
17626TIP3    H274294   6.198   0.094   5.435  0.2471  0.5982  0.1975
17627TIP3   OH274295   1.526   4.677   1.921  0.8219 -0.3283 -0.2099
17627TIP3    H174296   1.521   4.661   2.016 -1.7243 -0.1534 -0.2271
17627TIP3    H274297   1.532   4.772   1.913 -2.4011  0.0087 -0.1274
17628TIP3   OH274298   6.592   2.225   1.481  0.1035 -0.3972 -0.4947
17628TIP3    H174299   6.635   2.140   1.471 -0.5056 -0.5141 -2.3736
17628TIP3    H274300   6.590   2.262   1.393 -0.0377  1.3914  0.2169
17629TIP3   OH274301   5.247   3.997   2.718 -0.0282 -0.1240  0.2093
17629TIP3    H174302   5.296   4.062   2.768 -0.5157 -1.3236  2.3555
17629TIP3    H274303   5.199   3.946   2.784 -1.8693 -0.8691 -1.5891
17630TIP3   OH274304   6.436   6.284  13.448 -0.3116 -0.3872  0.4430
17630TIP3    H174305   6.484   6.338  13.386 -2.0702  1.7670  0.8305
17630TIP3    H274306   6.417   6.203  13.400 -2.8628  1.7309 -2.4949
17631TIP3   OH274307   6.774   0.861   1.098 -0.3720  0.2340  0.9003
17631TIP3    H174308   6.791   0.941   1.049 -0.5830  0.0417  0.5152
17631TIP3    H274309   6.803   0.791   1.040 -2.6386 -0.1377  0.1181
17632TIP3   OH274310   1.187   3.849  14.754  0.1645  0.0810  0.2970
17632TIP3    H174311   1.220   3.793  14.684 -0.6884 -0.0933  0.0274
17632TIP3    H274312   1.190   3.937  14.716  0.1755  0.0462  0.2150
17633TIP3   OH274313   0.749   5.695   4.788  0.1112 -0.0829  0.2058
17633TIP3    H174314   0.845   5.690   4.784  0.3082  2.0789  0.5854
17633TIP3    H274315   0.720   5.670   4.701  1.2448  1.7220 -0.7666
17634TIP3   OH274316   0.066   0.434   3.283  0.3103 -0.1901 -0.7463
17634TIP3    H174317   0.041   0.486   3.206 -1.7872 -0.1781 -0.1166
17634TIP3    H274318  -0.003   0.451   3.347  1.5882 -0.8326  0.8729
17635TIP3   OH274319   6.598   0.797   1.277 -0.1870 -0.4037 -0.4256
17635TIP3    H174320   6.648   0.861   1.227 -2.4576  0.5579 -1.6509
17635TIP3    H274321   6.610   0.714   1.230 -1.5647  0.3083 -2.1794
17636TIP3   OH274322   3.779   0.406   6.135 -0.1680 -0.1831 -0.0823
17636TIP3    H174323   3.813   0.389   6.223 -0.7035 -1.7569 -0.1464
17636TIP3    H274324   3.734   0.490   6.143  0.4246  0.0602  0.9535
17637TIP3   OH274325   4.421   1.469  16.419 -0.1309  0.1598  0.2501
17637TIP3    H174326   4.329   1.482  16.440 -0.2039 -0.5249  0.3722
17637TIP3    H274327   4.420   1.403  16.350  0.2063  1.0234 -0.6003
17638TIP3   OH274328   0.648   1.290  12.578 -0.4988  0.1313  0.0548
17638TIP3    H174329   0.577   1.354  12.570  0.2348  1.0173  0.5368
17638TIP3    H274330   0.708   1.312  12.507  0.0365  0.3431  0.5699
17639TIP3   OH274331   3.593   1.373   4.623 -0.0699 -0.2662  0.0932
17639TIP3    H174332   3.566   1.314   4.694  0.0534  0.8413  1.0926
17639TIP3    H274333   3.511   1.401   4.583 -0.3734  1.5144  1.8263
17640TIP3   OH274334   5.719   5.237   0.102  0.3336  0.5848 -0.3469
17640TIP3    H174335   5.765   5.166   0.058  1.8500  1.6400 -0.5688
17640TIP3    H274336   5.659   5.273   0.037 -0.7763 -0.7333 -0.0937
17641TIP3   OH274337   4.750   4.786  14.083 -0.4417  0.3955 -0.4851
17641TIP3    H174338   4.830   4.839  14.081 -0.6788  0.8580  1.2038
17641TIP3    H274339   4.782   4.696  14.088  0.0406  0.6285  1.5603
17642TIP3   OH274340   1.075   3.488  12.091 -0.3513 -0.7541  0.4658
17642TIP3    H174341   0.985   3.520  12.092 -0.0057  0.4584 -1.3712
17642TIP3    H274342   1.070   3.405  12.043 -0.3656 -0.0778 -0.7527
17643TIP3   OH274343   0.330   5.503  12.533  0.0633  0.0036  0.2082
17643TIP3    H174344   0.278   5.510  12.613  0.8031  0.0542  0.6963
17643TIP3    H274345   0.276   5.543  12.465 -2.0075 -2.8519 -0.0399
17644TIP3   OH274346   5.179   6.159   2.591 -0.2266  0.3716  0.1464
17644TIP3    H174347   5.155   6.084   2.537 -0.0700  0.6100 -0.2600
17644TIP3    H274348   5.100   6.213   2.594  0.0172  0.7787 -0.5575
17645TIP3   OH274349   6.273   5.762  14.892 -0.3261 -0.1354 -0.5810
17645TIP3    H174350   6.181   5.744  14.912 -0.2124 -0.0653  0.0240
17645TIP3    H274351   6.270   5.819  14.815 -0.7430 -1.2870 -1.4588
17646TIP3   OH274352   5.945   1.087   4.385  0.3583 -0.4788  0.0973
17646TIP3    H174353   5.970   1.178   4.397 -1.0800  0.0077 -0.3417
17646TIP3    H274354   6.023   1.045   4.347  0.5210  0.9535 -1.2575
17647TIP3   OH274355   3.665   4.784  14.041  0.6373 -0.2871 -0.1734
17647TIP3    H174356   3.602   4.800  13.972  1.2201  0.1109 -0.6261
17647TIP3    H274357   3.637   4.839  14.114 -1.1498 -2.2165  0.6770
17648TIP3   OH274358   5.114   1.155  11.659  0.1551 -0.1226  0.4410
17648TIP3    H174359   5.140   1.226  11.717  0.6719 -0.5627  0.7534
17648TIP3    H274360   5.165   1.079  11.688  1.3757 -0.0655 -1.3661
17649TIP3   OH274361   5.615   5.777   4.879  0.4144  0.4539  0.3650
17649TIP3    H174362   5.530   5.813   4.853 -0.4078 -1.5413  0.0931
17649TIP3    H274363   5.678   5.821   4.822 -0.6250  0.8338 -0.5318
17650TIP3   OH274364   0.080   3.862  12.518  0.1139  0.5704  0.0046
17650TIP3    H174365   0.012   3.803  12.486  0.6114 -0.1306  0.2182
17650TIP3    H274366   0.042   3.950  12.509 -0.1969  0.3158 -1.4150
17651TIP3   OH274367   0.832   6.276   1.101 -0.5455 -0.1721 -0.4006
17651TIP3    H174368   0.786   6.194   1.122 -0.0623 -0.7353 -1.4530
17651TIP3    H274369   0.765   6.330   1.058 -0.9107  0.0581  0.4443
17652TIP3   OH274370   2.178   2.374   0.181 -0.1182  0.1706 -0.1074
17652TIP3    H174371   2.096   2.399   0.223 -0.3893 -1.4755  0.4332
17652TIP3    H274372   2.235   2.450   0.190 -1.0070  0.7131  1.0697
17653TIP3   OH274373   1.406   0.106   4.061  0.4532  0.0258 -0.1314
17653TIP3    H174374   1.420   0.170   4.131  0.0237 -0.6047  0.5545
17653TIP3    H274375   1.318   0.073   4.076  0.8469 -1.0904 -0.1516
17654TIP3   OH274376   3.087   2.030   5.789 -0.0934  0.1570  0.0066
17654TIP3    H174377   3.080   2.066   5.701  0.3242  0.7625  0.2195
17654TIP3    H274378   3.179   2.006   5.798 -0.1737 -0.0833  0.2100
17655TIP3   OH274379   2.018   6.694  16.511 -0.4203  0.1524  0.1597
17655TIP3    H174380   1.984   6.610  16.540  1.5016 -0.8955 -0.4086
17655TIP3    H274381   1.985   6.704  16.422  1.7169 -1.5420 -0.9218
17656TIP3   OH274382   1.339   2.191   0.013 -0.7059 -0.1162 -0.1148
17656TIP3    H174383   1.283   2.237   0.076  0.0690  0.0655  0.4655
17656TIP3    H274384   1.411   2.252  -0.003 -0.9831 -0.0779 -1.3431
17657TIP3   OH274385   2.151   0.317  14.190  0.1313  0.1616 -0.4296
17657TIP3    H174386   2.081   0.333  14.253  3.3450 -0.3673  3.7658
17657TIP3    H274387   2.180   0.227  14.208  1.7498  0.2722 -2.1150
17658TIP3   OH274388   2.101   0.727   4.266  0.0286 -1.1116 -0.0735
17658TIP3    H174389   2.035   0.791   4.241 -0.1505 -0.8312  1.0820
17658TIP3    H274390   2.051   0.652   4.300  0.2874 -0.7654  1.1177
17659TIP3   OH274391   4.168   5.514  14.775  0.0215  0.0548 -0.3354
17659TIP3    H174392   4.077   5.505  14.801  0.1080  0.5547  0.1465
17659TIP3    H274393   4.166   5.574  14.700 -0.1215 -0.6041 -0.8772
17660TIP3   OH274394   3.192   1.049  17.121 -0.3541 -0.1103 -0.4273
17660TIP3    H174395   3.245   1.077  17.047  1.6379 -1.6701  0.3256
17660TIP3    H274396   3.175   1.130  17.170  2.6389  0.3002  0.0852
17661TIP3   OH274397   3.783   4.595   0.259  0.0144 -0.4453 -0.6471
17661TIP3    H174398   3.772   4.564   0.169 -3.8088 -0.4540 -0.3640
17661TIP3    H274399   3.733   4.533   0.312  0.4124  0.7338  1.1955
17662TIP3   OH274400   4.433   6.310   3.588 -0.1533  0.1087 -0.4101
17662TIP3    H174401   4.458   6.261   3.667 -1.0389 -0.9189 -0.7344
17662TIP3    H274402   4.378   6.381   3.621 -1.9355 -1.3009 -0.1870
17663TIP3   OH274403   5.059   4.346  14.351 -0.1728  0.3602 -0.4691
17663TIP3    H174404   5.006   4.400  14.293  1.9294  0.1767 -2.7007
17663TIP3    H274405   5.135   4.401  14.372  0.3166 -0.4864  0.0380
17664TIP3   OH274406   4.491   1.606   5.274 -0.0849 -0.4077 -0.1375
17664TIP3    H174407   4.408   1.617   5.319 -0.3674 -0.6394 -0.5984
17664TIP3    H274408   4.506   1.691   5.231 -0.0574 -0.3532 -0.0229
17665TIP3   OH274409   3.022   6.549   1.706 -0.2501  0.3794 -0.2166
17665TIP3    H174410   2.976   6.467   1.689  1.4939 -0.4937 -1.0425
17665TIP3    H274411   3.086   6.527   1.773 -2.1297  2.0229  2.3022
17666TIP3   OH274412   6.711   4.785  12.187 -0.0230  0.0652 -0.1144
17666TIP3    H174413   6.704   4.866  12.238  2.0508  0.1319  0.1514
17666TIP3    H274414   6.790   4.797  12.135 -0.5157 -1.2081 -1.2012
17667TIP3   OH274415   3.107   0.097   4.240 -0.6434  0.5316  0.1963
17667TIP3    H174416   3.130   0.183   4.205  0.9211  0.4265  0.8667
17667TIP3    H274417   3.040   0.114   4.306  1.3504  1.6102  2.0878
17668TIP3   OH274418   4.469   5.961  13.290  0.7536 -0.6650 -0.2821
17668TIP3    H174419   4.511   5.897  13.348  0.7047 -0.3077  0.1486
17668TIP3    H274420   4.410   5.908  13.236  1.5541 -1.1410 -0.7234
17669TIP3   OH274421   2.014   6.154   2.808 -0.0463  0.1921 -0.0683
17669TIP3    H174422   2.013   6.080   2.869  0.8353 -0.1167 -0.4184
17669TIP3    H274423   2.106   6.173   2.795 -0.2593  1.2314 -0.1399
17670TIP3   OH274424   3.428   0.478  14.745  0.6429 -0.3342  0.1889
17670TIP3    H174425   3.339   0.482  14.781  0.0267 -0.2810 -1.2443
17670TIP3    H274426   3.478   0.429  14.809 -0.1736  0.4896  1.5042
17671TIP3   OH274427   6.143   3.129   3.279 -0.3117  0.0767 -0.2284
17671TIP3    H174428   6.109   3.130   3.368  1.3571 -0.8735  0.4709
17671TIP3    H274429   6.173   3.039   3.265 -0.0466  0.3450 -1.5453
17672TIP3   OH274430   0.741   2.120  16.552 -0.7734  0.4154  0.2015
17672TIP3    H174431   0.761   2.054  16.619 -2.6307 -0.0549  0.3556
17672TIP3    H274432   0.820   2.124  16.498 -0.3563 -1.4564  0.5841
17673TIP3   OH274433   1.070   1.879  15.396  0.0400  0.3739  0.1560
17673TIP3    H174434   1.116   1.796  15.383 -2.2356 -1.0819  0.5778
17673TIP3    H274435   1.101   1.911  15.481  0.5972 -0.3188  0.2185
17674TIP3   OH274436   3.177   1.847   1.931  0.5766  0.2156 -0.4631
17674TIP3    H174437   3.125   1.912   1.884 -1.3058 -0.5843  0.3628
17674TIP3    H274438   3.266   1.858   1.899 -0.0814  1.7514 -1.8858
17675TIP3   OH274439   4.883   3.066  15.840  0.0177 -0.4524  0.1206
17675TIP3    H174440   4.812   3.109  15.888  1.3733 -0.4842  2.2796
17675TIP3    H274441   4.888   2.978  15.877  0.9516 -0.5569 -0.2149
17676TIP3   OH274442   3.136   2.729  13.091 -0.0838  0.5590 -0.3536
17676TIP3    H174443   3.104   2.772  13.011 -1.9966 -1.0929 -0.5670
17676TIP3    H274444   3.077   2.758  13.160 -0.0727 -0.0385 -0.0799
17677TIP3   OH274445   2.147   6.119  16.051 -0.2828  0.0780 -0.2471
17677TIP3    H174446   2.138   6.091  16.142  0.4458  0.9026  0.1073
17677TIP3    H274447   2.085   6.191  16.042 -0.4137 -0.0574 -0.4289
17678TIP3   OH274448   6.511   6.449   6.447  0.2763  0.0100 -0.9216
17678TIP3    H174449   6.596   6.465   6.407  0.4855 -2.2129 -1.4821
17678TIP3    H274450   6.473   6.378   6.396 -1.0602 -0.3871  0.5379
17679TIP3   OH274451   2.288   5.393  16.049 -0.3896  0.4530 -0.2282
17679TIP3    H174452   2.350   5.345  16.104 -1.0425 -0.4078 -0.2151
17679TIP3    H274453   2.301   5.356  15.961 -0.4228  0.7378 -0.3544
17680TIP3   OH274454   6.699   0.488   4.438 -0.5480 -0.0654 -0.1190
17680TIP3    H174455   6.664   0.575   4.456  0.1357  0.5317 -1.5226
17680TIP3    H274456   6.758   0.470   4.511  0.5539  1.3736 -0.5977
17681TIP3   OH274457   1.999   1.826   6.516  0.5143  0.0469 -0.2412
17681TIP3    H174458   2.013   1.920   6.513 -0.3482  0.1652 -0.7040
17681TIP3    H274459   1.906   1.815   6.532  0.3240 -0.7179 -1.6545
17682TIP3   OH274460   4.643   5.260   0.377  0.1045 -0.1867  0.7080
17682TIP3    H174461   4.594   5.188   0.418 -0.4098 -0.1798  0.1216
17682TIP3    H274462   4.640   5.241   0.284 -0.7970  1.0557  0.4545
17683TIP3   OH274463   0.491   5.222   0.767 -0.6740  0.4381  0.2729
17683TIP3    H174464   0.426   5.206   0.836 -0.7617  0.3161  0.1626
17683TIP3    H274465   0.571   5.182   0.799 -0.8245  0.0011  0.1155
17684TIP3   OH274466   1.348   0.058  13.430 -0.5987  0.1117 -0.2967
17684TIP3    H174467   1.305   0.118  13.369 -2.5134 -1.4599 -0.6029
17684TIP3    H274468   1.371  -0.018  13.377  2.2337  0.6673 -0.0162
17685TIP3   OH274469   3.629   5.527  16.869 -0.1933  0.4784  0.5712
17685TIP3    H174470   3.574   5.604  16.884 -2.2551 -0.9558  0.7686
17685TIP3    H274471   3.693   5.529  16.941 -2.2658  0.2955  2.5217
17686TIP3   OH274472   2.317   5.440   3.436 -0.2874 -0.1816  0.2100
17686TIP3    H174473   2.405   5.463   3.467 -1.2424  1.8357  1.5838
17686TIP3    H274474   2.333   5.387   3.358  2.1535 -0.0654  0.5548
17687TIP3   OH274475   1.149   0.218   6.630  1.0839  0.4044  0.2657
17687TIP3    H174476   1.081   0.284   6.623  1.6826  1.2341  1.7693
17687TIP3    H274477   1.102   0.134   6.631  0.3642  0.6991 -2.3912
17688TIP3   OH274478   6.445   1.892   4.585  0.1667 -0.2292 -0.5552
17688TIP3    H174479   6.502   1.947   4.638  0.2018  0.7840 -1.5986
17688TIP3    H274480   6.494   1.879   4.503  0.2163 -1.9337 -0.3017
17689TIP3   OH274481   6.311   4.990   0.440 -0.0201  0.0215  0.3557
17689TIP3    H174482   6.290   4.929   0.368  2.3457  0.0225 -0.4100
17689TIP3    H274483   6.385   5.040   0.407  0.1968  1.0281  2.2907
17690TIP3   OH274484   5.927   4.976  11.761  0.5590  0.3659 -0.2182
17690TIP3    H174485   5.967   4.890  11.748  0.8873  0.7500 -2.1538
17690TIP3    H274486   5.997   5.031  11.796 -0.0780 -0.4811  2.6189
17691TIP3   OH274487   2.281   1.848   1.058  0.2777  0.7371 -0.1426
17691TIP3    H174488   2.370   1.867   1.088  0.0522  1.2962  0.1856
17691TIP3    H274489   2.259   1.921   1.000 -0.8696  1.9337  1.7060
17692TIP3   OH274490   3.020   0.145   5.703  0.1663 -0.0622 -0.1508
17692TIP3    H174491   2.947   0.108   5.654 -0.3635 -0.1981  0.7278
17692TIP3    H274492   3.098   0.116   5.656 -0.3401  0.2953 -1.2503
17693TIP3   OH274493   2.547   2.396  13.507  0.3198 -0.5880  0.0372
17693TIP3    H174494   2.636   2.416  13.477 -0.0380 -1.9390 -2.1576
17693TIP3    H274495   2.546   2.301  13.517 -0.5613 -0.4718  1.1991
17694TIP3   OH274496   0.520   3.563   2.901 -0.2888  0.1463  0.1114
17694TIP3    H174497   0.455   3.517   2.954  0.1028  1.2430  1.6291
17694TIP3    H274498   0.604   3.536   2.939  0.1557 -0.9988 -1.6100
17695TIP3   OH274499   0.508   4.686  16.795  0.3340  0.1945  0.2283
17695TIP3    H174500   0.497   4.672  16.889  1.2439  2.2440  0.6999
17695TIP3    H274501   0.444   4.754  16.773 -0.6957 -1.0766 -0.9338
17696TIP3   OH274502   1.423   1.325  11.917 -0.3461 -0.0278 -0.2335
17696TIP3    H174503   1.376   1.408  11.920 -0.4918 -0.1029 -0.3921
17696TIP3    H274504   1.497   1.337  11.977 -0.5006  0.1312 -0.0742
17697TIP3   OH274505   0.364   6.774   2.819 -0.2436 -0.1718 -0.2761
17697TIP3    H174506   0.295   6.767   2.885  0.9757  0.7530  1.1514
17697TIP3    H274507   0.324   6.827   2.749 -0.9818  0.3733  0.5398
17698TIP3   OH274508   4.654   2.952  13.371 -0.5038  0.1865 -0.5393
17698TIP3    H174509   4.615   3.038  13.358 -0.7126  0.0595 -0.7523
17698TIP3    H274510   4.581   2.895  13.394 -0.0007  0.7045  2.7716
17699TIP3   OH274511   3.850   0.428  12.227 -0.2689  0.5058  0.5631
17699TIP3    H174512   3.911   0.418  12.154  1.4456  1.1262  1.8290
17699TIP3    H274513   3.860   0.347  12.278 -2.5539 -0.5929 -0.5988
17700TIP3   OH274514   1.575   3.158  15.208  0.3623  0.1882 -0.0310
17700TIP3    H174515   1.537   3.219  15.146  0.4453  1.2912  0.9732
17700TIP3    H274516   1.500   3.119  15.253  0.3387  0.1226 -0.1256
17701TIP3   OH274517   6.353   2.974   1.594  0.5170 -0.3222 -0.3057
17701TIP3    H174518   6.437   2.964   1.549  1.7266 -1.6633  2.0626
17701TIP3    H274519   6.370   3.036   1.664  0.0327 -1.7975  1.1906
17702TIP3   OH274520   0.135   0.253  16.258  0.1985 -0.1458 -0.0708
17702TIP3    H174521   0.214   0.198  16.262  0.1803 -0.1060  1.1830
17702TIP3    H274522   0.066   0.197  16.294 -0.0965  0.2305 -0.0504
17703TIP3   OH274523   1.920   0.427   0.424 -0.0108 -0.2524 -0.7641
17703TIP3    H174524   2.012   0.440   0.446  0.0888 -1.9220 -0.0548
17703TIP3    H274525   1.900   0.497   0.362  1.7390  0.1391 -0.9354
17704TIP3   OH274526   4.180   5.559  15.802  0.2371  0.1829 -0.3958
17704TIP3    H174527   4.104   5.521  15.758  1.7034 -1.8701 -1.3241
17704TIP3    H274528   4.143   5.618  15.868 -2.1265 -0.4061 -1.1108
17705TIP3   OH274529   4.567   5.170   2.126 -0.1528 -0.0326  0.3111
17705TIP3    H174530   4.588   5.079   2.148  1.9480  0.0703 -0.9674
17705TIP3    H274531   4.640   5.221   2.160 -1.3183  1.2310  1.0377
17706TIP3   OH274532   1.798   1.788   2.530 -0.4476 -0.6109  0.1541
17706TIP3    H174533   1.740   1.722   2.567 -0.5090  0.0955  1.3449
17706TIP3    H274534   1.873   1.738   2.496 -0.5379 -1.2977  0.9458
17707TIP3   OH274535   1.197   3.181   4.732  0.5284 -0.0660 -0.5884
17707TIP3    H174536   1.116   3.143   4.697 -1.0025  2.8245 -0.4528
17707TIP3    H274537   1.184   3.183   4.827  1.2519 -0.5524 -0.4684
17708TIP3   OH274538   4.760   6.388   1.435  0.0561 -0.0658 -0.2266
17708TIP3    H174539   4.831   6.326   1.449  0.9981  0.0895 -3.4408
17708TIP3    H274540   4.803   6.473   1.427 -0.7469  0.3704 -0.0070
17709TIP3   OH274541   4.748   0.421   4.177 -0.1050  0.4574 -0.1791
17709TIP3    H174542   4.840   0.414   4.200 -0.1705 -0.1489 -0.0706
17709TIP3    H274543   4.710   0.477   4.245 -0.3738 -1.6265  1.4938
17710TIP3   OH274544   5.541   4.644   4.207  0.1949  0.2111  0.3640
17710TIP3    H174545   5.472   4.625   4.271  0.4703 -0.2476  0.5261
17710TIP3    H274546   5.608   4.691   4.256  1.9627 -2.9437  1.3070
17711TIP3   OH274547   3.619   6.532  17.078  0.1737 -0.0627 -0.1708
17711TIP3    H174548   3.641   6.445  17.045 -1.5904 -0.4056 -0.5568
17711TIP3    H274549   3.544   6.517  17.135  0.6158  1.0699  0.7455
17712TIP3   OH274550   6.112   2.296  16.830 -0.3364  0.2347  0.0890
17712TIP3    H174551   6.088   2.211  16.865  0.6909  0.5339  1.6388
17712TIP3    H274552   6.111   2.285  16.735  1.0969 -1.8831  0.2660
17713TIP3   OH274553   1.252   0.678  12.379 -0.4476  0.2145  0.1845
17713TIP3    H174554   1.287   0.589  12.370  0.7611  0.5951  0.9125
17713TIP3    H274555   1.327   0.735  12.364 -1.2528  1.1377 -0.4506
17714TIP3   OH274556   2.045   3.952   4.963  0.5354  0.3512 -0.3023
17714TIP3    H174557   2.016   4.003   5.039  1.5765  0.3266  0.1345
17714TIP3    H274558   2.037   4.012   4.889 -1.4182  0.0784 -0.3707
17715TIP3   OH274559   0.601   4.855   0.462 -0.4480 -0.2317 -0.3026
17715TIP3    H174560   0.672   4.892   0.514 -1.3120 -0.9891  1.5186
17715TIP3    H274561   0.532   4.922   0.462  0.1294  0.4174 -1.8886
17716TIP3   OH274562   4.333   2.955  16.075  0.0112  0.0437  0.0672
17716TIP3    H174563   4.286   3.033  16.108 -1.0645  0.6748 -2.6910
17716TIP3    H274564   4.278   2.882  16.103 -0.1866  0.4407  0.7549
17717TIP3   OH274565   3.908   1.543  13.070 -0.1846  0.3479  0.0498
17717TIP3    H174566   3.955   1.537  13.153 -0.2805 -0.6085  0.0500
17717TIP3    H274567   3.929   1.461  13.025 -0.9036  0.4370 -0.4604
17718TIP3   OH274568   3.959   2.945  11.640  0.5801  0.1893 -0.2036
17718TIP3    H174569   3.922   2.927  11.554 -0.1356  1.4882 -0.1876
17718TIP3    H274570   3.904   3.015  11.676  0.2357 -0.9943  1.7317
17719TIP3   OH274571   0.962   1.312   5.170 -0.3752  0.4727  0.5059
17719TIP3    H174572   0.902   1.311   5.245 -0.4922  2.2524  0.4786
17719TIP3    H274573   0.932   1.386   5.117  0.2292 -0.2482 -0.8781
17720TIP3   OH274574   5.224   0.689   3.871 -0.3912 -0.3876 -0.3382
17720TIP3    H174575   5.141   0.732   3.891 -0.1687 -0.3594  0.5706
17720TIP3    H274576   5.277   0.756   3.828 -1.2253 -0.7222 -1.9671
17721TIP3   OH274577   3.413   4.812   4.063  0.1367 -0.0896 -0.1597
17721TIP3    H174578   3.456   4.876   4.005  1.1717 -1.1249 -0.5644
17721TIP3    H274579   3.448   4.727   4.036 -2.2187 -1.0182 -0.5576
17722TIP3   OH274580   3.929   0.093  15.492 -0.2638  0.6676 -0.1678
17722TIP3    H174581   3.952   0.183  15.469 -0.3628  0.7416  0.0240
17722TIP3    H274582   4.004   0.040  15.462 -0.2066  0.8119 -0.2790
17723TIP3   OH274583   1.639   6.440  15.021  0.1508  0.3329 -0.1639
17723TIP3    H174584   1.640   6.427  14.926  0.2546 -3.3959  0.1778
17723TIP3    H274585   1.723   6.480  15.042  0.2475  0.9195 -1.5886
17724TIP3   OH274586   6.560   6.132   3.723 -0.2023 -0.1771 -0.4090
17724TIP3    H174587   6.585   6.157   3.812  2.4327 -0.8296 -0.8997
17724TIP3    H274588   6.510   6.051   3.734  1.2444 -0.9818  0.4178
17725TIP3   OH274589   1.703   0.858  11.028  0.2438 -0.0724 -0.1442
17725TIP3    H174590   1.743   0.939  10.995 -0.3724  0.4304  0.3026
17725TIP3    H274591   1.712   0.795  10.956  2.0963 -0.0776  0.0505
17726TIP3   OH274592   5.259   6.416  12.410  0.1400 -0.4681 -0.2196
17726TIP3    H174593   5.214   6.492  12.447  0.9149 -0.1718  0.1438
17726TIP3    H274594   5.207   6.341  12.438  0.1707 -0.1703  0.6588
17727TIP3   OH274595   0.743   1.575  13.730 -0.4250  0.3008  0.8079
17727TIP3    H174596   0.831   1.544  13.750  0.7941  2.8975 -0.1645
17727TIP3    H274597   0.715   1.521  13.656  0.7467  0.0805  0.5008
17728TIP3   OH274598   5.901   2.276   3.121  0.4710  1.0152  0.3114
17728TIP3    H174599   5.870   2.268   3.211 -2.0093  0.2760 -0.5028
17728TIP3    H274600   5.979   2.221   3.117 -0.6831 -0.8371  1.5113
17729TIP3   OH274601   0.416   1.682   2.682  0.5241  0.2364 -0.2112
17729TIP3    H174602   0.412   1.721   2.595  0.5056 -0.7896 -0.6833
17729TIP3    H274603   0.386   1.592   2.670 -0.9359  0.4971  1.1213
17730TIP3   OH274604   2.832   0.812   5.088 -0.1029 -0.0342  0.4090
17730TIP3    H174605   2.792   0.726   5.073 -2.1694  1.3658 -3.2942
17730TIP3    H274606   2.923   0.801   5.061 -0.5953 -0.8721 -1.0216
17731TIP3   OH274607   3.840   1.430   6.229 -0.0370 -0.1576 -0.1651
17731TIP3    H174608   3.788   1.496   6.274  0.2603  0.5552 -0.8548
17731TIP3    H274609   3.930   1.444   6.260  0.1766  0.3613 -0.9774
17732TIP3   OH274610   3.381   2.919   1.920  0.5783  0.3640 -0.3483
17732TIP3    H174611   3.370   2.924   1.826 -1.7431 -0.8542 -0.2194
17732TIP3    H274612   3.460   2.865   1.932 -0.9723 -2.4707 -1.7087
17733TIP3   OH274613   1.632   5.498  11.793  0.3313 -0.1038 -0.6323
17733TIP3    H174614   1.695   5.431  11.819  0.0149  0.5550  2.1385
17733TIP3    H274615   1.676   5.581  11.812 -0.3167  0.4283 -1.3815
17734TIP3   OH274616   1.918   4.746  16.628  0.1809 -0.8488 -0.4451
17734TIP3    H174617   1.874   4.668  16.595  0.5269 -1.0538 -0.4235
17734TIP3    H274618   1.952   4.720  16.714 -1.5615 -0.0351  0.5403
17735TIP3   OH274619   1.971   5.018   0.485 -0.1188  0.5106 -0.0807
17735TIP3    H174620   1.913   4.992   0.414  1.1863 -1.7743 -0.3966
17735TIP3    H274621   1.979   4.940   0.540  2.8095  0.6325 -0.1865
17736TIP3   OH274622   3.013   3.529   4.949  0.2193 -0.1974 -0.1249
17736TIP3    H174623   3.034   3.455   4.891 -1.4310  1.0342 -2.4133
17736TIP3    H274624   2.930   3.505   4.990 -1.0005  0.8407 -1.8620
17737TIP3   OH274625   5.052   6.389  13.716 -0.3694 -0.7058  0.4400
17737TIP3    H174626   5.131   6.340  13.737  0.9294  1.3232  0.5572
17737TIP3    H274627   5.050   6.392  13.620  0.1927  0.0097  0.4519
17738TIP3   OH274628   1.447   4.581   4.888  0.3002 -0.5155  0.3377
17738TIP3    H174629   1.364   4.534   4.885 -0.0451  0.0121  1.2172
17738TIP3    H274630   1.502   4.528   4.946  0.5056 -0.7470 -0.0658
17739TIP3   OH274631   4.847   1.972   3.753 -0.3276  0.6126  0.1600
17739TIP3    H174632   4.791   1.992   3.679 -2.3494 -0.2254  1.3829
17739TIP3    H274633   4.788   1.972   3.829  1.6925  1.8438  1.8629
17740TIP3   OH274634   2.178   2.668   5.651  0.1157  0.1184 -0.5961
17740TIP3    H174635   2.159   2.687   5.559 -0.8524  0.5618 -0.3255
17740TIP3    H274636   2.094   2.681   5.696  0.0875 -2.0402  0.0653
17741TIP3   OH274637   5.629   5.461   2.444  0.4297 -0.5839 -0.1607
17741TIP3    H174638   5.584   5.516   2.509 -0.8836 -0.0281 -1.4907
17741TIP3    H274639   5.604   5.371   2.469  0.0838 -0.3868  0.2244
17742TIP3   OH274640   4.365   5.658  15.277  0.4846 -0.5863  0.0179
17742TIP3    H174641   4.275   5.679  15.303  0.9079  0.6604  0.5266
17742TIP3    H274642   4.362   5.661  15.181  0.6520  2.6696  0.0210
17743TIP3   OH274643   4.335   6.474  15.266 -0.9123 -0.1028 -0.3405
17743TIP3    H174644   4.323   6.407  15.333  1.1525 -0.6479 -0.4425
17743TIP3    H274645   4.429   6.489  15.264 -1.3549  3.7891  0.5888
17744TIP3   OH274646   4.367   3.664   6.175 -0.0303 -0.0346  0.3776
17744TIP3    H174647   4.337   3.743   6.130  1.0888 -0.4505 -1.2031
17744TIP3    H274648   4.287   3.614   6.191 -0.6315  0.9127  0.4003
17745TIP3   OH274649   4.247   5.953   0.521  0.1674  0.6769 -0.1989
17745TIP3    H174650   4.257   5.874   0.468 -1.9072  0.2816 -0.1060
17745TIP3    H274651   4.276   6.024   0.464  1.4868 -0.0791 -0.5044
17746TIP3   OH274652   1.769   6.643   1.352 -1.0240  0.1426 -0.2410
17746TIP3    H174653   1.829   6.657   1.425 -0.8146  0.7787 -0.5266
17746TIP3    H274654   1.685   6.677   1.384 -0.9057  0.5304 -0.3267
17747TIP3   OH274655   4.965   5.609   2.443  0.3817 -0.4828 -0.0557
17747TIP3    H174656   4.875   5.583   2.461  0.7338 -1.7776 -0.0887
17747TIP3    H274657   4.990   5.663   2.519 -0.6301  0.4855 -0.3820
17748TIP3   OH274658   0.356   4.585   1.971 -0.1573 -0.0591 -0.0896
17748TIP3    H174659   0.273   4.623   1.999  0.3671  1.3043 -0.2920
17748TIP3    H274660   0.337   4.546   1.886 -0.2733  1.5889 -0.8563
17749TIP3   OH274661   3.940   1.841   2.085 -0.1553 -0.1446 -0.0391
17749TIP3    H174662   3.885   1.915   2.058 -0.0917  0.5842  1.6470
17749TIP3    H274663   3.963   1.861   2.176  0.7866 -1.7116  0.1056
17750TIP3   OH274664   1.923   3.992   3.744 -0.2561 -0.1594 -0.0853
17750TIP3    H174665   2.011   3.978   3.779 -1.2568 -3.6010  1.4807
17750TIP3    H274666   1.903   3.912   3.696 -2.5325  0.5620 -0.4608
17751TIP3   OH274667   3.078   6.645   3.766 -0.4140 -0.9764  0.3155
17751TIP3    H174668   3.139   6.573   3.752  0.6105 -0.1880  0.6409
17751TIP3    H274669   3.089   6.669   3.858 -0.0562  0.1935 -0.0139
17752TIP3   OH274670   0.939   6.322   5.164  0.4775 -0.8188  0.1621
17752TIP3    H174671   0.964   6.408   5.197 -1.4343 -0.4430  0.7193
17752TIP3    H274672   0.975   6.260   5.228 -1.3177 -0.2056  1.8392
17753TIP3   OH274673   5.203   2.696  12.922 -0.8559 -0.5814 -0.4807
17753TIP3    H174674   5.109   2.710  12.916 -0.3555  3.1492 -2.0036
17753TIP3    H274675   5.230   2.740  13.002 -0.2667 -0.4008 -0.7661
17754TIP3   OH274676   1.777   0.120   6.354  0.0519  0.0132  0.3200
17754TIP3    H174677   1.771   0.143   6.447  1.0208  1.1729  0.1200
17754TIP3    H274678   1.762   0.025   6.351 -1.4972  0.1854  1.4828
17755TIP3   OH274679   5.243   2.507   4.927  0.3137  0.0790  0.7681
17755TIP3    H174680   5.182   2.524   4.999  1.3106 -0.9030  1.8750
17755TIP3    H274681   5.191   2.456   4.864 -0.2568  0.0098  1.2828
17756TIP3   OH274682   3.245   2.371  11.385 -0.2099 -0.9530 -0.0765
17756TIP3    H174683   3.287   2.435  11.443 -1.5623 -0.8777  0.8634
17756TIP3    H274684   3.300   2.370  11.307 -0.1446  1.4050 -0.1357
17757TIP3   OH274685   0.362   5.544   3.791 -0.6862  0.2541 -0.4321
17757TIP3    H174686   0.375   5.618   3.850  0.4049 -0.1490 -0.1240
17757TIP3    H274687   0.408   5.569   3.711 -1.1106  0.2957 -0.6602
17758TIP3   OH274688   4.697   4.559  16.364  0.2959  0.4660 -0.4688
17758TIP3    H174689   4.620   4.556  16.421 -0.7585  1.2079 -1.8012
17758TIP3    H274690   4.714   4.468  16.341 -1.4627  0.4377 -1.7966
17759TIP3   OH274691   2.356   2.954   4.155  0.1400  0.0385  0.0971
17759TIP3    H174692   2.301   2.926   4.082 -2.1800  0.6721  1.4791
17759TIP3    H274693   2.402   3.031   4.123  0.3505 -0.5905 -1.1576
17760TIP3   OH274694   0.733   2.812  14.787 -0.5216 -0.5400 -1.0384
17760TIP3    H174695   0.743   2.893  14.837  1.1600 -0.9560 -0.6270
17760TIP3    H274696   0.699   2.749  14.850  1.0556 -0.9154 -0.5227
17761TIP3   OH274697   0.239   4.474   3.687  0.2377  0.2596 -0.1317
17761TIP3    H174698   0.224   4.386   3.721  0.0964  1.2669  2.6979
17761TIP3    H274699   0.151   4.509   3.670  0.1782  0.5637  0.7753
17762TIP3   OH274700   0.786   0.199  12.724  0.5462 -0.0633 -0.5249
17762TIP3    H174701   0.846   0.270  12.703 -0.5204  1.1058  0.2659
17762TIP3    H274702   0.750   0.172  12.640  1.4031 -0.0813 -0.8930
17763TIP3   OH274703   2.536   5.764  12.616 -0.3885 -0.4383  0.3689
17763TIP3    H174704   2.541   5.670  12.632 -1.8361 -0.5171  0.5249
17763TIP3    H274705   2.442   5.781  12.601 -0.1337  0.9464  0.1806
17764TIP3   OH274706   1.982   4.161   4.781  0.2637 -0.1361  0.6877
17764TIP3    H174707   2.003   4.243   4.737  0.7189 -0.0192  1.1165
17764TIP3    H274708   1.892   4.172   4.812 -0.3366 -0.4879 -0.8184
17765TIP3   OH274709   1.492   5.402   6.304  0.3408 -0.1589  1.1027
17765TIP3    H174710   1.465   5.350   6.228  0.3227 -0.1381  1.0951
17765TIP3    H274711   1.432   5.374   6.373 -0.3147  0.5717  0.8359
17766TIP3   OH274712   2.680   1.878   6.103 -0.0995  0.1160 -0.0876
17766TIP3    H174713   2.663   1.926   6.184 -0.2301  0.4027 -0.2808
17766TIP3    H274714   2.765   1.911   6.074  0.6978 -1.1380  0.7518
17767TIP3   OH274715   5.503   1.801  14.205  0.0913  0.3441 -0.5921
17767TIP3    H174716   5.596   1.784  14.194  0.1676  0.3882 -0.0548
17767TIP3    H274717   5.495   1.835  14.295 -0.1861  2.0716 -1.2198
17768TIP3   OH274718   3.996   1.030   1.596  0.2261 -0.0319  0.3911
17768TIP3    H174719   3.915   0.979   1.588 -0.1462  0.4695  0.9557
17768TIP3    H274720   4.045   1.009   1.516 -1.9800  2.3363 -1.7347
17769TIP3   OH274721   3.757   4.758  15.174  0.4819  0.2359 -0.1550
17769TIP3    H174722   3.770   4.707  15.255 -1.3754  1.6344  1.1064
17769TIP3    H274723   3.664   4.751  15.156  0.1596  2.9741 -0.0046
17770TIP3   OH274724   0.950   0.026  13.831  0.0745  0.3331 -0.0148
17770TIP3    H174725   0.881  -0.038  13.849  0.7539 -0.3993  0.0546
17770TIP3    H274726   0.905   0.100  13.790 -0.4970 -0.9678 -1.8835
17771TIP3   OH274727   1.647   5.921   5.637 -0.2864 -0.0106  0.2251
17771TIP3    H174728   1.620   5.928   5.728  2.6373 -1.5023  1.3195
17771TIP3    H274729   1.711   5.992   5.625  0.9360 -1.1169  0.0124
17772TIP3   OH274730   3.196   2.204   3.868  0.5183 -0.3490 -0.0628
17772TIP3    H174731   3.110   2.185   3.905  0.2078  0.4657 -0.3291
17772TIP3    H274732   3.224   2.122   3.828  0.0033 -0.7070  0.3012
17773TIP3   OH274733   3.456   5.833   3.979  0.6162 -0.0296  0.2988
17773TIP3    H174734   3.523   5.834   4.046  1.9019 -1.8094 -0.8859
17773TIP3    H274735   3.473   5.755   3.927 -1.7126  0.0355 -0.7387
17774TIP3   OH274736   4.265   2.037  14.450 -0.6026  0.0656  0.0173
17774TIP3    H174737   4.170   2.024  14.460 -0.5720 -0.8658 -0.7460
17774TIP3    H274738   4.294   2.064  14.537 -1.2559 -1.7388  0.8512
17775TIP3   OH274739   0.333   3.366  12.624 -0.1591 -0.5968 -0.2797
17775TIP3    H174740   0.350   3.331  12.711  0.2814  0.6637  0.1683
17775TIP3    H274741   0.259   3.427  12.637 -1.3080 -1.7514 -1.1397
17776TIP3   OH274742   2.894   6.175   2.040 -0.3156 -0.8719 -0.1539
17776TIP3    H174743   2.878   6.173   1.945  0.2945  0.3857 -0.3035
17776TIP3    H274744   2.984   6.207   2.048 -0.3805 -0.9291  0.8524
17777TIP3   OH274745   6.034   1.426  15.667 -0.5188 -0.0785  0.1817
17777TIP3    H174746   6.086   1.346  15.675 -0.7600 -0.3794 -0.9915
17777TIP3    H274747   6.076   1.474  15.596 -0.1909  0.9975  1.0835
17778TIP3   OH274748   6.498   3.527   5.887 -0.5377  0.2332 -0.0542
17778TIP3    H174749   6.515   3.484   5.970  1.1446 -1.2863 -1.1072
17778TIP3    H274750   6.404   3.545   5.888 -0.6060 -0.0127  2.0216
17779TIP3   OH274751   2.257   4.334  12.880  0.6107 -0.0118  0.6015
17779TIP3    H174752   2.326   4.381  12.928 -0.6620  1.6049  0.9495
17779TIP3    H274753   2.191   4.315  12.947  0.9583 -2.1383  0.4100
17780TIP3   OH274754   2.768   2.244  11.966  0.2121  0.1858  0.0876
17780TIP3    H174755   2.825   2.290  11.904 -0.2047 -0.8142 -1.0767
17780TIP3    H274756   2.803   2.155  11.970 -0.8135 -0.2413 -0.0806
17781TIP3   OH274757   3.573   4.899   0.856 -0.7530  0.5237  0.2259
17781TIP3    H174758   3.613   4.834   0.915  1.5624  0.5702 -1.1841
17781TIP3    H274759   3.536   4.847   0.785  1.9460  0.6593 -1.4044
17782TIP3   OH274760   1.972   1.285  16.695  0.7459  0.0976  0.4470
17782TIP3    H174761   1.973   1.190  16.712 -2.2544 -0.4610 -1.6907
17782TIP3    H274762   1.931   1.323  16.773  0.5962 -0.5503  0.6901
17783TIP3   OH274763   2.718   1.877   1.118 -0.8146  0.1394  0.4522
17783TIP3    H174764   2.647   1.842   1.171 -1.2248  1.5982  0.9340
17783TIP3    H274765   2.675   1.937   1.056 -0.0284  1.0568  0.7535
17784TIP3   OH274766   3.816   1.130  17.039 -0.0943 -0.4218 -0.3660
17784TIP3    H174767   3.837   1.205  17.094  1.8942 -0.4468 -1.0097
17784TIP3    H274768   3.894   1.075  17.042 -0.8329 -1.5833 -1.3371
17785TIP3   OH274769   6.399   3.430  11.714  0.2407 -0.2783  0.0830
17785TIP3    H174770   6.325   3.483  11.742 -1.7556 -2.6063 -0.4212
17785TIP3    H274771   6.395   3.433  11.618  0.0524 -1.3535  0.0492
17786TIP3   OH274772   4.290   5.045   1.688  0.4585 -0.4827 -0.3860
17786TIP3    H174773   4.360   5.047   1.752  0.7027 -0.9625 -0.6349
17786TIP3    H274774   4.240   5.125   1.704  0.1707 -0.8918  0.7838
17787TIP3   OH274775   2.570   3.104   4.042 -0.0084 -0.9005 -0.5039
17787TIP3    H174776   2.531   3.189   4.020 -1.2614 -1.3179  0.0297
17787TIP3    H274777   2.594   3.066   3.957 -0.0873 -0.3181 -0.7945
17788TIP3   OH274778   4.140   0.986   1.848 -0.3868  0.3382 -0.8492
17788TIP3    H174779   4.082   0.987   1.772 -0.5234 -0.9413 -0.7734
17788TIP3    H274780   4.131   0.898   1.885  1.5596  0.1139 -0.8121
17789TIP3   OH274781   4.046   1.510   1.648 -0.1618  0.2427 -0.3388
17789TIP3    H174782   4.000   1.427   1.633 -1.2668  0.9869 -1.1584
17789TIP3    H274783   4.047   1.519   1.743 -2.4828  0.6020 -0.2972
17790TIP3   OH274784   5.575   4.325  10.641  0.0708 -0.6756 -0.6306
17790TIP3    H174785   5.506   4.386  10.667  0.4238 -0.1893 -0.8059
17790TIP3    H274786   5.628   4.375  10.579  1.3753 -0.5625  0.5337
17791TIP3   OH274787   0.553   2.592  14.274 -0.7049 -0.4054 -0.1460
17791TIP3    H174788   0.627   2.652  14.269 -2.3036  1.6957 -0.1297
17791TIP3    H274789   0.536   2.581  14.367  0.0110 -1.5085 -0.1232
17792TIP3   OH274790   4.152   4.916  12.130 -0.0520  0.0298  0.6015
17792TIP3    H174791   4.169   5.000  12.173  0.5991  0.3527 -0.2624
17792TIP3    H274792   4.193   4.851  12.187 -1.8193  0.1158  2.0483
17793TIP3   OH274793   5.988   2.694  11.613  0.2465  0.1091  0.0026
17793TIP3    H174794   6.024   2.665  11.529 -0.2491 -1.3993  0.2846
17793TIP3    H274795   5.907   2.643  11.623  0.4070  0.1106  1.4863
17794TIP3   OH274796   4.121   6.493   0.857  0.5557  0.6705  0.1637
17794TIP3    H174797   4.050   6.524   0.800 -1.6408 -3.4159  0.3029
17794TIP3    H274798   4.086   6.497   0.945 -0.1648 -2.3926  0.1506
17795TIP3   OH274799   0.968   5.126  16.651 -0.1253  0.2676 -0.3063
17795TIP3    H174800   0.971   5.051  16.592  0.0615  1.0074 -1.2632
17795TIP3    H274801   0.973   5.202  16.594  0.9606  1.0099  0.7149
17796TIP3   OH274802   0.676   4.171   2.551 -0.7068  0.3758  0.0149
17796TIP3    H174803   0.612   4.113   2.591  0.5388 -2.0934 -1.3293
17796TIP3    H274804   0.630   4.212   2.477 -1.1517 -0.1813 -0.0150
17797TIP3   OH274805   3.002   6.421  13.601 -0.2855  0.0763  0.4840
17797TIP3    H174806   2.978   6.349  13.659 -1.1254  0.0608  0.1288
17797TIP3    H274807   2.942   6.492  13.624 -1.2450 -0.2170 -0.9299
17798TIP3   OH274808   0.150   6.024   3.616 -0.4243  0.0619 -0.3965
17798TIP3    H174809   0.126   5.962   3.685  2.0356 -1.1946 -0.5675
17798TIP3    H274810   0.073   6.029   3.560 -0.9033 -2.4397 -0.0469
17799TIP3   OH274811   1.150   2.505  16.654 -0.1953  0.5743  0.1562
17799TIP3    H174812   1.125   2.447  16.583  0.0236  1.4123 -0.6237
17799TIP3    H274813   1.222   2.557  16.619 -0.4442  1.3872  0.7974
17800TIP3   OH274814   2.258   3.810   4.583 -0.3936  0.0625 -0.0175
17800TIP3    H174815   2.262   3.715   4.580  0.2355  0.1095 -1.6424
17800TIP3    H274816   2.171   3.830   4.619 -1.0476 -1.1313 -0.8676
17801TIP3   OH274817   4.087   5.064   6.173  0.2622 -0.0074  0.0471
17801TIP3    H174818   4.021   5.112   6.123 -0.5766  0.3264  1.4370
17801TIP3    H274819   4.048   5.051   6.259  1.1920 -1.6273  0.2788
17802TIP3   OH274820   3.163   0.373  11.402  0.2566 -0.2881 -0.1491
17802TIP3    H174821   3.106   0.341  11.472  0.1068 -0.0918 -0.1809
17802TIP3    H274822   3.215   0.297  11.377  0.1926 -0.4022  0.0593
17803TIP3   OH274823   4.490   6.528  13.075  0.4435  0.7337 -0.2086
17803TIP3    H174824   4.417   6.588  13.089  0.5115  0.7980 -0.1258
17803TIP3    H274825   4.463   6.473  13.002 -0.1646  0.0037  0.5451
17804TIP3   OH274826   1.405   2.069  14.813  0.1458 -0.1109  0.5335
17804TIP3    H174827   1.476   2.080  14.750 -0.5202  0.7278 -0.0995
17804TIP3    H274828   1.330   2.042  14.760 -0.7294  1.7173  0.7695
17805TIP3   OH274829   2.462   2.773  16.567  0.0521 -0.3545  0.3948
17805TIP3    H174830   2.454   2.724  16.648  2.4361  0.9942  1.5402
17805TIP3    H274831   2.477   2.864  16.595 -1.1042  0.5314 -1.5951
17806TIP3   OH274832   3.731   0.515  16.446 -0.0893 -0.8584  0.0974
17806TIP3    H174833   3.785   0.443  16.413 -0.0001 -0.7515  0.0097
17806TIP3    H274834   3.693   0.554  16.367  0.0115 -0.6924  0.1288
17807TIP3   OH274835   2.368   3.411  11.609  0.5594 -0.2418  0.3260
17807TIP3    H174836   2.429   3.435  11.678 -0.7010 -0.4762  1.5805
17807TIP3    H274837   2.388   3.320  11.590 -0.7028 -0.9892  2.2472
17808TIP3   OH274838   2.728   5.323  14.503  0.1941 -0.4062 -0.0261
17808TIP3    H174839   2.652   5.265  14.505  1.6106 -2.4574 -1.0181
17808TIP3    H274840   2.773   5.306  14.585 -0.3153  0.6998  0.4980
17809TIP3   OH274841   3.160   3.854  12.665  0.3610 -0.4403  0.1969
17809TIP3    H174842   3.199   3.809  12.740  2.1120 -0.7147 -0.8239
17809TIP3    H274843   3.156   3.787  12.597 -1.9815 -0.4298  0.2279
17810TIP3   OH274844   3.047   5.010  13.102 -0.1324  0.4197 -0.4346
17810TIP3    H174845   3.111   4.950  13.142  1.5154  1.5809 -1.2175
17810TIP3    H274846   3.016   4.963  13.025  1.8545  0.8248 -1.5806
17811TIP3   OH274847   1.745   2.849  14.269  0.4385 -0.1648  0.3341
17811TIP3    H174848   1.699   2.897  14.338  2.1496  0.4928  1.0877
17811TIP3    H274849   1.692   2.862  14.190 -0.6654  0.4979  1.1606
17812TIP3   OH274850   5.115   3.205  11.526 -0.2247 -0.6540  0.5076
17812TIP3    H174851   5.094   3.291  11.490 -0.8765 -1.0912 -0.1802
17812TIP3    H274852   5.145   3.223  11.615  1.4741  0.4592 -0.2443
17813TIP3   OH274853   3.192   4.557   0.025 -0.1879  0.2074  0.1286
17813TIP3    H174854   3.159   4.467   0.016 -0.8007  0.4566 -0.1738
17813TIP3    H274855   3.179   4.577   0.118  2.8933 -1.1168  0.9494
17814TIP3   OH274856   0.698   0.913  13.200  0.0718 -0.6921 -0.3041
17814TIP3    H174857   0.770   0.914  13.137 -0.3782 -2.0337 -0.8781
17814TIP3    H274858   0.640   0.844  13.168 -0.5707 -0.8415  1.1473
17815TIP3   OH274859   1.829   1.546  14.602 -0.2449 -0.1404 -0.3924
17815TIP3    H174860   1.924   1.539  14.613 -0.0206  0.9458 -1.5552
17815TIP3    H274861   1.794   1.516  14.686  1.1588  0.5371  0.4768
17816TIP3   OH274862   5.124   6.140   4.693  0.0289  0.1287 -0.2661
17816TIP3    H174863   5.062   6.090   4.639  1.7003 -0.4554 -1.7383
17816TIP3    H274864   5.172   6.194   4.630  2.0646 -0.5792  0.6047
17817TIP3   OH274865   4.996   0.773  13.743  0.6205  0.7802  0.2723
17817TIP3    H174866   4.933   0.760  13.673  1.0637  1.7723 -0.3364
17817TIP3    H274867   4.961   0.723  13.817  0.4605 -0.7926 -0.8153
17818TIP3   OH274868   2.352   0.585   4.216  0.4978 -0.4024 -0.0914
17818TIP3    H174869   2.350   0.562   4.123 -0.0869  0.0168 -0.1857
17818TIP3    H274870   2.278   0.644   4.228  0.2005 -0.9320  0.7709
17819TIP3   OH274871   4.027   3.864   4.977 -0.4453 -0.3713  0.1484
17819TIP3    H174872   4.086   3.890   4.907 -1.8579 -0.4935 -1.1462
17819TIP3    H274873   4.068   3.786   5.016  0.8408  0.2755  0.1277
17820TIP3   OH274874   2.430   2.418   4.616  0.4541  0.1563 -0.1399
17820TIP3    H174875   2.480   2.449   4.691 -1.7742  0.3080  1.3859
17820TIP3    H274876   2.354   2.373   4.654 -0.5105 -0.1944 -2.2974
17821TIP3   OH274877   4.211   4.148  16.933  0.2758 -0.0536  0.0530
17821TIP3    H174878   4.261   4.071  16.959 -2.4488 -1.0864  2.8696
17821TIP3    H274879   4.171   4.123  16.849  0.9544 -0.9216 -0.0304
17822TIP3   OH274880   5.419   6.225  16.263  0.2910  0.3488 -0.4642
17822TIP3    H174881   5.440   6.191  16.176  3.3597 -1.1551  0.7194
17822TIP3    H274882   5.372   6.154  16.307  0.5662  0.3030 -0.2404
17823TIP3   OH274883   2.650   4.332   4.784 -0.3250  0.1748 -0.1400
17823TIP3    H174884   2.672   4.342   4.877 -2.0146  1.7038  0.1542
17823TIP3    H274885   2.572   4.276   4.784 -0.4765  0.3815 -0.6193
17824TIP3   OH274886   5.826   6.363  11.321 -0.5693  0.3482  0.1985
17824TIP3    H174887   5.798   6.277  11.290  0.3923  0.2060 -0.3186
17824TIP3    H274888   5.843   6.413  11.241  0.8882  0.3286  0.4653
17825TIP3   OH274889   5.908   6.267  16.643  0.1745 -0.0128  0.1453
17825TIP3    H174890   5.956   6.341  16.680  1.1096  0.7338 -2.3987
17825TIP3    H274891   5.817   6.297  16.641  0.2034  0.1838  1.1251
17826TIP3   OH274892   3.660   1.424   5.860  0.0482  0.4221 -0.0049
17826TIP3    H174893   3.747   1.386   5.864  0.6391  1.6707 -0.4788
17826TIP3    H274894   3.658   1.487   5.932 -0.9928 -0.6072  0.9116
17827TIP3   OH274895   2.025   1.664   2.431 -0.1969 -0.3238  0.3558
17827TIP3    H174896   1.988   1.660   2.343  1.4968 -0.2626 -0.4050
17827TIP3    H274897   2.078   1.585   2.438 -0.5520 -0.4823  1.4508
17828TIP3   OH274898   0.520   4.477  13.261  0.8933  0.1032 -0.4978
17828TIP3    H174899   0.458   4.408  13.284  1.5071 -0.0830  0.6966
17828TIP3    H274900   0.529   4.471  13.166 -0.1026 -0.5573 -0.5631
17829TIP3   OH274901   5.611   2.627   3.322  0.6177  0.1592 -0.5704
17829TIP3    H174902   5.693   2.674   3.339  0.5539  1.2433 -2.8782
17829TIP3    H274903   5.625   2.584   3.238 -0.7193 -0.8009 -0.3401
17830TIP3   OH274904   4.824   5.273   1.878  0.7019  0.3972 -0.5125
17830TIP3    H174905   4.822   5.198   1.818 -0.8535  0.2178 -0.2590
17830TIP3    H274906   4.811   5.234   1.964  0.4832  0.9095 -0.3147
17831TIP3   OH274907   1.018   6.468   0.050  0.4509 -0.2498 -0.4949
17831TIP3    H174908   1.069   6.503  -0.023  0.7256  2.8014  1.0034
17831TIP3    H274909   1.044   6.376   0.055  1.5763 -0.1839 -3.2113
17832TIP3   OH274910   5.641   0.712   0.120  0.4782  0.1098 -0.5114
17832TIP3    H174911   5.707   0.681   0.059  1.2961 -1.1973  0.9590
17832TIP3    H274912   5.691   0.744   0.195 -0.5166  1.0793 -0.2326
17833TIP3   OH274913   3.817   1.207   0.836  0.0883  0.0771  0.3555
17833TIP3    H174914   3.833   1.290   0.792 -0.9144  0.3640  0.5091
17833TIP3    H274915   3.765   1.157   0.774 -1.3059  0.4701  1.1738
17834TIP3   OH274916   2.268   3.826  12.739 -0.0736  0.3565  0.2876
17834TIP3    H174917   2.306   3.914  12.740 -0.1814  0.4190 -0.4062
17834TIP3    H274918   2.330   3.772  12.787  0.3381  0.6807  0.1255
17835TIP3   OH274919   0.552   1.371  16.450 -0.0088 -0.0418 -0.0683
17835TIP3    H174920   0.594   1.409  16.372 -1.2747  2.4243  0.3653
17835TIP3    H274921   0.469   1.418  16.457 -0.2766 -0.7880  2.3196
17836TIP3   OH274922   2.869   0.571   1.773 -0.1696 -0.4499  0.1515
17836TIP3    H174923   2.830   0.485   1.755 -2.7589  1.1205 -2.5035
17836TIP3    H274924   2.864   0.580   1.868 -0.9942 -2.7067  0.3882
17837TIP3   OH274925   6.763   2.615  16.880 -0.5405  0.3848 -0.0172
17837TIP3    H174926   6.822   2.636  16.952 -0.7282  2.1709 -0.3284
17837TIP3    H274927   6.680   2.594  16.922 -0.5964  1.2344  0.3065
17838TIP3   OH274928   6.065   1.241  16.997 -0.3576  0.1132  0.4328
17838TIP3    H174929   6.083   1.273  16.909 -1.4604  1.5572  0.6832
17838TIP3    H274930   5.971   1.224  16.998 -0.0710 -1.6013  0.8308
17839TIP3   OH274931   3.983   3.255  16.991 -0.0609  0.8181 -0.5848
17839TIP3    H174932   4.026   3.173  16.965 -0.1333  0.8854 -0.9261
17839TIP3    H274933   3.951   3.239  17.079 -3.0016 -0.7249 -1.7718
17840TIP3   OH274934   0.698   1.689  15.210  0.0669  0.0192 -0.2023
17840TIP3    H174935   0.625   1.684  15.148  0.3657 -1.8868 -0.4676
17840TIP3    H274936   0.664   1.648  15.290 -0.2834  2.3503  0.9409
17841TIP3   OH274937   4.467   5.648  16.840  0.1201 -0.1207 -0.2632
17841TIP3    H174938   4.506   5.708  16.904 -0.9136 -0.1422  0.4182
17841TIP3    H274939   4.542   5.608  16.796  0.8600  0.1328  0.7198
17842TIP3   OH274940   0.131   6.386   1.125  0.3074  0.0501 -0.6636
17842TIP3    H174941   0.178   6.469   1.115  1.9147 -0.5282  1.3849
17842TIP3    H274942   0.183   6.323   1.076  0.2630 -0.1249 -0.4858
17843TIP3   OH274943   2.391   5.869   3.160  0.3830  0.6307  0.0342
17843TIP3    H174944   2.314   5.910   3.200 -0.8050 -1.0088 -0.4761
17843TIP3    H274945   2.463   5.928   3.181 -0.6313  1.1562  2.3720
17844TIP3   OH274946   5.835   5.584   5.841 -0.5149 -0.7544 -0.6341
17844TIP3    H174947   5.833   5.668   5.887 -1.3445 -0.7212 -0.7146
17844TIP3    H274948   5.746   5.550   5.850 -0.4539 -1.1532 -1.4656
17845TIP3   OH274949   5.973   1.280   5.274 -0.2209  0.8545  0.3103
17845TIP3    H174950   5.925   1.297   5.355  0.3569 -0.3629  0.9282
17845TIP3    H274951   6.026   1.359   5.260 -1.3169  1.6201  0.3786
17846TIP3   OH274952   4.477   4.786   0.701 -0.3313 -0.3719  0.5110
17846TIP3    H174953   4.429   4.717   0.655 -0.0589 -0.2114 -0.0101
17846TIP3    H274954   4.417   4.814   0.771 -0.1023 -1.7602  1.3066
17847TIP3   OH274955   6.674   2.066   4.682 -0.3791  0.0567  0.2244
17847TIP3    H174956   6.634   2.123   4.747  1.6657  0.1070  1.5448
17847TIP3    H274957   6.750   2.115   4.651 -0.5996 -0.5068 -1.2964
17848TIP3   OH274958   1.544   5.021   6.013  0.3894 -0.0630  0.8167
17848TIP3    H174959   1.546   4.940   5.962  2.0874 -0.0704  0.8382
17848TIP3    H274960   1.613   5.009   6.078  0.9203  1.5443  0.5785
17849TIP3   OH274961   2.288   1.656   2.975 -0.4128  0.1315 -0.8731
17849TIP3    H174962   2.356   1.590   2.989 -0.2509  0.3875 -0.4530
17849TIP3    H274963   2.260   1.641   2.885  0.3215  0.1333 -1.1119
17850TIP3   OH274964   5.803   1.326  12.869  0.2354  0.3894 -0.2718
17850TIP3    H174965   5.763   1.267  12.933  0.4754  1.8896  1.3517
17850TIP3    H274966   5.885   1.283  12.845 -0.3104 -0.6522 -0.3114
17851TIP3   OH274967   3.220   6.217   0.157  0.7028  0.1505 -0.6011
17851TIP3    H174968   3.216   6.153   0.228  0.1721  0.8303 -0.0064
17851TIP3    H274969   3.170   6.292   0.189  1.7222  1.0652 -1.0815
17852TIP3   OH274970   0.655   0.611  13.079  0.4131  0.2676 -0.3161
17852TIP3    H174971   0.587   0.628  13.144  0.2314  0.2624 -0.5029
17852TIP3    H274972   0.719   0.557  13.125  0.0207 -0.1913 -0.3021
17853TIP3   OH274973   3.206   4.028  15.899 -0.0725 -0.1989  0.0802
17853TIP3    H174974   3.296   4.058  15.887 -0.1540 -0.6523 -2.1357
17853TIP3    H274975   3.156   4.107  15.916  0.8327 -0.0353  2.3535
17854TIP3   OH274976   1.702   5.409  15.621  0.4312 -0.0039  0.3783
17854TIP3    H174977   1.634   5.414  15.688  0.2799  0.8321  0.1761
17854TIP3    H274978   1.666   5.350  15.555  0.1903 -0.0994  0.5914
17855TIP3   OH274979   2.671   0.669   5.362  0.1879 -0.4674 -0.1761
17855TIP3    H174980   2.678   0.593   5.305 -1.5596 -0.7338 -0.0882
17855TIP3    H274981   2.636   0.738   5.306 -0.9668 -0.5596  0.4002
17856TIP3   OH274982   3.177   2.494  15.943 -0.6259 -0.5433  0.1126
17856TIP3    H174983   3.184   2.551  15.867 -0.6080 -0.6890  0.0045
17856TIP3    H274984   3.098   2.523  15.988 -1.2883 -1.2203 -0.5946
17857TIP3   OH274985   2.247   5.834   4.295  0.2335  0.1329 -0.0899
17857TIP3    H174986   2.215   5.782   4.369  0.0039  0.7410  0.2468
17857TIP3    H274987   2.287   5.770   4.236  1.5034 -0.2232  1.1113
17858TIP3   OH274988   3.842   2.983  13.705  0.4869 -0.3170 -0.0230
17858TIP3    H174989   3.932   2.980  13.671  0.2942 -1.2865 -0.4958
17858TIP3    H274990   3.797   3.045  13.647  0.5960 -0.6306 -0.4494
17859TIP3   OH274991   2.214   4.981  16.903  0.0254  0.7935  0.6141
17859TIP3    H174992   2.167   5.007  16.823 -0.3032  0.5487  0.7270
17859TIP3    H274993   2.157   5.009  16.974 -0.2234 -0.0401  0.7434
17860TIP3   OH274994   2.478   6.692  17.002  0.2720  0.1327 -0.5381
17860TIP3    H174995   2.476   6.641  17.083  1.4489 -0.4377 -0.8485
17860TIP3    H274996   2.386   6.701  16.976 -0.0345 -0.6293  0.2583
17861TIP3   OH274997   0.433   1.555  15.514  0.3283 -0.0541 -0.2825
17861TIP3    H174998   0.388   1.582  15.594 -0.2479  0.4296 -0.7569
17861TIP3    H274999   0.369   1.571  15.444  0.6289 -0.9606 -0.7877
17862TIP3   OH275000   2.744   3.532  13.086  0.3314 -0.0876  0.0025
17862TIP3    H175001   2.774   3.452  13.045 -2.1927 -0.8299 -0.5771
17862TIP3    H275002   2.696   3.578  13.017 -0.6561  0.5365  1.0627
17863TIP3   OH275003   1.348   5.435   0.839 -0.2105  0.1764 -0.2598
17863TIP3    H175004   1.305   5.474   0.915  2.2335  3.9394 -0.5465
17863TIP3    H275005   1.297   5.467   0.764 -0.9243 -1.1467 -0.3606
17864TIP3   OH275006   6.582   5.555  11.498  0.5348 -0.2662 -0.1635
17864TIP3    H175007   6.516   5.624  11.505  0.4663 -0.3211 -0.2750
17864TIP3    H275008   6.663   5.601  11.478  0.3328 -0.2905 -1.0752
17865TIP3   OH275009   3.880   5.254  15.530 -0.4883  0.2350 -0.0602
17865TIP3    H175010   3.802   5.308  15.545 -1.4491 -0.6190 -1.7295
17865TIP3    H275011   3.887   5.200  15.609 -1.1268  0.8740  0.4450
17866TIP3   OH275012   5.656   0.860  12.834 -0.3196 -0.3159 -0.0326
17866TIP3    H175013   5.643   0.943  12.789  0.3519 -0.0813  0.2050
17866TIP3    H275014   5.682   0.799  12.765 -0.3851 -0.2281 -0.1362
17867TIP3   OH275015   4.085   1.460   3.034 -0.2065  0.3925  0.2672
17867TIP3    H175016   4.067   1.432   3.123  0.3113  2.7053  1.1647
17867TIP3    H275017   4.002   1.448   2.987  0.0043 -2.5637  0.5133
17868TIP3   OH275018   4.344   2.677  11.807  0.1194 -0.2873 -0.2730
17868TIP3    H175019   4.425   2.658  11.761  0.2993  1.4950 -0.7383
17868TIP3    H275020   4.323   2.595  11.853  1.2052 -1.3311 -1.5728
17869TIP3   OH275021   5.300   6.152   0.346 -0.5628  0.1237  0.0939
17869TIP3    H175022   5.222   6.184   0.390 -0.5484 -0.5603  0.6430
17869TIP3    H275023   5.352   6.110   0.416 -0.8359 -1.5349 -0.6532
17870TIP3   OH275024   5.374   5.192  14.450  0.5603  0.3488  0.1638
17870TIP3    H175025   5.417   5.134  14.388  1.4826 -0.6686  1.6857
17870TIP3    H275026   5.286   5.204  14.415  1.3777  0.7634 -1.9260
17871TIP3   OH275027   0.428   0.144  13.205  0.1067 -0.0750 -0.1052
17871TIP3    H175028   0.503   0.085  13.216  0.0064 -0.0959  0.5188
17871TIP3    H275029   0.450   0.196  13.128 -0.4553 -1.9053 -1.5891
17872TIP3   OH275030   6.216   6.727   2.849 -0.4213 -0.1159 -0.1776
17872TIP3    H175031   6.265   6.653   2.884 -2.2061 -2.6547 -2.5289
17872TIP3    H275032   6.217   6.713   2.754 -1.4338  2.5127 -0.6515
17873TIP3   OH275033   1.901   0.347   3.320  0.6964 -0.5914 -0.1156
17873TIP3    H175034   1.985   0.378   3.355  0.2765  0.0482  0.3494
17873TIP3    H275035   1.878   0.412   3.253  0.9217 -1.1659 -0.7578
17874TIP3   OH275036   2.781   0.366  11.295  1.0172  0.3334 -0.2507
17874TIP3    H175037   2.739   0.318  11.223  0.1336  2.5984 -1.3531
17874TIP3    H275038   2.762   0.314  11.372 -0.8072 -0.5774 -1.2318
17875TIP3   OH275039   5.629   3.714   0.962  0.1057 -0.5075  0.4089
17875TIP3    H175040   5.601   3.626   0.934 -0.6995  0.2333 -1.2410
17875TIP3    H275041   5.698   3.697   1.026  0.8649 -2.3455 -0.7899
17876TIP3   OH275042   5.877   1.813   5.314 -0.3040  0.4075  0.7115
17876TIP3    H175043   5.802   1.821   5.256  0.3505 -0.5820 -0.3258
17876TIP3    H275044   5.847   1.846   5.398 -1.4701  1.3029 -0.0344
17877TIP3   OH275045   3.125   1.832   4.148 -0.3746  0.0469  0.1511
17877TIP3    H175046   3.064   1.767   4.112 -1.1252  1.6884 -1.7209
17877TIP3    H275047   3.204   1.822   4.095 -0.7234  1.0453 -0.5860
17878TIP3   OH275048   5.102   4.148  11.017  0.0850  0.6024 -0.0831
17878TIP3    H175049   5.050   4.135  10.938  1.4335 -1.0157 -0.7613
17878TIP3    H275050   5.076   4.077  11.075 -0.6260  1.5635  0.8117
17879TIP3   OH275051   2.142   1.579   6.899 -0.5300 -0.3701 -0.2035
17879TIP3    H175052   2.205   1.551   6.833  0.7600  0.3348  0.6635
17879TIP3    H275053   2.194   1.634   6.959 -1.4776 -1.4759  1.7381
17880TIP3   OH275054   3.750   4.307  11.330 -0.7351  0.2886 -0.2376
17880TIP3    H175055   3.806   4.313  11.408  1.9357  0.6333 -2.0649
17880TIP3    H275056   3.682   4.373  11.345  0.3979  1.1857  1.2960
17881TIP3   OH275057   6.733   4.128  13.230 -0.5010 -0.2260 -0.6347
17881TIP3    H175058   6.673   4.126  13.155  0.2482  2.4158 -1.4025
17881TIP3    H275059   6.810   4.080  13.200 -1.3669 -1.8716 -0.3697
17882TIP3   OH275060   1.391   5.172  16.712 -0.3985 -0.6219 -0.0190
17882TIP3    H175061   1.321   5.234  16.731  0.5804  1.1819 -1.9480
17882TIP3    H275062   1.346   5.091  16.688 -1.7390 -0.2333  1.0850
17883TIP3   OH275063   6.025   5.801  15.008 -0.6053  0.0290 -0.7458
17883TIP3    H175064   5.995   5.818  15.097  0.3682  3.4806 -0.9379
17883TIP3    H275065   5.945   5.802  14.955 -0.9715  0.2900 -0.1968
17884TIP3   OH275066   2.428   5.528   4.969 -0.1258  0.0281 -0.0438
17884TIP3    H175067   2.356   5.547   5.030  0.9932  1.8216  0.7787
17884TIP3    H275068   2.384   5.510   4.886 -1.6299 -1.4162  1.0018
17885TIP3   OH275069   4.733   0.388   0.297  0.0108 -0.3624  0.9153
17885TIP3    H175070   4.772   0.474   0.308  1.3743 -0.8050 -0.1500
17885TIP3    H275071   4.807   0.327   0.302 -0.5968 -1.2941 -0.5623
17886TIP3   OH275072   1.152   1.083  11.563  0.3674  0.0120  0.3729
17886TIP3    H175073   1.105   1.034  11.630  0.8254  0.2642  0.8914
17886TIP3    H275074   1.084   1.116  11.504 -0.1013  0.3402  1.0834
17887TIP3   OH275075   1.586   5.082  16.943 -0.4242  0.4866  0.0098
17887TIP3    H175076   1.512   5.105  16.886  0.0903 -0.8153 -1.2218
17887TIP3    H275077   1.581   4.987  16.953 -0.3378  0.6481  1.9577
17888TIP3   OH275078   3.419   1.423   6.511  0.2187 -0.0955  0.1764
17888TIP3    H175079   3.474   1.369   6.568 -1.2841 -1.4680  0.3840
17888TIP3    H275080   3.330   1.403   6.538 -0.4334  1.0976 -1.0226
17889TIP3   OH275081   1.942   4.167  10.539 -0.3097 -0.0571  0.1482
17889TIP3    H175082   1.922   4.074  10.533  1.3803 -0.4860  0.5932
17889TIP3    H275083   1.886   4.199  10.610 -1.7115 -0.4666 -0.7386
17890TIP3   OH275084   6.251   1.964  14.432 -0.1754 -0.2098  0.2072
17890TIP3    H175085   6.318   1.901  14.458 -0.9557 -1.6785 -1.1127
17890TIP3    H275086   6.289   2.011  14.358 -0.4072 -0.7027 -0.2301
17891TIP3   OH275087   0.073   1.205  14.942  0.3636 -0.1517 -0.1181
17891TIP3    H175088   0.121   1.168  15.017  1.6493  0.7437 -0.4858
17891TIP3    H275089   0.035   1.286  14.976  0.9399  0.2504 -0.4338
17892TIP3   OH275090   4.939   5.284   3.581  0.0363  0.4130 -0.0207
17892TIP3    H175091   4.965   5.217   3.644 -0.8709  0.0994  0.0341
17892TIP3    H275092   4.962   5.367   3.623 -0.7893  0.2228  0.8395
17893TIP3   OH275093   2.418   6.348  11.300  0.0438 -0.0088  0.5790
17893TIP3    H175094   2.418   6.415  11.232 -1.0554 -1.4834 -0.9570
17893TIP3    H275095   2.375   6.390  11.375  1.5976  1.7622  0.5410
17894TIP3   OH275096   5.099   3.419  16.108  0.3480 -0.1399 -0.2983
17894TIP3    H175097   5.091   3.372  16.192 -0.0303  0.4915  0.0273
17894TIP3    H275098   5.008   3.430  16.079  0.4111  0.7350 -0.1750
17895TIP3   OH275099   1.066   4.891   5.489 -0.2259 -0.2487  0.1500
17895TIP3    H175100   1.096   4.808   5.452 -0.8787 -0.4094 -0.0358
17895TIP3    H275101   1.132   4.955   5.462 -0.7212 -0.3505 -1.3568
17896TIP3   OH275102   3.481   1.221  10.992 -0.3275  0.0171 -0.3418
17896TIP3    H175103   3.397   1.267  10.996 -0.7685 -0.8055  0.2704
17896TIP3    H275104   3.457   1.128  10.998  0.2064 -0.6924 -5.3956
17897TIP3   OH275105   2.795   4.964   1.419  0.3058 -0.7476  0.4543
17897TIP3    H175106   2.704   4.972   1.450 -0.3106  0.3964 -1.4765
17897TIP3    H275107   2.848   4.988   1.495 -1.0646  0.1390  1.1679
17898TIP3   OH275108   2.742   0.601   6.412  0.3307 -0.1211  0.4702
17898TIP3    H175109   2.732   0.518   6.366  1.2631  0.4355 -0.7926
17898TIP3    H275110   2.829   0.632   6.387 -0.5992  1.9719 -0.3502
17899TIP3   OH275111   3.294   1.965   2.757  0.3644 -0.2069  0.2341
17899TIP3    H175112   3.240   2.040   2.732  0.2496 -1.0097 -2.1116
17899TIP3    H275113   3.368   2.004   2.805 -0.8999  1.1363  1.1645
17900TIP3   OH275114   2.549   4.773   6.192 -0.1341 -0.8571 -0.4401
17900TIP3    H175115   2.510   4.809   6.272  1.6907 -0.5760  0.3730
17900TIP3    H275116   2.639   4.753   6.216  0.1730 -1.7398 -2.1642
17901TIP3   OH275117   4.087   4.954  13.529  0.0587  0.0944  0.2712
17901TIP3    H175118   4.097   4.912  13.614 -0.6918  1.0825  0.8584
17901TIP3    H275119   4.066   5.045  13.549 -1.4017  0.0589 -0.9510
17902TIP3   OH275120   2.445   0.328  14.409 -0.2789 -0.2706  0.0155
17902TIP3    H175121   2.385   0.254  14.401  0.4770 -0.7525 -1.6559
17902TIP3    H275122   2.396   0.402  14.374 -0.5720 -0.2429  0.4722
17903TIP3   OH275123   5.413   6.383   1.885 -0.0315 -0.3465  0.1776
17903TIP3    H175124   5.401   6.338   1.802  1.0688  0.3992 -0.4093
17903TIP3    H275125   5.392   6.317   1.951  0.3031 -1.3224 -0.6721
17904TIP3   OH275126   4.248   4.217   4.843  0.2807 -0.2979  0.5510
17904TIP3    H175127   4.300   4.142   4.814  0.0440  0.2757 -1.5314
17904TIP3    H275128   4.286   4.241   4.928  1.5397 -1.6441  0.4101
17905TIP3   OH275129   5.550   0.599  11.620 -0.3809  0.2432 -0.2900
17905TIP3    H175130   5.475   0.565  11.572  0.0217 -0.5904 -0.3506
17905TIP3    H275131   5.624   0.549  11.586  0.2641  1.3090 -0.5009
17906TIP3   OH275132   0.311   5.420  12.914  1.0714 -0.6792 -0.7923
17906TIP3    H175133   0.232   5.373  12.885  0.1520  0.2789  0.0474
17906TIP3    H275134   0.282   5.511  12.925  1.9168 -0.5613  0.8567
17907TIP3   OH275135   3.616   1.518  16.884  0.2674 -0.3016  0.2401
17907TIP3    H175136   3.569   1.572  16.948 -1.0283 -2.2860  1.0580
17907TIP3    H275137   3.548   1.466  16.842  1.5738 -2.6346  0.8265
17908TIP3   OH275138   0.312   2.471  11.314 -0.6295  0.4939  0.2209
17908TIP3    H175139   0.300   2.497  11.405 -1.8087 -0.6243  0.4127
17908TIP3    H275140   0.248   2.523  11.266 -0.3636  0.7086  0.0981
17909TIP3   OH275141   0.361   3.933   2.199  0.3377  0.2295  0.0671
17909TIP3    H175142   0.380   3.925   2.106  0.3544  0.5340  0.0423
17909TIP3    H275143   0.274   3.973   2.202  0.7127  1.0577  0.1784
17910TIP3   OH275144   6.264   0.352  13.017 -0.2086  0.3742 -0.6011
17910TIP3    H175145   6.256   0.259  13.037  0.6439  0.6045  1.0348
17910TIP3    H275146   6.341   0.380  13.067 -1.5214  2.3453  0.4519
17911TIP3   OH275147   4.656   4.258   3.078 -0.1519 -0.1075 -0.8583
17911TIP3    H175148   4.627   4.223   2.994 -0.7044  0.8636 -1.0814
17911TIP3    H275149   4.589   4.229   3.141 -1.1831  1.3602 -1.2184
17912TIP3   OH275150   3.239   1.996   3.722 -0.0260 -0.7029  0.2072
17912TIP3    H175151   3.165   1.949   3.760  0.5641 -0.5611  1.5769
17912TIP3    H275152   3.206   2.028   3.637 -2.1428  0.9065  1.5314
17913TIP3   OH275153   4.816   6.009  16.410  0.0965  0.9238  0.0366
17913TIP3    H175154   4.742   6.062  16.440  0.2709  0.5935  1.1037
17913TIP3    H275155   4.888   6.037  16.466  0.4005  0.1781  0.0153
17914TIP3   OH275156   3.337   4.026  12.993  0.6294 -0.1562 -0.2547
17914TIP3    H175157   3.296   4.094  12.940  2.1244  1.1855  0.2553
17914TIP3    H275158   3.310   4.047  13.083  1.0073 -0.2953 -0.1069
17915TIP3   OH275159   6.613   6.590   5.778  0.2716  0.4226 -0.8289
17915TIP3    H175160   6.535   6.590   5.835 -0.1158 -0.8025 -1.3375
17915TIP3    H275161   6.685   6.564   5.836  0.0833  0.3398 -0.6308
17916TIP3   OH275162   3.254   0.874  12.162  0.5787 -0.3541  0.1743
17916TIP3    H175163   3.275   0.965  12.186  0.7524 -0.6936  1.3958
17916TIP3    H275164   3.337   0.839  12.129  0.1471  0.3534 -1.7961
17917TIP3   OH275165   1.592   4.935   1.852  0.3096 -0.1714 -0.2544
17917TIP3    H175166   1.568   5.025   1.875 -0.3956 -0.2595 -0.6220
17917TIP3    H275167   1.658   4.911   1.917  0.4655  0.5922 -0.1202
17918TIP3   OH275168   3.299   5.239  11.075 -0.3040  0.4009 -0.8141
17918TIP3    H175169   3.379   5.268  11.031 -0.1476 -0.1384 -0.8986
17918TIP3    H275170   3.274   5.159  11.029 -0.8612  0.5328 -0.7487
17919TIP3   OH275171   0.819   2.548   3.221  0.3623  0.3349  0.0294
17919TIP3    H175172   0.747   2.607   3.244  0.6107  1.1661 -1.2338
17919TIP3    H275173   0.832   2.495   3.299 -1.6173  0.1590  0.2942
17920TIP3   OH275174   4.217   3.158   2.009 -0.0787 -0.0705 -0.1657
17920TIP3    H175175   4.256   3.077   1.975 -0.4384  0.1508 -1.1493
17920TIP3    H275176   4.141   3.129   2.059 -1.0104 -0.3028 -1.6444
17921TIP3   OH275177   0.188   5.751  16.053 -0.4278 -0.5456 -0.1684
17921TIP3    H175178   0.190   5.817  16.122 -0.1273  0.2913 -0.9684
17921TIP3    H275179   0.265   5.696  16.071 -0.4118 -0.3991  0.2252
17922TIP3   OH275180   2.713   5.304  11.317  0.8117  0.1318 -0.0461
17922TIP3    H175181   2.677   5.287  11.404 -0.2237 -1.4174 -0.7239
17922TIP3    H275182   2.770   5.380  11.328  1.2059 -0.4319  2.1075
17923TIP3   OH275183   1.304   4.620  15.633 -0.1385  0.0361 -0.1182
17923TIP3    H175184   1.271   4.683  15.569 -0.9552 -0.2856 -0.0201
17923TIP3    H275185   1.226   4.583  15.674  0.3079 -1.4379 -0.5494
17924TIP3   OH275186   2.055   1.339  11.753  0.4504 -0.0111 -0.2552
17924TIP3    H175187   2.106   1.419  11.740 -0.2038  0.1721 -1.9675
17924TIP3    H275188   2.036   1.308  11.664  0.0645 -1.6676  0.3719
17925TIP3   OH275189   3.098   3.243  13.085 -0.0664  0.4605 -0.1968
17925TIP3    H175190   3.142   3.327  13.081  1.7358 -0.3841  0.5314
17925TIP3    H275191   3.044   3.248  13.164 -0.2500  1.0502 -0.3558
17926TIP3   OH275192   4.683   1.602  15.427 -0.2494  0.2551 -0.4100
17926TIP3    H175193   4.778   1.593  15.415  0.0258  1.8166  0.3085
17926TIP3    H275194   4.666   1.560  15.511  0.0146  0.9650  0.0099
17927TIP3   OH275195   6.668   5.726  15.081 -0.3712  0.6173  0.1667
17927TIP3    H175196   6.664   5.711  15.175 -1.2953 -0.2002  0.0210
17927TIP3    H275197   6.720   5.654  15.047 -0.6863  0.4713 -0.0191
17928TIP3   OH275198   4.325   4.244   6.518  0.3348  0.6596  0.2215
17928TIP3    H175199   4.412   4.274   6.545  0.9820 -0.6636 -0.3099
17928TIP3    H275200   4.339   4.154   6.488 -1.4977 -0.1782  1.6610
17929TIP3   OH275201   5.582   4.661   0.154  0.3083  0.6204  0.7974
17929TIP3    H175202   5.617   4.572   0.167 -1.3163 -0.4148 -1.3470
17929TIP3    H275203   5.551   4.687   0.241  0.9808 -0.8189  1.5086
17930TIP3   OH275204   5.239   5.382   1.345 -0.1092  0.1224  0.6792
17930TIP3    H175205   5.191   5.463   1.361 -1.0174 -0.2734  0.0318
17930TIP3    H275206   5.314   5.386   1.405  0.7240  2.1515 -0.3852
17931TIP3   OH275207   4.885   2.957   1.718  0.2182  0.2411 -0.8474
17931TIP3    H175208   4.836   3.024   1.669 -1.0258  0.0787  0.1439
17931TIP3    H275209   4.873   2.877   1.667 -0.9434  0.1047 -0.3720
17932TIP3   OH275210   5.946   2.123   1.869 -0.2909 -0.3483  0.2890
17932TIP3    H175211   6.000   2.179   1.814 -0.6536 -0.2586  0.0207
17932TIP3    H275212   6.008   2.069   1.917  0.0087 -1.3269 -1.1361
17933TIP3   OH275213   3.029   3.578   2.624 -0.1240 -0.1172 -0.8743
17933TIP3    H175214   2.969   3.653   2.632  1.5446  1.1782  0.3058
17933TIP3    H275215   3.116   3.615   2.642  1.0024 -2.0044 -2.0779
17934TIP3   OH275216   6.368   4.479  11.849 -0.2921 -0.0189  0.2333
17934TIP3    H175217   6.347   4.406  11.791 -1.3184 -0.1098  0.6983
17934TIP3    H275218   6.464   4.486  11.844 -0.3487  0.0636 -1.5537
17935TIP3   OH275219   1.683   2.730   4.443 -0.3292  0.0679 -0.3638
17935TIP3    H175220   1.635   2.653   4.474 -0.4950 -0.2826 -1.4644
17935TIP3    H275221   1.772   2.717   4.476 -0.5787 -0.1197  0.2542
17936TIP3   OH275222   1.074   4.103  12.256 -0.0370 -0.3857 -0.1364
17936TIP3    H175223   1.104   4.154  12.181 -0.8993  1.2179  0.5480
17936TIP3    H275224   1.023   4.031  12.218  0.1642 -0.0235 -1.0994
17937TIP3   OH275225   0.849   4.852   4.698 -0.3529 -0.4719 -0.2199
17937TIP3    H175226   0.851   4.946   4.686 -0.8699 -0.5069 -0.6118
17937TIP3    H275227   0.756   4.829   4.696 -0.3003 -0.8669  0.8344
17938TIP3   OH275228   1.369   5.053  12.434 -0.0566 -0.2819 -0.0958
17938TIP3    H175229   1.291   5.041  12.488  0.3555  0.7288  0.7571
17938TIP3    H275230   1.397   5.143  12.452  1.5832 -0.7786  0.0186
17939TIP3   OH275231   0.954   6.348   0.766  0.2281 -0.2804  1.0024
17939TIP3    H175232   0.912   6.364   0.681  3.3983 -0.4094 -0.7387
17939TIP3    H275233   0.918   6.416   0.823 -2.2278 -0.3697 -0.2986
17940TIP3   OH275234   1.281   0.941  11.362 -0.7491 -0.2670 -0.4127
17940TIP3    H175235   1.319   0.929  11.449 -1.0480 -1.5754 -0.4426
17940TIP3    H275236   1.195   0.979  11.379 -1.1552 -1.3146 -0.0713
17941TIP3   OH275237   5.265   5.694   4.656  0.3536 -0.4703 -0.8174
17941TIP3    H175238   5.279   5.711   4.750  0.0398 -2.1428 -0.4453
17941TIP3    H275239   5.184   5.742   4.635  2.1580  2.7501 -1.1164
17942TIP3   OH275240   0.671   2.009   3.994 -0.1721  0.2463 -0.6646
17942TIP3    H175241   0.733   2.015   3.922  0.2250 -0.9545 -0.4463
17942TIP3    H275242   0.620   1.931   3.976  0.1480 -0.2614  0.5016
17943TIP3   OH275243   1.382   6.514   3.122  0.3246  0.5289 -0.3326
17943TIP3    H175244   1.328   6.464   3.061 -0.3781 -0.4625  1.0365
17943TIP3    H275245   1.387   6.601   3.083 -0.7545  0.1522 -1.4056
17944TIP3   OH275246   4.261   3.872  15.335 -0.2611 -0.2393 -0.2810
17944TIP3    H175247   4.169   3.850  15.344 -0.0625 -1.2653 -0.7092
17944TIP3    H275248   4.287   3.837  15.250  0.5616 -0.0782 -0.1093
17945TIP3   OH275249   3.110   2.727  13.654  0.2884 -0.6404  0.3312
17945TIP3    H175250   3.151   2.645  13.627  1.3361 -0.2828  0.7976
17945TIP3    H275251   3.111   2.725  13.749  0.0726 -0.1978  0.3471
17946TIP3   OH275252   6.497   5.950  14.599  0.1253 -0.1701  0.7290
17946TIP3    H175253   6.573   5.927  14.545  0.8108  0.7606  1.2732
17946TIP3    H275254   6.422   5.915  14.551  0.9157 -1.4901  0.3919
17947TIP3   OH275255   5.556   2.976  14.426  0.0813  0.0587 -0.2265
17947TIP3    H175256   5.635   3.029  14.418  0.2366 -0.2641 -0.9323
17947TIP3    H275257   5.570   2.903  14.366 -1.4148  0.8133 -1.5837
17948TIP3   OH275258   5.327   3.025  10.745  0.5421 -0.4880  0.6848
17948TIP3    H175259   5.362   2.962  10.808  1.5761 -2.1685 -1.4033
17948TIP3    H275260   5.242   2.989  10.719  1.3422 -1.3706 -0.8644
17949TIP3   OH275261   1.154   3.602   2.721  0.1532  0.2286  0.3388
17949TIP3    H175262   1.104   3.613   2.640 -2.0300 -0.0754  1.5876
17949TIP3    H275263   1.245   3.597   2.691 -0.6155 -0.6490 -2.1764
17950TIP3   OH275264   0.523   1.205  11.948  0.2433 -0.0675 -0.6961
17950TIP3    H175265   0.617   1.195  11.932  0.2094  1.6658 -2.4568
17950TIP3    H275266   0.496   1.274  11.887 -1.5177  1.9777  2.1258
17951TIP3   OH275267   4.070   3.201  13.390 -0.0923  0.0898  0.6389
17951TIP3    H175268   4.075   3.296  13.404 -2.7984  0.4781 -0.3933
17951TIP3    H275269   4.029   3.192  13.304  0.6402 -2.0487  0.4569
17952TIP3   OH275270   5.713   1.046  14.512  0.0267  0.2213 -0.2861
17952TIP3    H175271   5.678   0.968  14.470  0.3496  0.2646 -0.6403
17952TIP3    H275272   5.704   1.115  14.446 -2.8176  1.1530  0.9419
17953TIP3   OH275273   6.775   1.140  16.637 -0.6888 -0.2732 -0.3046
17953TIP3    H175274   6.777   1.208  16.704 -2.7576 -0.3158 -0.1149
17953TIP3    H275275   6.753   1.060  16.685  1.6994 -1.1263 -0.5252
17954TIP3   OH275276   0.780   1.370   1.644 -0.7360  0.0540  0.1582
17954TIP3    H175277   0.734   1.314   1.706  0.5689 -0.8218  0.3806
17954TIP3    H275278   0.759   1.459   1.671 -1.6311 -0.3190  0.7294
17955TIP3   OH275279   4.618   1.415   5.121  0.6452 -0.2362  0.7158
17955TIP3    H175280   4.565   1.482   5.165 -1.9735 -1.5828 -0.1293
17955TIP3    H275281   4.593   1.333   5.163 -0.2213 -1.2696 -1.5824
17956TIP3   OH275282   4.946   5.347  13.496 -0.5148 -0.7265 -0.3426
17956TIP3    H175283   4.890   5.296  13.437  0.3316 -2.4063  0.2312
17956TIP3    H275284   5.018   5.288  13.517 -0.1692  0.2672  1.4271
17957TIP3   OH275285   1.711   1.704  12.030  0.2209 -0.0775 -0.5838
17957TIP3    H175286   1.642   1.638  12.040  2.0142 -2.0987 -0.8678
17957TIP3    H275287   1.719   1.716  11.935 -1.0962  1.7661 -0.5276
17958TIP3   OH275288   3.047   4.560   4.237 -0.0419  0.0292 -0.0101
17958TIP3    H175289   3.140   4.549   4.218 -0.3627  0.9087 -2.4105
17958TIP3    H275290   3.008   4.475   4.219  0.0616  0.1453 -0.8253
17959TIP3   OH275291   0.909   1.469  15.263  0.0968 -0.0897 -0.0527
17959TIP3    H175292   0.941   1.517  15.340 -1.0497  1.0156 -0.2427
17959TIP3    H275293   0.884   1.383  15.298  0.0105  0.2437  0.7341
17960TIP3   OH275294   1.631   2.161  14.132  0.2041  0.2962 -0.7374
17960TIP3    H175295   1.570   2.230  14.110 -1.5411 -1.0145 -0.2088
17960TIP3    H275296   1.580   2.080  14.125  1.6497 -0.7863  0.5353
17961TIP3   OH275297   4.693   2.243   4.103  0.5068 -0.0349 -0.8893
17961TIP3    H175298   4.708   2.323   4.054  0.5702  0.9430  0.6488
17961TIP3    H275299   4.633   2.268   4.173  1.7888 -0.8883  0.6001
17962TIP3   OH275300   2.834   1.254  15.459 -0.2709  0.4990 -0.0438
17962TIP3    H175301   2.864   1.344  15.470  2.0333 -0.3686  1.5407
17962TIP3    H275302   2.842   1.215  15.546 -1.0844 -1.3038 -0.7175
17963TIP3   OH275303   1.474   1.126   4.383  0.0280 -0.2101 -0.1055
17963TIP3    H175304   1.397   1.071   4.395 -1.5678  2.0573  0.6785
17963TIP3    H275305   1.505   1.106   4.294 -1.9574 -0.6158 -0.7526
17964TIP3   OH275306   0.684   6.676   2.090 -0.2386  0.1305  0.1848
17964TIP3    H175307   0.744   6.652   2.160  0.9191  0.7410 -0.5520
17964TIP3    H275308   0.600   6.636   2.114  0.2127  0.0605  1.7243
17965TIP3   OH275309   2.385   3.719  13.363 -0.3737 -0.1946 -0.0370
17965TIP3    H175310   2.447   3.648  13.346 -1.1243 -0.3898 -2.2943
17965TIP3    H275311   2.434   3.783  13.415  0.8951 -1.4769  0.4014
17966TIP3   OH275312   3.472   2.206   4.499  0.0222  0.3812  0.4844
17966TIP3    H175313   3.380   2.184   4.485  0.5445 -0.5076 -2.1080
17966TIP3    H275314   3.484   2.196   4.593 -2.4112  0.1078  0.8450
17967TIP3   OH275315   0.454   3.930  13.319 -0.0430 -0.1273 -0.0894
17967TIP3    H175316   0.502   3.978  13.251 -1.0408 -0.0708 -0.7676
17967TIP3    H275317   0.465   3.838  13.295  0.1070 -0.1367  0.0140
17968TIP3   OH275318   2.691   0.432   1.087 -0.0704  0.3060  0.1719
17968TIP3    H175319   2.727   0.396   1.005  1.4694  1.2351  0.4057
17968TIP3    H275320   2.709   0.526   1.082 -1.3899  0.6241  0.8948
17969TIP3   OH275321   3.191   0.336   1.893  0.0617 -0.0566  0.0156
17969TIP3    H175322   3.184   0.395   1.817 -1.2741 -0.6364 -0.3425
17969TIP3    H275323   3.162   0.389   1.967  2.6835  0.9539  0.4275
17970TIP3   OH275324   6.064   2.683  16.039  0.0385 -0.2539  0.5883
17970TIP3    H175325   6.038   2.591  16.035  0.7025 -0.4154 -0.3307
17970TIP3    H275326   6.117   2.689  16.118  0.0289 -0.6709  0.6318
17971TIP3   OH275327   5.310   1.312  12.899 -0.1033 -0.3012  0.1226
17971TIP3    H175328   5.353   1.227  12.904  2.9458  0.7135 -3.7640
17971TIP3    H275329   5.232   1.297  12.846  0.5230 -0.6866 -0.7058
17972TIP3   OH275330   4.135   5.291  12.768 -0.0914 -0.1890  0.1939
17972TIP3    H175331   4.230   5.293  12.775 -0.0516  0.9127 -0.4350
17972TIP3    H275332   4.104   5.281  12.858  0.6030  0.3156  0.4902
17973TIP3   OH275333   3.165   3.217   0.486 -0.3222 -0.2024  0.4979
17973TIP3    H175334   3.128   3.167   0.414 -0.3826 -1.0443  1.1080
17973TIP3    H275335   3.247   3.252   0.450 -0.3087 -0.6771  0.0521
17974TIP3   OH275336   6.097   1.210   3.704  0.6159 -0.3372 -0.4516
17974TIP3    H175337   6.123   1.143   3.767  0.4558 -0.0573 -0.0776
17974TIP3    H275338   6.154   1.284   3.723  0.8648 -0.4069 -0.9341
17975TIP3   OH275339   2.678   0.941   1.532 -0.3448  0.1099 -0.0115
17975TIP3    H175340   2.742   0.971   1.597  0.6293 -1.3031 -0.2769
17975TIP3    H275341   2.726   0.878   1.479 -1.8573 -0.6899 -0.4817
17976TIP3   OH275342   4.131   2.613   5.176 -0.6110 -0.2844 -0.1869
17976TIP3    H175343   4.204   2.649   5.227 -0.1531 -0.4304 -0.7337
17976TIP3    H275344   4.095   2.544   5.232 -0.6007  0.0718  0.2649
17977TIP3   OH275345   2.338   5.825   4.808 -0.3242 -0.1754 -0.2884
17977TIP3    H175346   2.393   5.867   4.873 -0.9938  1.3778 -0.6762
17977TIP3    H275347   2.398   5.779   4.750  0.3077 -1.1960  1.1385
17978TIP3   OH275348   0.521   4.311  16.146  0.6756 -0.2240  0.6218
17978TIP3    H175349   0.520   4.397  16.104  0.7318 -0.4398  0.1673
17978TIP3    H275350   0.524   4.330  16.240 -1.9244  0.3087  0.6699
17979TIP3   OH275351   0.805   6.427   0.531 -0.5172 -0.5031 -0.0337
17979TIP3    H175352   0.742   6.472   0.587 -0.6931 -0.9438  0.1241
17979TIP3    H275353   0.759   6.349   0.500 -0.0768 -0.7904  0.0213
17980TIP3   OH275354   0.528   6.016   0.038 -0.2111  0.0372  0.1922
17980TIP3    H175355   0.540   6.001  -0.056 -0.1519 -1.6387  0.4290
17980TIP3    H275356   0.434   6.003   0.052 -0.0320 -0.9881  0.5398
17981TIP3   OH275357   4.415   4.603   0.444  0.0552  0.7596 -1.0776
17981TIP3    H175358   4.325   4.628   0.464 -0.0669 -0.1891 -0.3432
17981TIP3    H275359   4.408   4.547   0.366  0.2122  2.0600 -2.0558
17982TIP3   OH275360   2.356   5.495   2.953  1.1004  0.3369  0.0715
17982TIP3    H175361   2.271   5.452   2.943  1.1071 -0.3244  2.2198
17982TIP3    H275362   2.338   5.587   2.936  0.2841  0.0140 -0.9546
17983TIP3   OH275363   2.467   1.922   1.270  0.0990  0.2903 -0.1157
17983TIP3    H175364   2.378   1.952   1.287 -0.4356 -2.0106  1.6903
17983TIP3    H275365   2.523   1.980   1.321 -0.7680 -0.6658  2.0496
17984TIP3   OH275366   1.918   2.512  15.770  0.2492 -0.5643  0.5812
17984TIP3    H175367   1.881   2.599  15.787  1.9494 -0.0070  1.7327
17984TIP3    H275368   1.967   2.523  15.689 -1.0521 -0.9798 -0.2877
17985TIP3   OH275369   6.496   1.193   5.356 -0.3072 -0.2159 -0.8829
17985TIP3    H175370   6.537   1.278   5.374  1.5163 -1.2424  0.1352
17985TIP3    H275371   6.470   1.197   5.264  0.1735  1.2622 -0.9753
17986TIP3   OH275372   2.087   2.378  16.912 -0.2524 -0.3429  0.0727
17986TIP3    H175373   2.151   2.433  16.959 -0.7212  0.5653 -0.3275
17986TIP3    H275374   2.092   2.408  16.821 -0.8176 -0.6884 -0.0728
17987TIP3   OH275375   4.250   4.012   2.177 -0.0495 -0.0029 -0.3950
17987TIP3    H175376   4.328   3.989   2.128 -1.2693 -0.6803 -2.1370
17987TIP3    H275377   4.229   4.101   2.148 -0.0813  0.0736 -0.1397
17988TIP3   OH275378   5.244   1.261  17.150  0.0368 -0.4787  0.3308
17988TIP3    H175379   5.225   1.267  17.244 -1.3797 -3.4957  0.3533
17988TIP3    H275380   5.158   1.252  17.109  0.7405 -1.5575 -0.9838
17989TIP3   OH275381   5.765   4.619   1.115 -0.4666 -0.0669  0.3838
17989TIP3    H175382   5.834   4.641   1.053 -0.3886 -0.9477  0.1444
17989TIP3    H275383   5.810   4.608   1.198 -0.2107 -1.2571  0.1044
17990TIP3   OH275384   2.204   6.303   1.678 -0.5381  0.1165 -0.0663
17990TIP3    H175385   2.264   6.322   1.607 -0.0461  2.1636  0.8516
17990TIP3    H275386   2.226   6.213   1.704  0.7126  0.1004 -1.0749
17991TIP3   OH275387   2.362   0.862  12.834 -0.1797  0.2517  0.1622
17991TIP3    H175388   2.455   0.882  12.835 -0.1536  0.4943 -2.2153
17991TIP3    H275389   2.357   0.770  12.806 -0.6575  0.8004 -1.6878
17992TIP3   OH275390   6.560   0.654  14.721 -0.5545 -0.6075  0.0997
17992TIP3    H175391   6.621   0.668  14.649 -2.0585 -0.3011 -1.1651
17992TIP3    H275392   6.584   0.720  14.786 -0.3014  0.3242 -0.9072
17993TIP3   OH275393   0.968   2.428   0.303 -0.7253  0.0885 -0.1184
17993TIP3    H175394   0.944   2.347   0.347 -1.5711 -0.5689 -1.7337
17993TIP3    H275395   1.055   2.412   0.269  0.4520  1.0222  2.2220
17994TIP3   OH275396   4.592   6.173  16.501  0.6303 -0.0609  0.3162
17994TIP3    H175397   4.579   6.133  16.587  0.9613  0.7983  0.7785
17994TIP3    H275398   4.572   6.265  16.514 -0.2208 -0.0760 -0.7619
17995TIP3   OH275399   2.955   1.689  16.103  0.3297  0.1693  0.1219
17995TIP3    H175400   3.013   1.660  16.173  0.1582  1.4501  0.8134
17995TIP3    H275401   2.867   1.672  16.136  0.2569 -0.5624 -0.3973
17996TIP3   OH275402   3.449   0.748   2.642  1.0428 -0.3047 -0.5009
17996TIP3    H175403   3.436   0.659   2.608  1.5959 -0.0051 -1.5436
17996TIP3    H275404   3.465   0.802   2.564  0.2575  0.8019  0.0780
17997TIP3   OH275405   1.935   2.794   2.842  0.2345  0.2987 -0.6233
17997TIP3    H175406   1.948   2.856   2.770  0.7145  2.5636  1.2915
17997TIP3    H275407   1.917   2.710   2.799  0.6316  1.5154 -3.3462
17998TIP3   OH275408   1.580   6.391   1.313 -0.7897 -0.0688  0.2303
17998TIP3    H175409   1.573   6.405   1.219  2.4195 -0.5504 -0.1700
17998TIP3    H275410   1.602   6.478   1.349 -0.1266 -0.2429  0.2616
17999TIP3   OH275411   2.660   3.297   6.399 -0.4662  0.1841  0.2678
17999TIP3    H175412   2.640   3.390   6.395  0.2442  0.3262 -0.1514
17999TIP3    H275413   2.592   3.255   6.345  0.3096  0.6539 -1.1316
18000TIP3   OH275414   4.457   6.531   5.953 -0.2207 -0.0035 -0.3711
18000TIP3    H175415   4.523   6.484   6.004  0.0128 -1.3138 -1.8074
18000TIP3    H275416   4.382   6.472   5.952 -2.1920  2.1630  2.6822
18001TIP3   OH275417   6.361   4.926   2.753  0.3377 -0.4548  0.0076
18001TIP3    H175418   6.292   4.919   2.687 -0.9319 -1.2498  1.3627
18001TIP3    H275419   6.396   5.014   2.742 -0.3123 -0.3390 -1.2628
18002TIP3   OH275420   2.703   2.580  10.989  0.2677 -0.1779 -0.2277
18002TIP3    H175421   2.698   2.607  10.897 -0.7627 -0.2065 -0.1884
18002TIP3    H275422   2.757   2.501  10.988 -0.3735 -0.6180 -0.9162
18003TIP3   OH275423   6.502   2.922   5.595  0.5471  0.3609 -0.2633
18003TIP3    H175424   6.531   2.952   5.681  0.5893 -1.0492  0.2434
18003TIP3    H275425   6.406   2.928   5.598  0.6045  2.6230 -1.0325
18004TIP3   OH275426   1.810   2.811  15.136  0.0085  0.7285  0.0839
18004TIP3    H175427   1.795   2.850  15.222 -0.4869 -1.3014  0.9752
18004TIP3    H275428   1.764   2.869  15.075 -2.2899  0.5557  1.5312
18005TIP3   OH275429   0.066   2.914   1.293 -0.7519 -0.2200 -0.3574
18005TIP3    H175430  -0.008   2.965   1.259  1.1251  1.4029 -2.3094
18005TIP3    H275431   0.083   2.849   1.225  0.0723 -0.0949 -0.2747
18006TIP3   OH275432   5.275   6.614   1.947  0.3803 -0.4553  0.2808
18006TIP3    H175433   5.220   6.659   1.883 -0.3368  0.0314  1.2109
18006TIP3    H275434   5.304   6.534   1.903 -0.7363 -0.5175 -0.3692
18007TIP3   OH275435   4.099   6.148   2.870  0.2001 -0.8220  0.1092
18007TIP3    H175436   4.139   6.128   2.955  0.6774 -1.2036 -0.1997
18007TIP3    H275437   4.166   6.123   2.806  0.0597 -0.0121 -0.3583
18008TIP3   OH275438   5.363   0.722  16.121 -0.1066  0.4122 -0.4017
18008TIP3    H175439   5.362   0.775  16.201 -0.8660  0.5511 -0.4992
18008TIP3    H275440   5.456   0.703  16.107  0.0346  0.3446  0.5393
18009TIP3   OH275441   5.025   4.353   2.763 -0.1278 -0.1376  0.4391
18009TIP3    H175442   4.985   4.277   2.807  1.8234 -0.7624  1.2175
18009TIP3    H275443   5.044   4.414   2.834 -2.2280  1.4163 -0.2471
18010TIP3   OH275444   2.006   3.880   3.225 -0.2477 -0.9551  0.7550
18010TIP3    H175445   1.977   3.816   3.161 -0.2735 -1.5832  1.3800
18010TIP3    H275446   2.102   3.877   3.220 -0.2472 -0.3186  0.0978
18011TIP3   OH275447   3.006   0.244  11.601 -0.2739  0.1564 -0.2638
18011TIP3    H175448   2.974   0.185  11.670  2.8995 -0.5305  0.8118
18011TIP3    H275449   3.006   0.190  11.522 -1.3323  0.0514 -0.1956
18012TIP3   OH275450   5.448   1.652  10.604 -0.2754  0.0713  0.7690
18012TIP3    H175451   5.522   1.698  10.644 -0.2542 -0.9494  1.9972
18012TIP3    H275452   5.484   1.566  10.580 -1.1995 -0.7355  2.1002
18013TIP3   OH275453   0.252   1.570  14.141 -0.0421  0.0921 -0.5072
18013TIP3    H175454   0.322   1.614  14.189  1.0639 -2.3233  0.2065
18013TIP3    H275455   0.206   1.517  14.206 -1.0927 -0.1384 -1.3923
18014TIP3   OH275456   3.585   6.740   2.434 -0.0059  0.0459 -0.1831
18014TIP3    H175457   3.597   6.792   2.514  0.1693 -1.1486  0.5907
18014TIP3    H275458   3.663   6.759   2.381  0.2174  0.3121  0.2386
18015TIP3   OH275459   1.475   4.698  16.421  0.1325 -0.2709  0.3917
18015TIP3    H175460   1.510   4.757  16.354  2.4930 -0.1042  1.6624
18015TIP3    H275461   1.383   4.722  16.429  0.9379  3.2109  0.7704
18016TIP3   OH275462   5.276   5.072  16.767  0.4486  0.1243 -0.7317
18016TIP3    H175463   5.337   5.134  16.806 -0.5893  1.2294 -0.7849
18016TIP3    H275464   5.196   5.082  16.818 -0.0402 -0.4877 -1.3530
18017TIP3   OH275465   1.079   2.919  12.127 -0.4338  0.0294  0.6007
18017TIP3    H175466   1.049   3.010  12.132 -0.8792 -0.1327  0.9614
18017TIP3    H275467   1.128   2.915  12.045  0.3573  0.8165  1.0143
18018TIP3   OH275468   6.687   5.560  12.873  0.0587  0.3245  0.6343
18018TIP3    H175469   6.637   5.584  12.950 -1.8986 -0.3307 -0.3794
18018TIP3    H275470   6.699   5.466  12.879  1.1145  0.4567  0.8098
18019TIP3   OH275471   3.792   3.707  16.876  0.2929 -0.0349  0.2440
18019TIP3    H175472   3.779   3.705  16.781  2.4363 -0.5105 -0.0722
18019TIP3    H275473   3.785   3.616  16.903  1.2409 -0.1011  0.2924
18020TIP3   OH275474   1.395   6.678   5.542 -0.2218  0.4722 -0.5387
18020TIP3    H175475   1.458   6.697   5.612  0.0338  0.8583 -0.8712
18020TIP3    H275476   1.431   6.721   5.465 -0.9088  0.7246 -0.7295
18021TIP3   OH275477   6.448   5.865   0.508 -0.1189  0.4056 -0.0976
18021TIP3    H175478   6.429   5.771   0.513  1.9135 -0.1281 -0.9637
18021TIP3    H275479   6.382   5.907   0.563 -1.3031 -1.4939  0.0069
18022TIP3   OH275480   4.242   0.448  14.687 -0.2842  1.0625  0.0441
18022TIP3    H175481   4.297   0.386  14.734 -1.1128  1.0708  1.0875
18022TIP3    H275482   4.173   0.471  14.750 -1.9399  0.4479 -1.4525
18023TIP3   OH275483   5.559   6.476  12.864  0.2442  0.1774 -0.4958
18023TIP3    H175484   5.491   6.424  12.820 -0.2273  0.2153  0.1686
18023TIP3    H275485   5.552   6.563  12.824 -0.2872  0.2567 -0.2420
18024TIP3   OH275486   6.794   2.281   5.411 -0.1762  0.8392 -0.1470
18024TIP3    H175487   6.884   2.297   5.382  0.5367 -0.8637  0.9343
18024TIP3    H275488   6.749   2.364   5.397  1.3195  1.4735 -1.5659
18025TIP3   OH275489   6.088   5.182   2.406  0.4141 -0.4909  0.1237
18025TIP3    H175490   6.114   5.245   2.339  2.3911  0.9852  2.1158
18025TIP3    H275491   6.016   5.224   2.452  1.3417  0.0979  1.0757
18026TIP3   OH275492   0.308   0.966   1.295  0.4542  0.3110  0.2291
18026TIP3    H175493   0.251   1.038   1.270 -0.6803 -1.1498 -1.6613
18026TIP3    H275494   0.337   0.988   1.384 -2.2517  1.6211  0.9042
18027TIP3   OH275495   6.181   5.393  15.560  0.1844 -0.4102 -0.8437
18027TIP3    H175496   6.137   5.445  15.492  1.2510  0.9974 -0.5134
18027TIP3    H275497   6.153   5.434  15.643  2.8054  1.2333 -0.6462
18028TIP3   OH275498   2.656   3.089  14.637 -0.0085 -0.3770 -0.3919
18028TIP3    H175499   2.683   3.175  14.603 -0.1139 -0.1175  0.1802
18028TIP3    H275500   2.670   3.029  14.563 -2.4235  0.5454 -1.7029
18029TIP3   OH275501   0.779   0.448  14.040 -0.2062 -0.2920  0.7925
18029TIP3    H175502   0.786   0.355  14.062 -2.0128 -0.3638  1.2133
18029TIP3    H275503   0.794   0.493  14.122  0.3574 -0.2182  0.6519
18030TIP3   OH275504   4.508   2.753   5.110  0.0735 -0.5868 -0.0514
18030TIP3    H175505   4.551   2.836   5.130  2.4762 -1.4233 -1.3681
18030TIP3    H275506   4.453   2.735   5.187  0.1346  1.7738  0.6138
18031TIP3   OH275507   2.453   3.514  13.747 -0.1387 -0.3172  0.2787
18031TIP3    H175508   2.477   3.474  13.664 -0.6100  1.4427 -0.7442
18031TIP3    H275509   2.536   3.534  13.789  0.1369  0.6058 -0.6820
18032TIP3   OH275510   1.747   3.486  13.231  0.4481 -0.5022 -0.5772
18032TIP3    H175511   1.804   3.436  13.173  2.7757  0.9280  0.3207
18032TIP3    H275512   1.759   3.445  13.317  0.2263 -0.1141 -0.3594
18033TIP3   OH275513   2.311   6.090   1.787  0.9248 -0.7668 -0.2196
18033TIP3    H175514   2.263   6.014   1.818 -0.1492  0.7159  2.0738
18033TIP3    H275515   2.390   6.092   1.841  1.0620 -0.4048 -0.4303
18034TIP3   OH275516   3.555   1.222   3.645  0.4631  0.2045 -0.1815
18034TIP3    H175517   3.638   1.190   3.679  1.1939 -0.0511 -2.0921
18034TIP3    H275518   3.533   1.162   3.573 -1.1445  0.5365 -0.0181
18035TIP3   OH275519   0.096   1.027   2.873 -0.3670 -0.5239  0.3919
18035TIP3    H175520   0.038   1.079   2.818 -0.8805 -0.7743  0.6930
18035TIP3    H275521   0.073   1.051   2.963  0.9255  0.3795  0.5040
18036TIP3   OH275522   1.459   6.329   3.330  0.0124 -0.0383  0.4082
18036TIP3    H175523   1.433   6.398   3.270  2.4771  0.9243  0.3580
18036TIP3    H275524   1.477   6.374   3.413  0.6805 -0.7384  0.6615
18037TIP3   OH275525   0.108   2.099   1.960  0.8451  0.1207 -0.8994
18037TIP3    H175526   0.027   2.075   1.913 -0.7933  3.8581 -0.3977
18037TIP3    H275527   0.078   2.127   2.046  2.7789  1.0237 -0.4738
18038TIP3   OH275528   6.398   3.929  13.308 -0.3535 -0.4389 -0.2454
18038TIP3    H175529   6.467   3.912  13.372 -1.3474  0.6806  1.2221
18038TIP3    H275530   6.433   3.899  13.225  0.8405 -2.3526  0.8873
18039TIP3   OH275531   0.162   3.870  15.266  0.7057  0.2283 -0.1063
18039TIP3    H175532   0.170   3.861  15.361 -1.2545 -2.1003 -0.0723
18039TIP3    H275533   0.183   3.783  15.232 -2.3397 -0.0854 -1.4369
18040TIP3   OH275534   6.341   4.944  12.198  0.6411  0.4874  0.3438
18040TIP3    H175535   6.381   4.885  12.262 -0.1720 -1.2060 -0.6409
18040TIP3    H275536   6.297   5.010  12.251 -0.3169 -1.0578  1.5943
18041TIP3   OH275537   2.866   4.354   3.576 -0.0064  0.7884 -0.4657
18041TIP3    H175538   2.799   4.340   3.643 -0.6072  0.5335 -1.1123
18041TIP3    H275539   2.883   4.448   3.579  0.8349  0.6199  0.8529
18042TIP3   OH275540   4.714   1.520  15.136  0.5920  0.3428 -0.2140
18042TIP3    H175541   4.773   1.574  15.189 -0.7112 -0.0217  1.6743
18042TIP3    H275542   4.676   1.581  15.073  0.2688  1.3285  0.9058
18043TIP3   OH275543   6.368   2.969   5.850  0.2255  0.3951 -0.5324
18043TIP3    H175544   6.421   2.969   5.929 -0.0524 -0.0260 -0.3423
18043TIP3    H275545   6.362   2.877   5.824 -1.8493  0.1931  0.4365
18044TIP3   OH275546   3.344   2.763   0.217 -0.1602 -0.0207 -0.2297
18044TIP3    H175547   3.434   2.737   0.234 -0.3212  0.3779  1.4354
18044TIP3    H275548   3.320   2.717   0.137  0.4604 -2.7889  1.0448
18045TIP3   OH275549   4.742   0.464  11.130  0.3056  0.1291  0.1097
18045TIP3    H175550   4.834   0.487  11.119  0.8375 -2.2939 -1.4349
18045TIP3    H275551   4.715   0.434  11.042 -1.6429 -0.1751  0.7661
18046TIP3   OH275552   5.775   0.854   0.287 -0.2365 -0.1875  0.0442
18046TIP3    H175553   5.853   0.841   0.342 -0.0843 -1.9118 -0.5121
18046TIP3    H275554   5.742   0.940   0.313  1.7638  0.5369  0.3991
18047TIP3   OH275555   6.401   0.685   0.056  0.0156 -0.4475  0.3284
18047TIP3    H175556   6.453   0.695   0.136  0.0239 -1.3871  0.4475
18047TIP3    H275557   6.319   0.645   0.085  0.3989 -1.7007 -0.2415
18048TIP3   OH275558   6.404   5.593  11.888  0.2483 -0.3745  0.2192
18048TIP3    H175559   6.311   5.577  11.872  0.5089 -0.6080 -1.1750
18048TIP3    H275560   6.436   5.512  11.927  0.5977 -1.7289 -2.6401
18049TIP3   OH275561   2.464   4.048  10.684 -0.2606 -0.5753 -0.0365
18049TIP3    H175562   2.450   4.142  10.672  2.1182  0.1933  2.2520
18049TIP3    H275563   2.433   4.009  10.603  0.0064  2.3294 -1.6764
18050TIP3   OH275564   1.847   5.690   2.312 -0.0402 -0.5053  0.2957
18050TIP3    H175565   1.873   5.601   2.287 -1.7989 -1.0644  0.2959
18050TIP3    H275566   1.824   5.732   2.230  0.9379  0.0142  0.2812
18051TIP3   OH275567   5.029   2.290   2.779 -0.3829 -0.2262  0.2587
18051TIP3    H175568   5.054   2.208   2.736  1.2351 -0.6614  1.8982
18051TIP3    H275569   5.095   2.353   2.752  0.2109 -0.3102  1.4476
18052TIP3   OH275570   1.909   3.800   3.561 -0.1331 -0.7719 -0.0260
18052TIP3    H175571   1.905   3.846   3.477  1.4531  0.6535  0.6271
18052TIP3    H275572   1.981   3.737   3.551  0.9459  0.3230  0.6677
18053TIP3   OH275573   5.951   3.465   5.313  0.1001  0.4379  0.1256
18053TIP3    H175574   5.985   3.379   5.338  0.3114  1.0094  1.9730
18053TIP3    H275575   5.856   3.452   5.309  0.1908 -0.0861 -0.5451
18054TIP3   OH275576   4.578   4.343  11.454  0.4936 -0.1726 -0.1520
18054TIP3    H175577   4.515   4.354  11.383 -0.0793  1.2577  0.5323
18054TIP3    H275578   4.546   4.401  11.524  1.4302 -0.9960  1.0013
18055TIP3   OH275579   2.763   0.054  13.874  0.2634 -0.3619  0.0428
18055TIP3    H175580   2.695   0.095  13.927  1.4977 -0.2943  1.6711
18055TIP3    H275581   2.751   0.090  13.786  0.2460  2.2345  1.0242
18056TIP3   OH275582   2.695   3.240   2.076 -0.0400 -0.2341  0.1381
18056TIP3    H175583   2.622   3.201   2.125 -1.2749  1.3691 -0.3258
18056TIP3    H275584   2.772   3.224   2.130 -0.7072 -1.9753  0.6577
18057TIP3   OH275585   6.014   5.746   4.757  0.2939 -0.2598 -1.0930
18057TIP3    H175586   6.094   5.792   4.783 -0.0116  0.2662 -1.0514
18057TIP3    H275587   6.043   5.658   4.733  0.7056 -0.4964  0.1875
18058TIP3   OH275588   0.325   3.619   2.414  0.7537  0.0826  0.8321
18058TIP3    H175589   0.340   3.580   2.500  1.8082  0.0021  0.6264
18058TIP3    H275590   0.310   3.712   2.433  2.1483  0.2921  1.0362
18059TIP3   OH275591   0.668   6.554   0.732 -0.1122 -0.2443  0.3392
18059TIP3    H175592   0.665   6.640   0.691  0.8881 -0.4784 -0.2665
18059TIP3    H275593   0.589   6.510   0.701 -0.2224  0.1738  0.0164
18060TIP3   OH275594   2.685   0.274  12.381 -0.6580 -0.4222 -0.2745
18060TIP3    H175595   2.747   0.332  12.425 -0.3826 -0.7703 -0.2011
18060TIP3    H275596   2.730   0.247  12.301 -1.0606  0.0138 -0.6510
18061TIP3   OH275597   4.062   6.004  15.401 -0.5467 -0.5558 -0.3419
18061TIP3    H175598   4.070   5.917  15.440 -1.1205  0.0623  1.2448
18061TIP3    H275599   3.968   6.022  15.402 -0.5127 -0.2530 -1.4671
18062TIP3   OH275600   0.061   1.263  15.986  0.9219 -0.3129 -0.0843
18062TIP3    H175601  -0.019   1.249  16.035  1.5203  1.0223  1.3669
18062TIP3    H275602   0.121   1.305  16.048  2.3651 -0.2551 -1.4310
18063TIP3   OH275603   1.136   2.504  13.835  0.1340 -0.8475 -0.3668
18063TIP3    H175604   1.072   2.444  13.873 -1.7377  2.0015  1.3003
18063TIP3    H275605   1.206   2.509  13.900 -0.6790  0.2332  0.4598
18064TIP3   OH275606   5.880   0.514   2.220  0.1063 -0.1750 -0.5285
18064TIP3    H175607   5.888   0.482   2.130  2.4766 -1.9250  0.1862
18064TIP3    H275608   5.827   0.448   2.264  0.2304 -0.1379 -0.3212
18065TIP3   OH275609   4.780   0.264   4.710 -0.2905 -0.2446  0.0583
18065TIP3    H175610   4.710   0.218   4.663  0.3260  0.3787 -1.5078
18065TIP3    H275611   4.843   0.289   4.643  0.5515  0.8285  1.1954
18066TIP3   OH275612   4.736   4.908   3.278  0.0567 -0.1253  0.4056
18066TIP3    H175613   4.814   4.877   3.232 -0.4901 -2.3829  0.8648
18066TIP3    H275614   4.770   4.950   3.357  0.8756  1.3763 -0.6989
18067TIP3   OH275615   4.183   1.974   0.391  0.3622 -0.1813 -0.6219
18067TIP3    H175616   4.090   1.967   0.370  0.0565  0.0688  0.5530
18067TIP3    H275617   4.219   1.887   0.373 -0.2388 -0.4660 -0.4752
18068TIP3   OH275618   3.369   1.846   4.021  0.0267  0.8067 -0.3461
18068TIP3    H175619   3.408   1.933   4.032  0.0023  0.7433  0.2566
18068TIP3    H275620   3.405   1.814   3.938  0.1718  1.3188 -0.4825
18069TIP3   OH275621   1.733   2.801   5.658  0.0657 -0.0316 -0.0793
18069TIP3    H175622   1.658   2.800   5.598 -0.3728  0.4622  0.4473
18069TIP3    H275623   1.697   2.771   5.741  0.2676  1.0001  0.3848
18070TIP3   OH275624   5.377   6.350   4.937  0.4479 -0.4813  0.0535
18070TIP3    H175625   5.434   6.280   4.906  1.8720  0.0470  1.3859
18070TIP3    H275626   5.427   6.430   4.924 -0.6586  0.1829 -0.2769
18071TIP3   OH275627   5.345   2.906   2.724 -0.0123 -0.0624 -0.3730
18071TIP3    H175628   5.253   2.881   2.715  0.0487  0.2093 -2.1524
18071TIP3    H275629   5.387   2.873   2.645  1.2275  0.6858 -0.0590
18072TIP3   OH275630   5.619   0.746  16.063 -0.2910  0.1128  0.0095
18072TIP3    H175631   5.645   0.699  16.142 -0.7026 -1.0476 -0.5214
18072TIP3    H275632   5.668   0.828  16.066  1.1518 -0.7349  0.5138
18073TIP3   OH275633   1.245   6.693   2.849  0.1769  0.4957 -0.0310
18073TIP3    H175634   1.240   6.758   2.779 -2.3913 -1.1372 -1.5120
18073TIP3    H275635   1.227   6.610   2.806 -0.3114 -0.7293  2.3867
18074TIP3   OH275636   0.445   4.392   0.259  0.2761 -0.3630 -0.3680
18074TIP3    H175637   0.503   4.373   0.185 -2.6412 -0.0811 -2.9230
18074TIP3    H275638   0.469   4.481   0.286  1.4681 -0.5246 -0.8347
18075TIP3   OH275639   4.680   0.441  16.960  0.3618 -0.2392 -0.3454
18075TIP3    H175640   4.590   0.423  16.988  0.6873 -0.8239  0.3670
18075TIP3    H275641   4.731   0.436  17.041  1.1131 -0.4784 -0.8274
18076TIP3   OH275642   5.797   4.422  10.487 -0.6379 -0.1803  0.4030
18076TIP3    H175643   5.839   4.503  10.457  0.3938 -0.8773 -0.1054
18076TIP3    H275644   5.863   4.354  10.472 -0.0713 -0.6522  4.0656
18077TIP3   OH275645   0.243   5.300  15.396 -0.1552  0.4796 -0.4626
18077TIP3    H175646   0.217   5.351  15.472 -1.4781 -0.8989  0.0667
18077TIP3    H275647   0.210   5.350  15.321 -2.0338  0.1087  0.0719
18078TIP3   OH275648   3.379   2.868   1.603 -0.0704 -0.1640  0.2237
18078TIP3    H175649   3.469   2.835   1.604  0.6380  1.6849  0.8329
18078TIP3    H275650   3.367   2.899   1.513  0.8667  1.9703  0.7745
18079TIP3   OH275651   5.056   5.287  10.840 -0.6683  0.0808  0.1078
18079TIP3    H175652   4.991   5.285  10.770 -1.1987 -0.2870  0.5971
18079TIP3    H275653   5.094   5.374  10.835 -1.8605  0.6373  0.4089
18080TIP3   OH275654   4.675   5.911  14.862  0.6597 -0.5327 -0.6381
18080TIP3    H175655   4.752   5.863  14.834  1.8048  0.1083  1.2408
18080TIP3    H275656   4.681   5.994  14.814  0.1570 -1.1401 -1.8031
18081TIP3   OH275657   1.388   1.634   3.592 -0.5124 -0.2931  0.5815
18081TIP3    H175658   1.359   1.719   3.624  1.2290  1.1566 -1.3607
18081TIP3    H275659   1.391   1.644   3.496  0.8597 -2.1246  0.3698
18082TIP3   OH275660   2.141   6.393   2.390  0.3782  0.1009  0.6002
18082TIP3    H175661   2.125   6.301   2.369  0.1809  0.3643 -0.4655
18082TIP3    H275662   2.061   6.421   2.434 -0.1301  0.1155 -0.3117
18083TIP3   OH275663   1.192   0.838   3.707  0.5357  0.2082  0.3798
18083TIP3    H175664   1.205   0.751   3.746 -2.4422  0.8058  3.1167
18083TIP3    H275665   1.155   0.821   3.621 -1.0985 -1.3229  1.3184
18084TIP3   OH275666   2.619   2.638   2.400 -0.1268  0.1752  0.0361
18084TIP3    H175667   2.629   2.555   2.447 -1.4141  0.4451  0.8338
18084TIP3    H275668   2.536   2.629   2.353 -1.5927  1.8847  2.1062
18085TIP3   OH275669   3.607   5.250  16.832 -0.3996 -0.0186  0.6990
18085TIP3    H175670   3.603   5.345  16.836  0.2086  0.0913 -0.8758
18085TIP3    H275671   3.609   5.223  16.924 -0.5685  1.4733  1.1734
18086TIP3   OH275672   2.177   1.490   4.117  0.3236  0.3028  0.1404
18086TIP3    H175673   2.117   1.506   4.044 -1.5968  1.6761  1.9059
18086TIP3    H275674   2.126   1.439   4.180  1.8064 -0.5298  0.7398
18087TIP3   OH275675   0.777   1.868  16.769  0.1336 -0.2256  1.1579
18087TIP3    H175676   0.685   1.847  16.779  0.0441  0.4668  1.9155
18087TIP3    H275677   0.810   1.877  16.859  1.2188 -1.5728  0.9457
18088TIP3   OH275678   2.970   4.002   4.420 -0.0669  1.0895  0.3924
18088TIP3    H175679   3.000   3.915   4.445 -2.4093  0.6506  1.9766
18088TIP3    H275680   3.037   4.061   4.453  0.6632  0.0172  0.8914
18089TIP3   OH275681   5.965   1.585   4.709 -0.2550  0.1046 -0.1718
18089TIP3    H175682   5.879   1.623   4.727 -0.5484 -0.3773 -0.5379
18089TIP3    H275683   5.948   1.516   4.645  0.5735  0.8382 -1.2054
18090TIP3   OH275684   4.367   3.151   2.562  0.3263  0.3273  0.2761
18090TIP3    H175685   4.390   3.243   2.572 -0.6939  0.5162  1.0113
18090TIP3    H275686   4.273   3.147   2.579 -0.1693 -0.4898 -2.1503
18091TIP3   OH275687   5.043   0.075  14.523  0.0282 -0.3156  0.2440
18091TIP3    H175688   5.081   0.132  14.590 -1.5218  0.6572  0.3198
18091TIP3    H275689   5.020  -0.005  14.571  0.6306 -0.3608  0.4780
18092TIP3   OH275690   2.072   3.889   5.311  0.7562 -0.2421 -0.0841
18092TIP3    H175691   2.104   3.810   5.266 -0.7292 -1.2661  0.5623
18092TIP3    H275692   2.084   3.960   5.248  1.4228 -1.1268 -0.9792
18093TIP3   OH275693   4.953   6.675   1.071  0.1149 -0.5456 -0.0869
18093TIP3    H175694   4.951   6.587   1.108  1.3529 -0.2310  0.8000
18093TIP3    H275695   5.032   6.715   1.109 -0.9974  1.3139  0.4153
18094TIP3   OH275696   0.088   0.444  14.465  0.4576  0.2911 -0.4146
18094TIP3    H175697   0.094   0.350  14.479 -1.4554  0.1050 -0.6866
18094TIP3    H275698   0.156   0.481  14.522 -0.3510 -1.0957  1.5260
18095TIP3   OH275699   5.467   6.468   0.922 -0.2216 -0.2315  0.3548
18095TIP3    H175700   5.520   6.404   0.971 -0.7373  0.4273  1.8469
18095TIP3    H275701   5.525   6.544   0.913 -0.7161  0.3097  1.5592
18096TIP3   OH275702   1.446   2.916   5.813 -0.2136  0.0092  0.0356
18096TIP3    H175703   1.521   2.875   5.770 -0.2888 -0.6576  0.5336
18096TIP3    H275704   1.408   2.847   5.867 -0.8093  0.5193  0.2823
18097TIP3   OH275705   0.311   1.922   3.231 -0.2664 -0.4149 -0.1894
18097TIP3    H175706   0.220   1.946   3.211 -0.1097 -0.4146 -0.9165
18097TIP3    H275707   0.344   1.995   3.284 -0.4630 -0.0683 -0.5408
18098TIP3   OH275708   5.166   1.862  15.451 -0.5900 -0.0959 -0.1227
18098TIP3    H175709   5.216   1.802  15.395  0.5391  0.8340 -0.1526
18098TIP3    H275710   5.141   1.934  15.394 -0.4726  0.2763  0.2841
18099TIP3   OH275711   2.153   3.622   0.972 -0.1775 -0.3043 -0.5222
18099TIP3    H175712   2.123   3.536   0.943  2.3888 -1.2694 -0.5559
18099TIP3    H275713   2.173   3.611   1.065  0.7271  0.0682 -0.6592
18100TIP3   OH275714   0.409   5.009  14.536  0.6320  0.1015  0.0504
18100TIP3    H175715   0.402   4.924  14.578  0.1862 -0.0931 -0.4037
18100TIP3    H275716   0.416   4.990  14.443 -2.2315  0.5794 -0.3743
18101TIP3   OH275717   5.777   0.455   4.488  0.1934  0.3374  0.1595
18101TIP3    H175718   5.850   0.466   4.548 -0.1310  0.0765  0.6082
18101TIP3    H275719   5.817   0.455   4.401  0.3740  3.7344  0.1134
18102TIP3   OH275720   5.036   3.455  13.764  0.0230  0.2984  0.3891
18102TIP3    H175721   4.960   3.471  13.708 -0.3112 -1.7403  0.1555
18102TIP3    H275722   5.005   3.392  13.829  1.1453  0.5293  1.1822
18103TIP3   OH275723   0.953   0.143  14.381 -0.5757  0.0893 -0.3631
18103TIP3    H175724   0.886   0.199  14.421  1.3861  0.8069  2.1648
18103TIP3    H275725   1.010   0.205  14.334 -1.2113 -0.4373 -1.8880
18104TIP3   OH275726   0.949   0.042   0.865  0.1506 -0.1829 -0.5886
18104TIP3    H175727   0.876   0.066   0.808 -0.7950  0.3576  0.8028
18104TIP3    H275728   1.011   0.115   0.857  0.8260 -0.8497 -2.1238
18105TIP3   OH275729   5.532   6.151  13.514  0.6474 -0.5392  0.3887
18105TIP3    H175730   5.611   6.143  13.461 -0.4593  0.8707 -1.6115
18105TIP3    H275731   5.561   6.191  13.596  2.2960 -2.0916  0.6137
18106TIP3   OH275732   6.393   5.181  16.493 -0.1921  0.2599 -0.6678
18106TIP3    H175733   6.317   5.233  16.467 -0.3477  1.3590  1.7517
18106TIP3    H275734   6.404   5.199  16.586  2.6687 -0.3425 -0.7909
18107TIP3   OH275735   2.236   3.027   4.403  0.1901 -0.1775  0.1774
18107TIP3    H175736   2.180   2.950   4.405 -2.0509  1.3065 -0.8649
18107TIP3    H275737   2.283   3.021   4.319 -0.0911 -0.3240  0.0309
18108TIP3   OH275738   1.376   0.003  11.343 -0.2340  0.1753 -0.0585
18108TIP3    H175739   1.386  -0.084  11.305 -1.5902 -0.7332  1.5431
18108TIP3    H275740   1.405  -0.006  11.434 -1.6104  1.0452  0.4987
18109TIP3   OH275741   0.436   6.710   4.768  0.1940 -0.8624  0.1122
18109TIP3    H175742   0.401   6.731   4.682  0.2420 -0.7656  0.1163
18109TIP3    H275743   0.513   6.656   4.750 -1.0637 -2.7587  0.1415
18110TIP3   OH275744   5.725   5.064  14.066  0.3614 -0.1794 -0.4833
18110TIP3    H175745   5.708   5.119  13.989  2.9678  1.5465  0.0368
18110TIP3    H275746   5.768   5.123  14.128  1.2894 -2.3070  1.0108
18111TIP3   OH275747   5.218   1.960  10.888 -0.4228  0.1366 -0.0004
18111TIP3    H175748   5.240   1.984  10.798 -0.3904  0.0832 -0.0063
18111TIP3    H275749   5.134   1.914  10.881 -0.7537  0.7270  0.0733
18112TIP3   OH275750   0.661   3.187   2.562  0.9003  0.4337 -0.1010
18112TIP3    H175751   0.747   3.197   2.522  1.1321 -1.1819 -0.0768
18112TIP3    H275752   0.675   3.201   2.655  0.5939  2.9037 -0.3466
18113TIP3   OH275753   3.456   6.429  11.762 -0.1481 -0.0453 -0.1289
18113TIP3    H175754   3.458   6.433  11.666 -0.0659 -0.4985 -0.1475
18113TIP3    H275755   3.474   6.338  11.782  1.3057  0.3344  0.3701
18114TIP3   OH275756   3.225   3.943   4.324  0.1784 -0.0409 -0.0645
18114TIP3    H175757   3.217   3.997   4.245  1.0910 -1.4399 -1.1666
18114TIP3    H275758   3.237   4.005   4.395 -0.9683  1.2783 -0.9783
18115TIP3   OH275759   1.492   0.922  13.216  0.5234  0.3372 -0.6814
18115TIP3    H175760   1.486   0.832  13.249  0.2059  0.2215 -1.0411
18115TIP3    H275761   1.586   0.938  13.207  0.5835  0.0463 -0.5963
18116TIP3   OH275762   6.518   4.327  11.577  0.3572 -0.7472  0.0147
18116TIP3    H175763   6.524   4.414  11.537 -0.3433 -0.8751 -0.3874
18116TIP3    H275764   6.607   4.310  11.609  1.1224 -0.8620 -1.9852
18117TIP3   OH275765   5.936   3.983   4.609 -0.3875  0.3645 -0.2237
18117TIP3    H175766   5.997   4.056   4.622  1.3975 -1.1177  0.1543
18117TIP3    H275767   5.992   3.911   4.580 -2.2256 -0.6281 -1.4411
18118TIP3   OH275768   2.735   0.321  14.040 -0.6029  0.3489 -0.0524
18118TIP3    H175769   2.686   0.256  14.091 -0.4658 -1.5832 -2.2328
18118TIP3    H275770   2.727   0.401  14.091 -1.9007 -1.0413  2.1161
18119TIP3   OH275771   6.157   0.974  14.043  0.5384  0.2415  0.1638
18119TIP3    H175772   6.245   0.942  14.023 -0.0052 -1.2800  0.0397
18119TIP3    H275773   6.102   0.895  14.041 -0.8410  1.1672  0.1538
18120TIP3   OH275774   5.757   1.000   4.865 -0.4596 -0.6161 -0.6031
18120TIP3    H175775   5.758   1.055   4.943 -1.1069 -0.4700 -0.6897
18120TIP3    H275776   5.784   1.058   4.793  0.2835 -0.7883 -0.4733
18121TIP3   OH275777   4.883   3.257  15.142  0.3899  0.2013 -0.3016
18121TIP3    H175778   4.898   3.348  15.117  0.4901  0.1622 -0.3836
18121TIP3    H275779   4.790   3.242  15.123 -0.4779  1.2133  2.6274
18122TIP3   OH275780   2.234   1.871   4.415  0.6304 -0.2358 -0.2750
18122TIP3    H175781   2.179   1.933   4.463  0.1557 -1.9051  1.4616
18122TIP3    H275782   2.234   1.904   4.325 -1.6299  0.9086  0.0588
18123TIP3   OH275783   3.165   2.828  16.739 -0.7307  0.2770 -0.2209
18123TIP3    H175784   3.194   2.760  16.679  0.9510  1.4091 -0.7532
18123TIP3    H275785   3.223   2.820  16.815 -1.0481  0.6141  0.0666
18124TIP3   OH275786   1.323   6.388  12.936 -0.1271  0.0138  0.0691
18124TIP3    H175787   1.268   6.322  12.977 -0.9981  0.2951 -0.6201
18124TIP3    H275788   1.264   6.435  12.877  1.1190 -0.6048 -1.7805
18125TIP3   OH275789   0.929   1.911  14.253  0.4456  0.2838 -0.3996
18125TIP3    H175790   0.949   1.839  14.193  0.3467 -0.1125  0.0352
18125TIP3    H275791   0.980   1.892  14.332 -1.3986 -0.6192  0.6336
18126TIP3   OH275792   6.008   3.460  14.069 -0.5573  0.5794 -0.3890
18126TIP3    H175793   6.053   3.399  14.011 -0.7430 -1.7526  1.7791
18126TIP3    H275794   6.057   3.456  14.151 -1.1024  2.7501  0.1022
18127TIP3   OH275795   2.075   3.186   2.896 -0.2951 -0.1867 -0.1470
18127TIP3    H175796   1.984   3.215   2.904  0.0341  0.4768  1.7066
18127TIP3    H275797   2.100   3.209   2.807 -2.0513 -0.7502 -0.8317
18128TIP3   OH275798   3.062   1.625  10.816 -0.6712  0.0589 -0.0909
18128TIP3    H175799   3.016   1.544  10.841  1.2836 -0.6004  1.5926
18128TIP3    H275800   3.153   1.599  10.807 -0.1021  1.9716 -0.2159
18129TIP3   OH275801   4.597   4.907   2.182 -0.0438  0.5804  0.2503
18129TIP3    H175802   4.651   4.840   2.224  2.1358 -0.0668 -3.0925
18129TIP3    H275803   4.508   4.872   2.185  0.3056 -0.2819  2.4416
18130TIP3   OH275804   2.705   0.873  10.939  0.1331  0.2593 -0.3591
18130TIP3    H175805   2.628   0.929  10.952  0.7997  1.5468 -1.6573
18130TIP3    H275806   2.761   0.923  10.879  1.3794 -1.2339 -0.4993
18131TIP3   OH275807   6.743   1.291   5.188  0.4701 -0.3624 -0.4424
18131TIP3    H175808   6.809   1.354   5.215  0.1074 -0.7399  1.4297
18131TIP3    H275809   6.793   1.213   5.162  0.8484  0.2186 -1.5367
18132TIP3   OH275810   6.227   0.777  15.552 -0.1729 -0.1997  0.2860
18132TIP3    H175811   6.151   0.829  15.525  0.3433  1.5641  2.0304
18132TIP3    H275812   6.190   0.702  15.598 -0.8833  0.5619  0.9896
18133TIP3   OH275813   6.084   1.016  15.105  0.4265 -0.5299 -0.1942
18133TIP3    H175814   6.170   1.011  15.062  0.8652  1.8180  0.2265
18133TIP3    H275815   6.074   1.109  15.126 -3.0365 -0.3970 -1.8106
18134TIP3   OH275816   4.597   0.513   2.573  0.5665  0.4832 -0.3520
18134TIP3    H175817   4.630   0.426   2.548 -2.2246 -0.6004 -0.5296
18134TIP3    H275818   4.615   0.568   2.496  0.3765 -0.5084 -1.1237
18135TIP3   OH275819   2.892   6.325  16.104  0.3934 -0.7944 -0.0317
18135TIP3    H175820   2.843   6.293  16.029 -2.6646  1.5392  0.7627
18135TIP3    H275821   2.864   6.270  16.177 -1.2363  0.5527  0.4268
18136TIP3   OH275822   0.992   0.014  16.320  0.3173 -0.3016 -0.1659
18136TIP3    H175823   0.995  -0.071  16.275  2.4391 -0.6773  0.5644
18136TIP3    H275824   1.057   0.068  16.274  2.3717 -0.6193  2.1323
18137TIP3   OH275825   2.014   4.308   0.790 -0.3109  0.7692  0.0609
18137TIP3    H175826   1.967   4.248   0.732 -0.7607  0.8103  0.3729
18137TIP3    H275827   2.003   4.394   0.749  0.6123  0.5976 -0.5587
18138TIP3   OH275828   1.839   6.128   5.577 -0.1636 -0.1522  0.2130
18138TIP3    H175829   1.931   6.125   5.606  0.3579  0.2054 -1.3196
18138TIP3    H275830   1.806   6.211   5.613  0.5087  0.3568 -0.3017
18139TIP3   OH275831   2.424   4.683  10.969  0.0075  0.6006 -0.1082
18139TIP3    H175832   2.417   4.651  10.879  2.1242  0.2304 -0.1954
18139TIP3    H275833   2.434   4.778  10.959  0.7728  0.5075 -0.3297
18140TIP3   OH275834   1.642   5.544   0.579  0.0020 -0.2822  0.1733
18140TIP3    H175835   1.659   5.486   0.653 -0.0060 -3.0372 -1.8263
18140TIP3    H275836   1.720   5.600   0.574  0.1958 -0.3306  1.9489
18141TIP3   OH275837   5.776   1.485  11.736 -0.6226  0.7370  0.8284
18141TIP3    H175838   5.689   1.500  11.698 -0.2592  0.4110 -0.1698
18141TIP3    H275839   5.836   1.530  11.676  0.0988 -1.0192  0.1497
18142TIP3   OH275840   0.539   6.069  10.818 -0.2382 -0.0277 -0.0371
18142TIP3    H175841   0.608   6.089  10.882  2.4894 -1.6083 -2.2557
18142TIP3    H275842   0.469   6.131  10.838  1.5000  1.2193  2.8271
18143TIP3   OH275843   1.895   1.195   5.793  0.1616  0.1927  0.8389
18143TIP3    H175844   1.933   1.108   5.806  0.0162  0.0256  0.1689
18143TIP3    H275845   1.965   1.244   5.749  0.4188  0.5648  1.6376
18144TIP3   OH275846   4.403   3.956  16.958  0.3532  0.2541 -0.1784
18144TIP3    H175847   4.479   3.958  17.016 -0.0932  0.5633  0.4052
18144TIP3    H275848   4.417   3.878  16.904  1.9046  1.2041 -1.2248
18145TIP3   OH275849   0.643   1.514  11.995 -0.3204 -0.0449  0.6327
18145TIP3    H175850   0.700   1.544  11.924 -0.3695  0.4493  0.7997
18145TIP3    H275851   0.557   1.504  11.955 -0.5259  0.9870  0.7865
18146TIP3   OH275852   5.189   1.203   1.713 -0.3463  0.2279  0.1068
18146TIP3    H175853   5.198   1.198   1.618 -0.5202  0.9049  0.0486
18146TIP3    H275854   5.241   1.280   1.738 -2.5478  1.7772  0.2233
18147TIP3   OH275855   0.307   1.245  11.693  0.3687  0.5193  0.0436
18147TIP3    H175856   0.280   1.334  11.715 -0.1198  0.2609  0.5078
18147TIP3    H275857   0.392   1.256  11.649  0.3028  1.2099  0.0753
18148TIP3   OH275858   1.023   6.682  12.581  0.2843 -0.0104 -0.1914
18148TIP3    H175859   1.057   6.767  12.552 -0.1176 -0.5165 -2.3039
18148TIP3    H275860   1.017   6.630  12.501 -0.5824 -1.6578  0.8919
18149TIP3   OH275861   2.890   2.061  10.856  0.2250 -0.0811 -0.4078
18149TIP3    H175862   2.795   2.061  10.866  0.4279 -1.1499  2.3834
18149TIP3    H275863   2.904   2.045  10.763 -2.3193 -1.3494 -0.6669
18150TIP3   OH275864   2.646   0.167   4.745  1.0244  0.3710 -0.1462
18150TIP3    H175865   2.626   0.218   4.824  2.7662  0.6288  0.1731
18150TIP3    H275866   2.601   0.084   4.758 -1.4966  1.5985 -0.4658
18151TIP3   OH275867   2.344   6.559  15.939  0.0262 -0.2638  0.4031
18151TIP3    H175868   2.332   6.644  15.896  0.2744 -0.4801 -0.1112
18151TIP3    H275869   2.398   6.579  16.016 -1.5776  0.3382  1.4188
18152TIP3   OH275870   3.091   1.777   2.629  0.0522  0.3314 -0.1733
18152TIP3    H175871   3.165   1.829   2.662  0.0664  0.9676 -1.1559
18152TIP3    H275872   3.050   1.833   2.563 -1.3332 -0.0107  0.3733
18153TIP3   OH275873   3.543   1.520   1.645  0.7786  0.0339  0.1750
18153TIP3    H175874   3.608   1.586   1.623  2.4588 -1.4638  0.4729
18153TIP3    H275875   3.580   1.473   1.719  0.8542 -2.8549 -1.5691
18154TIP3   OH275876   0.806   5.119  10.872  0.3908 -0.1813  0.0239
18154TIP3    H175877   0.714   5.093  10.878  0.4657 -0.2271  1.1425
18154TIP3    H275878   0.830   5.143  10.961  2.0946 -2.3717  0.2596
18155TIP3   OH275879   6.238   2.884   0.649  0.1323 -0.2564  0.0172
18155TIP3    H175880   6.204   2.898   0.737 -0.3137  1.3648 -0.3820
18155TIP3    H275881   6.242   2.972   0.610  0.8208 -0.8760 -1.3975
18156TIP3   OH275882   2.280   2.873  16.952 -0.4723 -0.6226 -0.0164
18156TIP3    H175883   2.303   2.920  17.032 -1.7205  1.5148 -0.8205
18156TIP3    H275884   2.364   2.856  16.909  0.2520 -2.1342  1.8424
18157TIP3   OH275885   2.020   6.658  12.998 -0.0777  0.0982  0.2717
18157TIP3    H175886   2.040   6.578  12.951  1.8024  0.9076 -0.4227
18157TIP3    H275887   1.959   6.631  13.067 -1.0491 -1.5242 -1.1463
18158TIP3   OH275888   3.800   1.850   4.053  0.6973  0.0424  0.0778
18158TIP3    H175889   3.886   1.813   4.037  0.6413 -0.7032  1.3457
18158TIP3    H275890   3.765   1.870   3.966  2.6445  1.5571 -0.4241
18159TIP3   OH275891   0.417   1.395   1.586  0.0197 -0.1516 -0.5403
18159TIP3    H175892   0.460   1.311   1.595  1.5543  0.8583  3.0222
18159TIP3    H275893   0.338   1.388   1.639 -0.0867  0.5246 -0.5954
18160TIP3   OH275894   4.051   2.166  11.816 -0.0245 -0.4030 -0.5216
18160TIP3    H175895   4.084   2.202  11.734 -1.0912  0.0521 -0.7650
18160TIP3    H275896   3.976   2.221  11.838 -0.0086 -0.7849  0.5376
18161TIP3   OH275897   4.332   0.383   2.615 -0.2409  0.2337 -0.1168
18161TIP3    H175898   4.402   0.435   2.576 -0.3292  0.4674  0.0299
18161TIP3    H275899   4.312   0.316   2.550  2.0223 -1.6147  0.9337
18162TIP3   OH275900   6.720   2.988   5.789 -0.4490 -0.5727  0.2562
18162TIP3    H175901   6.779   3.028   5.726 -0.0224 -0.0799  0.9593
18162TIP3    H275902   6.770   2.984   5.870 -1.5875  0.4306  1.0314
18163TIP3   OH275903   2.017   3.071   5.101  0.2297  0.4655  0.1017
18163TIP3    H175904   2.069   2.990   5.107 -0.6895 -0.1018  0.7178
18163TIP3    H275905   2.047   3.113   5.021  0.6554 -0.5530 -0.2909
18164TIP3   OH275906   5.697   6.744   3.024  0.1810  0.0993 -0.0705
18164TIP3    H175907   5.771   6.743   2.963 -0.6449 -0.0744 -1.1070
18164TIP3    H275908   5.671   6.652   3.030  0.1339  0.1438  0.3914
18165TIP3   OH275909   1.320   3.704  14.547  0.0947  0.2114  0.7500
18165TIP3    H175910   1.248   3.643  14.530  1.5663 -1.1063 -1.1793
18165TIP3    H275911   1.387   3.650  14.590  0.4124  1.1211  1.4273
18166TIP3   OH275912   4.187   1.975  16.664 -0.0034  0.2215  0.3729
18166TIP3    H175913   4.208   1.884  16.642 -0.8408 -0.0255  0.5471
18166TIP3    H275914   4.106   1.993  16.616  0.9504  1.3855 -0.8700
18167TIP3   OH275915   3.652   4.436   1.467 -0.0390  0.2647 -0.1440
18167TIP3    H175916   3.747   4.443   1.467  0.1916 -2.0687  0.8229
18167TIP3    H275917   3.629   4.412   1.558 -1.5318  0.6417 -0.3877
18168TIP3   OH275918   4.655   6.306   0.982  0.7006  0.1986  0.0941
18168TIP3    H175919   4.696   6.269   1.060 -0.0019 -0.2315  0.2633
18168TIP3    H275920   4.645   6.233   0.922 -0.4174  0.1580  0.3135
18169TIP3   OH275921   2.748   6.499  14.117 -0.0175  0.3595  0.0447
18169TIP3    H175922   2.810   6.460  14.055 -0.7806  1.0232 -1.1877
18169TIP3    H275923   2.752   6.443  14.194  2.3124  0.5463  0.1309
18170TIP3   OH275924   6.754   5.720  11.373  0.0201 -0.3079  0.8079
18170TIP3    H175925   6.764   5.803  11.326 -0.1667 -0.8281 -0.1850
18170TIP3    H275926   6.843   5.690  11.389  0.0873  0.0670  1.1384
18171TIP3   OH275927   4.822   3.598   0.365  0.0300  0.4086 -0.7453
18171TIP3    H175928   4.890   3.609   0.298  0.5445 -0.7882 -0.4559
18171TIP3    H275929   4.772   3.522   0.335  1.0558 -0.9499  0.8295
18172TIP3   OH275930   1.909   0.153  14.095 -0.2027  0.4396  0.1204
18172TIP3    H175931   1.900   0.095  14.019 -0.0485  1.5483 -0.7771
18172TIP3    H275932   1.933   0.095  14.167 -1.7902 -0.8437 -0.3383
18173TIP3   OH275933   2.887   1.371  11.928 -0.0075 -0.5169  0.6393
18173TIP3    H175934   2.883   1.302  11.862  2.4585  1.3454 -1.7139
18173TIP3    H275935   2.966   1.352  11.978 -1.3544 -1.3853  2.5203
18174TIP3   OH275936   5.454   3.066  17.019 -0.0705  0.0040  0.5825
18174TIP3    H175937   5.535   3.116  17.022 -0.0849  0.4829 -2.9386
18174TIP3    H275938   5.482   2.976  17.003 -0.1641  0.4079 -2.2214
18175TIP3   OH275939   2.017   1.908  10.996 -0.1336  0.3448  0.0491
18175TIP3    H175940   1.942   1.851  11.013 -0.2669  0.7201  0.7667
18175TIP3    H275941   1.989   1.963  10.923 -0.8826  1.0340  0.8290
18176TIP3   OH275942   0.434   1.314   0.375 -0.4588  0.0265 -0.4387
18176TIP3    H175943   0.359   1.254   0.379  0.0627 -0.8575 -2.5315
18176TIP3    H275944   0.493   1.283   0.443 -2.2300  1.2216  1.8209
18177TIP3   OH275945   4.480   6.024  14.577  0.0418 -0.4359  0.1075
18177TIP3    H175946   4.481   5.930  14.597  1.2898 -0.2869  0.8934
18177TIP3    H275947   4.553   6.060  14.628  0.4679  0.7411 -1.2808
18178TIP3   OH275948   3.672   3.066  11.649 -0.4529  0.0637  0.4570
18178TIP3    H175949   3.668   3.070  11.553 -2.0502  0.5116  0.5095
18178TIP3    H275950   3.659   2.974  11.670  2.1817 -0.4418  0.2229
18179TIP3   OH275951   6.067   3.649  11.983  0.5597  0.6773 -0.7912
18179TIP3    H175952   6.127   3.575  11.993 -0.3420  0.1264  0.9744
18179TIP3    H275953   5.980   3.611  11.988  0.0673  1.8527  0.2390
18180TIP3   OH275954   2.565   3.745   0.791  0.0609 -0.3386  0.7061
18180TIP3    H175955   2.578   3.650   0.797 -0.2336 -0.4697 -0.5520
18180TIP3    H275956   2.647   3.779   0.757 -0.2663 -0.3018 -0.0682
18181TIP3   OH275957   4.982   5.702  11.451  0.2587  0.0713 -0.2871
18181TIP3    H175958   4.921   5.748  11.394 -0.6790  0.1205  0.7456
18181TIP3    H275959   5.025   5.770  11.502  1.1495  0.0325 -0.9623
18182TIP3   OH275960   6.020   3.648   6.107  0.3775 -0.2331 -0.2673
18182TIP3    H175961   6.038   3.568   6.156  0.4305 -0.9128 -1.3645
18182TIP3    H275962   5.967   3.701   6.167  1.0548 -0.7149  0.7898
18183TIP3   OH275963   4.652   1.024   4.605  0.0031  0.0129  0.0469
18183TIP3    H175964   4.693   1.101   4.643 -0.9369  0.4776  0.1338
18183TIP3    H275965   4.724   0.962   4.592  0.2371 -0.7900  3.9945
18184TIP3   OH275966   1.725   4.110   0.431  0.1989  0.2974 -0.1105
18184TIP3    H175967   1.700   4.195   0.395  0.9566  0.0306 -1.3495
18184TIP3    H275968   1.643   4.068   0.456 -0.2011  1.2704  0.2348
18185TIP3   OH275969   5.743   1.681   4.098  0.1262  0.2826  0.1951
18185TIP3    H175970   5.763   1.753   4.158  0.4833  0.9634 -0.7157
18185TIP3    H275971   5.651   1.693   4.075 -0.2010 -0.3773  1.1170
18186TIP3   OH275972   6.632   0.883   5.582  0.3344  0.5692  0.2394
18186TIP3    H175973   6.634   0.863   5.676 -1.3712  0.9694  0.3861
18186TIP3    H275974   6.540   0.902   5.563  0.3968 -0.8232 -1.8008
18187TIP3   OH275975   2.088   4.554   5.413 -0.2039  0.4722  0.0688
18187TIP3    H175976   2.107   4.645   5.394 -2.8281  0.9359 -0.7095
18187TIP3    H275977   2.168   4.520   5.453  2.2557  2.0456 -3.0946
18188TIP3   OH275978   1.841   5.767  16.929 -0.6237  0.2514  0.2044
18188TIP3    H175979   1.927   5.763  16.972 -1.2618 -0.0857  1.5219
18188TIP3    H275980   1.821   5.860  16.924  0.7008  0.4786 -2.0340
18189TIP3   OH275981   2.231   0.912  15.054 -0.7614 -0.0328  0.1453
18189TIP3    H175982   2.291   0.951  15.118 -0.0503  1.5248 -1.3970
18189TIP3    H275983   2.276   0.832  15.025 -1.1305 -0.8055  1.5862
18190TIP3   OH275984   1.926   5.130  15.397 -0.2731  0.4840 -0.0692
18190TIP3    H175985   1.878   5.059  15.356 -1.0144  0.4729  0.7826
18190TIP3    H275986   1.885   5.141  15.483  1.1197  0.6122  0.6231
18191TIP3   OH275987   3.080   6.016   5.694  0.2618  0.2304  0.2178
18191TIP3    H175988   3.125   6.098   5.673 -0.9539  1.2750  1.5891
18191TIP3    H275989   2.990   6.029   5.664 -0.0000 -0.5139  0.6490
18192TIP3   OH275990   4.287   6.514   0.532 -0.0568 -0.6236  0.2095
18192TIP3    H175991   4.243   6.467   0.462 -0.3894  0.0155 -0.0166
18192TIP3    H275992   4.312   6.598   0.493  0.9516 -0.7956  0.4674
18193TIP3   OH275993   2.411   4.269   0.398 -0.4678  0.1658 -1.0631
18193TIP3    H175994   2.375   4.315   0.322  0.1790  0.4585 -1.1990
18193TIP3    H275995   2.397   4.177   0.380 -1.3358  0.2805 -1.0175
18194TIP3   OH275996   1.287   3.838   2.495 -0.1180  0.0090 -0.2104
18194TIP3    H175997   1.201   3.842   2.453 -1.1711 -0.0683  1.7867
18194TIP3    H275998   1.350   3.846   2.424 -1.7944  1.7450 -1.5890
18195TIP3   OH275999   3.961   0.380   0.772  0.4627 -0.3911 -0.3460
18195TIP3    H176000   4.016   0.309   0.736  0.7099  0.0211 -0.7944
18195TIP3    H276001   4.014   0.418   0.841  0.6801 -0.1042 -0.6652
18196TIP3   OH276002   4.491   5.933  16.160 -0.0332  0.3320  0.4131
18196TIP3    H176003   4.445   6.004  16.204  1.4556  1.0229  0.9032
18196TIP3    H276004   4.534   5.884  16.231  1.0784  0.5100 -0.1165
18197TIP3   OH276005   4.480   4.125  15.935 -0.1892 -0.1379  0.0041
18197TIP3    H176006   4.394   4.084  15.921 -0.8960  0.9550  0.8797
18197TIP3    H276007   4.468   4.215  15.906  0.0907  0.5170  1.7618
18198TIP3   OH276008   6.214   0.700   3.931 -0.1357 -0.4033  1.1505
18198TIP3    H176009   6.293   0.713   3.878 -0.3923  0.9708  1.0762
18198TIP3    H276010   6.201   0.605   3.930  0.2749 -0.4808 -0.6692
18199TIP3   OH276011   0.548   6.218   3.777  0.1152  0.1011 -0.2411
18199TIP3    H176012   0.474   6.279   3.780 -0.0442 -0.0708 -0.6114
18199TIP3    H276013   0.610   6.252   3.841 -1.7801 -1.7350  2.8254
18200TIP3   OH276014   5.520   1.681   1.213 -0.1785  0.3916 -0.3862
18200TIP3    H176015   5.487   1.747   1.152 -0.4101  1.8171  1.2204
18200TIP3    H276016   5.615   1.692   1.212 -0.0315 -0.6587 -1.6073
18201TIP3   OH276017   5.768   0.127  14.782 -0.1104 -0.2515 -0.2520
18201TIP3    H176018   5.805   0.055  14.731  1.7098 -0.1136  0.7860
18201TIP3    H276019   5.833   0.198  14.774  0.9464 -0.6385  3.1787
18202TIP3   OH276020   3.493   4.708   0.109 -0.0469 -0.4088  0.1053
18202TIP3    H176021   3.516   4.788   0.156 -1.3451 -2.1098  4.1481
18202TIP3    H276022   3.423   4.734   0.049 -0.1804  1.5922  1.0458
18203TIP3   OH276023   2.391   1.184   2.947  0.4496 -0.1786 -0.1172
18203TIP3    H176024   2.405   1.235   3.026 -2.9714  0.3197  0.3259
18203TIP3    H276025   2.299   1.197   2.925  0.5976 -2.3795 -2.7293
18204TIP3   OH276026   2.859   5.011   4.342  0.0222 -0.5176  0.3914
18204TIP3    H176027   2.911   4.964   4.277  3.4620  0.3376  2.2642
18204TIP3    H276028   2.850   5.100   4.307 -1.1912 -0.9140 -0.3874
18205TIP3   OH276029   0.136   5.153   3.604  0.4602  0.1047 -0.2168
18205TIP3    H176030   0.097   5.137   3.690  0.4837  1.4941  0.0755
18205TIP3    H276031   0.125   5.247   3.590  0.3328 -0.1200 -1.8005
18206TIP3   OH276032   4.005   4.410   5.294  0.6852  0.1671 -0.2584
18206TIP3    H176033   3.963   4.489   5.329 -0.5112 -0.4625 -0.2542
18206TIP3    H276034   3.951   4.338   5.325  3.0552 -0.9094  1.7594
18207TIP3   OH276035   6.050   0.843   3.117 -0.1258 -0.0654  0.6800
18207TIP3    H176036   6.056   0.748   3.109 -0.3560 -0.0438  0.2102
18207TIP3    H276037   5.997   0.870   3.042  0.2741  0.4737  0.5836
18208TIP3   OH276038   6.652   1.112  10.500 -0.2029 -0.2157 -0.2317
18208TIP3    H176039   6.728   1.057  10.520  0.9290  1.0144 -0.9695
18208TIP3    H276040   6.612   1.130  10.585  0.9701 -0.0269  0.3039
18209TIP3   OH276041   1.886   1.564   0.339 -0.0122  0.3872 -0.3413
18209TIP3    H176042   1.845   1.480   0.321  0.5642  0.1791 -0.7021
18209TIP3    H276043   1.829   1.629   0.297 -0.7580  0.2305  0.4114
18210TIP3   OH276044   6.308   6.338  12.064  0.0563  0.0208 -0.0675
18210TIP3    H176045   6.235   6.277  12.080 -1.8498  2.1934  0.0952
18210TIP3    H276046   6.349   6.307  11.983 -0.9109 -1.4008 -0.0405
18211TIP3   OH276047   5.379   4.687  11.067 -0.3026 -0.6045 -0.4956
18211TIP3    H176048   5.426   4.605  11.085 -0.8220 -1.0924 -1.3129
18211TIP3    H276049   5.374   4.692  10.972 -0.9322  0.0014 -0.4425
18212TIP3   OH276050   1.295   3.189  12.681  0.4483  0.7270  0.1789
18212TIP3    H176051   1.210   3.229  12.698  0.5595  2.0755 -2.0051
18212TIP3    H276052   1.349   3.260  12.647  1.7042 -0.6046 -0.7449
18213TIP3   OH276053   5.686   1.401   5.071  0.1936  0.0172  0.1721
18213TIP3    H176054   5.631   1.402   4.993 -0.5942 -0.2539  0.7062
18213TIP3    H276055   5.753   1.467   5.055 -0.8251  1.0024 -0.1339
18214TIP3   OH276056   4.436   4.755   3.979  0.5574 -0.4953 -0.1850
18214TIP3    H176057   4.379   4.823   4.016  0.7478  0.5613 -1.6963
18214TIP3    H276058   4.521   4.770   4.019  1.3211  2.0162 -2.4497
18215TIP3   OH276059   0.574   5.417  13.147 -0.3749 -0.0370 -0.3983
18215TIP3    H176060   0.494   5.457  13.180 -0.2204 -1.3115  1.6680
18215TIP3    H276061   0.617   5.380  13.224  1.5947 -0.4799 -1.6223
18216TIP3   OH276062   1.805   4.650  13.824 -0.5915 -0.0229  0.2785
18216TIP3    H176063   1.802   4.599  13.906  0.0668 -0.5553 -0.0161
18216TIP3    H276064   1.874   4.607  13.772 -1.3451 -0.0049 -0.7644
18217TIP3   OH276065   0.829   5.392   4.518 -0.5077 -0.2712 -0.1068
18217TIP3    H176066   0.888   5.409   4.591  0.9643  1.2087 -1.5408
18217TIP3    H276067   0.880   5.340   4.456 -0.9486  0.3347 -1.0208
18218TIP3   OH276068   5.010   0.674  12.701 -0.3261  0.0619 -0.1641
18218TIP3    H176069   5.032   0.609  12.767 -0.5069 -0.4756 -0.6230
18218TIP3    H276070   5.081   0.667  12.637  0.4187  1.3187  0.4839
18219TIP3   OH276071   6.166   3.051  11.799  0.0278 -0.6160  0.2106
18219TIP3    H176072   6.149   2.994  11.723  1.8240 -1.2254  0.2249
18219TIP3    H276073   6.102   3.022  11.864 -0.8140 -0.8316 -0.6835
18220TIP3   OH276074   0.909   0.308  16.602  0.0343 -0.6337  0.4061
18220TIP3    H176075   0.898   0.270  16.689 -0.5774 -1.2481  0.0656
18220TIP3    H276076   0.881   0.399  16.612  1.3436 -0.2768  1.1839
18221TIP3   OH276077   5.170   0.421   2.022  0.0303  0.5177 -0.1822
18221TIP3    H176078   5.114   0.382   2.090  1.0743  0.4969  0.6960
18221TIP3    H276079   5.220   0.347   1.987 -1.9586  0.1346 -2.5145
18222TIP3   OH276080   0.765   2.839  11.582 -0.1793  0.0431  0.0536
18222TIP3    H176081   0.693   2.780  11.559  0.9372 -1.5300  0.4030
18222TIP3    H276082   0.732   2.889  11.656 -1.3087  0.1894 -0.5166
18223TIP3   OH276083   3.185   1.016   5.688 -0.1313 -0.1655 -0.0873
18223TIP3    H176084   3.090   1.005   5.692 -0.2152  0.7416  1.0502
18223TIP3    H276085   3.213   1.016   5.780  0.5948  2.2336 -0.2456
18224TIP3   OH276086   0.677   3.127   4.238 -0.0302 -0.1044 -0.7799
18224TIP3    H176087   0.596   3.173   4.257  0.7165  1.7219 -1.8172
18224TIP3    H276088   0.704   3.090   4.322 -2.0497 -1.0080 -0.4757
18225TIP3   OH276089   4.119   1.013  13.407  0.2924  0.1493 -0.7032
18225TIP3    H176090   4.045   0.973  13.362  1.2070 -1.4618 -0.8726
18225TIP3    H276091   4.196   0.980  13.360  1.1589  0.6149  0.3517
18226TIP3   OH276092   0.056   4.297   6.244 -0.0853  0.1875  0.7250
18226TIP3    H176093   0.084   4.227   6.303  1.7842  0.0960 -0.2219
18226TIP3    H276094   0.062   4.377   6.297  0.1827 -0.0648  1.0817
18227TIP3   OH276095   4.281   4.774   2.739  0.0886  0.0069  0.5407
18227TIP3    H176096   4.341   4.725   2.796 -1.0081 -0.3649  1.4084
18227TIP3    H276097   4.220   4.709   2.705  1.5867 -0.0549 -2.3317
18228TIP3   OH276098   6.410   3.168  15.828 -0.0949 -0.1897 -0.2408
18228TIP3    H176099   6.358   3.218  15.890 -0.9668  0.8035 -1.7193
18228TIP3    H276100   6.346   3.128  15.769  0.5857 -2.7599  0.5966
18229TIP3   OH276101   3.063   0.162   2.224 -0.2029  0.4003 -0.5687
18229TIP3    H176102   2.992   0.156   2.161  0.7194  2.3510 -1.9141
18229TIP3    H276103   3.123   0.092   2.199  0.2957  1.3320 -2.1260
18230TIP3   OH276104   0.413   5.850   0.900 -0.5983 -0.2143 -0.3581
18230TIP3    H176105   0.488   5.893   0.941  0.8036 -2.0885 -0.8566
18230TIP3    H276106   0.386   5.911   0.831  0.4557  0.4788 -0.1792
18231TIP3   OH276107   6.614   5.217   4.298  0.5136 -0.4760  0.1766
18231TIP3    H176108   6.669   5.169   4.236 -1.6460 -2.1258 -0.5628
18231TIP3    H276109   6.524   5.199   4.270 -0.5133 -0.0155  2.8702
18232TIP3   OH276110   1.572   6.319  15.837  0.2446  0.6622  0.2493
18232TIP3    H176111   1.642   6.349  15.779  1.0729  0.1842  0.9644
18232TIP3    H276112   1.534   6.244  15.792  0.4925  0.6526  0.0513
18233TIP3   OH276113   3.917   1.480   1.237 -0.1607 -0.0397 -0.1707
18233TIP3    H176114   3.837   1.532   1.225 -1.2913 -1.6877 -0.0895
18233TIP3    H276115   3.935   1.443   1.151 -2.5334 -3.7819  0.6703
18234TIP3   OH276116   4.990   3.058  14.595 -0.2306  0.4502 -0.5368
18234TIP3    H176117   4.959   3.148  14.600 -1.2520  0.1225 -0.8414
18234TIP3    H276118   5.040   3.055  14.513 -0.4954  0.6427 -0.7059
18235TIP3   OH276119   4.362   2.908  15.561  0.3390 -0.0755 -0.0284
18235TIP3    H176120   4.276   2.952  15.560 -0.0164 -0.7684 -0.5533
18235TIP3    H276121   4.421   2.970  15.518  0.8838  1.8830  3.1509
18236TIP3   OH276122   4.321   5.052   0.814  0.5329  0.1737  1.0151
18236TIP3    H176123   4.225   5.053   0.813  0.5128 -0.5590  1.4050
18236TIP3    H276124   4.346   5.056   0.722  0.1683  2.0268  0.9640
18237TIP3   OH276125   6.332   6.672   0.391 -0.1401  0.2382  0.3925
18237TIP3    H176126   6.238   6.652   0.392 -0.3705  1.2569  0.5246
18237TIP3    H276127   6.375   6.587   0.378 -1.1486  0.0023 -2.0022
18238TIP3   OH276128   3.504   1.567  15.330  0.3044  0.2181 -0.4304
18238TIP3    H176129   3.468   1.580  15.242  1.7378  1.4885 -0.8732
18238TIP3    H276130   3.524   1.474  15.334  0.5877  0.2093 -1.6037
18239TIP3   OH276131   5.008   5.089  12.337 -0.1859  0.1027 -0.1301
18239TIP3    H176132   4.913   5.078  12.346 -0.5383  1.2715 -1.8929
18239TIP3    H276133   5.040   5.091  12.427 -1.8192 -0.4016  0.5075
18240TIP3   OH276134   3.433   2.332  15.493  0.1590  0.0386 -0.3412
18240TIP3    H176135   3.359   2.315  15.551  0.9227 -0.7241  0.4247
18240TIP3    H276136   3.470   2.415  15.525 -1.8794  1.8857 -2.3505
18241TIP3   OH276137   1.039   5.341   1.255  0.4790  0.0644  0.1288
18241TIP3    H176138   1.076   5.424   1.285 -0.7453  0.4563  0.6038
18241TIP3    H276139   1.094   5.274   1.295  1.8464  0.6368 -0.7316
18242TIP3   OH276140   5.807   1.151  15.433  0.3981  0.4062  0.0596
18242TIP3    H176141   5.825   1.071  15.384 -0.1394 -0.7102  1.6035
18242TIP3    H276142   5.796   1.219  15.366  0.0652 -0.9715 -1.3317
18243TIP3   OH276143   0.995   4.809   3.831 -0.3088  0.2123  0.0250
18243TIP3    H176144   0.924   4.871   3.819  1.0594  1.9833  0.5716
18243TIP3    H276145   1.073   4.855   3.800  0.7086 -1.4118  0.0414
18244TIP3   OH276146   5.367   0.244   0.554 -0.2498  0.0608 -0.1339
18244TIP3    H176147   5.352   0.171   0.614 -0.0800 -0.1525 -0.3491
18244TIP3    H276148   5.452   0.226   0.515 -1.0077 -0.5966 -1.5570
18245TIP3   OH276149   4.731   5.120   0.691  0.0728 -0.3631  0.4153
18245TIP3    H176150   4.782   5.150   0.766 -1.9661  1.5688  1.1180
18245TIP3    H276151   4.756   5.180   0.620 -0.2526 -0.2645  0.3861
18246TIP3   OH276152   3.273   1.332  16.394 -0.0736 -0.0950 -0.2300
18246TIP3    H176153   3.305   1.262  16.451 -0.8596 -0.5305 -0.3066
18246TIP3    H276154   3.193   1.362  16.437  0.7425  1.4226  0.3130
18247TIP3   OH276155   6.596   4.684   5.206 -0.2762  0.0609 -0.0980
18247TIP3    H176156   6.544   4.605   5.191 -0.5864  0.2369  0.0174
18247TIP3    H276157   6.572   4.742   5.133 -3.4031  1.7545  1.9907
18248TIP3   OH276158   5.190   5.498   2.849 -0.4296 -0.7041  0.3381
18248TIP3    H176159   5.285   5.499   2.864 -0.2441 -2.3724 -0.4466
18248TIP3    H276160   5.179   5.438   2.775 -2.1293 -0.7097  0.5692
18249TIP3   OH276161   3.956   5.892   3.659 -0.2835 -0.3730  0.7460
18249TIP3    H176162   4.017   5.856   3.594 -1.2165 -1.5884  0.5053
18249TIP3    H276163   4.003   5.886   3.742  1.4925  2.5463  0.0580
18250TIP3   OH276164   1.373   2.059  12.153  0.1291  1.0134  0.2339
18250TIP3    H176165   1.365   2.090  12.243 -0.6035  1.0818  0.1496
18250TIP3    H276166   1.370   1.963  12.161 -2.2798  1.0279  0.1033
18251TIP3   OH276167   3.592   6.023  12.088 -0.0056  0.1936  0.0759
18251TIP3    H176168   3.612   6.094  12.149  0.7957  1.4909 -1.6079
18251TIP3    H276169   3.672   5.972  12.083  0.3880  0.8593 -0.8232
18252TIP3   OH276170   2.066   4.069  13.904 -0.1059 -0.0609 -0.2520
18252TIP3    H176171   2.111   4.044  13.824 -3.0527 -0.3567 -1.9595
18252TIP3    H276172   2.094   4.159  13.920 -1.1451  0.8443 -2.9977
18253TIP3   OH276173   1.380   0.196   4.722 -0.1638  0.4975 -0.3037
18253TIP3    H176174   1.371   0.197   4.818 -3.3456  0.8390 -0.4952
18253TIP3    H276175   1.473   0.212   4.706  0.1655  2.3058  2.6855
18254TIP3   OH276176   0.560   5.752  15.825 -0.2225 -0.6511 -0.3327
18254TIP3    H176177   0.574   5.787  15.914  1.1159 -0.7773 -0.4745
18254TIP3    H276178   0.543   5.829  15.772  1.6613 -0.2475 -0.4411
18255TIP3   OH276179   5.515   5.572   4.099 -0.0872 -0.3085 -0.3185
18255TIP3    H176180   5.566   5.524   4.165 -0.2653  0.3208  0.2937
18255TIP3    H276181   5.451   5.508   4.067  0.7277 -0.9502 -0.7011
18256TIP3   OH276182   2.059   1.742   0.493  0.2799 -0.0096  0.4499
18256TIP3    H176183   2.019   1.825   0.468  1.3497  0.9196  1.6895
18256TIP3    H276184   2.002   1.676   0.455 -0.5501  1.2841 -0.6466
18257TIP3   OH276185   5.324   4.888   3.267 -0.0238 -0.0582 -0.3060
18257TIP3    H176186   5.412   4.851   3.273 -0.4297 -1.2375 -1.3173
18257TIP3    H276187   5.270   4.831   3.322 -0.1445  0.7729  0.4652
18258TIP3   OH276188   0.634   3.210  15.545 -0.1624  0.6356 -0.3685
18258TIP3    H176189   0.662   3.190  15.634 -1.3592 -1.6180 -0.4187
18258TIP3    H276190   0.591   3.295  15.552  1.5315  1.4640  0.7595
18259TIP3   OH276191   0.647   5.054   6.091 -0.3359 -0.8165 -0.3847
18259TIP3    H176192   0.725   5.108   6.101 -0.7849  0.0686 -1.4670
18259TIP3    H276193   0.577   5.104   6.133 -0.8577 -0.2601 -1.8320
18260TIP3   OH276194   6.350   2.203   1.899 -0.3491  0.2943 -0.0651
18260TIP3    H176195   6.332   2.233   1.810 -1.8205 -0.7456 -0.1565
18260TIP3    H276196   6.397   2.275   1.940  1.0009  0.5338 -1.8794
18261TIP3   OH276197   5.293   0.958   1.517  0.2419 -0.7660 -0.5006
18261TIP3    H176198   5.230   1.013   1.471  0.2332  0.8304  1.2984
18261TIP3    H276199   5.244   0.879   1.541 -0.3190 -0.6849 -1.3610
18262TIP3   OH276200   0.479   1.240  10.932  1.0114  0.4928  0.2418
18262TIP3    H176201   0.489   1.182  10.856  1.8522  0.4493  0.3830
18262TIP3    H276202   0.487   1.328  10.895  1.6000  0.4667  0.3056
18263TIP3   OH276203   1.618   3.787  15.420 -0.4005  0.1418 -0.2319
18263TIP3    H176204   1.706   3.823  15.407  0.0403 -0.6431  0.4561
18263TIP3    H276205   1.561   3.863  15.423  0.1587  0.6267 -1.3749
18264TIP3   OH276206   5.515   4.475   4.709 -0.0665  0.1180  0.0969
18264TIP3    H176207   5.504   4.569   4.701  0.3113  0.1501 -0.0627
18264TIP3    H276208   5.602   4.465   4.748 -0.3489 -0.1439  0.6737
18265TIP3   OH276209   2.067   1.495  13.144 -0.1244 -0.4044 -0.0052
18265TIP3    H176210   2.050   1.565  13.207 -0.2328 -0.8705  0.4869
18265TIP3    H276211   2.086   1.541  13.062 -1.3962  0.1856  0.0085
18266TIP3   OH276212   0.291   2.020   5.012  0.6828 -0.5141 -0.8444
18266TIP3    H176213   0.227   1.989   5.076  0.8099  0.7442 -0.0921
18266TIP3    H276214   0.261   1.982   4.929 -0.0318 -1.3658 -0.2213
18267TIP3   OH276215   6.116   4.211  16.268  0.1592 -0.0907  0.2298
18267TIP3    H176216   6.142   4.218  16.360  1.1972 -0.7336  0.0015
18267TIP3    H276217   6.189   4.249  16.219 -0.9103  1.3681 -0.2975
18268TIP3   OH276218   2.305   2.598  14.380 -0.2464  0.1879 -0.6798
18268TIP3    H176219   2.386   2.574  14.336  0.9830  3.4423 -0.4411
18268TIP3    H276220   2.237   2.589  14.313  0.1752 -2.6665 -0.8631
18269TIP3   OH276221   4.802   1.576  17.123 -0.1918 -0.1766  0.0034
18269TIP3    H176222   4.866   1.565  17.053  0.4144  1.0174  0.3580
18269TIP3    H276223   4.718   1.558  17.080  0.1059  1.1011 -1.2063
18270TIP3   OH276224   3.063   1.914  15.747 -0.1498  0.0054 -0.6602
18270TIP3    H176225   2.982   1.957  15.775  0.2632  0.3869 -0.0320
18270TIP3    H276226   3.132   1.958  15.795  0.4464 -0.2950 -1.2172
18271TIP3   OH276227   0.894   0.984  12.167  0.0100 -0.1427 -0.4999
18271TIP3    H176228   0.929   1.070  12.190  0.9767 -0.5697 -0.3093
18271TIP3    H276229   0.948   0.922  12.217 -0.3607 -0.8799 -0.9915
18272TIP3   OH276230   0.481   3.913  15.184  0.5354  0.4460 -0.0560
18272TIP3    H176231   0.437   3.830  15.199  0.7580  0.3528  0.0746
18272TIP3    H276232   0.438   3.974  15.244 -1.8957  1.2256 -2.3610
18273TIP3   OH276233   5.188   3.742   3.229 -0.4236 -0.0002  0.9783
18273TIP3    H176234   5.277   3.753   3.263 -0.1739 -2.2860  1.2295
18273TIP3    H276235   5.198   3.738   3.134 -0.5833  1.9936  0.8365
18274TIP3   OH276236   4.225   0.128  10.587  0.1546  0.0591 -0.4547
18274TIP3    H176237   4.198   0.090  10.671 -0.5994  3.2323  0.8663
18274TIP3    H276238   4.313   0.162  10.604  0.0363  0.6277 -0.9534
18275TIP3   OH276239   3.941   4.453  14.942  0.3044  0.6032 -0.5081
18275TIP3    H176240   4.018   4.399  14.928 -0.2224 -0.6025  0.9639
18275TIP3    H276241   3.911   4.430  15.030 -2.7921 -0.3376 -1.6841
18276TIP3   OH276242   4.363   5.285  12.533  0.5057  0.2032  0.2317
18276TIP3    H176243   4.427   5.251  12.470  0.4044 -0.0477  0.2650
18276TIP3    H276244   4.416   5.315  12.607  0.5309 -0.8158  0.6412
18277TIP3   OH276245   4.429   4.910   5.157 -0.9930 -0.4962 -0.0647
18277TIP3    H176246   4.454   4.932   5.067 -1.8050 -2.2344 -0.7732
18277TIP3    H276247   4.394   4.992   5.193 -0.5674  0.2523 -1.2815
18278TIP3   OH276248   5.462   6.630   4.238 -0.1363  0.1180  0.6503
18278TIP3    H176249   5.411   6.649   4.317 -0.6586  0.6861  0.1821
18278TIP3    H276250   5.553   6.633   4.267 -0.3421 -0.4632  1.3995
18279TIP3   OH276251   3.944   1.351  14.382  0.1024 -0.2929  0.3572
18279TIP3    H176252   4.040   1.352  14.372 -0.0785  0.6576 -2.1934
18279TIP3    H276253   3.926   1.417  14.449  1.1695  1.1351 -0.6791
18280TIP3   OH276254   2.191   1.831   1.614  0.2948 -0.4255 -0.3588
18280TIP3    H176255   2.277   1.794   1.594  0.2125 -0.6615 -0.2794
18280TIP3    H276256   2.206   1.886   1.691  0.3219 -0.6835 -0.1780
18281TIP3   OH276257   4.075   3.964  14.458 -0.3739  0.0327 -0.2043
18281TIP3    H176258   4.142   3.913  14.504  0.6708  0.7142 -0.9200
18281TIP3    H276259   4.017   3.899  14.419 -0.4519 -0.5679  0.8866
18282TIP3   OH276260   6.045   0.696  11.283  0.1403  0.1449  0.0806
18282TIP3    H176261   6.081   0.767  11.337 -1.6584  0.4648  0.9402
18282TIP3    H276262   5.985   0.741  11.223 -1.0447 -0.6414  0.6576
18283TIP3   OH276263   3.111   3.899  10.182 -0.3514  0.2851  0.4850
18283TIP3    H176264   3.199   3.906  10.144 -0.6422  0.4954 -0.1625
18283TIP3    H276265   3.064   3.840  10.123 -1.0492  1.2511  0.0476
18284TIP3   OH276266   5.272   1.158   3.602 -0.2439  0.0844 -0.0789
18284TIP3    H176267   5.337   1.224   3.578 -0.2197  0.0916  0.0036
18284TIP3    H276268   5.190   1.206   3.609  0.1105  0.4863  1.8808
18285TIP3   OH276269   4.230   0.795   1.186 -0.0484  0.4669 -0.0617
18285TIP3    H176270   4.162   0.730   1.204  1.3942 -0.9667  0.4604
18285TIP3    H276271   4.232   0.803   1.090 -1.2053  0.8369 -0.0630
18286TIP3   OH276272   0.641   0.733   1.852 -0.3594  0.0738  0.7840
18286TIP3    H176273   0.733   0.720   1.830 -0.5400 -2.7169  1.3068
18286TIP3    H276274   0.599   0.753   1.768  0.4336 -0.4960  0.2371
18287TIP3   OH276275   0.351   1.806   0.476  0.8464 -0.1241  0.7166
18287TIP3    H176276   0.291   1.766   0.413 -0.7219  1.7391  0.9569
18287TIP3    H276277   0.429   1.827   0.424  0.2609 -0.1837 -0.2116
18288TIP3   OH276278   5.120   0.983  16.270  0.1420  0.8094 -0.6458
18288TIP3    H176279   5.200   0.939  16.298  0.3477  3.3068  3.5535
18288TIP3    H276280   5.148   1.072  16.248 -1.3309  1.4851  0.0818
18289TIP3   OH276281   0.489   0.851   4.880 -0.0488 -0.0257  0.4308
18289TIP3    H176282   0.413   0.802   4.850 -1.5060  3.0388 -1.2998
18289TIP3    H276283   0.553   0.843   4.809 -1.2150  2.3353 -1.0150
18290TIP3   OH276284   2.356   3.956  14.008  0.5861 -0.6514  0.4047
18290TIP3    H176285   2.280   3.972  13.951  0.9649  0.3651  0.1520
18290TIP3    H276286   2.425   3.926  13.948  1.7411  2.7238 -0.1778
18291TIP3   OH276287   5.884   3.942   2.646 -0.0515 -0.1422  0.2235
18291TIP3    H176288   5.946   3.891   2.595 -0.9526 -1.3033  0.2486
18291TIP3    H276289   5.892   3.907   2.735 -1.2083 -0.7791  0.0901
18292TIP3   OH276290   5.180   3.580   2.309  0.3434  0.1295 -0.0588
18292TIP3    H176291   5.158   3.645   2.243 -0.9479 -0.4078 -0.2082
18292TIP3    H276292   5.268   3.602   2.338  0.1470  1.5821 -0.5166
18293TIP3   OH276293   3.094   6.418  14.396  0.3743  0.2442 -0.0132
18293TIP3    H176294   3.132   6.342  14.440 -0.2392 -1.4359 -2.2102
18293TIP3    H276295   3.009   6.430  14.437  0.7571  0.1832  0.8075
18294TIP3   OH276296   3.197   3.437  15.994  0.0638 -0.1289  0.5376
18294TIP3    H176297   3.261   3.500  15.960 -0.4973 -0.4418 -1.2146
18294TIP3    H276298   3.247   3.381  16.054  0.6774  1.6356  1.7524
18295TIP3   OH276299   3.681   4.486  15.347 -0.0486  0.2966 -0.1156
18295TIP3    H176300   3.740   4.553  15.383 -0.4842  0.3403  0.5345
18295TIP3    H276301   3.594   4.523  15.360 -0.6514 -1.9499  3.8585
18296TIP3   OH276302   0.093   3.097  13.669 -0.3130 -0.3855 -0.0374
18296TIP3    H176303   0.030   3.130  13.733  0.0557  0.2424  0.0036
18296TIP3    H276304   0.136   3.024  13.714  2.3894  2.1246  1.8173
18297TIP3   OH276305   1.384   5.835  15.602 -0.6293 -0.1999 -0.2060
18297TIP3    H176306   1.411   5.743  15.601 -1.0088 -0.3319  0.7177
18297TIP3    H276307   1.409   5.865  15.689 -1.3975  0.3052 -0.1588
18298TIP3   OH276308   5.976   1.504  14.710  0.2291  0.5614 -0.1582
18298TIP3    H176309   6.026   1.499  14.629  0.5064 -0.8795  0.0713
18298TIP3    H276310   6.003   1.427  14.760  1.1349  2.1484  1.9417
18299TIP3   OH276311   3.300   0.840   1.005  1.1098  0.5829  0.3377
18299TIP3    H176312   3.245   0.916   1.028  0.7149  0.8417 -1.3403
18299TIP3    H276313   3.238   0.767   1.000  1.7373 -0.3883  3.8890
18300TIP3   OH276314   6.111   2.302   0.209  0.3842 -0.5228 -0.0423
18300TIP3    H176315   6.091   2.386   0.167 -0.8468 -1.1576 -0.7965
18300TIP3    H276316   6.092   2.316   0.301 -2.2931 -0.6465 -0.5021
18301TIP3   OH276317   3.579   2.176  10.728  0.0943  0.0136 -0.2154
18301TIP3    H176318   3.617   2.153  10.643  1.5643  0.3023  0.3505
18301TIP3    H276319   3.653   2.177  10.788 -1.0888 -1.3786  1.3459
18302TIP3   OH276320   5.757   5.215  16.197  0.6672 -0.4105  0.0676
18302TIP3    H176321   5.726   5.127  16.174  0.2749 -0.1768 -0.3098
18302TIP3    H276322   5.743   5.220  16.292  0.6118 -0.7254  0.0796
18303TIP3   OH276323   6.184   2.333   6.397  0.0585  0.4891  0.2979
18303TIP3    H176324   6.125   2.265   6.366 -1.1158  1.6911 -0.2229
18303TIP3    H276325   6.265   2.287   6.419 -0.6558 -1.0365 -0.1403
18304TIP3   OH276326   1.323   0.232   5.365 -0.3682 -0.6400 -0.3833
18304TIP3    H176327   1.292   0.237   5.455 -2.4437 -0.8950 -1.0163
18304TIP3    H276328   1.355   0.320   5.345 -1.6314 -0.0470  0.0566
18305TIP3   OH276329   0.691   0.647   0.400  0.0043 -0.6597 -0.4956
18305TIP3    H176330   0.632   0.719   0.378 -0.8132 -1.2101 -0.1521
18305TIP3    H276331   0.756   0.686   0.458 -0.7657 -0.3178  0.1572
18306TIP3   OH276332   3.836   5.400  17.043 -0.0709  0.2705 -0.3464
18306TIP3    H176333   3.801   5.315  17.070  0.0347  0.2552 -0.2599
18306TIP3    H276334   3.914   5.380  16.991 -0.4087  0.2895 -0.8676
18307TIP3   OH276335   3.336   2.066   5.258 -0.5616  0.4269 -0.0382
18307TIP3    H176336   3.428   2.088   5.246 -0.1909 -1.3924 -1.0234
18307TIP3    H276337   3.326   2.056   5.353  0.7082 -0.8958  0.0047
18308TIP3   OH276338   5.906   2.308   0.852  0.2008 -0.5234  0.2751
18308TIP3    H176339   5.863   2.223   0.840 -0.0104 -0.2575 -0.9817
18308TIP3    H276340   5.996   2.286   0.876 -0.2579 -1.0878  1.5507
18309TIP3   OH276341   2.338   1.899   2.711  0.2310  0.1492  0.2020
18309TIP3    H176342   2.391   1.822   2.689  0.2199  0.3901 -0.6968
18309TIP3    H276343   2.398   1.955   2.761  0.8054  0.3626 -0.6973
18310TIP3   OH276344   2.144   2.253  15.529 -0.4438 -0.4477  0.1138
18310TIP3    H176345   2.105   2.213  15.452 -0.5753  2.0606 -1.2167
18310TIP3    H276346   2.152   2.346  15.507 -0.6376  0.4080  3.1926
18311TIP3   OH276347   5.088   3.772  12.150 -0.1311  0.6000  0.2035
18311TIP3    H176348   5.155   3.707  12.176  1.4388  1.4059 -1.6320
18311TIP3    H276349   5.129   3.856  12.168 -1.6302  1.1388  1.2727
18312TIP3   OH276350   4.717   0.848  16.067 -0.1295  0.3430 -0.6179
18312TIP3    H176351   4.689   0.927  16.112 -1.6737 -0.7123  0.3435
18312TIP3    H276352   4.795   0.875  16.018 -0.3922  2.3434 -0.0164
18313TIP3   OH276353   6.443   2.367  16.250 -0.3039  0.3903 -0.0066
18313TIP3    H176354   6.417   2.445  16.201  0.0863  0.0584 -0.7760
18313TIP3    H276355   6.497   2.400  16.321  1.3647  0.7410 -1.3543
18314TIP3   OH276356   3.730   2.619  13.310 -0.1125 -0.2707  0.2547
18314TIP3    H176357   3.773   2.653  13.231  0.3195 -1.2931  0.0335
18314TIP3    H276358   3.729   2.693  13.370 -1.2078  0.7943 -1.0006
18315TIP3   OH276359   0.505   1.840  15.452  0.0826  0.5896  0.5459
18315TIP3    H176360   0.546   1.754  15.464  0.5584  0.6317 -0.6507
18315TIP3    H276361   0.426   1.837  15.507 -0.6284 -1.1141 -0.4922
18316TIP3   OH276362   5.984   0.634   0.760 -0.6594  0.6049 -0.1388
18316TIP3    H176363   5.890   0.649   0.764 -1.0786 -1.5292 -0.6750
18316TIP3    H276364   6.012   0.679   0.680 -1.0048  2.0886  0.5384
18317TIP3   OH276365   1.204   1.246   3.619 -0.2979  0.2546  0.3322
18317TIP3    H176366   1.209   1.313   3.687  0.1685  1.4487 -0.8106
18317TIP3    H276367   1.225   1.294   3.538 -0.9919 -1.0661 -0.6642
18318TIP3   OH276368   2.910   2.415  14.358 -0.0941  0.3836  0.9054
18318TIP3    H176369   2.818   2.432  14.375 -0.7956 -2.4694  0.4848
18318TIP3    H276370   2.949   2.404  14.445 -0.8349 -1.2256  1.0764
18319TIP3   OH276371   0.715   4.891  11.848 -0.0181  0.3863  0.4160
18319TIP3    H176372   0.805   4.889  11.815 -0.4787 -2.2455 -0.9231
18319TIP3    H276373   0.696   4.985  11.859  2.1136  1.1277 -1.4043
18320TIP3   OH276374   4.026   0.711   6.545  0.1039  0.5719 -0.1207
18320TIP3    H176375   3.944   0.675   6.511 -0.9803  1.0485  1.8783
18320TIP3    H276376   4.088   0.638   6.539 -1.0122 -0.4317  0.2388
18321TIP3   OH276377   1.758   5.082  12.325  0.0278 -0.0709  0.4970
18321TIP3    H176378   1.699   5.007  12.329 -0.8703  0.4904 -1.1766
18321TIP3    H276379   1.819   5.060  12.255 -0.7898  1.0921 -0.6223
18322TIP3   OH276380   6.353   4.887  15.730 -0.5078 -0.1392  0.3117
18322TIP3    H176381   6.423   4.946  15.700 -0.1832  0.0203  1.3361
18322TIP3    H276382   6.376   4.802  15.694 -1.3330  0.4648 -1.7403
18323TIP3   OH276383   0.424   6.550   0.581 -0.6433 -0.4283 -0.7139
18323TIP3    H176384   0.388   6.630   0.541  0.3194  0.6327  0.4527
18323TIP3    H276385   0.426   6.487   0.510 -1.1451  0.6866 -1.7595
18324TIP3   OH276386   1.807   4.380  11.693  0.7482  0.0658  0.4838
18324TIP3    H176387   1.888   4.410  11.735  0.7946 -0.2417  0.6111
18324TIP3    H276388   1.795   4.291  11.724  1.5190 -0.6603 -1.1830
18325TIP3   OH276389   3.673   5.722   4.140  0.1690 -0.2078  0.2739
18325TIP3    H176390   3.662   5.627   4.134 -1.4440 -0.1825  1.8207
18325TIP3    H276391   3.626   5.746   4.221  0.8891  1.8519  0.1341
18326TIP3   OH276392   3.857   5.066   1.412 -0.0277 -0.3131 -0.5254
18326TIP3    H176393   3.893   5.114   1.486  1.9610 -0.2291 -1.4745
18326TIP3    H276394   3.779   5.117   1.387  0.5721  0.9638  0.0850
18327TIP3   OH276395   0.331   5.236   0.981  0.8244 -0.1072 -0.0868
18327TIP3    H176396   0.286   5.317   1.008  1.6058  0.6214 -0.8776
18327TIP3    H276397   0.262   5.170   0.980  0.6555 -0.1229  3.1996
18328TIP3   OH276398   2.789   2.486   1.189  0.1612 -0.2747 -0.1134
18328TIP3    H176399   2.874   2.527   1.172  0.7857 -1.1189  0.8621
18328TIP3    H276400   2.772   2.434   1.110  0.0913  0.6183 -0.7032
18329TIP3   OH276401   3.328   4.730   0.840  0.2915  0.0744  0.1914
18329TIP3    H176402   3.257   4.763   0.785 -1.6185 -2.2726  1.0475
18329TIP3    H276403   3.385   4.682   0.779 -0.2788 -0.1752 -0.1488
18330TIP3   OH276404   2.910   1.406   3.599 -0.0932  0.3450  0.0254
18330TIP3    H176405   2.822   1.402   3.635 -0.7133  1.3406 -1.2971
18330TIP3    H276406   2.953   1.326   3.630 -2.3684 -1.6351 -1.6432
18331TIP3   OH276407   0.266   1.300   5.467  0.4605  0.0943  0.3058
18331TIP3    H176408   0.222   1.267   5.546  1.1005 -1.2298  0.1337
18331TIP3    H276409   0.196   1.336   5.414 -0.5617 -2.4428 -0.2031
18332TIP3   OH276410   2.099   4.222  15.893 -0.2264 -0.0060  0.2134
18332TIP3    H176411   2.185   4.180  15.896  0.2246  0.9456  1.9524
18332TIP3    H276412   2.106   4.286  15.822  0.9924  0.9888  1.1726
18333TIP3   OH276413   0.008   4.520  15.901  0.1082  0.8164 -0.2712
18333TIP3    H176414  -0.052   4.446  15.913  0.8939  0.1245 -0.5626
18333TIP3    H276415   0.021   4.554  15.990  0.0701  0.3444 -0.0784
18334TIP3   OH276416   5.291   4.127  14.093 -0.0517  0.6552  0.0229
18334TIP3    H176417   5.262   4.200  14.038  0.4142  0.3438 -0.6558
18334TIP3    H276418   5.386   4.123  14.080  0.0306  0.4120  0.6550
18335TIP3   OH276419   0.265   0.238   4.362 -0.5888  0.2764  0.1558
18335TIP3    H176420   0.318   0.317   4.348 -0.0691 -0.2218 -0.7812
18335TIP3    H276421   0.327   0.166   4.353 -1.3980 -0.3204 -0.8517
18336TIP3   OH276422   0.249   1.168   1.788 -0.4000 -0.1574 -0.5218
18336TIP3    H176423   0.295   1.144   1.707 -2.6533 -1.7506 -1.4647
18336TIP3    H276424   0.194   1.242   1.763  0.2749  0.5724  0.1019
18337TIP3   OH276425   6.131   6.503   0.174 -0.1618  0.1052 -0.3533
18337TIP3    H176426   6.210   6.487   0.122 -0.2468  0.2356 -0.5227
18337TIP3    H276427   6.104   6.592   0.151 -0.1741  0.1795 -0.0507
18338TIP3   OH276428   5.319   3.228  14.345  0.3120  0.0914  0.6468
18338TIP3    H176429   5.271   3.311  14.348 -0.6647 -0.4741  2.5899
18338TIP3    H276430   5.408   3.251  14.371 -0.0428  0.4922  1.5398
18339TIP3   OH276431   1.479   3.501   5.035 -0.1508  0.1652  0.4831
18339TIP3    H176432   1.458   3.486   4.942 -2.0786  0.9490  0.7446
18339TIP3    H276433   1.495   3.595   5.041  0.5700  0.0223  0.8484
18340TIP3   OH276434   0.083   6.337  15.836 -0.0687 -0.5816 -0.5673
18340TIP3    H176435  -0.002   6.307  15.806  1.6043 -2.5414 -3.9364
18340TIP3    H276436   0.074   6.432  15.841 -2.3165 -0.7042 -1.2082
18341TIP3   OH276437   3.620   2.589  12.274 -0.2259  0.0493 -0.8202
18341TIP3    H176438   3.615   2.555  12.184 -0.2451 -0.9412 -0.4592
18341TIP3    H276439   3.678   2.528  12.319 -1.8743 -0.7131  0.3783
18342TIP3   OH276440   6.504   5.002   4.798  0.4102 -0.2044  0.6764
18342TIP3    H176441   6.599   4.999   4.788  0.4913  0.9452  0.9686
18342TIP3    H276442   6.480   5.093   4.777 -0.4968 -0.2041  1.6246
18343TIP3   OH276443   5.193   1.668  16.007  0.0318 -0.0252  0.2334
18343TIP3    H176444   5.194   1.674  16.102  0.8249  0.0386  0.2225
18343TIP3    H276445   5.100   1.677  15.984 -0.0324  1.2647  0.9195
18344TIP3   OH276446   4.546   3.419  11.095 -0.2372  0.0326  0.5298
18344TIP3    H176447   4.528   3.343  11.041 -1.2117  0.2035  0.5886
18344TIP3    H276448   4.582   3.484  11.035 -1.5853  0.3264 -0.0063
18345TIP3   OH276449   4.014   3.890   1.683 -0.3938 -0.5853  0.1965
18345TIP3    H176450   3.933   3.839   1.685 -1.0991  0.3490 -1.6539
18345TIP3    H276451   4.074   3.838   1.629 -0.5548 -0.2259 -0.3354
18346TIP3   OH276452   4.779   0.700  12.589 -0.1364 -0.5252 -0.5467
18346TIP3    H176453   4.861   0.702  12.639 -0.7306  0.0278  0.4450
18346TIP3    H276454   4.803   0.662  12.505  0.6191 -2.8738  0.6605
18347TIP3   OH276455   4.050   4.347  15.643  0.3337  0.6529 -0.0854
18347TIP3    H176456   3.993   4.412  15.684 -0.8673 -0.0644 -0.5553
18347TIP3    H276457   4.131   4.350  15.694 -0.1303  1.6758  0.6231
18348TIP3   OH276458   5.756   3.650   5.066  0.0169 -0.5384 -0.3629
18348TIP3    H176459   5.696   3.723   5.082  0.9230 -0.1362  1.5144
18348TIP3    H276460   5.843   3.688   5.076  0.5011 -1.9374  1.0996
18349TIP3   OH276461   0.502   4.171  11.899  0.4271 -0.1978  0.5420
18349TIP3    H176462   0.581   4.131  11.862  0.2368  1.1937 -1.5136
18349TIP3    H276463   0.471   4.230  11.831 -0.8640  1.3642  2.3827
18350TIP3   OH276464   6.597   6.244   3.273 -0.4868 -0.0181 -0.1797
18350TIP3    H176465   6.625   6.180   3.208 -0.2442  0.6046 -0.6981
18350TIP3    H276466   6.541   6.195   3.333  0.9301 -1.0789  0.3300
18351TIP3   OH276467   5.344   0.102  12.836 -0.3284  0.5580  0.0913
18351TIP3    H176468   5.347   0.188  12.793  0.5115 -0.5395 -2.1697
18351TIP3    H276469   5.253   0.074  12.826 -0.3055  0.6292 -0.3500
18352TIP3   OH276470   4.881   4.193  16.170  0.0545 -1.2717  0.4582
18352TIP3    H176471   4.828   4.116  16.151  0.4273 -1.3875 -0.1385
18352TIP3    H276472   4.852   4.259  16.107  0.0150 -1.0537  0.7027
18353TIP3   OH276473   1.049   1.894   4.605  0.1573  0.1337 -0.1502
18353TIP3    H176474   1.104   1.890   4.683 -3.4209 -1.2646  2.5571
18353TIP3    H276475   1.010   1.981   4.608 -2.7929 -1.1090  1.9495
18354TIP3   OH276476   4.833   0.826   5.108 -0.7300  0.0209 -0.2608
18354TIP3    H176477   4.887   0.901   5.086 -0.4164 -0.2318 -0.3606
18354TIP3    H276478   4.868   0.754   5.055 -1.6882  0.0422 -0.9552
18355TIP3   OH276479   4.671   5.733  17.001 -0.7860  0.0708 -0.9270
18355TIP3    H176480   4.693   5.761  16.912  1.0820 -0.1292 -0.5820
18355TIP3    H276481   4.756   5.727  17.045 -1.4884 -1.8868  0.2717
18356TIP3   OH276482   5.199   0.110  16.602 -0.8137  0.3160 -0.0363
18356TIP3    H176483   5.253   0.090  16.679 -0.4481 -1.9510 -0.7946
18356TIP3    H276484   5.109   0.113  16.636 -0.8065 -1.9837  0.3511
18357TIP3   OH276485   2.880   1.989   6.454  0.2433 -0.0198 -0.0377
18357TIP3    H176486   2.921   2.044   6.388  0.4175  1.0038  0.8902
18357TIP3    H276487   2.794   1.967   6.418  0.5874 -0.0343 -0.8771
18358TIP3   OH276488   3.479   0.884   6.217  0.2613  0.0590  0.2748
18358TIP3    H176489   3.504   0.895   6.309  0.0879 -1.8034  0.5886
18358TIP3    H276490   3.384   0.893   6.217  0.3465  0.9937  0.1138
18359TIP3   OH276491   3.974   5.201   5.669  0.5294 -0.0678  0.5562
18359TIP3    H176492   3.950   5.294   5.668 -1.0524 -0.4323  1.3567
18359TIP3    H276493   4.034   5.193   5.743  0.3648  0.2567  0.7289
18360TIP3   OH276494   3.334   4.403  11.693 -0.2168 -0.4424  0.0340
18360TIP3    H176495   3.373   4.400  11.781 -0.9788 -3.2983  0.3663
18360TIP3    H276496   3.364   4.323  11.651 -2.0235 -0.4456 -1.3513
18361TIP3   OH276497   4.347   2.413  11.567  0.4138  0.4645 -0.1196
18361TIP3    H176498   4.411   2.360  11.521  0.6020  0.9260 -0.3950
18361TIP3    H276499   4.346   2.377  11.656 -0.1497 -0.5997 -0.5378
18362TIP3   OH276500   5.174   6.695  11.746 -0.4284  0.9997 -0.1127
18362TIP3    H176501   5.235   6.693  11.672  0.1005 -0.6109  0.3313
18362TIP3    H276502   5.098   6.644  11.716 -0.1398  0.1894  0.4870
18363TIP3   OH276503   3.148   4.346  11.415  0.3730  0.4352  0.2399
18363TIP3    H176504   3.073   4.405  11.401 -0.0755 -0.3607 -0.9182
18363TIP3    H276505   3.141   4.282  11.344  1.3183 -0.5326  0.9882
18364TIP3   OH276506   6.187   4.549  16.006  0.3249 -0.2313 -0.1997
18364TIP3    H176507   6.208   4.641  16.024  0.3766 -0.3093  0.1426
18364TIP3    H276508   6.237   4.500  16.071 -1.4179 -0.3890  1.0881
18365TIP3   OH276509   2.545   3.753   3.564  0.0131 -0.0607 -0.6472
18365TIP3    H176510   2.524   3.715   3.478  2.3313  0.0862 -1.3511
18365TIP3    H276511   2.558   3.678   3.621  1.8438 -0.3134 -1.3370
18366TIP3   OH276512   1.447   1.537   3.975  0.1511  0.5114 -0.1778
18366TIP3    H176513   1.485   1.533   4.063 -0.2164 -1.0475 -0.0563
18366TIP3    H276514   1.509   1.489   3.920 -0.4534  0.0131 -0.4325
18367TIP3   OH276515   4.870   4.369   3.492  0.4806  0.0669 -0.0593
18367TIP3    H176516   4.822   4.289   3.474 -0.9582  0.6875  0.7808
18367TIP3    H276517   4.914   4.352   3.576  0.8073 -0.1054 -0.2640
18368TIP3   OH276518   3.202   6.578  11.133  0.0221  0.1385 -0.6408
18368TIP3    H176519   3.132   6.643  11.127 -1.7046 -1.5287  0.5343
18368TIP3    H276520   3.166   6.509  11.189  2.3316 -1.1530 -0.6492
18369TIP3   OH276521   3.080   3.010  11.273  0.2086  0.1319 -0.3454
18369TIP3    H176522   3.127   3.062  11.338  2.4432  0.6454 -2.2331
18369TIP3    H276523   2.991   3.045  11.274  0.4451  0.8128  1.6408
18370TIP3   OH276524   4.116   3.725   1.433  0.5940  0.0010 -0.6841
18370TIP3    H176525   4.087   3.750   1.345  1.9705 -0.5763 -1.3420
18370TIP3    H276526   4.210   3.709   1.423  0.5448 -1.2789  0.6256
18371TIP3   OH276527   2.758   0.727  16.894 -0.3298 -0.0009  0.3785
18371TIP3    H176528   2.799   0.666  16.955  0.3132  1.8993  1.9452
18371TIP3    H276529   2.777   0.691  16.808 -0.8470 -2.5190  1.2184
18372TIP3   OH276530   6.570   6.512   1.067 -0.2100 -0.2368  0.2267
18372TIP3    H176531   6.615   6.428   1.076  1.2131  0.1027 -2.5461
18372TIP3    H276532   6.488   6.491   1.022 -1.3589 -0.4419  2.2992
18373TIP3   OH276533   4.503   3.988   0.488 -0.1125 -0.7258 -0.3935
18373TIP3    H176534   4.485   3.982   0.582 -0.7012  0.4405 -0.4077
18373TIP3    H276535   4.483   3.900   0.454 -0.6888 -0.9356  0.4475
18374TIP3   OH276536   0.251   0.824   2.842  0.2367 -0.3127 -0.1733
18374TIP3    H176537   0.284   0.839   2.753 -1.6184 -1.1829 -1.0477
18374TIP3    H276538   0.206   0.905   2.865 -0.5211 -0.6107 -0.6043
18375TIP3   OH276539   3.164   0.444   0.567  0.1957 -0.1362  0.1342
18375TIP3    H176540   3.195   0.473   0.481  2.2985  0.4983  1.0508
18375TIP3    H276541   3.234   0.387   0.601 -2.8316 -4.9908 -0.7124
18376TIP3   OH276542   6.698   0.978   5.283  0.0894  0.0075 -0.1604
18376TIP3    H176543   6.613   1.020   5.299 -0.2139 -1.5399  3.3880
18376TIP3    H276544   6.762   1.042   5.314  0.0075  0.0338 -0.0442
18377TIP3   OH276545   1.825   4.669   4.861 -0.0019  0.2117  0.1318
18377TIP3    H176546   1.905   4.634   4.903  0.4559  1.2545  0.1463
18377TIP3    H276547   1.776   4.709   4.933  0.5167  1.5061 -0.2101
18378TIP3   OH276548   2.785   3.461   1.260 -0.2075 -0.3739 -0.2119
18378TIP3    H176549   2.811   3.410   1.184  0.1626  1.0526 -1.0852
18378TIP3    H276550   2.821   3.549   1.243  0.0822 -0.0763  1.7046
18379TIP3   OH276551   1.196   2.498   1.199  0.4740 -0.4038  0.5696
18379TIP3    H176552   1.244   2.530   1.122 -0.1953 -0.5788  0.0725
18379TIP3    H276553   1.162   2.413   1.172 -0.6872  0.0139  0.6746
18380TIP3   OH276554   0.438   1.461  15.791 -0.2773 -0.1635 -0.3083
18380TIP3    H176555   0.420   1.385  15.847 -1.2394 -0.3580 -0.8741
18380TIP3    H276556   0.352   1.499  15.774  0.0282  0.0097 -1.4942
18381TIP3   OH276557   1.156   2.205   0.234 -0.0166  0.0593  0.3697
18381TIP3    H176558   1.080   2.146   0.231 -1.4625  1.7444  1.4797
18381TIP3    H276559   1.209   2.171   0.305  0.7726 -1.6389 -0.9595
18382TIP3   OH276560   0.356   2.298  15.183 -0.2352  0.1967 -0.6878
18382TIP3    H176561   0.363   2.222  15.125 -0.0146 -0.7149  0.4853
18382TIP3    H276562   0.436   2.295  15.235 -1.8118 -0.9444  1.8839
18383TIP3   OH276563   3.611   1.086   2.173  0.2966  0.2789 -0.1914
18383TIP3    H176564   3.704   1.061   2.168  0.4185  0.7540 -0.3544
18383TIP3    H276565   3.573   1.024   2.235  1.0794  1.1205  1.1884
18384TIP3   OH276566   0.613   4.857   5.903 -0.5857 -0.0573 -0.2199
18384TIP3    H176567   0.643   4.917   5.971 -2.0525 -0.8613  1.2269
18384TIP3    H276568   0.553   4.909   5.849 -0.0878  0.3636 -0.3634
18385TIP3   OH276569   3.299   2.772   0.519 -0.8664 -0.5379  0.7240
18385TIP3    H176570   3.281   2.847   0.576 -1.8931 -0.8608  0.8544
18385TIP3    H276571   3.329   2.810   0.437 -1.2995  0.0168  0.8201
18386TIP3   OH276572   1.023   3.447  14.278  1.0700 -0.3585  0.5065
18386TIP3    H176573   1.085   3.475  14.210  3.1320 -2.3000  1.4484
18386TIP3    H276574   1.055   3.488  14.358  0.0199  0.0777  0.7111
18387TIP3   OH276575   0.257   1.546  15.296  0.6632 -0.3356 -0.2577
18387TIP3    H176576   0.163   1.525  15.295  0.7404 -0.7074 -0.0835
18387TIP3    H276577   0.287   1.528  15.207  0.3378  0.9000 -0.6327
18388TIP3   OH276578   6.010   5.417  11.695  0.1261  0.2502 -0.5650
18388TIP3    H176579   6.060   5.478  11.642  1.1230  1.2969  1.4609
18388TIP3    H276580   6.054   5.333  11.683  1.9368  0.9915  0.5392
18389TIP3   OH276581   5.386   3.301  12.224 -0.7209 -0.2265  0.1305
18389TIP3    H176582   5.398   3.212  12.190  0.8922  0.4267 -1.1448
18389TIP3    H276583   5.300   3.299  12.267 -0.9728 -2.2303 -0.3671
18390TIP3   OH276584   5.814   3.200  12.012  0.5139  0.1525  0.9032
18390TIP3    H176585   5.823   3.171  12.102 -1.4441  2.0824  1.8089
18390TIP3    H276586   5.721   3.189  11.992  1.1714 -1.9237 -1.5678
18391TIP3   OH276587   4.276   2.930  11.647 -0.2373 -0.1070 -0.7424
18391TIP3    H176588   4.188   2.922  11.612  0.0241 -1.7609 -1.1307
18391TIP3    H276589   4.299   2.841  11.673  1.5029  0.1957 -1.1137
18392TIP3   OH276590   4.936   4.885  16.602  0.0035  0.5601  0.1494
18392TIP3    H176591   4.928   4.810  16.543 -1.0548  1.3036 -0.6954
18392TIP3    H276592   4.948   4.960  16.544 -0.9735  1.2961  0.8760
18393TIP3   OH276593   1.708   3.672   4.562 -0.7456  0.3163  0.2065
18393TIP3    H176594   1.751   3.688   4.646  1.2388  1.4136 -0.9220
18393TIP3    H276595   1.720   3.754   4.514 -2.4237 -0.0621 -0.9238
18394TIP3   OH276596   0.702   4.300   5.159  0.4741 -0.2772 -0.0336
18394TIP3    H176597   0.715   4.272   5.069  0.4143  0.6036 -0.3244
18394TIP3    H276598   0.607   4.298   5.171  0.4728 -0.2409 -0.0386
18395TIP3   OH276599   6.086   6.431   4.448  0.1407  0.0638 -0.2482
18395TIP3    H176600   6.100   6.397   4.360 -5.9205  0.3469 -1.7699
18395TIP3    H276601   6.062   6.355   4.500  0.8376  0.2905  0.4304
18396TIP3   OH276602   6.564   0.429  11.279 -0.1308 -0.2325  0.4740
18396TIP3    H176603   6.489   0.446  11.222  0.3631 -0.0230 -0.1255
18396TIP3    H276604   6.632   0.489  11.248  1.2019 -2.2586 -0.8035
18397TIP3   OH276605   4.733   0.378  16.680 -0.2104  0.2470 -0.1846
18397TIP3    H176606   4.664   0.429  16.637 -0.8585  1.0250  1.6578
18397TIP3    H276607   4.723   0.398  16.773  1.8446 -0.4706  0.2471
18398TIP3   OH276608   2.529   5.160   5.105  0.6806 -0.1506 -0.4299
18398TIP3    H176609   2.478   5.174   5.026  1.0865  1.0459 -0.4987
18398TIP3    H276610   2.532   5.246   5.147 -0.1290 -0.9000  1.2587
18399TIP3   OH276611   1.158   6.653  13.026 -0.3593 -0.0709  0.0654
18399TIP3    H176612   1.237   6.629  12.978 -1.2836 -1.5568 -0.7809
18399TIP3    H276613   1.175   6.623  13.116  0.1890 -0.0117 -0.0125
18400TIP3   OH276614   2.527   5.716   1.984  0.0581  0.1070  0.0446
18400TIP3    H176615   2.434   5.734   1.967  0.5818  2.7907 -0.5178
18400TIP3    H276616   2.540   5.627   1.954 -2.0131  0.2050 -1.3747
18401TIP3   OH276617   3.195   3.797   2.599  0.3027 -0.2402 -0.3135
18401TIP3    H176618   3.214   3.847   2.519  1.8862  0.2189  0.3184
18401TIP3    H276619   3.210   3.858   2.670 -0.8288 -0.7284  0.3771
18402TIP3   OH276620   2.608   0.358   3.191  0.2736  0.3126  0.0640
18402TIP3    H176621   2.631   0.283   3.137 -1.4103 -0.7326  0.7128
18402TIP3    H276622   2.686   0.375   3.243  1.5303  0.6126 -1.8293
18403TIP3   OH276623   1.663   5.069   3.826  0.4479  0.2424 -0.2581
18403TIP3    H176624   1.746   5.113   3.804  0.5136  0.6675  0.8191
18403TIP3    H276625   1.648   5.009   3.753  0.9808  1.1804 -1.1651
18404TIP3   OH276626   3.838   1.505  14.182  0.5583  0.0226  0.1843
18404TIP3    H176627   3.746   1.514  14.206 -0.0395 -2.9960 -0.5738
18404TIP3    H276628   3.873   1.439  14.242  2.4795  1.5930  0.9084
18405TIP3   OH276629   2.390   0.593   5.407 -0.1866 -0.2599  0.1012
18405TIP3    H176630   2.366   0.536   5.335 -0.3217  0.2199 -0.2386
18405TIP3    H276631   2.484   0.580   5.418 -0.3214 -0.9754  0.4066
18406TIP3   OH276632   4.133   5.302   2.204  0.6890  0.3455 -0.1694
18406TIP3    H176633   4.113   5.319   2.296  0.3568  0.6565 -0.2953
18406TIP3    H276634   4.154   5.208   2.200  1.1427  0.4278  0.2959
18407TIP3   OH276635   6.599   5.927  11.561 -0.2037  0.4268  0.0314
18407TIP3    H176636   6.646   5.868  11.620 -0.7387 -0.4873 -0.4299
18407TIP3    H276637   6.666   5.985  11.526  0.3430  0.0794  0.4833
18408TIP3   OH276638   2.228   0.767   0.562 -0.2209  0.4967  0.2005
18408TIP3    H176639   2.197   0.681   0.534  0.5849 -0.3235  1.7028
18408TIP3    H276640   2.310   0.780   0.514  0.1728 -0.0474  0.7069
18409TIP3   OH276641   3.273   6.712   1.129 -0.4332 -0.2543  0.1371
18409TIP3    H176642   3.274   6.796   1.082 -1.1668 -0.7606 -0.8243
18409TIP3    H276643   3.180   6.691   1.137 -0.2295 -1.2717 -0.1592
18410TIP3   OH276644   6.453   3.418  16.859 -0.4161  0.4765  0.3760
18410TIP3    H176645   6.527   3.381  16.906 -0.9382  2.0429  2.5982
18410TIP3    H276646   6.390   3.346  16.852  0.4079 -0.2665  0.4442
18411TIP3   OH276647   2.337   5.592   1.685 -0.6414 -0.2751  0.4851
18411TIP3    H176648   2.416   5.552   1.722 -0.7526 -1.6700 -0.7127
18411TIP3    H276649   2.300   5.642   1.758  0.9382 -0.1915  1.2778
18412TIP3   OH276650   2.592   0.728   3.343 -0.6579 -0.0696 -0.2879
18412TIP3    H176651   2.601   0.773   3.427 -0.4743 -1.0148  0.2088
18412TIP3    H276652   2.672   0.676   3.334 -1.9581 -2.3320  0.4014
18413TIP3   OH276653   3.181   4.862   4.432 -0.3384 -0.0989  0.1780
18413TIP3    H176654   3.174   4.856   4.336 -1.3751 -1.6196  0.2974
18413TIP3    H276655   3.247   4.797   4.454  0.2812  0.6236  0.4731
18414TIP3   OH276656   0.525   4.930  15.574  0.3324  0.2862  0.2740
18414TIP3    H176657   0.554   4.850  15.530  0.1503  0.3422  0.0473
18414TIP3    H276658   0.524   4.996  15.504  0.6071  0.5174  0.4845
18415TIP3   OH276659   1.816   0.276  13.076  0.1944 -0.4056 -0.1892
18415TIP3    H176660   1.722   0.259  13.085  0.2490 -0.2663  0.6718
18415TIP3    H276661   1.835   0.342  13.142  1.2622 -1.8142  0.9786
18416TIP3   OH276662   6.665   5.443   2.447 -0.2493 -0.0039  0.3837
18416TIP3    H176663   6.722   5.370   2.424  0.8237  0.8192  0.3324
18416TIP3    H276664   6.594   5.440   2.383 -0.6376 -1.4343  0.8504
18417TIP3   OH276665   4.793   0.553  15.829 -0.3161 -0.4517 -0.4846
18417TIP3    H176666   4.723   0.500  15.868  0.1877 -0.2914  0.6687
18417TIP3    H276667   4.839   0.590  15.903 -0.3329  1.2274 -1.2644
18418TIP3   OH276668   5.961   3.641  13.868 -0.3312  0.0460 -0.1236
18418TIP3    H176669   6.002   3.604  13.946 -0.3988 -1.6113 -0.8255
18418TIP3    H276670   5.873   3.604  13.867 -1.4070  2.3958  0.5725
18419TIP3   OH276671   2.428   4.624   0.349 -0.2500  0.2061 -0.0428
18419TIP3    H176672   2.489   4.590   0.414 -0.3434 -1.9100 -0.9879
18419TIP3    H276673   2.484   4.659   0.279 -0.0748 -1.0147 -0.5445
18420TIP3   OH276674   5.238   4.845  13.608 -0.4735 -0.2283 -0.3141
18420TIP3    H176675   5.253   4.781  13.539  0.2275  0.5157 -0.8774
18420TIP3    H276676   5.246   4.930  13.564 -0.1743  0.2554  0.6477
18421TIP3   OH276677   6.152   2.034   2.002 -0.5955  0.2562 -0.2883
18421TIP3    H176678   6.187   1.945   2.007 -0.9351 -0.0342 -2.2640
18421TIP3    H276679   6.219   2.084   1.954 -0.0641  1.2869  1.4462
18422TIP3   OH276680   2.762   4.439  14.541  0.0180  0.0531 -0.0228
18422TIP3    H176681   2.668   4.427  14.527 -0.5380  2.1885  1.3907
18422TIP3    H276682   2.780   4.388  14.621 -0.1068  0.2566  0.1364
18423TIP3   OH276683   6.122   4.600  11.763 -0.2433  0.6069  0.2820
18423TIP3    H176684   6.119   4.695  11.770  1.5059  0.7331 -0.1949
18423TIP3    H276685   6.215   4.578  11.768 -0.3806 -0.8661 -1.8538
18424TIP3   OH276686   3.322   4.046  15.474  0.0629  0.5615 -0.3706
18424TIP3    H176687   3.365   3.966  15.445  0.1900  0.0729  1.1253
18424TIP3    H276688   3.290   4.086  15.393  1.1966 -0.2886 -1.2710
18425TIP3   OH276689   3.072   0.553  12.675 -0.0959 -0.6226 -0.1665
18425TIP3    H176690   3.129   0.500  12.731 -0.2155  0.0374  0.5904
18425TIP3    H276691   3.126   0.629  12.652 -1.1888  0.9224  2.0081
18426TIP3   OH276692   1.230   4.214  14.467 -0.7397  0.5777 -0.1898
18426TIP3    H176693   1.254   4.224  14.559 -0.6732 -0.8809 -0.0230
18426TIP3    H276694   1.309   4.235  14.418  1.0184 -3.7476  0.3298
18427TIP3   OH276695   5.931   2.568   0.956 -0.4501 -0.2215 -1.0121
18427TIP3    H176696   5.921   2.484   0.912 -0.0832 -0.5253 -0.5341
18427TIP3    H276697   5.951   2.630   0.886 -3.4564  0.0529 -1.7629
18428TIP3   OH276698   2.356   5.163  13.458  0.4591  0.1997 -0.1118
18428TIP3    H176699   2.273   5.142  13.502  0.5020  1.5503  0.6934
18428TIP3    H276700   2.378   5.251  13.491  2.3694 -0.2624 -0.0572
18429TIP3   OH276701   5.707   1.339  13.367  0.3855 -0.2599  0.3840
18429TIP3    H176702   5.775   1.282  13.332 -0.0055 -0.8632  0.5941
18429TIP3    H276703   5.638   1.339  13.301 -0.0435 -0.8314  0.8219
18430TIP3   OH276704   6.629   4.541  12.060 -0.7045  0.0066  0.1152
18430TIP3    H176705   6.671   4.617  12.101 -1.4671  0.3848  0.2164
18430TIP3    H276706   6.653   4.548  11.967  2.1942 -1.6358  0.6437
18431TIP3   OH276707   0.823   6.473   6.293 -0.0272  0.1414 -0.0298
18431TIP3    H176708   0.756   6.404   6.294  0.4136 -0.2841  0.3435
18431TIP3    H276709   0.779   6.547   6.251 -0.6829 -0.1839  0.0584
18432TIP3   OH276710   2.129   6.005  11.744 -0.2086 -0.2539 -0.3423
18432TIP3    H176711   2.114   5.989  11.650 -1.5250 -0.8303 -0.0482
18432TIP3    H276712   2.104   6.096  11.757  0.9721  0.1478 -0.7338
18433TIP3   OH276713   1.843   0.631  11.890 -0.1241 -0.1807 -0.3465
18433TIP3    H176714   1.775   0.568  11.868 -0.7554  0.6381 -0.8088
18433TIP3    H276715   1.874   0.604  11.976 -0.5047 -1.0104 -0.4614
18434TIP3   OH276716   2.120   2.842   5.384  0.0056 -0.1435  0.2668
18434TIP3    H176717   2.031   2.873   5.368 -0.1426  0.0157  1.3048
18434TIP3    H276718   2.173   2.922   5.388  0.0730 -0.1932  0.3681
18435TIP3   OH276719   6.562   5.510  15.645  0.6837 -0.5135  0.0504
18435TIP3    H176720   6.555   5.442  15.712 -1.6154 -0.8075 -0.4293
18435TIP3    H276721   6.589   5.463  15.566 -0.2671 -0.7915 -0.1211
18436TIP3   OH276722   3.456   0.214  14.276  0.3468  0.2086  0.5135
18436TIP3    H176723   3.541   0.215  14.319  0.5585  0.5735  0.0920
18436TIP3    H276724   3.468   0.268  14.197  0.0018 -0.5206 -0.0542
18437TIP3   OH276725   3.666   4.410  10.620 -0.2294 -0.6170 -0.1043
18437TIP3    H176726   3.662   4.437  10.528 -0.9256 -2.5011 -0.6719
18437TIP3    H276727   3.578   4.377  10.639 -0.2481  0.2226  1.4143
18438TIP3   OH276728   5.185   1.443  15.374 -0.4807 -0.0801 -0.3323
18438TIP3    H176729   5.205   1.370  15.315  0.8846 -1.2470  1.4394
18438TIP3    H276730   5.239   1.515  15.342  0.9327 -0.9641 -0.0472
18439TIP3   OH276731   5.369   3.312   1.561 -0.2996  0.1461 -0.6877
18439TIP3    H176732   5.332   3.284   1.477 -0.8669  0.4972 -0.5629
18439TIP3    H276733   5.371   3.407   1.555 -0.1586  0.1608 -0.3817
18440TIP3   OH276734   6.408   4.786  13.622  0.0703 -0.1010  0.1577
18440TIP3    H176735   6.348   4.714  13.603  0.8240 -0.2690 -1.7633
18440TIP3    H276736   6.365   4.833  13.694  0.0945 -3.0170  2.2427
18441TIP3   OH276737   0.018   4.616   3.585  0.4306  0.8590 -0.0357
18441TIP3    H176738  -0.019   4.613   3.673 -0.6277  0.1089 -0.4905
18441TIP3    H276739   0.072   4.695   3.585 -0.3273  1.4085  0.9879
18442TIP3   OH276740   3.877   4.222  13.119 -0.6487  0.3857  0.3271
18442TIP3    H176741   3.856   4.151  13.179 -0.1622  0.8212  1.0235
18442TIP3    H276742   3.842   4.193  13.035  0.3559 -1.0910  0.3849
18443TIP3   OH276743   6.751   1.469  15.051 -0.2692 -0.9040 -0.5275
18443TIP3    H176744   6.686   1.480  15.120  0.5295  1.0398 -0.0288
18443TIP3    H276745   6.706   1.497  14.971 -0.4107 -0.6724 -0.3681
18444TIP3   OH276746   2.298   3.103   0.368  0.0664  0.0794  0.2234
18444TIP3    H176747   2.231   3.150   0.318  0.6137 -0.6702 -1.2782
18444TIP3    H276748   2.249   3.052   0.432 -0.7316  0.4042 -0.1176
18445TIP3   OH276749   0.679   4.148  13.462 -0.5154 -0.2913 -0.3186
18445TIP3    H176750   0.648   4.238  13.472 -1.1420 -0.4509 -0.7222
18445TIP3    H276751   0.649   4.122  13.375 -0.1014 -0.7973 -0.3141
18446TIP3   OH276752   1.729   6.387  13.344  0.0469 -0.0483 -0.2942
18446TIP3    H176753   1.760   6.315  13.289  1.5236  0.4754 -0.1913
18446TIP3    H276754   1.735   6.353  13.433  2.6013  0.7650 -0.0703
18447TIP3   OH276755   3.413   3.708   2.418  0.3048  0.0375 -0.1848
18447TIP3    H176756   3.443   3.740   2.503  0.6715 -0.5611 -0.0871
18447TIP3    H276757   3.443   3.775   2.356  0.6150  0.1459  0.0758
18448TIP3   OH276758   1.041   6.734   5.065  0.1529 -0.1471  0.1540
18448TIP3    H176759   1.061   6.817   5.108  1.5345 -0.4000  0.0661
18448TIP3    H276760   0.950   6.742   5.038  0.4960  1.6835 -0.6138
18449TIP3   OH276761   1.618   4.916  12.989 -0.2209  0.6850  0.1285
18449TIP3    H176762   1.662   4.832  12.979  0.5327  1.1817 -0.8416
18449TIP3    H276763   1.534   4.904  12.945 -0.0866  0.4609 -0.0686
18450TIP3   OH276764   5.829   3.131   0.519 -0.0025  0.2174 -0.3338
18450TIP3    H176765   5.886   3.129   0.442  0.3377  1.0023 -0.1074
18450TIP3    H276766   5.753   3.182   0.491  0.2148  0.6767 -0.0901
18451TIP3   OH276767   5.685   4.487  11.618 -0.4556 -0.3450 -0.4535
18451TIP3    H176768   5.775   4.461  11.598  0.2675  1.3703  0.4205
18451TIP3    H276769   5.651   4.521  11.535  0.1675  0.2412 -0.4774
18452TIP3   OH276770   4.169   2.745   6.196  0.5466 -0.0697 -0.2248
18452TIP3    H176771   4.178   2.807   6.124  0.2223  1.9886  1.4250
18452TIP3    H276772   4.257   2.740   6.234  0.4222 -0.1125  0.0552
18453TIP3   OH276773   1.065   4.521   1.935  0.0515 -0.4657 -0.0317
18453TIP3    H176774   0.976   4.533   1.902 -0.1172  0.8054  0.8332
18453TIP3    H276775   1.069   4.575   2.014  1.4969 -0.7532  0.1189
18454TIP3   OH276776   3.687   6.143  11.638  0.3571 -0.2419 -0.4499
18454TIP3    H176777   3.757   6.195  11.599  1.4337 -0.8409  0.5971
18454TIP3    H276778   3.614   6.150  11.577  0.0289  3.3844  0.1714
18455TIP3   OH276779   2.410   0.378  11.990  0.0933  0.6228  0.7874
18455TIP3    H176780   2.344   0.443  11.966  1.1585  0.7965 -2.0717
18455TIP3    H276781   2.360   0.297  12.002 -0.7041  0.6410 -1.7509
18456TIP3   OH276782   5.170   0.444   5.334 -0.3965 -0.1610  0.2242
18456TIP3    H176783   5.180   0.384   5.260 -0.5017 -1.4934  1.2499
18456TIP3    H276784   5.081   0.427   5.365  0.3750 -1.1916  1.9629
18457TIP3   OH276785   1.344   0.986  16.933 -0.5287 -0.6779 -0.1894
18457TIP3    H176786   1.416   0.948  16.882  0.5239  1.2235 -0.2434
18457TIP3    H276787   1.358   0.954  17.022  0.1728 -0.6633 -0.2833
18458TIP3   OH276788   2.719   2.142  13.893  0.0400  0.7048 -0.0544
18458TIP3    H176789   2.705   2.075  13.826  0.8347  0.5482 -0.0774
18458TIP3    H276790   2.649   2.127  13.957 -1.2692  1.4145 -1.2607
18459TIP3   OH276791   0.619   1.738   4.813  0.1472 -0.2055 -0.0447
18459TIP3    H176792   0.645   1.767   4.726  1.1436 -1.1932 -0.0949
18459TIP3    H276793   0.666   1.796   4.873 -0.9758  0.8485 -0.1289
18460TIP3   OH276794   5.268   0.767  13.133  0.1734  0.0657 -0.0112
18460TIP3    H176795   5.212   0.724  13.067  0.3120 -1.0550  0.5667
18460TIP3    H276796   5.206   0.811  13.191 -0.0984 -0.7380  0.3275
18461TIP3   OH276797   0.416   3.697   5.034 -0.4327  0.6513  0.2596
18461TIP3    H176798   0.354   3.668   4.966 -0.2344 -0.6811  0.6229
18461TIP3    H276799   0.455   3.777   4.998 -1.5786  0.9231 -0.4390
18462TIP3   OH276800   1.737   0.751  15.193  0.1980 -0.0454 -0.4923
18462TIP3    H176801   1.669   0.697  15.232 -0.3081  0.8209 -0.1532
18462TIP3    H276802   1.767   0.807  15.265  0.6790  0.1574 -0.8481
18463TIP3   OH276803   4.410   6.350  15.052  0.3461 -0.0597  0.0106
18463TIP3    H176804   4.351   6.393  15.114 -1.9345 -1.8403 -0.7713
18463TIP3    H276805   4.442   6.420  14.996 -0.9873  0.9930  0.5197
18464TIP3   OH276806   4.262   4.205   0.223  0.3947  0.1367  0.6416
18464TIP3    H176807   4.290   4.285   0.179 -0.1720  0.5848  1.0833
18464TIP3    H276808   4.280   4.220   0.315  1.0415 -0.5709  0.6382
18465TIP3   OH276809   4.741   2.150  14.902  0.8316  0.1013 -0.6081
18465TIP3    H176810   4.719   2.166  14.810  4.0355  1.9166 -1.2048
18465TIP3    H276811   4.792   2.226  14.928 -0.7834  0.1242  3.0601
18466TIP3   OH276812   6.052   3.442   3.166 -0.5405  0.0981  0.4426
18466TIP3    H176813   6.006   3.526   3.168 -1.1846 -0.2587  0.7596
18466TIP3    H276814   6.107   3.443   3.244  2.4452  1.8538 -1.4671
18467TIP3   OH276815   4.081   2.049  15.753  0.2776  0.2093  0.2932
18467TIP3    H176816   4.050   2.114  15.691 -0.3876 -0.2786  0.1055
18467TIP3    H276817   4.175   2.066  15.761  0.4875 -0.0878 -1.2914
18468TIP3   OH276818   2.051   3.298   4.120  0.3762 -0.0113 -0.1396
18468TIP3    H176819   2.134   3.323   4.160  0.4202 -1.4189  0.7268
18468TIP3    H276820   1.987   3.358   4.159  0.7229 -0.0585  0.5148
18469TIP3   OH276821   4.829   6.678  13.789  0.3477 -0.1794 -0.2181
18469TIP3    H176822   4.919   6.677  13.823  0.3638 -0.0406 -0.2565
18469TIP3    H276823   4.837   6.711  13.700  0.2453 -0.0621 -0.1844
18470TIP3   OH276824   4.357   4.943  11.211 -0.5751  0.2349  0.0463
18470TIP3    H176825   4.313   5.027  11.199  1.5403  1.3014 -0.8794
18470TIP3    H276826   4.440   4.965  11.253 -0.3382 -1.5224  0.5951
18471TIP3   OH276827   1.461   0.178  11.812 -0.0420  0.5270  1.0934
18471TIP3    H176828   1.409   0.139  11.742  0.4107  0.8233  0.5829
18471TIP3    H276829   1.550   0.146  11.797  0.3083  1.6166  0.7546
18472TIP3   OH276830   3.077   2.009   2.984  0.2118 -0.0572  0.0479
18472TIP3    H176831   3.083   1.975   3.073 -1.0775  0.6379  0.4254
18472TIP3    H276832   3.068   1.931   2.929  0.4848 -0.4627  0.5687
18473TIP3   OH276833   5.446   2.522  11.635 -0.4680  0.0269 -0.0817
18473TIP3    H176834   5.475   2.463  11.704 -1.6705  0.0238  0.4512
18473TIP3    H276835   5.503   2.502  11.561 -0.4178 -1.3446  0.2907
18474TIP3   OH276836   4.934   0.712   2.930  0.4044 -0.4776 -0.1845
18474TIP3    H176837   4.940   0.632   2.983 -1.1748 -0.6825 -0.2653
18474TIP3    H276838   4.875   0.689   2.859  0.3372  0.6215 -0.4973
18475TIP3   OH276839   5.782   3.870  10.615  0.9697 -0.0399  0.2670
18475TIP3    H176840   5.799   3.953  10.661 -1.0715  0.2252  0.6219
18475TIP3    H276841   5.720   3.824  10.671  1.6678 -1.5964 -0.1974
18476TIP3   OH276842   6.291   5.832  14.212 -0.3086  0.0007 -0.6400
18476TIP3    H176843   6.276   5.889  14.136 -0.8099 -0.0050 -0.5473
18476TIP3    H276844   6.364   5.776  14.185 -0.4920 -0.0102 -1.1227
18477TIP3   OH276845   6.562   4.961  13.440  0.9468 -0.1890  0.0128
18477TIP3    H176846   6.512   4.914  13.507 -1.0461  0.4337 -0.9708
18477TIP3    H276847   6.631   4.900  13.415  1.2938 -0.7158  2.0771
18478TIP3   OH276848   4.986   6.508  11.679  0.1890 -0.3851 -0.1226
18478TIP3    H176849   4.925   6.447  11.720  0.7104 -1.4613 -0.9037
18478TIP3    H276850   4.996   6.476  11.589  1.3840  0.1475 -0.1995
18479TIP3   OH276851   6.534   4.706   0.406 -0.1854 -0.0528 -0.5648
18479TIP3    H176852   6.470   4.634   0.409 -0.1638 -0.2030 -2.2752
18479TIP3    H276853   6.519   4.755   0.486  0.6769 -2.6835  1.3445
18480TIP3   OH276854   2.127   5.979  12.419 -0.1104  0.8597  0.6403
18480TIP3    H176855   2.193   5.983  12.350  0.0589  0.8140  0.7993
18480TIP3    H276856   2.081   6.063  12.414 -0.3430  0.7089  0.2305
18481TIP3   OH276857   2.633   2.986   4.418  0.1487 -0.6507 -0.2906
18481TIP3    H176858   2.558   2.991   4.478 -0.5531 -0.3294 -1.1834
18481TIP3    H276859   2.708   3.004   4.474 -0.5797  0.6085  0.3406
18482TIP3   OH276860   5.455   5.487  13.701  0.2422 -0.3826  0.2088
18482TIP3    H176861   5.482   5.461  13.613 -0.4434  2.0266 -0.7953
18482TIP3    H276862   5.537   5.494  13.750  0.9083  0.7251 -0.9937
18483TIP3   OH276863   5.175   6.555  15.984  0.0307  0.4790 -0.1072
18483TIP3    H176864   5.208   6.560  16.073 -2.6943 -2.4541  1.2719
18483TIP3    H276865   5.113   6.627  15.976 -0.7748 -0.0899  0.9099
18484TIP3   OH276866   5.078   5.602   5.012  0.2697  0.6712  0.0209
18484TIP3    H176867   5.152   5.630   5.065  1.3188 -0.4324 -0.7953
18484TIP3    H276868   5.005   5.596   5.073  1.2731  0.1012  1.2073
18485TIP3   OH276869   5.657   4.042  15.230 -0.6191 -0.1113 -0.0132
18485TIP3    H176870   5.703   4.018  15.150  0.6566  2.3328 -0.1043
18485TIP3    H276871   5.601   3.967  15.249  0.5338 -1.5878 -2.0610
18486TIP3   OH276872   0.039   0.706   4.640 -0.2459 -0.0330  0.2750
18486TIP3    H176873  -0.037   0.750   4.601  0.2612  0.2193 -0.4682
18486TIP3    H276874   0.016   0.694   4.732 -0.1113  2.4756  0.6998
18487TIP3   OH276875   0.577   2.644   4.318 -0.2006 -0.4122 -0.7495
18487TIP3    H176876   0.554   2.553   4.338  0.3179 -0.3548  0.1678
18487TIP3    H276877   0.673   2.647   4.328 -0.1563  0.1205 -1.2788
18488TIP3   OH276878   5.924   6.429   5.064 -0.0227  0.2424 -0.4791
18488TIP3    H176879   5.978   6.404   4.989  0.7709  1.5654 -0.3817
18488TIP3    H276880   5.848   6.473   5.026 -0.6158 -0.8293 -0.5740
18489TIP3   OH276881   6.013   2.659   2.229 -0.7106 -0.5723  0.0559
18489TIP3    H176882   5.924   2.627   2.216 -0.5766 -0.0465 -2.7712
18489TIP3    H276883   6.024   2.728   2.164  1.3795  0.2366  1.1569
18490TIP3   OH276884   4.108   6.137  16.087  0.5182  0.4501  0.2383
18490TIP3    H176885   4.065   6.186  16.157  0.3344  1.8590 -0.8014
18490TIP3    H276886   4.037   6.101  16.035  0.6316 -2.2202  1.7644
18491TIP3   OH276887   3.316   6.164  16.230 -0.1936 -0.2477  0.1286
18491TIP3    H176888   3.229   6.137  16.259 -0.1704  1.0401  1.5272
18491TIP3    H276889   3.308   6.259  16.218  1.2316  0.0326  1.1677
18492TIP3   OH276890   6.356   2.333  14.551 -0.4523 -0.5612  0.0285
18492TIP3    H176891   6.264   2.316  14.571 -0.3177 -1.4844 -0.0810
18492TIP3    H276892   6.374   2.279  14.474  0.1116 -0.1725 -0.1207
18493TIP3   OH276893   3.266   3.501  10.455  0.0573  0.2321 -0.1111
18493TIP3    H176894   3.341   3.454  10.418  0.3023  0.6491 -0.1465
18493TIP3    H276895   3.194   3.437  10.451  0.3009 -0.0263 -0.4733
18494TIP3   OH276896   1.701   2.449   2.373 -0.3456 -0.0142  0.8130
18494TIP3    H176897   1.785   2.477   2.409 -0.2728  1.0404 -0.1137
18494TIP3    H276898   1.718   2.436   2.280 -1.0738 -0.3760  0.7244
18495TIP3   OH276899   2.879   5.446   6.344 -0.1180  0.3968 -0.4551
18495TIP3    H176900   2.937   5.520   6.328 -0.3496  1.0549  1.4149
18495TIP3    H276901   2.916   5.404   6.422 -0.3255 -1.1260 -1.1536
18496TIP3   OH276902   4.587   2.160   0.116  0.5341  0.1377  0.1355
18496TIP3    H176903   4.518   2.102   0.083 -0.3433  0.7716  0.8119
18496TIP3    H276904   4.668   2.122   0.082 -0.1585 -0.4460 -0.9412
18497TIP3   OH276905   0.284   5.835  15.241 -0.2586  0.9389 -0.0127
18497TIP3    H176906   0.323   5.922  15.240  0.1483  0.7801  0.8861
18497TIP3    H276907   0.211   5.841  15.303  0.8309  0.2281  1.4062
18498TIP3   OH276908   2.992   3.487   5.723 -0.6419 -0.2269 -0.3071
18498TIP3    H176909   3.038   3.496   5.806 -1.7307 -1.5573  0.4857
18498TIP3    H276910   2.920   3.550   5.729 -0.4896 -0.0381 -0.4273
18499TIP3   OH276911   5.310   4.696  16.153 -0.5846  0.1024  0.2984
18499TIP3    H176912   5.333   4.788  16.172  0.8716 -0.1295 -0.2084
18499TIP3    H276913   5.351   4.678  16.068 -0.2817 -1.2102  0.7000
18500TIP3   OH276914   1.286   1.907  11.759  0.1685 -0.0981  0.5393
18500TIP3    H176915   1.344   1.957  11.702 -0.4422 -0.0012 -0.0085
18500TIP3    H276916   1.261   1.969  11.828  0.5232 -0.0687  0.6422
18501TIP3   OH276917   3.090   4.579   4.996 -0.4239 -0.0920 -0.2905
18501TIP3    H176918   3.160   4.554   4.936  1.1377 -0.0603  1.4134
18501TIP3    H276919   3.062   4.497   5.036 -1.1118 -0.0627 -0.7118
18502TIP3   OH276920   0.156   4.454  15.681 -0.1035 -0.1236 -0.2069
18502TIP3    H176921   0.227   4.518  15.674  0.8584 -1.0593  0.6271
18502TIP3    H276922   0.111   4.477  15.762  0.4221 -0.6505  0.2468
18503TIP3   OH276923   1.362   0.517  16.211 -0.0157 -0.6481 -0.3410
18503TIP3    H176924   1.281   0.510  16.161 -0.1530 -1.4381 -0.0192
18503TIP3    H276925   1.426   0.466  16.160  0.8799  1.6857 -1.7363
18504TIP3   OH276926   0.740   4.528  17.059 -0.1740 -0.6682  0.2973
18504TIP3    H176927   0.757   4.563  17.147 -2.3696 -1.3589  1.0647
18504TIP3    H276928   0.781   4.590  17.000  3.0640 -1.1645  1.7941
18505TIP3   OH276929   4.876   3.403   1.601 -0.0917  0.1261 -0.4059
18505TIP3    H176930   4.889   3.403   1.506 -1.2747  0.6193 -0.5938
18505TIP3    H276931   4.789   3.443   1.613  0.9942  2.2452  1.0140
18506TIP3   OH276932   1.139   3.120  13.839  0.2517 -0.0146  0.0871
18506TIP3    H176933   1.079   3.190  13.863  0.6368 -0.3387  2.1322
18506TIP3    H276934   1.100   3.041  13.876  1.6865 -0.3015  1.0671
18507TIP3   OH276935   3.357   0.135  12.305 -0.0546 -0.0311 -0.1018
18507TIP3    H176936   3.269   0.101  12.288  0.6995 -2.3794  0.3267
18507TIP3    H276937   3.372   0.117  12.398  0.6672  0.9447 -0.0071
18508TIP3   OH276938   5.213   0.001  15.544 -0.1604 -0.1165  0.2216
18508TIP3    H176939   5.267  -0.049  15.605 -1.2205 -0.1610  1.1632
18508TIP3    H276940   5.164   0.062  15.600 -2.4701 -1.3325 -0.3319
18509TIP3   OH276941   3.535   3.526  17.115  0.1014  0.3873 -0.4681
18509TIP3    H176942   3.561   3.480  17.036  1.2066  0.4978 -0.1872
18509TIP3    H276943   3.445   3.499  17.131  0.1853 -0.3598 -1.2390
18510TIP3   OH276944   2.529   2.093  15.151 -0.1623 -0.0824 -0.4238
18510TIP3    H176945   2.450   2.065  15.197 -0.0185  1.4542  0.8392
18510TIP3    H276946   2.593   2.025  15.170 -0.0903  0.5373  1.7703
18511TIP3   OH276947   2.522   5.087  16.359 -0.3707  0.2918 -0.6369
18511TIP3    H176948   2.482   5.170  16.336 -0.4119 -0.2222 -2.5413
18511TIP3    H276949   2.455   5.040  16.408 -0.9384  0.7192 -0.9980
18512TIP3   OH276950   3.964   3.290   3.620  0.4551 -0.2711  0.5524
18512TIP3    H176951   3.928   3.211   3.579  0.1942 -0.1774  0.6024
18512TIP3    H276952   4.039   3.258   3.671 -0.2439 -0.6280  1.3670
18513TIP3   OH276953   2.118   6.565  13.829 -0.4896 -0.1598 -0.2241
18513TIP3    H176954   2.098   6.629  13.760  1.7708  0.3128 -0.5285
18513TIP3    H276955   2.104   6.480  13.788 -1.4070  0.1164 -0.5105
18514TIP3   OH276956   4.343   1.727  12.806  0.0551 -0.7833  0.5578
18514TIP3    H176957   4.256   1.733  12.845 -0.2326 -0.9954 -0.0359
18514TIP3    H276958   4.326   1.707  12.714  0.7084  0.0012  0.2557
18515TIP3   OH276959   0.146   6.587  12.267 -0.8045 -0.2902  0.7406
18515TIP3    H176960   0.160   6.661  12.326 -0.7002  0.0342  0.3108
18515TIP3    H276961   0.098   6.523  12.320 -1.4296  0.3287  0.9382
18516TIP3   OH276962   3.861   1.977  14.739 -0.6280  0.6092 -0.0494
18516TIP3    H176963   3.859   2.070  14.762  3.3985  0.7070  0.4689
18516TIP3    H276964   3.923   1.938  14.801  1.7284 -1.3789 -3.3794
18517TIP3   OH276965   6.376   5.283   0.445  0.1958 -0.1097 -0.0269
18517TIP3    H176966   6.395   5.313   0.356  0.5139  0.6798  0.2988
18517TIP3    H276967   6.289   5.243   0.439 -0.0486  0.4861 -0.5710
18518TIP3   OH276968   4.987   1.049  15.645 -0.6126 -0.7833  0.0975
18518TIP3    H176969   5.006   1.127  15.593 -0.1569 -1.3013 -0.5206
18518TIP3    H276970   4.895   1.029  15.625 -0.5658 -0.7272 -0.1848
18519TIP3   OH276971   2.867   5.916  12.617  0.4536  0.1627  0.1377
18519TIP3    H176972   2.794   5.930  12.676  0.6729  0.8050  0.2635
18519TIP3    H276973   2.879   6.001  12.573 -0.5125 -0.6256 -1.7448
18520TIP3   OH276974   0.220   0.579  11.656 -0.6981  0.2919 -0.1876
18520TIP3    H176975   0.189   0.489  11.645 -0.3986  0.1497  0.1216
18520TIP3    H276976   0.177   0.627  11.586  0.8090 -0.5167 -1.7625
18521TIP3   OH276977   5.424   6.132   4.751  0.1605  0.4315 -0.4598
18521TIP3    H176978   5.434   6.087   4.835 -0.4000  1.1734  0.0153
18521TIP3    H276979   5.352   6.087   4.708 -0.2630  0.7322 -0.0741
18522TIP3   OH276980   2.377   4.670   2.139 -0.5845  0.0971  0.2208
18522TIP3    H176981   2.309   4.686   2.204  0.4401  2.2778  0.8238
18522TIP3    H276982   2.336   4.694   2.056 -0.2081  2.7567  0.7240
18523TIP3   OH276983   0.961   5.111  13.942  0.7065  0.1123  0.8680
18523TIP3    H176984   0.878   5.103  13.894  0.2279 -1.4418  1.8884
18523TIP3    H276985   0.935   5.132  14.031  1.5171  1.2146  0.8680
18524TIP3   OH276986   1.887   0.414   5.843 -0.8032 -0.0515 -0.6727
18524TIP3    H176987   1.866   0.459   5.761 -0.5147 -3.6046 -2.9278
18524TIP3    H276988   1.957   0.353   5.819 -0.4114 -0.9527  2.3771
18525TIP3   OH276989   3.361   4.531  10.464  0.6608 -0.8052  0.1683
18525TIP3    H176990   3.366   4.441  10.496 -0.3412 -0.7569  0.4881
18525TIP3    H276991   3.443   4.544  10.417  1.0157 -1.7355  0.5053
18526TIP3   OH276992   3.614   0.328   3.389  0.5051 -0.3855 -0.2274
18526TIP3    H176993   3.604   0.305   3.481  1.8238 -0.6290 -0.1143
18526TIP3    H276994   3.705   0.357   3.382  0.6329 -1.0259 -1.5726
18527TIP3   OH276995   4.025   2.820  12.790  0.2597 -0.2965  0.2422
18527TIP3    H176996   3.991   2.742  12.747 -2.1478 -0.1703  1.7144
18527TIP3    H276997   4.053   2.790  12.877 -0.4070  0.3841  0.7121
18528TIP3   OH276998   1.786   0.032   0.986  0.3056  0.8458 -0.0742
18528TIP3    H176999   1.762   0.104   1.043  0.1921  1.7377 -1.2133
18528TIP3    H277000   1.863   0.063   0.938  3.6846 -1.7185  3.0965
18529TIP3   OH277001   3.273   0.690   2.345  0.4081 -0.0611 -0.2173
18529TIP3    H177002   3.189   0.735   2.352 -1.5155 -3.2788 -0.6056
18529TIP3    H277003   3.287   0.682   2.250 -0.3241 -1.9403 -0.1958
18530TIP3   OH277004   0.499   3.412   0.894 -0.1352  0.2778  0.2408
18530TIP3    H177005   0.485   3.506   0.885 -0.8572  0.3747  1.9982
18530TIP3    H277006   0.461   3.374   0.815  0.1682  1.4452 -0.4926
18531TIP3   OH277007   1.501   5.824  15.854 -0.0999  0.3304  0.0379
18531TIP3    H177008   1.568   5.884  15.889  1.0434 -0.4213 -0.8023
18531TIP3    H277009   1.549   5.745  15.832 -1.4644 -0.6170  0.3630
18532TIP3   OH277010   4.499   6.035   2.739 -1.2329 -0.5506  0.6592
18532TIP3    H177011   4.582   6.019   2.786 -0.5802  1.4666  0.2924
18532TIP3    H277012   4.516   6.003   2.650 -1.3737 -1.4698  0.9496
18533TIP3   OH277013   1.659   3.625  14.461  0.2947 -0.6025  0.3808
18533TIP3    H177014   1.744   3.583  14.473  0.1506 -0.2669  3.2647
18533TIP3    H277015   1.619   3.623  14.548 -3.3332 -2.1062 -1.1403
18534TIP3   OH277016   1.711   2.354   5.106  0.4969  0.4222 -0.1857
18534TIP3    H177017   1.745   2.380   5.191 -0.4646  0.9961  0.0314
18534TIP3    H277018   1.761   2.275   5.084  1.1188  0.5604  0.6577
18535TIP3   OH277019   1.658   0.584   4.819 -0.6366  0.5618  0.1959
18535TIP3    H177020   1.564   0.600   4.814 -0.8258 -0.7831 -1.7686
18535TIP3    H277021   1.671   0.503   4.769  1.5270  0.5332  0.7043
18536TIP3   OH277022   3.997   1.230   4.030  0.2734  0.0357 -0.4427
18536TIP3    H177023   3.909   1.261   4.050  1.4126  2.7552  0.9316
18536TIP3    H277024   4.021   1.175   4.104 -0.9998 -2.7418 -1.9230
18537TIP3   OH277025   1.705   1.710   6.105 -0.3473 -0.1049  0.4810
18537TIP3    H177026   1.659   1.779   6.152 -0.0733  0.9581 -0.7499
18537TIP3    H277027   1.695   1.633   6.160 -2.4658  0.3953  0.8803
18538TIP3   OH277028   4.604   4.532  15.283  0.5722 -0.0503  0.4510
18538TIP3    H177029   4.618   4.616  15.240 -1.2604  1.6525  2.8770
18538TIP3    H277030   4.685   4.484  15.267  1.8384  2.2775 -0.7857
18539TIP3   OH277031   3.914   4.626   0.757 -0.2749  0.5554 -0.0152
18539TIP3    H177032   3.943   4.617   0.848 -0.1113  0.2628 -0.0942
18539TIP3    H277033   3.930   4.540   0.719 -0.6673  0.5789 -0.2291
18540TIP3   OH277034   1.170   2.298   4.025  0.3735  0.7544 -0.1711
18540TIP3    H177035   1.262   2.286   4.051  0.2626 -3.1833 -1.0872
18540TIP3    H277036   1.174   2.365   3.956  3.0208 -1.0844 -2.0066
18541TIP3   OH277037   3.405   6.543   2.590 -0.0139  0.3757  0.0645
18541TIP3    H177038   3.435   6.609   2.528  0.8625 -0.2455 -0.2035
18541TIP3    H277039   3.427   6.579   2.676 -1.0617  1.1556  0.0150
18542TIP3   OH277040   2.784   1.353   2.036 -0.0411  0.0251  0.3454
18542TIP3    H177041   2.776   1.326   2.128  2.3232 -1.0114  0.3202
18542TIP3    H277042   2.735   1.435   2.031 -1.8537 -0.8618  2.0458
18543TIP3   OH277043   0.423   2.922  16.523 -0.1581 -0.4642 -0.1128
18543TIP3    H177044   0.419   2.861  16.596 -1.5237  1.1907  1.2783
18543TIP3    H277045   0.380   3.001  16.555 -1.1376  0.2290 -2.8194
18544TIP3   OH277046   5.317   2.153  16.920  0.2976  0.0823  0.5798
18544TIP3    H177047   5.336   2.133  16.828  0.2234  1.4361  0.2448
18544TIP3    H277048   5.238   2.103  16.940  0.3211 -0.2317 -0.1000
18545TIP3   OH277049   5.983   1.498  17.102  0.1307  0.9214  0.2947
18545TIP3    H177050   5.998   1.412  17.063 -0.5048  1.0669 -0.2942
18545TIP3    H277051   5.888   1.512  17.095  0.2332  1.6982  0.3137
18546TIP3   OH277052   4.786   5.176  13.345 -0.1511  0.1763 -0.2555
18546TIP3    H177053   4.836   5.176  13.263  0.6056  1.0637  0.1887
18546TIP3    H277054   4.758   5.086  13.355  0.5033 -0.1342 -1.0476
18547TIP3   OH277055   1.632   4.433   1.198  0.5660 -0.1695 -0.1010
18547TIP3    H177056   1.644   4.368   1.129  0.0169  0.1500 -0.5111
18547TIP3    H277057   1.616   4.515   1.151 -2.7641 -0.4576  0.3193
18548TIP3   OH277058   3.342   0.303  10.832  0.3275 -0.0646  0.2710
18548TIP3    H177059   3.354   0.208  10.835  2.2188  0.1560  0.5202
18548TIP3    H277060   3.430   0.339  10.832 -0.2640  1.7707  3.0161
18549TIP3   OH277061   1.285   3.217   2.125 -0.0849  0.6603  0.3898
18549TIP3    H177062   1.226   3.284   2.159  0.0288  0.3543  1.2115
18549TIP3    H277063   1.347   3.201   2.197  0.5276  0.4365 -0.1838
18550TIP3   OH277064   6.788   3.948   6.094 -0.5927  0.6195  0.5122
18550TIP3    H177065   6.736   3.889   6.040 -0.6777  1.5688 -0.4659
18550TIP3    H277066   6.805   3.898   6.174  1.2088 -1.6160 -1.1280
18551TIP3   OH277067   3.276   0.792  13.184  0.7663 -0.0763  0.1508
18551TIP3    H177068   3.269   0.854  13.257 -0.2835  1.0377 -0.8338
18551TIP3    H277069   3.188   0.789  13.147  0.7261 -2.3984  0.3019
18552TIP3   OH277070   0.037   2.743   5.623 -0.0225 -0.2068 -0.0243
18552TIP3    H177071   0.103   2.768   5.559  0.7486  0.7356  1.1022
18552TIP3    H277072   0.007   2.826   5.660 -1.8512 -0.6113 -0.4924
18553TIP3   OH277073   0.490   3.521   4.443 -0.8367 -0.1779  0.1327
18553TIP3    H177074   0.422   3.584   4.420 -0.3450  0.6043  0.7891
18553TIP3    H277075   0.561   3.538   4.381 -0.6683 -0.0228  0.3674
18554TIP3   OH277076   0.292   6.766   2.328  0.1328  0.5245  0.1718
18554TIP3    H177077   0.326   6.716   2.402 -0.3846 -0.2098 -0.0771
18554TIP3    H277078   0.260   6.848   2.367 -2.5828 -0.9186  1.2234
18555TIP3   OH277079   2.747   3.307   4.243 -0.1020 -0.1972 -0.0698
18555TIP3    H177080   2.683   3.306   4.314 -0.3575 -2.0777 -0.2812
18555TIP3    H277081   2.699   3.278   4.166  0.6551 -0.2239 -0.5487
18556TIP3   OH277082   3.623   2.367  14.593  0.2751 -0.5698  0.1177
18556TIP3    H177083   3.668   2.450  14.579 -0.5619 -0.0943  0.1452
18556TIP3    H277084   3.618   2.328  14.506  1.7207 -1.1668  0.2783
18557TIP3   OH277085   2.516   3.761   4.453 -0.1889 -0.5301 -0.2217
18557TIP3    H177086   2.575   3.780   4.525 -0.8037 -1.6076  0.5956
18557TIP3    H277087   2.434   3.806   4.474  0.2982  0.9584 -1.3489
18558TIP3   OH277088   0.968   2.001   0.283  0.4815  0.4154  0.3101
18558TIP3    H177089   1.044   1.943   0.294 -0.4203 -0.9955 -0.5986
18558TIP3    H277090   0.924   1.967   0.205 -1.9913  0.1883  1.7321
18559TIP3   OH277091   4.336   2.679  16.729  0.1642 -0.0471  0.1085
18559TIP3    H177092   4.286   2.598  16.722 -1.3317  0.9150 -0.8075
18559TIP3    H277093   4.286   2.733  16.791  0.2695  0.7772 -0.5090
18560TIP3   OH277094   4.774   4.355   1.079  0.2093 -0.4935 -0.4377
18560TIP3    H177095   4.826   4.325   1.153  1.4125 -0.2190 -1.1398
18560TIP3    H277096   4.769   4.450   1.089  0.0148 -0.4983 -0.4818
18561TIP3   OH277097   2.248   3.519   2.007 -0.2550 -0.2640  0.5560
18561TIP3    H177098   2.265   3.481   1.920 -0.8388  0.4092  0.1382
18561TIP3    H277099   2.242   3.613   1.991 -0.9428 -0.1902  1.2365
18562TIP3   OH277100   0.983   6.421   3.222 -0.2614 -0.2140  0.4456
18562TIP3    H177101   0.969   6.438   3.129 -1.9039 -0.8437  0.5477
18562TIP3    H277102   0.928   6.485   3.267 -1.8333 -1.8153  0.9127
18563TIP3   OH277103   2.223   4.762  16.531 -0.1258  0.0441 -0.0501
18563TIP3    H177104   2.133   4.747  16.559 -0.1894 -2.1284 -1.2297
18563TIP3    H277105   2.216   4.820  16.455 -0.5000 -0.0333 -0.0721
18564TIP3   OH277106   3.267   1.422   3.675  0.0921  0.0316  1.5334
18564TIP3    H177107   3.336   1.418   3.742  0.2453 -1.1383  1.3336
18564TIP3    H277108   3.282   1.505   3.630  2.1395 -0.6954  0.7265
18565TIP3   OH277109   2.254   1.041   5.760  0.7032 -0.7168  0.2018
18565TIP3    H177110   2.335   0.991   5.771  1.9058  0.1479 -3.4361
18565TIP3    H277111   2.273   1.126   5.797  0.0926 -1.5497  2.6163
18566TIP3   OH277112   0.180   5.514  17.141 -0.2634 -0.2935  0.1046
18566TIP3    H177113   0.217   5.470  17.217 -1.4314 -0.3487  0.6731
18566TIP3    H277114   0.137   5.444  17.091  0.1809 -0.2014 -0.4159
18567TIP3   OH277115   4.260   6.790   6.306 -0.1279 -0.8243 -0.1634
18567TIP3    H177116   4.261   6.863   6.243 -0.0235  0.2927  1.0972
18567TIP3    H277117   4.195   6.729   6.271 -0.4386  0.0133 -1.0887
18568TIP3   OH277118   5.536   1.776   2.423 -0.2559  0.2346 -0.1247
18568TIP3    H177119   5.597   1.730   2.480 -0.6377 -1.5785 -1.1227
18568TIP3    H277120   5.493   1.840   2.481  2.3467  1.4331  0.6644
18569TIP3   OH277121   3.540   1.363  12.860  0.1101  0.0625  0.3655
18569TIP3    H177122   3.533   1.409  12.944  0.6286  1.0066 -0.1011
18569TIP3    H277123   3.523   1.271  12.882  1.8266  0.0329  1.7724
18570TIP3   OH277124   5.385   3.889  17.184 -0.5129 -0.4696  0.2258
18570TIP3    H177125   5.472   3.911  17.150  0.1697 -2.9238  0.2097
18570TIP3    H277126   5.387   3.916  17.275 -0.2352  0.7085 -0.1127
18571TIP3   OH277127   1.375   2.279  13.324  0.2343 -0.0036  0.0926
18571TIP3    H177128   1.316   2.335  13.375  0.6396 -0.2754  0.8720
18571TIP3    H277129   1.318   2.210  13.289 -0.1980  0.6616 -0.5534
18572TIP3   OH277130   5.307   2.060   3.786 -0.1283 -0.1580 -0.3229
18572TIP3    H177131   5.341   2.000   3.720 -0.8245 -2.5879  1.4065
18572TIP3    H277132   5.374   2.062   3.854  0.2783  1.7981 -0.6926
18573TIP3   OH277133   5.131   4.600  14.200 -0.0771 -0.2228 -0.2614
18573TIP3    H177134   5.094   4.603  14.288  0.7636  1.2769  0.0804
18573TIP3    H277135   5.223   4.575  14.214 -0.2435 -1.2238 -0.8449
18574TIP3   OH277136   1.346   4.842  10.505  0.6218 -0.1157 -0.0712
18574TIP3    H177137   1.437   4.813  10.505 -0.1380 -2.7553  0.4903
18574TIP3    H277138   1.307   4.800  10.428 -0.4740 -0.3615  0.5852
18575TIP3   OH277139   6.376   3.674   0.464  0.0823  0.3601 -0.0438
18575TIP3    H177140   6.413   3.707   0.382 -1.2167  3.1601  0.3970
18575TIP3    H277141   6.310   3.610   0.435  0.9968 -0.1499 -1.0667
18576TIP3   OH277142   4.383   4.526  15.418  0.2671  0.6803 -0.7461
18576TIP3    H177143   4.456   4.530  15.357 -0.2779  0.4587 -1.4270
18576TIP3    H277144   4.310   4.565  15.370 -0.7801 -1.5815 -1.1294
18577TIP3   OH277145   5.257   2.857   0.739  0.1542  0.7270 -0.6252
18577TIP3    H177146   5.165   2.835   0.748  0.4289 -0.4813 -0.5576
18577TIP3    H277147   5.282   2.896   0.823  0.2266 -0.9942  0.1867
18578TIP3   OH277148   3.589   6.062  15.927 -0.4915  0.0762 -0.4569
18578TIP3    H177149   3.565   6.025  16.012  0.7054  0.7014  0.1918
18578TIP3    H277150   3.563   6.154  15.932  1.8480  0.7711  0.2693
18579TIP3   OH277151   3.476   1.106  12.959 -0.3309  1.2525 -0.2574
18579TIP3    H177152   3.450   1.077  13.046 -1.9139  0.0410 -1.0882
18579TIP3    H277153   3.572   1.109  12.962 -0.0036 -3.4244  0.1803
18580TIP3   OH277154   2.748   5.532   3.980 -0.0249  0.7293  0.1538
18580TIP3    H177155   2.815   5.590   3.943  1.3401 -0.8556  0.0115
18580TIP3    H277156   2.702   5.496   3.905  0.7229 -0.1587  0.1001
18581TIP3   OH277157   6.342   3.313   4.974  0.2577  0.2866 -0.2084
18581TIP3    H177158   6.429   3.334   5.008  0.1181  0.4519  0.0530
18581TIP3    H277159   6.286   3.310   5.052 -0.0105  0.3818 -0.3948
18582TIP3   OH277160   5.845   6.459  12.849  0.2363  0.0062 -0.0642
18582TIP3    H177161   5.761   6.436  12.888 -0.1121  0.2692 -0.6535
18582TIP3    H277162   5.871   6.380  12.800  0.8389 -0.4493  0.9499
18583TIP3   OH277163   4.775   0.434   0.846 -0.0122  0.0635  0.0638
18583TIP3    H177164   4.683   0.426   0.822 -0.1274 -1.7547  0.9304
18583TIP3    H277165   4.821   0.379   0.782  0.4277  0.5364 -0.0355
18584TIP3   OH277166   0.350   0.961  10.893  0.4467 -0.3787  0.4032
18584TIP3    H177167   0.300   0.980  10.813 -0.9285  1.7542  1.6461
18584TIP3    H277168   0.405   0.887  10.871 -2.6150 -2.3051 -1.3991
18585TIP3   OH277169   6.055   2.578  12.578  0.1006 -0.1584 -0.1745
18585TIP3    H177170   6.053   2.586  12.673 -0.9313  0.1797 -0.2157
18585TIP3    H277171   6.065   2.667  12.546  1.4925 -0.3631 -0.3780
18586TIP3   OH277172   0.064   6.758   0.445  0.5793 -0.4520  0.2185
18586TIP3    H177173   0.007   6.690   0.481 -0.6243  0.6919  0.5394
18586TIP3    H277174   0.099   6.720   0.364 -0.2690 -1.3457  0.2568
18587TIP3   OH277175   2.637   1.888  16.510  0.2095 -0.0570  0.4425
18587TIP3    H177176   2.565   1.900  16.448  1.0974 -0.2142 -0.6617
18587TIP3    H277177   2.667   1.799  16.495  0.4216 -0.1070  1.1369
18588TIP3   OH277178   2.463   4.715  10.174  0.5481  0.2983 -0.6502
18588TIP3    H177179   2.481   4.783  10.108  0.8167  2.7388  1.7775
18588TIP3    H277180   2.399   4.755  10.232 -0.1740 -2.0240  0.2519
18589TIP3   OH277181   2.142   0.358   2.147 -0.1809  0.3090  0.1839
18589TIP3    H177182   2.075   0.391   2.207  0.8146  0.0968  1.4580
18589TIP3    H277183   2.166   0.435   2.095 -1.4990  0.3512 -0.3992
18590TIP3   OH277184   5.083   0.185  14.834 -0.4468 -0.1466  0.2927
18590TIP3    H177185   5.134   0.106  14.847 -0.2715 -0.4602 -1.8397
18590TIP3    H277186   5.129   0.253  14.884  2.3883 -0.3155 -1.8032
18591TIP3   OH277187   5.768   4.930   1.292  0.0047 -0.2787  1.1930
18591TIP3    H177188   5.690   4.909   1.240  0.8595 -0.2896 -0.1482
18591TIP3    H277189   5.822   4.852   1.287 -0.1355 -0.4968  2.6320
18592TIP3   OH277190   1.818   5.048  15.660  0.8284 -0.2972  0.1300
18592TIP3    H177191   1.840   5.109  15.730 -0.1782  0.3680 -0.1143
18592TIP3    H277192   1.863   4.967  15.683  2.7352  0.7018  0.1314
18593TIP3   OH277193   6.284   5.072  13.169  0.2479 -0.9305  0.0198
18593TIP3    H177194   6.308   5.138  13.233  1.2078 -1.9664  0.7673
18593TIP3    H277195   6.304   5.111  13.084  1.7931 -0.6589  0.4930
18594TIP3   OH277196   0.275   6.658  13.282 -0.5402  0.0201  0.1521
18594TIP3    H177197   0.356   6.618  13.314 -0.0458  1.7980  1.2618
18594TIP3    H277198   0.261   6.617  13.197  2.9070  1.3429 -1.2674
18595TIP3   OH277199   6.345   4.272  16.112  0.7955 -0.3935 -0.4522
18595TIP3    H177200   6.380   4.192  16.073  1.3442 -0.9715  1.1447
18595TIP3    H277201   6.414   4.337  16.099  0.6960 -0.3983 -1.0217
18596TIP3   OH277202   2.739   1.239   0.908 -0.2024 -0.3141 -0.0650
18596TIP3    H177203   2.707   1.320   0.949 -0.9989 -0.7079  0.1188
18596TIP3    H277204   2.761   1.265   0.818  1.1448  0.4607  0.4597
18597TIP3   OH277205   5.011   4.908  14.175 -0.2021  0.1072 -0.0243
18597TIP3    H177206   5.048   4.858  14.101 -0.9863  0.7120 -0.8467
18597TIP3    H277207   5.046   4.997  14.163 -0.6695  0.3071  0.0832
18598TIP3   OH277208   5.308   4.651  13.386  0.1739 -0.6959 -0.1911
18598TIP3    H177209   5.402   4.640  13.399  0.4688  1.3716 -0.2548
18598TIP3    H277210   5.295   4.637  13.293  0.2680 -1.8465 -0.0412
18599TIP3   OH277211   0.097   2.881  15.749  0.3379 -0.3367  0.0533
18599TIP3    H177212   0.126   2.916  15.665 -0.9323 -0.7394 -0.5774
18599TIP3    H277213   0.076   2.789  15.730  0.6553 -0.6026  0.9582
18600TIP3   OH277214   2.187   4.801   2.751 -0.1098  0.2576  0.0580
18600TIP3    H177215   2.117   4.767   2.807 -1.1839  0.9143 -0.8548
18600TIP3    H277216   2.264   4.748   2.774 -1.0325 -0.8484  0.6757
18601TIP3   OH277217   6.341   4.069  12.797 -0.0516  0.1780  0.3611
18601TIP3    H177218   6.294   4.132  12.742  0.8383  0.9390  0.4485
18601TIP3    H277219   6.408   4.031  12.740 -0.6342 -0.7659  0.2851
18602TIP3   OH277220   3.858   5.255   0.464 -0.1387 -0.6575 -0.6937
18602TIP3    H177221   3.944   5.297   0.469 -1.1143  1.3605  1.2806
18602TIP3    H277222   3.797   5.323   0.494 -2.4435 -2.0412 -1.9181
18603TIP3   OH277223   6.547   4.566  13.761  0.7169 -0.1549  0.3988
18603TIP3    H177224   6.544   4.639  13.698 -1.8080 -2.2523 -2.1829
18603TIP3    H277225   6.615   4.508  13.727 -0.3611 -1.0867 -0.2498
18604TIP3   OH277226   2.841   1.713   0.945  0.4466  0.1962  0.3892
18604TIP3    H177227   2.805   1.770   1.013 -0.1701 -0.5217  0.6788
18604TIP3    H277228   2.853   1.628   0.988  2.7590  0.4540  0.3740
18605TIP3   OH277229   1.937   2.073   5.924 -0.1583  0.0938  0.0861
18605TIP3    H177230   1.862   2.015   5.915  0.7100 -1.2622  1.2303
18605TIP3    H277231   1.920   2.122   6.004  0.9243 -1.4350  1.2983
18606TIP3   OH277232   4.660   4.299   5.679 -0.4445  0.4333  0.5178
18606TIP3    H177233   4.688   4.367   5.741 -2.1084  1.7466 -0.0911
18606TIP3    H277234   4.681   4.336   5.593 -3.6996  1.4647  0.0207
18607TIP3   OH277235   0.894   6.002  12.790  0.1882  0.1929 -0.0458
18607TIP3    H177236   0.819   5.974  12.843  0.6694  0.0552  0.5764
18607TIP3    H277237   0.951   5.925  12.788  0.4886  0.4190 -0.2043
18608TIP3   OH277238   3.801   6.002   4.283 -0.1033  0.0098 -0.2120
18608TIP3    H177239   3.759   5.952   4.352  0.4901  0.8462  0.7893
18608TIP3    H277240   3.751   6.084   4.278  0.6601  0.5063  0.1547
18609TIP3   OH277241   4.992   1.266  15.480 -0.2706  0.0776 -0.5036
18609TIP3    H177242   4.921   1.331  15.479  0.0111  0.4002  0.0796
18609TIP3    H277243   5.070   1.316  15.503 -0.3859 -0.7773  2.1113
18610TIP3   OH277244   2.827   5.093   5.917 -0.0681  0.2257 -0.1064
18610TIP3    H177245   2.812   5.171   5.970  0.0157 -0.9857  1.7999
18610TIP3    H277246   2.741   5.050   5.913  0.3640 -0.7822  0.9126
18611TIP3   OH277247   5.776   1.925   2.633  0.3499 -0.4084  0.7528
18611TIP3    H177248   5.749   1.898   2.721  0.3455 -0.2592  0.7963
18611TIP3    H277249   5.741   2.013   2.622  1.0060 -0.1266  0.8917
18612TIP3   OH277250   1.681   5.928  12.662 -0.0382 -0.8259  0.8094
18612TIP3    H177251   1.634   5.989  12.718 -0.4434 -1.2296  0.9148
18612TIP3    H277252   1.754   5.979  12.626 -0.5416 -0.1998  0.6667
18613TIP3   OH277253   0.200   0.456  17.063 -0.0750  0.0092  0.0383
18613TIP3    H177254   0.225   0.458  17.156  0.4382 -0.7192 -0.0784
18613TIP3    H277255   0.283   0.454  17.016 -0.3351  0.2797 -0.4411
18614TIP3   OH277256   5.368   6.415  11.892  0.2988  0.6917  0.5188
18614TIP3    H177257   5.418   6.421  11.973  1.3508 -0.7530  0.0091
18614TIP3    H277258   5.278   6.395  11.921  0.7692 -0.3481  1.3273
18615TIP3   OH277259   3.563   2.184   2.638  0.1771 -0.3089 -0.2164
18615TIP3    H177260   3.594   2.113   2.582 -0.0372  0.4250 -1.3102
18615TIP3    H277261   3.569   2.150   2.727 -1.7401 -2.4163 -0.7956
18616TIP3   OH277262   2.922   2.339   6.838 -0.7302 -0.1264 -0.1833
18616TIP3    H177263   2.884   2.357   6.752 -1.0294  0.3940  0.0521
18616TIP3    H277264   2.848   2.349   6.899  0.0058  2.0979  0.4244
18617TIP3   OH277265   5.572   4.463   6.337  0.1239 -0.7884 -0.0721
18617TIP3    H177266   5.618   4.546   6.338 -1.8392  0.4142 -1.6334
18617TIP3    H277267   5.479   4.487   6.335 -0.5013 -3.0100 -0.4905
18618TIP3   OH277268   3.661   2.914   2.719 -0.1681 -0.2643  0.3463
18618TIP3    H177269   3.638   2.825   2.692 -0.6285  0.3244 -1.3679
18618TIP3    H277270   3.715   2.947   2.648  0.3144  0.7085  1.1435
18619TIP3   OH277271   5.638   3.401   5.019 -0.4062  0.9166  0.0640
18619TIP3    H177272   5.707   3.337   5.008 -0.4939  1.0229 -1.1704
18619TIP3    H277273   5.683   3.485   5.023 -0.4254  0.9438 -0.2668
18620TIP3   OH277274   5.637   3.561   4.623  0.3079 -0.1815  0.7875
18620TIP3    H177275   5.665   3.650   4.639  0.5106  0.1677 -1.2092
18620TIP3    H277276   5.707   3.506   4.656 -0.4565  0.2841  3.3544
18621TIP3   OH277277   3.030   1.865  17.169 -0.0474 -0.2987  0.0179
18621TIP3    H177278   3.019   1.774  17.196  0.4907  0.1511  1.8604
18621TIP3    H277279   2.951   1.909  17.201 -0.9983 -0.3151 -2.0937
18622TIP3   OH277280   5.993   5.069  16.427 -0.2708 -0.4651  0.3460
18622TIP3    H177281   5.901   5.092  16.443 -0.1426  0.1058  0.2843
18622TIP3    H277282   6.007   4.990  16.479 -1.4588 -1.9811 -1.5074
18623TIP3   OH277283   0.159   5.020   1.027 -0.0282  0.1301 -0.2176
18623TIP3    H177284   0.070   4.989   1.008 -0.2624  1.8594 -2.4039
18623TIP3    H277285   0.180   4.981   1.112 -2.9134 -0.2743  0.4367
18624TIP3   OH277286   0.100   0.175   6.635  0.1205  0.0438 -0.7821
18624TIP3    H177287   0.184   0.204   6.598 -1.2449  2.6262 -2.1703
18624TIP3    H277288   0.064   0.253   6.676 -0.9706 -1.4024  1.1627
18625TIP3   OH277289   3.629   1.989   2.467  0.0292 -0.4211  0.3277
18625TIP3    H177290   3.620   2.041   2.387  1.7560 -0.1839  0.2483
18625TIP3    H277291   3.577   1.911   2.451  2.0578 -1.4411 -1.9894
18626TIP3   OH277292   4.767   4.013   3.691 -0.4893  0.1286 -0.6977
18626TIP3    H177293   4.836   4.066   3.729 -0.7531  1.1030 -1.5186
18626TIP3    H277294   4.744   3.950   3.759  1.3141 -0.3346 -0.4830
18627TIP3   OH277295   5.811   6.175  15.273  0.6017 -0.0506  0.0372
18627TIP3    H177296   5.740   6.208  15.218  1.6732  0.8466 -0.8826
18627TIP3    H277297   5.874   6.139  15.211  1.3136 -0.0911  0.7682
18628TIP3   OH277298   5.912   5.461  10.641  0.1306 -0.1695  0.4463
18628TIP3    H177299   5.827   5.423  10.667 -1.5280 -0.5747 -4.5015
18628TIP3    H277300   5.889   5.546  10.604  2.2451  0.6170  0.8498
18629TIP3   OH277301   1.935   4.143   3.332 -0.2281 -0.0450  0.7706
18629TIP3    H177302   1.957   4.065   3.281 -1.6037  0.1597 -0.2088
18629TIP3    H277303   2.009   4.155   3.391  0.7763 -1.1194 -0.2179
18630TIP3   OH277304   1.434   3.585   5.384  0.1490  0.7173 -0.1471
18630TIP3    H177305   1.440   3.497   5.421 -1.5811  0.2227 -0.9244
18630TIP3    H277306   1.504   3.589   5.318 -1.2851 -1.0482 -1.8960
18631TIP3   OH277307   0.406   5.699   5.361  0.0387  0.1595  0.4599
18631TIP3    H177308   0.468   5.723   5.292  1.1783 -0.8944  1.0755
18631TIP3    H277309   0.326   5.747   5.339  1.1553  1.8378 -0.1747
18632TIP3   OH277310   1.599   4.138   5.487 -0.4093  0.3406 -0.3918
18632TIP3    H177311   1.586   4.050   5.522  1.2436  0.1639 -0.1215
18632TIP3    H277312   1.623   4.123   5.395  2.4516  0.2577  0.2756
18633TIP3   OH277313   4.700   3.882   6.440  0.0666  0.4599  0.1127
18633TIP3    H177314   4.749   3.821   6.494  0.0159 -0.6064 -1.0001
18633TIP3    H277315   4.760   3.955   6.424  0.7468 -0.1117  0.0457
18634TIP3   OH277316   4.957   6.384   2.106  0.1435 -0.0386  0.4141
18634TIP3    H177317   4.914   6.415   2.186 -0.3870  0.8922 -0.2154
18634TIP3    H277318   4.897   6.319   2.071  0.2745 -0.2944  0.6639
18635TIP3   OH277319   2.641   0.104   0.886 -0.8205 -0.0326  0.0827
18635TIP3    H177320   2.649   0.197   0.864 -1.8099  0.1058  0.2841
18635TIP3    H277321   2.679   0.058   0.811  0.4262  0.5373  0.3333
18636TIP3   OH277322   3.754   2.070  15.588 -0.0238  0.0154  0.4728
18636TIP3    H177323   3.729   2.160  15.612 -1.1461 -0.6209  1.8961
18636TIP3    H277324   3.708   2.053  15.506 -2.0829 -0.1262  1.5772
18637TIP3   OH277325   3.338   4.753  14.248  0.1567 -0.1164 -0.3230
18637TIP3    H177326   3.327   4.701  14.168  0.4752 -0.3325 -0.2318
18637TIP3    H277327   3.401   4.821  14.223  0.1282 -0.0840 -0.3045
18638TIP3   OH277328   2.015   5.548  16.454  0.7072  0.5443  0.3218
18638TIP3    H177329   2.060   5.628  16.429  1.3097  0.7391  1.8680
18638TIP3    H277330   1.938   5.578  16.502 -0.4034  0.1914 -1.1758
18639TIP3   OH277331   6.438   6.177   2.318  0.2114 -0.1006 -0.3068
18639TIP3    H177332   6.366   6.218   2.366 -1.3861  0.1018 -2.7020
18639TIP3    H277333   6.458   6.098   2.369  0.7752  1.5911  2.3264
18640TIP3   OH277334   1.048   4.024  11.659 -0.0311  0.4241 -0.4745
18640TIP3    H177335   0.990   3.967  11.608  1.6865 -0.9386 -0.9976
18640TIP3    H277336   1.055   3.980  11.744  0.2564  0.5833 -0.4167
18641TIP3   OH277337   6.733   5.293   3.201 -0.2368 -0.0924  0.2171
18641TIP3    H177338   6.667   5.231   3.233  0.8608 -1.2612  0.3044
18641TIP3    H277339   6.714   5.301   3.107  0.0977 -1.2046  0.0446
18642TIP3   OH277340   2.606   6.591  14.685  0.1681  0.0332  0.0100
18642TIP3    H177341   2.614   6.502  14.719  1.8010 -0.4846 -1.5645
18642TIP3    H277342   2.542   6.584  14.615 -0.8752  0.4623  0.8866
18643TIP3   OH277343   3.285   1.181  16.903 -0.4166  0.3345 -0.4474
18643TIP3    H177344   3.223   1.159  16.833 -0.7401 -1.8990  0.4668
18643TIP3    H277345   3.365   1.206  16.856  0.0000 -2.8758 -1.7671
18644TIP3   OH277346   1.875   3.589  10.796  0.6617 -0.0831  0.0501
18644TIP3    H177347   1.861   3.518  10.859 -1.2085  0.3536  0.1915
18644TIP3    H277348   1.904   3.545  10.716  0.8552 -0.8665  0.5468
18645TIP3   OH277349   3.625   4.504  13.986 -0.4587 -0.4575 -0.0248
18645TIP3    H177350   3.708   4.459  13.970 -0.5633 -0.6984  0.1132
18645TIP3    H277351   3.648   4.577  14.045 -0.7329 -1.9858  2.0868
18646TIP3   OH277352   3.926   0.951  12.456  0.2203 -0.2664 -0.0417
18646TIP3    H177353   3.916   0.857  12.471 -0.5821 -0.5303 -1.9237
18646TIP3    H277354   3.965   0.957  12.369  0.8296  1.1520  0.3049
18647TIP3   OH277355   4.862   5.972  11.899  0.5931  0.5285 -0.3962
18647TIP3    H177356   4.862   6.042  11.965  0.5903 -0.9558  1.2386
18647TIP3    H277357   4.770   5.950  11.887  0.7192 -1.3733  1.5755
18648TIP3   OH277358   5.950   5.757  13.469 -0.3313 -0.2452 -0.3090
18648TIP3    H177359   5.891   5.753  13.394 -1.0195  1.0952  0.1377
18648TIP3    H277360   5.953   5.667  13.501 -1.8837 -0.4129 -0.5402
18649TIP3   OH277361   0.962   2.695   4.299  0.0600 -0.2154 -0.4295
18649TIP3    H177362   0.996   2.620   4.251 -1.0987  0.1456 -1.8754
18649TIP3    H277363   0.934   2.658   4.383  0.4835 -1.1871 -0.6971
18650TIP3   OH277364   4.527   5.497  15.454 -0.0996  0.3609 -0.4121
18650TIP3    H177365   4.470   5.560  15.410  0.3421  1.0936  0.0527
18650TIP3    H277366   4.586   5.550  15.507  1.1345 -0.3665 -1.0037
18651TIP3   OH277367   1.759   5.109   5.014 -0.1364  0.4974  0.4066
18651TIP3    H177368   1.847   5.140   4.992 -0.3736  0.8562 -0.0555
18651TIP3    H277369   1.752   5.120   5.108  1.1351 -1.6363  0.8143
18652TIP3   OH277370   0.747   0.113   2.698 -0.2167 -0.0667 -0.3784
18652TIP3    H177371   0.806   0.119   2.623 -0.4962 -0.4391 -0.6333
18652TIP3    H277372   0.760   0.195   2.745 -0.0280  0.1665 -0.8250
18653TIP3   OH277373   0.504   0.586  11.632  0.4519 -0.2078 -0.4047
18653TIP3    H177374   0.414   0.612  11.652  1.0655  3.1037 -1.4219
18653TIP3    H277375   0.494   0.507  11.578 -1.7621 -0.4499  0.2392
18654TIP3   OH277376   0.882   0.406  13.164  0.4552 -0.0188  0.9073
18654TIP3    H177377   0.879   0.319  13.206  2.2617  0.0563  1.2963
18654TIP3    H277378   0.940   0.394  13.089 -0.8039  0.4446 -0.1862
18655TIP3   OH277379   0.366   5.752   3.979  0.0771 -0.2596  0.1661
18655TIP3    H177380   0.365   5.843   3.949 -0.9150 -0.4760 -0.5013
18655TIP3    H277381   0.438   5.748   4.042  0.0846  1.0051  0.2590
18656TIP3   OH277382   0.708   4.676  11.096 -0.5675 -0.2475 -0.2511
18656TIP3    H177383   0.771   4.748  11.089 -0.5972 -0.3599 -2.0693
18656TIP3    H277384   0.723   4.640  11.183  2.2129 -0.5726 -0.7700
18657TIP3   OH277385   3.612   2.548  12.846  0.1212  0.5265  0.6863
18657TIP3    H177386   3.597   2.453  12.845 -1.7312  0.7852 -0.5099
18657TIP3    H277387   3.558   2.581  12.775  0.4832  2.5325  1.3014
18658TIP3   OH277388   1.372   4.926  13.226 -0.1082 -0.2946  0.2540
18658TIP3    H177389   1.348   4.930  13.319 -0.8498  0.0035  0.0623
18658TIP3    H277390   1.344   4.839  13.197 -1.1655  0.1192 -0.0130
18659TIP3   OH277391   4.884   5.964  10.955 -0.7408  0.2073 -0.2722
18659TIP3    H177392   4.907   5.871  10.964  0.0102  0.2517 -1.4180
18659TIP3    H277393   4.816   5.965  10.888  1.9312  0.7180 -3.2018
18660TIP3   OH277394   3.850   0.149  11.984  0.2869  0.7973 -0.1220
18660TIP3    H177395   3.913   0.189  11.924 -0.1287  1.2056 -0.2852
18660TIP3    H277396   3.765   0.180  11.954  0.0916  1.2408  0.8473
18661TIP3   OH277397   1.225   3.161  11.733 -0.8286  0.3140  0.1513
18661TIP3    H177398   1.257   3.240  11.775 -0.1237  0.7228 -1.0911
18661TIP3    H277399   1.153   3.190  11.678 -2.8874 -0.4734  2.2535
18662TIP3   OH277400   4.304   0.958   4.855  1.1157  0.2499 -0.3137
18662TIP3    H177401   4.381   0.954   4.912  0.7754  1.8976  0.3010
18662TIP3    H277402   4.233   0.986   4.913 -0.1222 -1.7326 -0.7477
18663TIP3   OH277403   5.611   2.111   6.242 -0.7419 -0.5080  0.2917
18663TIP3    H177404   5.615   2.017   6.260 -0.5813 -0.8417 -1.3265
18663TIP3    H277405   5.684   2.127   6.182 -1.0678  0.5586  0.1637
18664TIP3   OH277406   6.403   0.509   3.711  0.2585 -0.1560  0.3892
18664TIP3    H177407   6.339   0.465   3.768  0.9748  0.8801  2.0697
18664TIP3    H277408   6.464   0.550   3.772  3.5697 -2.4678 -1.1069
18665TIP3   OH277409   6.636   2.406  13.592  0.3963  0.2666 -0.4188
18665TIP3    H177410   6.620   2.359  13.674 -0.2589 -0.6345 -1.0316
18665TIP3    H277411   6.698   2.350  13.545 -0.3676 -0.0047 -1.1443
18666TIP3   OH277412   4.119   2.219  14.269  0.1742  0.2026  0.2685
18666TIP3    H177413   4.063   2.141  14.274  0.9765 -0.3414  1.3624
18666TIP3    H277414   4.187   2.203  14.334  0.5061  1.7176  0.3347
18667TIP3   OH277415   5.294   0.001  12.495 -0.2661  0.6707 -0.1518
18667TIP3    H177416   5.222   0.053  12.459  0.4204  1.4785 -0.3850
18667TIP3    H277417   5.353  -0.013  12.421  0.1718  0.6338  0.1966
18668TIP3   OH277418   4.299   0.495  14.346 -0.8064 -0.3148  0.7958
18668TIP3    H177419   4.279   0.447  14.426 -0.3347 -2.2966 -0.2137
18668TIP3    H277420   4.394   0.489  14.337 -0.9638 -1.3961 -0.6157
18669TIP3   OH277421   4.928   6.440   0.043  0.4397  0.5699  0.0423
18669TIP3    H177422   4.854   6.430   0.103  2.7154 -1.4925  2.7485
18669TIP3    H277423   4.971   6.520   0.072 -0.3343  1.4737 -1.1880
18670TIP3   OH277424   1.219   5.410  15.820  0.0781 -0.3793  0.0260
18670TIP3    H177425   1.133   5.411  15.862  0.5387  0.0568  0.9961
18670TIP3    H277426   1.211   5.472  15.747 -0.3339 -0.0838  0.3170
18671TIP3   OH277427   2.200   6.053   3.202  0.1298  0.6274  0.5299
18671TIP3    H177428   2.173   6.021   3.116  1.5463 -2.6767  1.1458
18671TIP3    H277429   2.118   6.079   3.244 -1.2607 -2.1247 -0.2214
18672TIP3   OH277430   0.786   3.250  17.116 -0.3728 -0.4552 -1.0827
18672TIP3    H177431   0.827   3.212  17.194 -0.8610 -2.4254 -1.7177
18672TIP3    H277432   0.791   3.345  17.129 -1.0349 -0.7288  1.6329
18673TIP3   OH277433   3.630   5.969   4.503  0.5334  0.1172 -0.1581
18673TIP3    H177434   3.611   6.047   4.451  0.9927  1.0603  1.0433
18673TIP3    H277435   3.551   5.955   4.556  0.1310 -0.7409 -0.9540
18674TIP3   OH277436   5.906   2.872  14.962  0.2254 -0.3659 -0.4744
18674TIP3    H177437   5.946   2.880  15.048  0.0099 -0.4570 -0.3650
18674TIP3    H277438   5.974   2.903  14.901  0.4878 -0.5913 -0.2991
18675TIP3   OH277439   5.771   4.116   1.063  0.0696  0.0070  0.2988
18675TIP3    H177440   5.851   4.081   1.025 -0.6902  1.1419 -2.6150
18675TIP3    H277441   5.765   4.205   1.029 -2.7756 -0.2824 -0.2684
18676TIP3   OH277442   2.285   4.216  11.907  0.1644 -0.1294  0.3381
18676TIP3    H177443   2.260   4.179  11.823  0.6525  0.2023  0.0411
18676TIP3    H277444   2.202   4.247  11.945 -0.0092  0.0435 -0.1773
18677TIP3   OH277445   4.111   5.656   4.121  0.4680 -0.4390  0.1661
18677TIP3    H177446   4.194   5.609   4.123  1.3776  1.0969  0.5371
18677TIP3    H277447   4.119   5.721   4.191 -0.7849  0.1680 -0.2228
18678TIP3   OH277448   5.143   6.046  11.058  0.0595  0.0929  0.2903
18678TIP3    H177449   5.226   6.018  11.021 -1.4218 -2.9591 -1.0609
18678TIP3    H277450   5.077   6.018  10.994 -2.1013  1.8776  1.5571
18679TIP3   OH277451   2.474   6.494  13.983 -0.5451 -0.3541 -0.3706
18679TIP3    H177452   2.502   6.552  14.053  0.6903 -1.2288 -0.1053
18679TIP3    H277453   2.535   6.420  13.986 -0.1877 -0.2281 -2.6259
18680TIP3   OH277454   4.012   1.218  16.683 -0.0180 -0.5886  0.0050
18680TIP3    H177455   3.958   1.238  16.760  0.0190 -2.5963  0.6070
18680TIP3    H277456   3.964   1.149  16.637  1.4167 -1.5554 -0.1122
18681TIP3   OH277457   2.754   6.423  14.382  0.3936 -0.4617  0.2116
18681TIP3    H177458   2.813   6.481  14.432  0.0242 -1.0182  1.3179
18681TIP3    H277459   2.685   6.400  14.444 -1.9567  1.4600 -1.4894
18682TIP3   OH277460   0.031   4.855  13.682  0.4884 -0.2563 -0.4924
18682TIP3    H177461  -0.007   4.896  13.604  1.2360  1.7719  0.1456
18682TIP3    H277462   0.025   4.922  13.749  1.2885 -1.4189  0.7865
18683TIP3   OH277463   4.523   2.899   4.501 -0.0217 -0.2891 -0.1167
18683TIP3    H177464   4.492   2.913   4.412  1.6277 -3.4316 -1.3253
18683TIP3    H277465   4.606   2.947   4.505 -0.4735  0.4973  0.0238
18684TIP3   OH277466   5.161   3.949   0.204 -0.2768  0.0954  0.1678
18684TIP3    H177467   5.220   3.918   0.272 -0.4364 -1.8835 -0.5128
18684TIP3    H277468   5.074   3.950   0.245  0.0449  2.2681  0.9420
18685TIP3   OH277469   2.426   0.768   5.008 -0.1308 -0.3884 -0.2587
18685TIP3    H177470   2.371   0.843   4.984 -0.9743 -1.2010 -0.9847
18685TIP3    H277471   2.494   0.805   5.063  0.7683  1.2817 -2.3422
18686TIP3   OH277472   2.018   6.664  12.693  0.0806 -0.0011 -0.3386
18686TIP3    H177473   2.016   6.698  12.783  2.8263 -0.0556 -0.1723
18686TIP3    H277474   1.978   6.578  12.700 -1.9959  0.9492  0.2995
18687TIP3   OH277475   3.299   4.004   3.530  0.3313 -0.2667 -0.0045
18687TIP3    H177476   3.373   3.943   3.527 -0.6137 -1.4207 -1.3825
18687TIP3    H277477   3.223   3.949   3.551 -0.3793  0.6045 -0.2259
18688TIP3   OH277478   1.334   6.248   1.703  0.1041 -0.1310 -0.4723
18688TIP3    H177479   1.281   6.170   1.683  0.2168 -0.0838 -0.9646
18688TIP3    H277480   1.392   6.220   1.774 -0.5585 -0.1927  0.0575
18689TIP3   OH277481   1.422   1.069  11.785 -0.0027  0.0047 -0.2850
18689TIP3    H177482   1.480   1.081  11.709 -0.2949  0.6694 -0.4191
18689TIP3    H277483   1.393   1.158  11.806  0.0640 -0.1815  0.6015
18690TIP3   OH277484   5.682   1.919  14.006  0.1190  1.1150 -0.5991
18690TIP3    H177485   5.614   1.897  14.069  0.3578  0.5552 -0.5322
18690TIP3    H277486   5.708   2.008  14.029 -0.4609  1.2680 -0.5131
18691TIP3   OH277487   1.702   2.057   2.652 -1.0656  0.2109  0.6127
18691TIP3    H177488   1.613   2.044   2.685 -1.0344 -1.2305  0.1777
18691TIP3    H277489   1.719   1.981   2.597  0.7603  0.0334  1.3576
18692TIP3   OH277490   1.424   0.238  16.321 -0.3560  0.4252  0.2093
18692TIP3    H177491   1.390   0.302  16.384  1.9739  0.9155  1.0691
18692TIP3    H277492   1.346   0.197  16.284 -1.8723  2.2096  1.2527
18693TIP3   OH277493   4.781   1.088  15.010 -0.8050  0.5280  0.4990
18693TIP3    H177494   4.786   1.071  14.916  1.0537 -0.8816  0.8087
18693TIP3    H277495   4.839   1.163  15.023  0.6346 -0.5853  0.7612
18694TIP3   OH277496   3.929   3.096  11.000  0.8019 -0.4195 -0.0067
18694TIP3    H177497   3.882   3.128  10.924  1.5753 -0.9373 -0.7150
18694TIP3    H277498   3.969   3.015  10.971 -0.5091 -1.6807  1.5340
18695TIP3   OH277499   0.307   5.141   1.645  0.5475  0.0358 -0.6564
18695TIP3    H177500   0.315   5.091   1.564 -0.2858 -2.9486  0.9669
18695TIP3    H277501   0.219   5.178   1.642 -0.5449 -2.3356 -0.0201
18696TIP3   OH277502   6.352   6.005   1.606 -0.2953  0.1359  0.2056
18696TIP3    H177503   6.289   6.076   1.603 -0.7065 -0.1821  1.1560
18696TIP3    H277504   6.345   5.969   1.694 -0.0234 -1.0193 -0.2263
18697TIP3   OH277505   3.275   0.404  11.130 -0.4207  0.1892  0.3268
18697TIP3    H177506   3.270   0.310  11.112  0.9668  0.2822 -0.6666
18697TIP3    H277507   3.329   0.439  11.059 -1.4548  1.8520  0.3144
18698TIP3   OH277508   5.411   2.526  12.051  0.0087  0.6316  0.4998
18698TIP3    H177509   5.445   2.443  12.018 -0.2559  0.8051 -0.2410
18698TIP3    H277510   5.385   2.507  12.141  1.0431  0.2233  0.7332
18699TIP3   OH277511   0.480   1.147  13.887 -0.4794  0.1373 -0.1325
18699TIP3    H177512   0.459   1.057  13.861  0.4918 -0.0795 -0.2165
18699TIP3    H277513   0.417   1.201  13.841 -1.2174 -0.5154  0.0836
18700TIP3   OH277514   5.748   1.678  14.200 -0.1023 -0.4948  0.1897
18700TIP3    H177515   5.796   1.596  14.195 -0.5106 -0.6876 -0.8512
18700TIP3    H277516   5.762   1.720  14.115 -0.5944  0.1107  0.3944
18701TIP3   OH277517   2.873   2.734   0.472 -0.2938  0.1456 -0.1606
18701TIP3    H177518   2.890   2.765   0.561 -0.0221  2.4782 -0.9614
18701TIP3    H277519   2.956   2.745   0.426 -0.8353  0.4049 -1.0943
18702TIP3   OH277520   1.410   0.397   0.924 -0.3114  0.7609 -0.3620
18702TIP3    H177521   1.421   0.479   0.875  1.4509  1.8331  1.6398
18702TIP3    H277522   1.494   0.352   0.914  0.3777  1.3428  2.0936
18703TIP3   OH277523   6.657   6.011  15.908 -0.2252 -0.1209  0.0359
18703TIP3    H177524   6.751   5.997  15.894  0.2959  1.2256  1.8246
18703TIP3    H277525   6.639   6.095  15.866 -0.3454  0.2108  0.7444
18704TIP3   OH277526   5.995   4.175   4.383 -0.0209 -0.5186  0.7088
18704TIP3    H177527   6.058   4.230   4.336 -0.7504  0.9851  1.4259
18704TIP3    H277528   5.909   4.203   4.350 -0.4225 -1.0226  1.3011
18705TIP3   OH277529   5.501   4.903  11.552  0.1180 -0.0985  0.0117
18705TIP3    H177530   5.555   4.978  11.576  0.4893 -0.5724  0.6694
18705TIP3    H277531   5.423   4.911  11.606  0.3413 -0.4038  0.3885
18706TIP3   OH277532   2.945   5.906  13.216  0.0083 -0.3452  0.3656
18706TIP3    H177533   2.966   5.839  13.151  0.6579  1.4754 -1.4081
18706TIP3    H277534   2.908   5.978  13.164  0.4071  1.1236  2.0491
18707TIP3   OH277535   1.913   5.547  12.294 -0.0077 -0.1075 -0.5841
18707TIP3    H177536   1.905   5.624  12.351 -0.5341 -0.6217  0.0517
18707TIP3    H277537   1.843   5.489  12.323  1.0961 -1.3297 -0.2880
18708TIP3   OH277538   5.834   3.524  12.974 -0.2178 -0.4704 -0.3659
18708TIP3    H177539   5.862   3.615  12.965 -0.2779 -0.4990 -0.8546
18708TIP3    H277540   5.741   3.524  12.953 -0.6814 -0.3361  1.5026
18709TIP3   OH277541   0.615   4.003  12.836  0.0108  0.2127 -0.7778
18709TIP3    H177542   0.520   3.989  12.832 -0.1984  1.7472 -3.1327
18709TIP3    H277543   0.650   3.920  12.869 -2.1373 -0.2876  0.4374
18710TIP3   OH277544   6.065   4.918  13.760  0.0526 -0.3082  0.4587
18710TIP3    H177545   6.159   4.939  13.765  0.3487 -0.4875 -2.5621
18710TIP3    H277546   6.022   4.992  13.803  1.5422  0.0218  1.4574
18711TIP3   OH277547   4.068   6.753  11.680  0.1969  0.5247  0.8117
18711TIP3    H177548   4.020   6.679  11.717 -1.5650  1.0390 -0.3490
18711TIP3    H277549   4.065   6.738  11.585  0.2155  1.8368  0.5919
18712TIP3   OH277550   0.486   4.356   2.395 -0.0834 -0.3010  0.4053
18712TIP3    H177551   0.434   4.417   2.342  0.3248 -0.9644 -0.7902
18712TIP3    H277552   0.510   4.286   2.334  0.6058 -0.9648  1.4206
18713TIP3   OH277553   2.833   4.274  14.825 -0.4193  0.1724  0.0622
18713TIP3    H177554   2.868   4.186  14.836  0.2992 -0.2487 -4.0150
18713TIP3    H277555   2.739   4.264  14.844  0.0788 -0.6953  2.4768
18714TIP3   OH277556   4.962   4.170  16.894 -0.4447  0.4222  0.0578
18714TIP3    H177557   5.040   4.220  16.919  0.2998  0.1896 -1.6542
18714TIP3    H277558   4.979   4.081  16.923  0.0204  0.3358 -0.4660
18715TIP3   OH277559   2.892   0.071  15.942  0.2547  0.5573  0.4891
18715TIP3    H177560   2.900  -0.024  15.953 -0.4251  0.3089 -0.9491
18715TIP3    H277561   2.800   0.090  15.959  0.4098  0.9770  0.8749
18716TIP3   OH277562   0.216   6.358   0.552  0.2028 -0.8245 -0.3088
18716TIP3    H177563   0.273   6.368   0.475 -1.0235 -0.0646 -1.1632
18716TIP3    H277564   0.131   6.393   0.523 -0.0692  0.3043  1.6794
18717TIP3   OH277565   3.904   6.223  16.312  0.2865 -0.1773 -0.3342
18717TIP3    H177566   3.926   6.314  16.335  0.3992 -0.7229  2.0162
18717TIP3    H277567   3.811   6.226  16.290 -0.0430  0.3282  1.0200
18718TIP3   OH277568   5.873   0.909  15.315  0.1958 -0.0822  0.5001
18718TIP3    H177569   5.799   0.848  15.314 -0.9552  1.1740 -2.2197
18718TIP3    H277570   5.950   0.852  15.318 -0.8441 -1.6126 -0.0219
18719TIP3   OH277571   4.253   6.443   1.652  0.1095 -0.5017  0.0432
18719TIP3    H177572   4.262   6.351   1.625 -0.0725 -0.0600 -1.5846
18719TIP3    H277573   4.324   6.489   1.607  0.2037  0.1741  0.8541
18720TIP3   OH277574   1.944   2.799  12.301 -0.5554 -0.5258 -0.9716
18720TIP3    H177575   2.022   2.820  12.353 -0.1504 -1.0425 -1.3543
18720TIP3    H277576   1.923   2.880  12.255 -1.3765  0.1801  0.5443
18721TIP3   OH277577   5.529   1.329   2.315 -1.0175  0.6847  0.5453
18721TIP3    H177578   5.453   1.296   2.362  0.0654 -0.9174  1.2835
18721TIP3    H277579   5.494   1.395   2.255 -2.9045  0.3004  1.1601
18722TIP3   OH277580   4.240   3.451  13.161  0.1102 -0.2156  0.3983
18722TIP3    H177581   4.262   3.436  13.253  0.6601 -1.0918  0.1291
18722TIP3    H277582   4.266   3.371  13.116  0.4693  0.4573 -0.6302
18723TIP3   OH277583   1.392   3.645   3.629  0.2807 -0.4466  0.2708
18723TIP3    H177584   1.346   3.723   3.599  1.9133  1.4286  2.3753
18723TIP3    H277585   1.467   3.637   3.569 -0.0574 -0.5985 -0.1360
18724TIP3   OH277586   2.983   3.219  13.327 -0.2249 -0.0853  0.5085
18724TIP3    H177587   2.898   3.185  13.356  0.4101 -0.0108  2.6237
18724TIP3    H277588   3.040   3.142  13.328 -0.1433 -0.0363 -0.3995
18725TIP3   OH277589   4.803   3.353  13.277  0.0269 -0.0579 -0.0093
18725TIP3    H177590   4.858   3.281  13.308  0.2938  0.4354  0.6743
18725TIP3    H277591   4.714   3.320  13.286  0.1460 -0.2866  0.3518
18726TIP3   OH277592   4.984   1.668   5.211  0.4987 -0.3224  0.3980
18726TIP3    H177593   5.049   1.616   5.258 -0.1109 -0.8385  0.6844
18726TIP3    H277594   4.979   1.751   5.259  0.7151 -0.4068  0.5649
18727TIP3   OH277595   1.563   5.638   1.683 -0.4909  0.2960  0.1904
18727TIP3    H177596   1.637   5.629   1.624 -0.0474  1.3034  0.5839
18727TIP3    H277597   1.487   5.650   1.626 -0.2290  0.1443 -0.1882
18728TIP3   OH277598   0.474   3.796   4.742 -0.1572  0.2152  0.3169
18728TIP3    H177599   0.429   3.874   4.711 -0.3097  0.6705  1.6061
18728TIP3    H277600   0.545   3.830   4.797 -0.4412 -0.5520  1.1809
18729TIP3   OH277601   2.386   6.711  12.560 -0.0007  0.0549  0.3360
18729TIP3    H177602   2.393   6.657  12.639  1.2285 -0.0407  0.1842
18729TIP3    H277603   2.372   6.648  12.489  0.6587 -0.0097  0.2583
18730TIP3   OH277604   0.554   3.251   5.944  0.1545  0.1208  0.4590
18730TIP3    H177605   0.642   3.241   5.982 -0.0299  0.0206  0.8590
18730TIP3    H277606   0.541   3.346   5.938  0.3303  0.1367  0.3008
18731TIP3   OH277607   2.283   2.334  13.980 -0.1381 -0.0645 -0.0924
18731TIP3    H177608   2.341   2.306  13.909  1.5777  2.8961 -0.0428
18731TIP3    H277609   2.329   2.308  14.060 -0.8479 -1.1619 -0.0175
18732TIP3   OH277610   1.411   5.195   0.687 -0.4189 -0.2251  0.6539
18732TIP3    H177611   1.457   5.279   0.680  0.2491 -0.6994 -1.0198
18732TIP3    H277612   1.430   5.165   0.776  0.3973  0.8066  0.8489
18733TIP3   OH277613   6.590   1.657  16.761 -0.4950 -0.3169 -0.4195
18733TIP3    H177614   6.590   1.689  16.851 -0.7864 -1.2971 -0.0588
18733TIP3    H277615   6.547   1.571  16.766 -0.0608 -0.6056 -1.4024
18734TIP3   OH277616   0.876   0.979   4.776 -0.6880  0.4141  0.5819
18734TIP3    H177617   0.845   1.069   4.761  2.1314  1.1847 -1.3423
18734TIP3    H277618   0.948   0.989   4.837  0.5793 -0.3117 -0.7457
18735TIP3   OH277619   4.608   2.189   5.178  0.2431 -0.0066  0.0968
18735TIP3    H177620   4.581   2.229   5.261  1.7950  2.2253 -0.3690
18735TIP3    H277621   4.570   2.246   5.111 -2.1837 -2.5446 -0.9080
18736TIP3   OH277622   2.817   4.484   0.416  0.4150 -0.3373  0.6351
18736TIP3    H177623   2.902   4.444   0.397 -0.1020 -0.9801 -0.4251
18736TIP3    H277624   2.755   4.411   0.414 -0.5448  0.4617 -1.3113
18737TIP3   OH277625   3.686   1.039  11.367  0.2054 -0.3839 -0.1845
18737TIP3    H177626   3.770   1.037  11.322 -0.6075 -0.7168 -1.7432
18737TIP3    H277627   3.654   1.128  11.354  0.0881 -0.3990 -0.0090
18738TIP3   OH277628   1.579   6.687   2.632 -0.2371  0.1202  0.2276
18738TIP3    H177629   1.631   6.680   2.551  1.0840  0.7206  0.9904
18738TIP3    H277630   1.620   6.625   2.692 -0.2781  0.7319  0.9049
18739TIP3   OH277631   2.601   6.565   3.056 -0.5806  0.2915  0.6929
18739TIP3    H177632   2.574   6.581   2.966 -0.2651 -0.6049  0.4384
18739TIP3    H277633   2.522   6.530   3.099  0.1329 -2.4514 -0.0832
18740TIP3   OH277634   4.322   4.746  13.552 -0.0151  0.3985 -0.5696
18740TIP3    H177635   4.264   4.706  13.487  0.9117 -1.4051 -0.3759
18740TIP3    H277636   4.401   4.767  13.504  0.1814  0.2767 -0.3057
18741TIP3   OH277637   4.480   2.088  13.054  0.2164 -0.4869  0.5802
18741TIP3    H177638   4.457   2.145  13.128  2.1095 -0.2259  1.0190
18741TIP3    H277639   4.426   2.119  12.982 -0.2344  0.5453  1.3354
18742TIP3   OH277640   6.086   1.655   0.328  0.0904 -0.2603 -0.0245
18742TIP3    H177641   6.029   1.686   0.398  1.4055 -1.7507  1.7832
18742TIP3    H277642   6.034   1.591   0.280 -0.5630  0.2164  0.0374
18743TIP3   OH277643   3.308   6.067   4.871 -0.1279  0.0865  0.2594
18743TIP3    H177644   3.335   6.027   4.788  1.9491  2.4378 -0.3330
18743TIP3    H277645   3.389   6.074   4.921 -0.8088  1.4021  1.2436
18744TIP3   OH277646   6.102   6.141   4.496  0.0299 -0.2297 -0.3665
18744TIP3    H177647   6.136   6.110   4.581  0.1100  0.2141 -0.2350
18744TIP3    H277648   6.052   6.067   4.462  1.2296 -0.9489 -0.6220
18745TIP3   OH277649   0.152   4.245   3.432  0.0610 -0.3466  0.0272
18745TIP3    H177650   0.169   4.334   3.403  0.5654 -0.7045 -0.8218
18745TIP3    H277651   0.202   4.190   3.371 -1.4098 -1.2870 -0.3784
18746TIP3   OH277652   0.377   3.562  16.459 -0.7129  0.9396 -0.3318
18746TIP3    H177653   0.319   3.609  16.398 -2.0761 -1.7727 -1.2688
18746TIP3    H277654   0.318   3.506  16.509  0.9701 -1.0726 -0.4951
18747TIP3   OH277655   3.864   1.872   0.406  0.2103 -0.3162  0.0395
18747TIP3    H177656   3.776   1.840   0.426 -0.1940  0.2965 -0.7461
18747TIP3    H277657   3.851   1.961   0.375  0.6274 -1.5787 -4.3234
18748TIP3   OH277658   6.428   0.416  17.046 -0.4561  0.1399  0.5754
18748TIP3    H177659   6.343   0.452  17.068  0.2502  1.8652  0.6618
18748TIP3    H277660   6.447   0.353  17.115 -1.1313  0.6442  1.2300
18749TIP3   OH277661   0.647   1.994  12.922  0.9511 -0.0944 -0.7748
18749TIP3    H177662   0.716   2.054  12.950  0.3888  0.0295  0.4134
18749TIP3    H277663   0.627   1.943  13.000 -0.9811  0.5568 -0.8022
18750TIP3   OH277664   3.358   3.224  15.507  0.3511  0.0758  0.5011
18750TIP3    H177665   3.412   3.145  15.499  0.7295  0.2082  1.5450
18750TIP3    H277666   3.299   3.206  15.580 -0.3679  0.3050 -0.0229
18751TIP3   OH277667   2.848   4.799   6.220  0.1202 -0.1381 -0.3520
18751TIP3    H177668   2.866   4.843   6.137 -0.7718  2.2344  0.6185
18751TIP3    H277669   2.885   4.858   6.286 -1.9403 -0.3536  1.0846
18752TIP3   OH277670   6.574   2.612   2.687  0.0914  0.4267  0.2102
18752TIP3    H177671   6.537   2.688   2.731 -2.3162 -0.5273 -0.0474
18752TIP3    H277672   6.556   2.627   2.594  0.5614  0.0198  0.0492
18753TIP3   OH277673   1.705   5.519   1.210  0.1133  0.0296  0.0674
18753TIP3    H177674   1.737   5.430   1.218  0.2528  0.1988  1.9340
18753TIP3    H277675   1.683   5.529   1.117  0.3159 -1.8441 -0.2185
18754TIP3   OH277676   2.755   2.801  15.489 -0.1743  0.2185  0.3166
18754TIP3    H177677   2.706   2.721  15.508 -0.8371  0.2946 -0.9750
18754TIP3    H277678   2.721   2.865  15.552 -1.5698  0.1929 -0.3636
18755TIP3   OH277679   4.452   6.155  16.736 -0.4618  0.0495  0.2884
18755TIP3    H177680   4.393   6.105  16.792 -1.2132  0.4105 -0.1656
18755TIP3    H277681   4.459   6.240  16.779 -0.5444  0.1202  0.1613
18756TIP3   OH277682   1.598   5.750  10.691 -0.1695 -0.3696  1.0915
18756TIP3    H177683   1.556   5.836  10.700 -0.6142 -0.3146 -1.0658
18756TIP3    H277684   1.691   5.768  10.694 -0.2634  0.1805  0.8194
18757TIP3   OH277685   5.460   5.065  17.017  0.0725  0.0105  0.4484
18757TIP3    H177686   5.453   5.042  17.109 -1.7402 -1.2687  0.0511
18757TIP3    H277687   5.397   5.007  16.973  1.1564  0.3104 -1.6340
18758TIP3   OH277688   4.814   3.803   0.557  0.3148 -0.1345  0.4055
18758TIP3    H177689   4.803   3.737   0.488  1.9842 -0.6560  0.5902
18758TIP3    H277690   4.885   3.768   0.612 -0.1207  0.8793  1.6569
18759TIP3   OH277691   2.046   4.070   6.331  0.5574  0.2576 -0.7859
18759TIP3    H177692   2.026   4.004   6.265  0.1771  0.8625 -1.2867
18759TIP3    H277693   1.975   4.061   6.395  2.1526 -1.9175  0.8322
18760TIP3   OH277694   3.043   5.235   0.137  0.0655  0.5191 -0.0807
18760TIP3    H177695   3.089   5.153   0.151 -0.2828  0.3010 -0.1928
18760TIP3    H277696   3.019   5.233   0.044 -3.1697 -0.9674  0.6462
18761TIP3   OH277697   4.355   5.618   3.078 -0.5562 -0.0009  0.1722
18761TIP3    H177698   4.367   5.601   2.985  0.0896 -0.9431  0.4066
18761TIP3    H277699   4.402   5.547   3.122 -0.7301  0.5009  1.2210
18762TIP3   OH277700   0.702   6.185   0.142 -0.0234 -0.1916 -0.2682
18762TIP3    H177701   0.715   6.239   0.064  1.9907 -1.1951 -0.7041
18762TIP3    H277702   0.638   6.119   0.116 -1.6647  1.2603 -0.0742
18763TIP3   OH277703   5.977   2.227   6.103  0.6125 -0.2780  0.1395
18763TIP3    H177704   5.976   2.183   6.018  0.9115 -0.7062  0.3568
18763TIP3    H277705   5.980   2.157   6.167 -0.7751  0.0100  0.5523
18764TIP3   OH277706   5.393   6.293   3.144  0.3029  0.3205 -0.6258
18764TIP3    H177707   5.393   6.239   3.066 -1.2047  0.0007 -0.4476
18764TIP3    H277708   5.300   6.304   3.165  0.6229 -1.4174  2.3335
18765TIP3   OH277709   3.641   2.230   0.487  0.0187  0.4436  0.4221
18765TIP3    H177710   3.546   2.233   0.499 -0.1266 -2.2615  0.5990
18765TIP3    H277711   3.676   2.218   0.575  0.1892 -2.2181  0.0729
18766TIP3   OH277712   0.747   2.360  14.867  0.3937 -0.5965  0.5764
18766TIP3    H177713   0.692   2.421  14.916 -3.0121 -2.0753 -1.1468
18766TIP3    H277714   0.771   2.293  14.931  1.2761  0.6507  1.6219
18767TIP3   OH277715   5.421   4.773   3.567  0.0613 -0.4901 -0.3240
18767TIP3    H177716   5.418   4.841   3.634 -0.5082  0.0304 -0.8692
18767TIP3    H277717   5.465   4.814   3.493  0.7226 -1.0741 -0.2786
18768TIP3   OH277718   2.069   4.862   0.694 -0.2125  0.6170  0.3292
18768TIP3    H177719   2.157   4.868   0.655 -0.5996  1.2250 -0.4677
18768TIP3    H277720   2.086   4.846   0.787  0.7363 -0.1289  0.0472
18769TIP3   OH277721   2.800   1.416  17.125 -0.3068 -0.0413 -0.2935
18769TIP3    H177722   2.870   1.426  17.190 -0.1866  1.9072 -0.6402
18769TIP3    H277723   2.740   1.488  17.145 -1.1090 -0.4133 -1.3250
18770TIP3   OH277724   3.645   5.300  12.501  0.3757  0.1587  0.0963
18770TIP3    H177725   3.656   5.320  12.594  0.1953  1.2247 -0.0894
18770TIP3    H277726   3.672   5.209  12.492 -1.4353 -0.5881  1.5275
18771TIP3   OH277727   6.660   4.111  15.823 -0.5132 -0.6194 -0.4641
18771TIP3    H177728   6.753   4.109  15.802  0.0221  2.3229  1.0830
18771TIP3    H277729   6.650   4.046  15.893  0.6229 -0.3004  0.0273
18772TIP3   OH277730   4.018   6.497   3.597 -0.0218 -0.1552 -0.4023
18772TIP3    H177731   3.929   6.526   3.579 -0.6464 -0.7159  1.5168
18772TIP3    H277732   4.013   6.401   3.589  0.9112 -0.0916 -2.1953
18773TIP3   OH277733   4.419   1.886   4.805  0.6060 -0.0762 -0.0729
18773TIP3    H177734   4.445   1.925   4.722 -0.0361 -0.6686 -0.5627
18773TIP3    H277735   4.420   1.792   4.789 -0.1379 -0.1751  0.4034
18774TIP3   OH277736   3.078   1.304  12.137 -0.4037  0.8352  0.4790
18774TIP3    H177737   3.171   1.285  12.152 -0.7700 -0.7266  1.0316
18774TIP3    H277738   3.035   1.218  12.144 -1.6745  1.2160 -1.6263
18775TIP3   OH277739   2.423   0.952  12.508  0.8374  0.1658 -0.3668
18775TIP3    H177740   2.427   0.921  12.599 -0.0284 -0.5873 -0.5763
18775TIP3    H277741   2.479   0.890  12.460 -0.7797 -1.0476 -0.7618
18776TIP3   OH277742   0.291   3.832   1.703  0.0772  0.2879  0.2072
18776TIP3    H177743   0.304   3.905   1.642  0.7974  0.3798  0.4547
18776TIP3    H277744   0.340   3.760   1.663 -0.3112  0.0518  0.1583
18777TIP3   OH277745   3.393   5.851  15.919  0.0864  0.0552 -0.5550
18777TIP3    H177746   3.299   5.867  15.930  0.3703  0.3529  2.1635
18777TIP3    H277747   3.433   5.938  15.921  0.5324 -0.1534 -0.0209
18778TIP3   OH277748   0.023   5.789  14.718  0.1370 -0.3622  0.0502
18778TIP3    H177749  -0.007   5.822  14.802 -2.5036  1.5482 -1.4957
18778TIP3    H277750  -0.057   5.762  14.672  1.2751  0.1685 -2.4322
18779TIP3   OH277751   2.096   3.378  14.219  0.4288  0.1552  0.4026
18779TIP3    H177752   2.049   3.442  14.165 -0.4103  0.4234  1.4131
18779TIP3    H277753   2.048   3.376  14.301  1.7598 -0.1360  1.2105
18780TIP3   OH277754   5.521   5.465   5.457 -0.2425  0.2542 -0.3735
18780TIP3    H177755   5.461   5.476   5.530  0.5024 -0.7687  0.4254
18780TIP3    H277756   5.583   5.537   5.465  1.1761 -1.0598  1.3926
18781TIP3   OH277757   1.632   6.581   1.104 -0.6392  0.5593  0.4494
18781TIP3    H177758   1.637   6.671   1.137 -0.4892  0.7704 -0.1290
18781TIP3    H277759   1.560   6.582   1.042  0.0838  0.5702 -0.4125
18782TIP3   OH277760   3.954   3.273   1.846 -0.3774  0.0947 -0.1140
18782TIP3    H177761   4.023   3.211   1.865 -2.1533 -1.8026  0.5331
18782TIP3    H277762   3.874   3.220   1.845 -1.6792  1.9285 -2.2177
18783TIP3   OH277763   3.291   4.035  16.884  0.3578 -0.3962 -0.2208
18783TIP3    H177764   3.200   4.039  16.857  0.4126 -0.6538 -0.4507
18783TIP3    H277765   3.340   4.055  16.804  0.5535 -2.2000 -0.5878
18784TIP3   OH277766   2.007   0.844  14.094  0.0236  1.1921  0.4263
18784TIP3    H177767   1.979   0.875  14.180  1.4242 -1.1136  1.8102
18784TIP3    H277768   2.098   0.870  14.087  0.0910  0.8452 -0.0753
18785TIP3   OH277769   5.695   5.251   3.443 -0.0629  0.1811 -0.0276
18785TIP3    H177770   5.633   5.226   3.375  2.8095 -0.8715 -2.5145
18785TIP3    H277771   5.725   5.338   3.418  2.1312 -0.8118 -1.1687
18786TIP3   OH277772   5.871   1.133   3.965  0.0555 -0.3393  0.0570
18786TIP3    H177773   5.812   1.152   4.038  2.3683  1.9162  1.4908
18786TIP3    H277774   5.900   1.043   3.980 -1.6727 -0.9103  0.2300
18787TIP3   OH277775   1.801   3.402  16.892  0.1157 -0.1344  0.1381
18787TIP3    H177776   1.855   3.405  16.971  1.8996  0.6269 -1.0681
18787TIP3    H277777   1.784   3.493  16.870  3.4939  0.0051 -2.8064
18788TIP3   OH277778   5.176   0.953   1.847  0.8927 -0.1234 -0.1072
18788TIP3    H177779   5.085   0.949   1.878  0.9513 -0.3205  0.0379
18788TIP3    H277780   5.178   1.030   1.791  1.1038  0.9948  1.3872
18789TIP3   OH277781   5.532   0.525   3.080  0.1119 -0.2891 -1.0446
18789TIP3    H177782   5.529   0.586   3.154 -1.7502  0.3766 -1.6086
18789TIP3    H277783   5.625   0.518   3.058  0.5469  0.7337  0.3433
18790TIP3   OH277784   1.261   2.592  15.485 -0.5410  0.3130  0.4273
18790TIP3    H177785   1.355   2.574  15.482 -0.4591  0.3388  2.0533
18790TIP3    H277786   1.243   2.641  15.404  0.5976 -0.7167 -0.4871
18791TIP3   OH277787   4.569   3.015   5.150  0.4948  0.1282 -0.1288
18791TIP3    H177788   4.565   3.070   5.228  0.5757  1.4222 -1.0074
18791TIP3    H277789   4.507   3.056   5.089  0.9329 -0.4690 -0.9849
18792TIP3   OH277790   3.915   6.532  11.731 -0.6597  0.2606  0.3016
18792TIP3    H177791   3.891   6.489  11.649 -0.8152 -0.1785  0.5725
18792TIP3    H277792   3.834   6.533  11.781 -0.5789  0.5857  0.4240
18793TIP3   OH277793   0.222   2.579  12.192 -0.0870  0.1338  0.0576
18793TIP3    H177794   0.222   2.485  12.172 -2.2678 -0.1235  0.9724
18793TIP3    H277795   0.293   2.615  12.139  1.5929 -2.1901  0.5513
18794TIP3   OH277796   5.863   1.994  12.745  0.6720 -0.3929  0.4786
18794TIP3    H177797   5.848   1.901  12.730 -0.4805 -0.3089  1.0732
18794TIP3    H277798   5.813   2.038  12.676  2.3130 -0.2143 -0.6699
18795TIP3   OH277799   1.964   5.843   0.358 -0.0032 -0.3349 -0.2657
18795TIP3    H177800   1.966   5.811   0.268 -0.2539 -0.3297 -0.2746
18795TIP3    H277801   2.014   5.925   0.356  1.1208 -0.9979 -0.1323
18796TIP3   OH277802   2.335   5.570  16.470 -0.1288  0.0596 -0.5309
18796TIP3    H177803   2.355   5.581  16.563  2.4579  0.1659 -1.0318
18796TIP3    H277804   2.268   5.635  16.452 -0.5142  0.1869  1.2067
18797TIP3   OH277805   1.756   4.892   2.084  0.6754  0.6183  0.0300
18797TIP3    H177806   1.691   4.853   2.142 -0.4082  0.0568 -1.4985
18797TIP3    H277807   1.786   4.970   2.131 -1.0993  0.8927  0.7922
18798TIP3   OH277808   4.434   3.465   4.531 -0.1932  0.3156  0.3597
18798TIP3    H177809   4.385   3.515   4.466 -0.9241  0.2082  0.8138
18798TIP3    H277810   4.380   3.469   4.610  1.2086  1.4188  1.3216
18799TIP3   OH277811   4.163   3.747  16.956  0.2760 -0.2290  0.2263
18799TIP3    H177812   4.140   3.732  16.865  0.5322 -0.2569  0.1649
18799TIP3    H277813   4.114   3.826  16.981 -1.0734 -1.1445  0.5557
18800TIP3   OH277814   4.810   2.408  11.986 -0.4565 -0.1102 -0.3724
18800TIP3    H177815   4.765   2.488  12.013  0.3693  0.5034 -0.7784
18800TIP3    H277816   4.795   2.404  11.891  1.5612  0.9095 -0.7759
18801TIP3   OH277817   4.220   1.108   2.552  0.5382 -0.2427 -0.3609
18801TIP3    H177818   4.170   1.183   2.519  0.2562 -0.9296 -1.5674
18801TIP3    H277819   4.164   1.033   2.534  1.8930 -1.0075 -1.5447
18802TIP3   OH277820   4.472   4.826  12.198 -0.2512  0.4003 -0.4402
18802TIP3    H177821   4.567   4.831  12.212 -0.0989 -0.9500 -0.8018
18802TIP3    H277822   4.435   4.846  12.284  0.4444 -0.7974  0.1826
18803TIP3   OH277823   0.111   6.791  16.433 -0.4861  0.2150  0.0938
18803TIP3    H177824   0.184   6.832  16.480 -0.0926  1.4379 -1.4813
18803TIP3    H277825   0.045   6.775  16.500  0.8269  0.0163  1.3827
18804TIP3   OH277826   0.794   0.095  15.088  0.6150  0.3524 -0.6067
18804TIP3    H177827   0.879   0.139  15.097  0.0541  1.3579 -0.0410
18804TIP3    H277828   0.793   0.032  15.160  1.9933 -1.6375 -2.2262
18805TIP3   OH277829   6.033   6.509  16.739 -0.9207  0.3102 -0.3386
18805TIP3    H177830   6.124   6.482  16.723 -0.7064  1.0041 -0.3369
18805TIP3    H277831   6.029   6.524  16.833 -1.0198  0.3523 -0.3493
18806TIP3   OH277832   4.473   6.746   3.178 -0.3727  0.0426 -0.0156
18806TIP3    H177833   4.401   6.783   3.127 -0.7660 -0.0673  0.4529
18806TIP3    H277834   4.503   6.819   3.232  0.1586  0.2065 -0.5259
18807TIP3   OH277835   5.027   0.933   5.705  0.3560 -0.2885 -0.7282
18807TIP3    H177836   5.014   0.869   5.636 -0.9105  2.2090 -3.0060
18807TIP3    H277837   4.958   0.915   5.769 -0.0043 -1.1319 -1.3438
18808TIP3   OH277838   2.040   1.633  15.853 -0.1162  0.0678  0.6069
18808TIP3    H177839   2.039   1.729  15.858  1.0262  0.2536 -1.7221
18808TIP3    H277840   1.966   1.611  15.797  0.1370 -0.3449  0.4317
18809TIP3   OH277841   3.460   5.279  15.604  0.2447 -0.0396 -0.1415
18809TIP3    H177842   3.406   5.225  15.546  1.0964  0.0975 -1.0825
18809TIP3    H277843   3.398   5.339  15.645 -0.2875  0.4207 -1.5446
18810TIP3   OH277844   4.017   6.460  16.397  0.2586 -0.0351 -0.9995
18810TIP3    H177845   4.054   6.488  16.313 -1.2850  0.4275 -1.5704
18810TIP3    H277846   3.932   6.504  16.401  0.4643  0.2525  1.0030
18811TIP3   OH277847   5.094   4.094  17.170 -0.1556  0.4547  0.2692
18811TIP3    H177848   5.120   4.028  17.234 -1.1191 -0.5527 -0.3425
18811TIP3    H277849   5.175   4.138  17.146  0.7656 -1.4997 -0.3786
18812TIP3   OH277850   3.777   4.332  12.625  0.0645  0.0072 -0.0969
18812TIP3    H177851   3.720   4.397  12.584  0.6648  0.8243  0.3524
18812TIP3    H277852   3.776   4.354  12.718 -0.4954 -1.2271  0.2268
18813TIP3   OH277853   4.587   4.735   3.753 -0.3588 -0.4139 -0.5332
18813TIP3    H177854   4.549   4.770   3.673 -1.2286 -3.4057 -1.5724
18813TIP3    H277855   4.514   4.733   3.815  0.0462  0.8676  0.0185
18814TIP3   OH277856   6.234   3.696   2.918 -0.5144 -0.0047 -0.3772
18814TIP3    H177857   6.254   3.608   2.948 -0.1594  0.2717  0.2147
18814TIP3    H277858   6.272   3.702   2.831 -1.8328 -0.9265 -1.0536
18815TIP3   OH277859   3.384   6.591   4.749 -0.8001  0.2817  0.1450
18815TIP3    H177860   3.425   6.506   4.735 -2.5509 -0.5293 -0.4487
18815TIP3    H277861   3.404   6.613   4.840 -2.1797 -1.8802  1.0566
18816TIP3   OH277862   2.921   4.472  11.330 -0.6591 -0.4056  0.1675
18816TIP3    H177863   2.938   4.506  11.242 -0.2032 -3.1114 -0.8887
18816TIP3    H277864   2.834   4.505  11.353  0.5432  3.1120  0.2041
18817TIP3   OH277865   6.322   2.033  13.929  0.8185 -0.0822 -0.0404
18817TIP3    H177866   6.333   1.980  14.008  0.4302 -2.5142 -1.5216
18817TIP3    H277867   6.381   1.993  13.865 -0.6798  0.2074 -1.6995
18818TIP3   OH277868   0.354   2.983  11.973  0.0625 -0.4150  0.0219
18818TIP3    H177869   0.328   2.901  12.017 -0.3071 -0.5373 -0.4148
18818TIP3    H277870   0.311   3.052  12.023  2.9191 -0.1552  2.4156
18819TIP3   OH277871   0.328   6.640   1.895  0.3489  0.0701 -0.0329
18819TIP3    H177872   0.352   6.732   1.883  1.2122 -0.4444 -3.3288
18819TIP3    H277873   0.400   6.591   1.857 -1.1275 -1.9028 -0.4736
18820TIP3   OH277874   1.656   5.307   3.255  0.3048  0.4308 -0.5080
18820TIP3    H177875   1.668   5.388   3.206 -1.3229  0.8357 -0.2974
18820TIP3    H277876   1.684   5.328   3.344  0.4528  0.5829 -0.5906
18821TIP3   OH277877   0.358   1.726   0.926  0.4671 -0.0752 -0.4962
18821TIP3    H177878   0.404   1.758   0.849 -0.8196  2.2589 -0.3793
18821TIP3    H277879   0.427   1.697   0.985  1.6489  1.1373 -1.2489
18822TIP3   OH277880   6.123   5.840  13.736  0.2547  0.5177  0.0841
18822TIP3    H177881   6.072   5.760  13.724  2.8599 -1.0782 -1.1448
18822TIP3    H277882   6.167   5.827  13.821  3.6924 -1.3476 -1.7580
18823TIP3   OH277883   6.790   3.717   0.209 -0.1357  0.0128 -0.3515
18823TIP3    H177884   6.784   3.738   0.116 -1.0840  2.3524  0.1408
18823TIP3    H277885   6.789   3.803   0.252  4.0164 -0.7389  1.7122
18824TIP3   OH277886   1.950   2.181   4.166  0.3205  0.1494 -0.2166
18824TIP3    H177887   2.023   2.243   4.162  0.0875  0.3987 -0.6590
18824TIP3    H277888   1.991   2.094   4.163  0.8221  0.1836  2.5989
18825TIP3   OH277889   1.954   0.886   1.277 -0.1068 -0.4221  0.3133
18825TIP3    H177890   1.903   0.836   1.341  0.4573 -1.3874  0.0349
18825TIP3    H277891   2.045   0.870   1.302  0.0878  0.3383  0.1091
18826TIP3   OH277892   3.235   1.293  10.951 -0.1504 -0.5078 -0.0938
18826TIP3    H177893   3.149   1.258  10.973 -0.8501  0.9768 -0.3726
18826TIP3    H277894   3.219   1.355  10.879  1.0564  0.2393  0.2429
18827TIP3   OH277895   4.721   1.633  12.331 -0.0450  0.3317  0.5808
18827TIP3    H177896   4.787   1.596  12.272 -0.7830  0.1654 -0.1594
18827TIP3    H277897   4.761   1.714  12.363  0.3477  0.4594 -0.1943
18828TIP3   OH277898   1.416   5.615   3.788 -0.2662 -0.4091  0.4465
18828TIP3    H177899   1.355   5.557   3.741 -0.5754 -0.5836  1.0543
18828TIP3    H277900   1.360   5.667   3.846 -0.0560  0.8853 -0.4633
18829TIP3   OH277901   0.677   4.464  11.909  0.0039 -0.2052 -0.4765
18829TIP3    H177902   0.650   4.409  11.836 -0.2720 -0.9454  0.1667
18829TIP3    H277903   0.600   4.519  11.927 -0.8878 -1.8102  0.8860
18830TIP3   OH277904   6.433   6.378   1.858  0.0706 -0.0352 -0.0624
18830TIP3    H177905   6.459   6.423   1.938  0.0617 -0.3788  0.1377
18830TIP3    H277906   6.338   6.367   1.867 -0.7098  3.5790 -1.9794
18831TIP3   OH277907   1.524   3.276  13.378  0.0011 -0.3006 -0.2184
18831TIP3    H177908   1.613   3.257  13.348  0.0595  0.4126 -0.5045
18831TIP3    H277909   1.517   3.229  13.461 -0.2454 -2.5323 -1.4116
18832TIP3   OH277910   3.645   5.002   3.630 -0.3605 -0.0465 -0.3306
18832TIP3    H177911   3.661   5.092   3.600  1.1150  0.0619  0.6687
18832TIP3    H277912   3.732   4.969   3.654 -0.9264 -1.6329 -0.3622
18833TIP3   OH277913   6.102   5.155   4.701  0.1348 -0.3798 -0.5540
18833TIP3    H177914   6.124   5.246   4.679  1.7446 -0.6794 -0.3690
18833TIP3    H277915   6.059   5.161   4.786  1.6125  0.1149  0.1960
18834TIP3   OH277916   3.309   6.630  16.830  0.1461  0.0385  0.1047
18834TIP3    H177917   3.318   6.628  16.735  1.3880 -0.0488  0.2155
18834TIP3    H277918   3.248   6.703  16.847 -2.7864 -1.9816 -0.9106
18835TIP3   OH277919   0.583   2.711  12.432  0.2871 -0.4881  0.4130
18835TIP3    H177920   0.578   2.662  12.514 -1.1728  0.1533  0.7308
18835TIP3    H277921   0.600   2.645  12.366 -1.4654 -1.4450  0.8600
18836TIP3   OH277922   0.187   3.537   0.030  0.4471  0.2720 -0.2256
18836TIP3    H177923   0.110   3.516   0.082  0.2643 -0.9609 -0.9352
18836TIP3    H277924   0.153   3.585  -0.045  0.5436  0.8649  0.1034
18837TIP3   OH277925   3.261   2.181  10.538 -0.0002 -0.5264  0.5028
18837TIP3    H177926   3.184   2.238  10.541  0.2445 -0.1723  0.1180
18837TIP3    H277927   3.273   2.151  10.628 -0.5706 -0.5627  0.5695
18838TIP3   OH277928   3.989   0.719   3.735 -1.1523 -0.4469  0.4285
18838TIP3    H177929   3.949   0.805   3.745 -0.9897 -0.2902 -0.2296
18838TIP3    H277930   3.978   0.698   3.643  2.1922  0.5634 -0.3276
18839TIP3   OH277931   5.555   3.091   4.636  0.0979  0.1116 -0.6049
18839TIP3    H177932   5.586   3.006   4.606 -1.9716 -0.7156 -0.5400
18839TIP3    H277933   5.517   3.074   4.722  0.5651  1.3163 -0.1380
18840TIP3   OH277934   1.179   6.273   4.943 -0.1133 -0.5815  0.0357
18840TIP3    H177935   1.166   6.360   4.905  0.3070 -0.4162  0.2568
18840TIP3    H277936   1.096   6.228   4.928 -0.2961 -0.1849 -0.1896
18841TIP3   OH277937   4.847   6.512   2.329 -0.4641  0.1655 -0.7068
18841TIP3    H177938   4.893   6.595   2.322  1.6088 -0.5753  2.2714
18841TIP3    H277939   4.776   6.529   2.390 -0.3356 -0.1191 -0.4758
18842TIP3   OH277940   4.388   1.528   4.301  0.1693  0.0693 -0.5303
18842TIP3    H177941   4.305   1.576   4.306 -0.0588 -0.4952  2.2967
18842TIP3    H277942   4.369   1.455   4.241 -1.6476 -0.4929  0.6382
18843TIP3   OH277943   4.667   1.875  13.341 -0.2306 -0.2961  0.1050
18843TIP3    H177944   4.701   1.856  13.254  0.2139 -1.2687  0.4714
18843TIP3    H277945   4.572   1.877  13.331 -0.1328  1.3063 -0.7163
18844TIP3   OH277946   6.792   6.035   1.893 -0.5851  0.2405 -0.0123
18844TIP3    H177947   6.827   5.971   1.954  1.4002  1.0759 -0.2028
18844TIP3    H277948   6.707   5.999   1.866  0.7421 -2.6893 -0.6892
18845TIP3   OH277949   3.503   4.886   2.081 -0.0082  0.0396 -0.0993
18845TIP3    H177950   3.540   4.963   2.125  0.3902 -0.8664  1.2025
18845TIP3    H277951   3.503   4.910   1.988 -0.0036  1.6545  0.2781
18846TIP3   OH277952   5.515   5.098   4.450 -0.0395  0.4126 -0.7181
18846TIP3    H177953   5.522   5.063   4.539 -0.8260 -0.1083 -0.8477
18846TIP3    H277954   5.480   5.186   4.461 -3.2858 -0.7581 -0.6191
18847TIP3   OH277955   2.010   1.235  15.340  0.1838  0.9005 -0.3070
18847TIP3    H177956   2.041   1.174  15.272  1.0603  1.5229 -0.4770
18847TIP3    H277957   1.987   1.314  15.292  1.2668  1.5155  0.1623
18848TIP3   OH277958   5.514   1.983  12.212 -0.3984 -0.3090 -0.0400
18848TIP3    H177959   5.522   2.061  12.268  2.8723  0.7815 -1.7244
18848TIP3    H277960   5.420   1.965  12.209 -1.0245  1.7429  2.8122
18849TIP3   OH277961   4.781   3.574   0.064 -0.3722 -0.2223 -0.0417
18849TIP3    H177962   4.728   3.514   0.116 -0.4963 -0.4946 -0.4720
18849TIP3    H277963   4.741   3.570  -0.024 -0.2867  0.3706 -0.1102
18850TIP3   OH277964   4.653   5.420   0.914 -0.7642 -0.1608 -0.5860
18850TIP3    H177965   4.712   5.344   0.913  1.0681  1.2005 -0.8284
18850TIP3    H277966   4.691   5.479   0.978 -2.6259  0.2467  0.1866
18851TIP3   OH277967   1.596   3.876  10.479 -0.1131  0.3342  0.0317
18851TIP3    H177968   1.580   3.832  10.563  1.1025 -2.2281 -0.9577
18851TIP3    H277969   1.559   3.817  10.413  1.8567  0.5931 -1.4036
18852TIP3   OH277970   0.733   2.076   1.403  0.0733  0.5587 -0.5252
18852TIP3    H177971   0.681   1.996   1.411 -0.8909  1.2005 -0.0845
18852TIP3    H277972   0.709   2.128   1.480  1.1932  0.9910 -0.4508
18853TIP3   OH277973   5.298   2.421   1.384  0.3081 -0.0213 -0.2109
18853TIP3    H177974   5.344   2.482   1.327 -1.8127  0.6915 -1.2556
18853TIP3    H277975   5.258   2.476   1.451 -3.4935  0.2421 -2.4072
18854TIP3   OH277976   6.374   0.089  14.372  0.1182 -0.1373  0.5463
18854TIP3    H177977   6.399   0.147  14.444  0.8027  1.9536 -1.2814
18854TIP3    H277978   6.398   0.137  14.293  0.3853 -2.7899 -1.0983
18855TIP3   OH277979   0.511   5.839   6.583 -0.2853  0.3251  0.0669
18855TIP3    H177980   0.602   5.816   6.600 -0.2719  1.0562  1.1072
18855TIP3    H277981   0.514   5.933   6.567 -0.6974  0.1301 -1.2061
18856TIP3   OH277982   2.978   1.689   2.027  0.1886  0.4851 -0.0271
18856TIP3    H177983   3.055   1.736   1.997  0.1379 -0.0528 -1.0273
18856TIP3    H277984   2.984   1.603   1.984  0.5733 -0.6598  2.1619
18857TIP3   OH277985   6.544   2.777  16.517  0.0856  0.2503  0.1869
18857TIP3    H177986   6.556   2.755  16.424 -0.4461 -0.5831  0.3080
18857TIP3    H277987   6.618   2.735  16.561  1.3127  2.0610 -0.0310
18858TIP3   OH277988   5.810   1.883   5.573  0.2255  0.5047 -0.2759
18858TIP3    H177989   5.756   1.848   5.644  0.1155 -1.2837 -1.1879
18858TIP3    H277990   5.899   1.855   5.595  0.2103  0.0642 -0.7554
18859TIP3   OH277991   3.061   2.538   2.662  0.5133 -0.1810 -0.0123
18859TIP3    H177992   2.989   2.600   2.661  0.5967 -0.0858 -0.0990
18859TIP3    H277993   3.108   2.557   2.743 -0.5362 -1.3682  0.9351
18860TIP3   OH277994   6.079   2.312  13.385  0.3745 -0.2965  0.0867
18860TIP3    H177995   6.007   2.259  13.419  0.2047 -0.0983  0.0387
18860TIP3    H277996   6.058   2.402  13.413 -0.2761  0.0269 -1.3545
18861TIP3   OH277997   3.792   3.363   0.287  0.3813  0.1712  0.2104
18861TIP3    H177998   3.773   3.289   0.345 -0.0564  1.3662  1.6500
18861TIP3    H277999   3.717   3.365   0.227 -1.8059  1.8123  2.7250
18862TIP3   OH278000   6.382   1.422   0.955  0.0537  0.0191 -0.0843
18862TIP3    H178001   6.449   1.448   0.892 -0.8065  0.7293 -0.7285
18862TIP3    H278002   6.387   1.489   1.024  0.3975 -0.2567  0.1592
18863TIP3   OH278003   5.573   3.145  11.912 -0.1849 -0.3058  0.4422
18863TIP3    H178004   5.523   3.151  11.831 -0.2299  0.1468  0.5028
18863TIP3    H278005   5.552   3.225  11.960 -0.6618 -0.8563  1.1869
18864TIP3   OH278006   0.620   2.426  16.812  0.1276  0.7320 -0.0939
18864TIP3    H178007   0.704   2.467  16.792  0.2056  0.8653  0.5055
18864TIP3    H278008   0.640   2.332  16.819  0.3231  0.8158  0.5429
18865TIP3   OH278009   2.090   0.881  12.024  0.4865  0.0688  0.1396
18865TIP3    H178010   2.048   0.935  11.956 -0.4941 -0.2590  0.4607
18865TIP3    H278011   2.135   0.812  11.976 -0.3122 -0.2364 -0.1957
18866TIP3   OH278012   5.628   3.998  16.683  0.2718 -0.0310 -0.0148
18866TIP3    H178013   5.702   3.980  16.626 -1.3159  0.0345 -2.2431
18866TIP3    H278014   5.639   4.089  16.709 -0.5860  1.0385 -2.9769
18867TIP3   OH278015   6.706   1.532  11.584  0.1125  0.1987  0.3154
18867TIP3    H178016   6.662   1.582  11.653  1.2514  2.1733 -0.3276
18867TIP3    H278017   6.701   1.588  11.507  0.2275 -1.3112 -0.8310
18868TIP3   OH278018   0.580   2.608  13.826 -0.2321 -0.0830 -0.0294
18868TIP3    H178019   0.529   2.658  13.890 -2.0656  0.7863 -2.0259
18868TIP3    H278020   0.515   2.576  13.763  1.4737 -0.8206 -1.5171
18869TIP3   OH278021   3.217   0.380  15.727 -0.2211 -0.0158 -0.6496
18869TIP3    H178022   3.223   0.317  15.799 -0.8036  0.2634 -0.3527
18869TIP3    H278023   3.307   0.386  15.694  0.0572 -0.1364  0.0583
18870TIP3   OH278024   2.694   0.321  15.629 -0.0814  0.7538 -0.1411
18870TIP3    H178025   2.752   0.261  15.582 -2.6637 -0.2374 -2.3439
18870TIP3    H278026   2.751   0.392  15.658  3.2424 -2.7525  2.9522
18871TIP3   OH278027   5.965   1.546   5.351 -0.1075  0.4333 -0.1484
18871TIP3    H178028   5.977   1.584   5.438  1.2800  0.3953 -0.3069
18871TIP3    H278029   5.928   1.617   5.299 -1.1477  0.3939  0.5089
18872TIP3   OH278030   4.437   2.576  12.162 -0.6602 -0.3722 -0.0445
18872TIP3    H178031   4.368   2.633  12.127 -0.1555 -1.1896 -2.6381
18872TIP3    H278032   4.399   2.488  12.159  0.2520 -0.7584 -0.9692
18873TIP3   OH278033   0.500   2.342   3.358 -0.5618  0.1508  0.7451
18873TIP3    H178034   0.518   2.393   3.438 -0.4827  0.8509  0.2925
18873TIP3    H278035   0.525   2.401   3.287 -1.3044 -0.2074  0.1826
18874TIP3   OH278036   6.012   3.177  11.026 -0.1823  0.1820 -0.1183
18874TIP3    H178037   5.967   3.260  11.009  0.9048  0.8910  0.3096
18874TIP3    H278038   6.093   3.203  11.071  0.4178 -1.0802 -0.4287
18875TIP3   OH278039   2.072   2.069   1.196 -0.3200  0.0096  0.3754
18875TIP3    H178040   1.991   2.019   1.200 -0.9080  0.9685  0.9697
18875TIP3    H278041   2.118   2.036   1.119 -1.0859 -0.8237  0.2661
18876TIP3   OH278042   4.743   2.763   4.255 -0.1282 -0.0000 -0.3920
18876TIP3    H178043   4.665   2.802   4.217  1.5803  3.9811 -0.3622
18876TIP3    H278044   4.799   2.741   4.181 -0.4324 -0.9605 -0.3525
18877TIP3   OH278045   0.644   3.328  14.568  0.1080 -0.0200 -0.0967
18877TIP3    H178046   0.709   3.277  14.520 -0.9332 -1.4896  0.0072
18877TIP3    H278047   0.626   3.403  14.512  1.6652  0.2922 -0.2470
18878TIP3   OH278048   0.439   0.381  10.898 -0.5258  0.3505  0.8591
18878TIP3    H178049   0.429   0.299  10.947  0.1557  0.8128  1.8282
18878TIP3    H278050   0.357   0.391  10.851 -0.4478 -1.1217  0.3487
18879TIP3   OH278051   0.288   2.410  13.397  0.4062  0.4961  0.0839
18879TIP3    H178052   0.328   2.346  13.339  0.5821  1.5455 -0.9766
18879TIP3    H278053   0.194   2.400  13.383  0.4679  1.1861 -0.8824
18880TIP3   OH278054   3.395   5.150  14.524  0.4752 -0.0540 -0.7101
18880TIP3    H178055   3.366   5.240  14.508  0.6935 -0.0832 -1.2745
18880TIP3    H278056   3.471   5.138  14.467  2.1838  0.3009  1.3412
18881TIP3   OH278057   1.959   5.482   0.164 -0.4861  0.1610  0.6898
18881TIP3    H178058   1.927   5.483   0.255 -0.1529 -0.3909  0.8201
18881TIP3    H278059   2.008   5.400   0.158 -0.7324  0.0697 -0.0687
18882TIP3   OH278060   0.367   5.103   2.263  0.1617 -0.1568 -0.6097
18882TIP3    H178061   0.442   5.077   2.317 -1.0809 -1.2284  0.7082
18882TIP3    H278062   0.384   5.195   2.242  1.6622 -0.2657 -0.0441
18883TIP3   OH278063   5.905   5.487   0.206  0.1178  0.4540 -0.2741
18883TIP3    H178064   5.813   5.502   0.228  0.0829 -2.5661  2.2153
18883TIP3    H278065   5.903   5.423   0.135  0.2775  0.1181  0.0204
18884TIP3   OH278066   1.401   0.213  14.058 -0.0243  0.1768 -0.9619
18884TIP3    H178067   1.369   0.200  13.968  0.8593  0.6403 -1.3649
18884TIP3    H278068   1.342   0.279  14.095 -0.0354  0.4201 -1.4071
18885TIP3   OH278069   5.681   6.711   5.186  0.1852  0.4253  0.3820
18885TIP3    H178070   5.701   6.685   5.097 -2.2200  2.0871 -0.7555
18885TIP3    H278071   5.759   6.758   5.216  0.8215  0.3263 -1.0465
18886TIP3   OH278072   4.253   1.158   5.771 -0.4444  0.1022  0.0402
18886TIP3    H178073   4.194   1.222   5.730  1.4849  1.8326 -0.1806
18886TIP3    H278074   4.200   1.078   5.777 -2.7709  1.5146 -0.2101
18887TIP3   OH278075   0.635   5.399   2.130 -0.0371 -0.5637 -0.1259
18887TIP3    H178076   0.668   5.480   2.168  0.6803 -0.6698 -0.4975
18887TIP3    H278077   0.713   5.344   2.121 -0.5023 -1.2712  0.0603
18888TIP3   OH278078   0.714   2.403  16.475  0.8015  0.0755 -0.4697
18888TIP3    H178079   0.712   2.321  16.523 -1.3195  1.4966  2.1209
18888TIP3    H278080   0.754   2.465  16.536 -0.7674  1.6802 -1.0040
18889TIP3   OH278081   1.091   2.905  13.364  0.0443  0.1979 -0.3141
18889TIP3    H178082   1.012   2.911  13.309  0.0365  0.5074 -0.2710
18889TIP3    H278083   1.139   2.985  13.345 -0.3887  0.7427  0.7976
18890TIP3   OH278084   1.950   5.734   1.904  0.2528 -0.1182 -0.4341
18890TIP3    H178085   1.931   5.720   1.811 -0.2066  0.2395 -0.3944
18890TIP3    H278086   2.043   5.757   1.906  0.0741  0.6521 -0.8850
18891TIP3   OH278087   2.649   0.148  16.146  0.1911 -0.1688 -0.1274
18891TIP3    H178088   2.685   0.085  16.208 -0.1832 -0.5480 -0.2920
18891TIP3    H278089   2.554   0.138  16.153  0.0861  1.0982  0.5882
18892TIP3   OH278090   3.115   3.082   5.188 -0.0360  0.0851 -0.0777
18892TIP3    H178091   3.094   3.175   5.180  1.5305  0.3378 -1.9953
18892TIP3    H278092   3.171   3.078   5.266 -1.1404  0.5121  0.7698
18893TIP3   OH278093   5.388   1.164   2.672 -0.1056 -0.0568  0.5813
18893TIP3    H178094   5.344   1.227   2.615  0.2343  1.1114  1.5993
18893TIP3    H278095   5.426   1.216   2.742  2.1031 -1.1293  0.2677
18894TIP3   OH278096   0.962   3.758   4.938  0.9348 -0.2356 -0.6769
18894TIP3    H178097   1.038   3.702   4.925  1.4559  0.1605  0.5131
18894TIP3    H278098   0.910   3.747   4.858  1.6075 -1.4745 -0.9675
18895TIP3   OH278099   6.050   3.877   0.120 -0.2356 -0.3188  0.8261
18895TIP3    H178100   5.980   3.829   0.165 -0.2848 -0.4741  0.5904
18895TIP3    H278101   6.114   3.895   0.188 -0.6562  0.1207  1.1166
18896TIP3   OH278102   3.606   2.028  12.851  0.0898  0.4985  0.8378
18896TIP3    H178103   3.666   1.955  12.836 -1.2004 -0.6447  1.0027
18896TIP3    H278104   3.540   1.993  12.911  0.0269  2.1561  1.7931
18897TIP3   OH278105   0.712   0.761  14.763  0.1345  0.5211  0.9561
18897TIP3    H178106   0.734   0.846  14.801 -0.4846  0.6415  1.0629
18897TIP3    H278107   0.674   0.782  14.678  0.9305  0.2887  0.5438
18898TIP3   OH278108   4.344   0.220  16.149  0.6422 -0.1495 -0.0662
18898TIP3    H178109   4.424   0.269  16.165 -0.6021  1.7687  0.7367
18898TIP3    H278110   4.298   0.220  16.234 -0.6285 -0.3236 -0.7211
18899TIP3   OH278111   4.911   1.542  16.357 -0.4239 -0.0044 -0.1888
18899TIP3    H178112   4.916   1.451  16.328  0.4189  0.3596 -1.2347
18899TIP3    H278113   4.840   1.580  16.305 -2.3584 -0.6085  1.8753
18900TIP3   OH278114   0.176   3.541   3.522 -0.2208 -0.0494 -0.0204
18900TIP3    H178115   0.205   3.616   3.573 -1.3022 -0.0100  0.5701
18900TIP3    H278116   0.086   3.525   3.552 -0.0111 -1.5803 -0.1237
18901TIP3   OH278117   2.368   5.773  14.588 -0.1432 -0.0919  0.8786
18901TIP3    H178118   2.328   5.736  14.666 -1.7493  1.5554  0.8938
18901TIP3    H278119   2.458   5.792  14.614  0.6744 -3.5119  0.9606
18902TIP3   OH278120   2.482   1.534   1.821  0.1046 -0.4348 -0.2211
18902TIP3    H178121   2.459   1.463   1.880 -1.2271  0.7797  0.8061
18902TIP3    H278122   2.569   1.561   1.848 -0.3054 -0.1950  0.9175
18903TIP3   OH278123   4.374   2.235  12.383 -0.1621 -0.9310 -0.6046
18903TIP3    H178124   4.426   2.282  12.318 -0.7061 -1.1758 -1.2245
18903TIP3    H278125   4.426   2.239  12.463 -0.8280  1.9630 -0.2222
18904TIP3   OH278126   2.651   1.538   6.587 -0.1271 -0.1188 -0.3868
18904TIP3    H178127   2.620   1.555   6.676 -0.4919  1.0811 -0.7218
18904TIP3    H278128   2.702   1.616   6.564  0.6047 -0.7408 -0.9663
18905TIP3   OH278129   4.323   6.094  15.033  0.1492 -0.2876 -0.2954
18905TIP3    H178130   4.243   6.086  15.085 -0.1087 -2.0388 -0.8988
18905TIP3    H278131   4.352   6.184  15.049  0.2770 -0.7893  3.1233
18906TIP3   OH278132   0.164   4.042   6.392  0.0959  0.7850  0.4500
18906TIP3    H178133   0.113   3.966   6.367  0.6534  0.6071 -0.2026
18906TIP3    H278134   0.190   4.026   6.482  0.8575 -0.1820  0.0819
18907TIP3   OH278135   5.879   0.096  16.840 -0.1479 -0.1174  0.0873
18907TIP3    H178136   5.819   0.098  16.765 -0.5026 -2.3981  0.2343
18907TIP3    H278137   5.964   0.073  16.803 -0.0523 -0.0211  0.2458
18908TIP3   OH278138   2.435   2.413   3.982 -0.0396 -0.3624  0.6992
18908TIP3    H178139   2.387   2.495   3.990  1.1121  0.4519 -0.3962
18908TIP3    H278140   2.379   2.348   4.024 -2.2162  0.4943 -0.7003
18909TIP3   OH278141   0.360   3.327  14.288  0.0396  0.0627  0.4393
18909TIP3    H178142   0.405   3.371  14.360 -0.0148 -1.1245  1.2332
18909TIP3    H278143   0.429   3.279  14.243 -0.2182 -0.7147  0.8639
18910TIP3   OH278144   4.810   5.152   5.127 -0.1713  0.1019  0.1274
18910TIP3    H178145   4.893   5.123   5.087 -0.4606 -0.1012 -0.3384
18910TIP3    H278146   4.835   5.224   5.185  0.5637 -1.0959  1.3243
18911TIP3   OH278147   2.698   6.775  14.406 -0.4897  0.0383 -0.2230
18911TIP3    H178148   2.752   6.781  14.327  0.6569 -1.9369  0.3486
18911TIP3    H278149   2.756   6.802  14.477 -0.8976 -0.0830  0.1596
18912TIP3   OH278150   1.919   0.955   4.246  0.3952 -0.0465  0.5174
18912TIP3    H178151   1.833   0.984   4.217  1.0087  1.6605  0.2336
18912TIP3    H278152   1.914   0.956   4.342  0.3031  0.7869  0.5138
18913TIP3   OH278153   2.813   4.018  12.149  0.1340 -0.3986  0.1820
18913TIP3    H178154   2.782   4.072  12.076 -0.7620  0.8852  1.4487
18913TIP3    H278155   2.845   4.081  12.213 -0.9681 -1.3377  1.7218
18914TIP3   OH278156   0.056   0.891  11.783  0.0118 -0.1851 -0.3034
18914TIP3    H178157   0.044   0.869  11.876  0.2772  0.2656 -0.1588
18914TIP3    H278158   0.147   0.923  11.778 -0.3406  0.8231 -0.5052
18915TIP3   OH278159   4.589   6.366   2.039  0.1212  0.6027  0.1359
18915TIP3    H178160   4.581   6.347   1.945  0.4708 -0.6819  0.3400
18915TIP3    H278161   4.630   6.452   2.042  1.5543  0.0104 -0.9233
18916TIP3   OH278162   3.283   5.870   2.669  0.1144  0.1446 -0.4494
18916TIP3    H178163   3.311   5.859   2.578  1.7602 -2.3765  0.2640
18916TIP3    H278164   3.311   5.959   2.692 -0.5985  0.9405 -2.4474
18917TIP3   OH278165   2.910   4.566  14.817 -0.2857 -0.3536 -0.0007
18917TIP3    H178166   2.880   4.475  14.825 -0.5289 -0.1999  1.0709
18917TIP3    H278167   2.959   4.568  14.735 -1.7511 -1.0301 -0.9263
18918TIP3   OH278168   4.362   1.577   5.798  0.2078  0.1926 -0.8230
18918TIP3    H178169   4.382   1.634   5.872 -0.8817  1.0121 -1.1404
18918TIP3    H278170   4.435   1.515   5.796 -0.0469 -0.2317  1.2910
18919TIP3   OH278171   4.583   1.046   3.238  0.4151 -0.6203 -0.0643
18919TIP3    H178172   4.548   0.970   3.284  1.9867 -1.6021 -0.4209
18919TIP3    H278173   4.639   1.009   3.170  1.0708  0.8684 -0.3688
18920TIP3   OH278174   4.837   1.329  11.828 -0.0389  0.1675 -0.1340
18920TIP3    H178175   4.849   1.369  11.742 -0.0034  1.3584  0.4105
18920TIP3    H278176   4.920   1.286  11.847  0.2716  0.6923 -0.2965
18921TIP3   OH278177   4.564   1.615  11.490 -0.3192 -0.5470  0.2799
18921TIP3    H178178   4.589   1.540  11.544  0.5795 -0.4621 -0.0063
18921TIP3    H278179   4.469   1.619  11.498 -0.6237 -2.8538 -1.1249
18922TIP3   OH278180   2.225   4.738  11.567  0.4219 -0.6058 -0.2770
18922TIP3    H178181   2.202   4.761  11.477  0.7239 -0.5798 -0.3499
18922TIP3    H278182   2.177   4.657  11.584  1.6841 -1.5672 -1.0621
18923TIP3   OH278183   6.008   4.808  13.488  0.3583  0.0146  0.0339
18923TIP3    H178184   6.038   4.721  13.515  0.8688 -0.4329 -1.8613
18923TIP3    H278185   6.003   4.858  13.570  2.3523 -1.0974  0.8933
18924TIP3   OH278186   1.892   4.520   1.601  0.0241  0.4893 -0.0845
18924TIP3    H178187   1.861   4.482   1.683 -0.0867 -0.9667 -0.7815
18924TIP3    H278188   1.986   4.533   1.615  0.0501  0.0207  0.1854
18925TIP3   OH278189   1.133   0.314  12.207  0.4384  0.3358  0.1607
18925TIP3    H178190   1.074   0.381  12.244 -0.4946 -1.0342  1.2572
18925TIP3    H278191   1.077   0.263  12.149  0.7844 -0.3851  0.4608
18926TIP3   OH278192   2.539   2.236   3.823 -0.2930  0.1288  0.1247
18926TIP3    H178193   2.504   2.297   3.888  0.1487 -1.4065  1.8779
18926TIP3    H278194   2.634   2.252   3.823 -0.1096 -0.8899  0.9842
18927TIP3   OH278195   2.897   2.460   1.849 -0.2302 -0.2882 -0.0277
18927TIP3    H178196   2.839   2.535   1.842  1.0505  0.8882  1.3267
18927TIP3    H278197   2.889   2.431   1.940  0.9162 -0.3870  0.0653
18928TIP3   OH278198   1.849   5.057   2.882  0.3985  0.1543 -0.1613
18928TIP3    H178199   1.870   5.065   2.975  0.2287  0.3150 -0.1350
18928TIP3    H278200   1.753   5.062   2.879  0.4593  1.9412 -0.4931
18929TIP3   OH278201   1.723   0.449  13.578  0.1975  0.1567  0.3375
18929TIP3    H178202   1.748   0.541  13.587  0.3677 -0.0030  1.6104
18929TIP3    H278203   1.805   0.404  13.558  0.0203  0.3432 -0.8884
18930TIP3   OH278204   1.074   3.576   4.398  0.1390  0.4436 -0.1395
18930TIP3    H178205   1.052   3.553   4.308 -0.1382  0.8186 -0.1731
18930TIP3    H278206   1.164   3.546   4.410 -0.2280 -0.7161 -0.1478
18931TIP3   OH278207   5.295   3.660  16.095 -1.1706 -0.2184  0.4641
18931TIP3    H178208   5.235   3.585  16.095 -1.3556 -0.0840  1.4333
18931TIP3    H278209   5.280   3.702  16.179 -0.6134  0.5544  0.1852
18932TIP3   OH278210   1.686   0.721   0.357 -0.0312  0.2171 -0.1071
18932TIP3    H178211   1.698   0.747   0.448  0.6400  1.4263 -0.5216
18932TIP3    H278212   1.673   0.803   0.309 -1.0332 -0.4427 -1.0207
18933TIP3   OH278213   5.292   3.411   4.115 -0.0233  0.2470  0.1551
18933TIP3    H178214   5.208   3.366   4.106 -0.4119  0.8664  0.6276
18933TIP3    H278215   5.307   3.451   4.030  0.2075 -0.5513 -0.1934
18934TIP3   OH278216   4.743   2.385  16.127  0.2190 -0.2225  0.3790
18934TIP3    H178217   4.730   2.385  16.222 -1.9305  1.3449  0.1712
18934TIP3    H278218   4.654   2.389  16.090  0.7610 -4.1478 -1.8558
18935TIP3   OH278219   4.658   1.951  15.541  0.6134 -0.3030  0.3678
18935TIP3    H178220   4.693   1.886  15.603  0.0363 -1.4648 -0.4881
18935TIP3    H278221   4.714   2.028  15.554  0.5183 -0.4955  2.3160
18936TIP3   OH278222   3.037   1.460   3.932  0.0537 -0.2440 -0.0170
18936TIP3    H178223   3.100   1.446   4.003 -0.5786  0.5468  0.7208
18936TIP3    H278224   3.076   1.529   3.879  1.2635 -1.8737 -1.3679
18937TIP3   OH278225   1.268   5.342   5.067  0.1833  0.0911 -0.4200
18937TIP3    H178226   1.275   5.251   5.040  2.1552 -0.4857  1.6650
18937TIP3    H278227   1.346   5.384   5.031 -0.2446  0.7267 -0.6172
18938TIP3   OH278228   0.856   1.496   0.561  0.0110 -1.1196 -0.2963
18938TIP3    H178229   0.830   1.449   0.641 -0.1316 -0.9581 -0.2483
18938TIP3    H278230   0.773   1.527   0.524  0.0706 -1.2583 -0.5463
18939TIP3   OH278231   2.154   0.232   2.496 -0.3261  0.6879  0.1055
18939TIP3    H178232   2.118   0.203   2.412 -0.1515  0.3193  0.1524
18939TIP3    H278233   2.246   0.250   2.477 -0.3929  1.0482  0.1181
18940TIP3   OH278234   2.704   2.169  12.378  0.0854  0.1478  0.1086
18940TIP3    H178235   2.623   2.118  12.384  0.0059  0.3605  0.9461
18940TIP3    H278236   2.700   2.210  12.292 -0.3293 -0.4564 -0.1690
18941TIP3   OH278237   4.354   5.347  16.824  0.2328 -0.1441  0.4063
18941TIP3    H178238   4.388   5.432  16.796  1.2002 -0.0031  1.8770
18941TIP3    H278239   4.385   5.285  16.758  2.0956  0.2198  0.8719
18942TIP3   OH278240   1.053   2.381   0.755 -0.3899  0.2910  0.2236
18942TIP3    H178241   1.022   2.316   0.693 -0.1785 -0.2085  0.6408
18942TIP3    H278242   1.106   2.332   0.818 -0.1779  0.8690  0.5059
18943TIP3   OH278243   5.071   3.257  13.425  0.7099  0.3417 -0.2351
18943TIP3    H178244   5.101   3.345  13.449  0.1159  0.6378 -0.5549
18943TIP3    H278245   4.990   3.245  13.473  0.2649  0.3683 -0.9575
18944TIP3   OH278246   6.472   3.436   1.718 -0.0557  0.0724  0.1494
18944TIP3    H178247   6.461   3.416   1.811  0.2388 -2.8892 -0.3568
18944TIP3    H278248   6.387   3.415   1.680  0.5193 -1.0535 -0.5563
18945TIP3   OH278249   6.214   2.150  11.160  0.2048 -0.0909  0.3514
18945TIP3    H178250   6.243   2.200  11.084 -2.0375  0.4856 -0.2072
18945TIP3    H278251   6.194   2.063  11.124 -0.1220 -0.0518  0.4405
18946TIP3   OH278252   3.209   3.416   3.911 -0.3069 -0.1396 -0.4676
18946TIP3    H178253   3.154   3.379   3.980 -0.6075  0.8255 -0.1705
18946TIP3    H278254   3.236   3.502   3.945 -1.1931  0.7509 -1.8925
18947TIP3   OH278255   1.688   4.514  15.397 -0.5011  0.1286 -0.5783
18947TIP3    H178256   1.667   4.607  15.390 -1.7888 -0.1725 -0.8761
18947TIP3    H278257   1.632   4.482  15.468  2.1409  0.1786  1.7011
18948TIP3   OH278258   0.878   1.444  13.418  0.2135  0.0051  0.0887
18948TIP3    H178259   0.911   1.447  13.328  0.4778  0.5285  0.1986
18948TIP3    H278260   0.792   1.403  13.411  0.7143 -0.9996 -0.2553
18949TIP3   OH278261   0.053   2.620   0.339  0.4133 -0.2763 -0.1853
18949TIP3    H178262   0.002   2.578   0.407  1.6011  0.1201  0.9948
18949TIP3    H278263   0.004   2.699   0.318  0.9234  0.5450  1.5430
18950TIP3   OH278264   0.062   0.654   0.945 -0.0878  0.0718 -0.4117
18950TIP3    H178265   0.132   0.589   0.950 -1.3542 -1.2189  1.4615
18950TIP3    H278266  -0.006   0.612   0.893  0.5851  1.5089 -2.6537
18951TIP3   OH278267   5.292   3.052   4.163 -0.2427  0.2172  0.1578
18951TIP3    H178268   5.251   3.121   4.215  0.4397  1.4058 -0.8163
18951TIP3    H278269   5.380   3.044   4.200 -0.4913 -0.5079  0.6005
18952TIP3   OH278270   6.086   6.180  14.206 -0.6279 -0.1242  0.4296
18952TIP3    H178271   6.153   6.112  14.197  0.6442  1.1402 -0.0993
18952TIP3    H278272   6.136   6.260  14.224 -2.0137  0.8287  0.1836
18953TIP3   OH278273   6.633   4.839   3.875  0.2684 -0.2286 -0.0656
18953TIP3    H178274   6.581   4.857   3.797  1.1725 -1.1102 -0.9208
18953TIP3    H278275   6.687   4.917   3.887 -1.5763  0.9276  1.1633
18954TIP3   OH278276   6.343   0.766  14.978  0.3814 -0.7686 -0.0645
18954TIP3    H178277   6.307   0.716  14.905  1.1887 -0.0306 -1.0031
18954TIP3    H278278   6.395   0.703  15.027 -0.3656 -1.3290  0.0136
18955TIP3   OH278279   1.499   6.458  11.905 -0.1403  0.1242 -0.3614
18955TIP3    H178280   1.473   6.524  11.841 -0.0885  0.0766 -0.4306
18955TIP3    H278281   1.553   6.506  11.968 -0.3357  0.2076 -0.2570
18956TIP3   OH278282   0.706   3.861   1.078 -0.0213 -0.2646 -0.4297
18956TIP3    H178283   0.652   3.907   1.014  0.7819  0.9689 -0.2517
18956TIP3    H278284   0.670   3.889   1.163 -1.6729 -2.5896 -0.2733
18957TIP3   OH278285   3.173   1.285   5.302 -0.3102  0.2476  0.3522
18957TIP3    H178286   3.151   1.271   5.210 -0.5441 -0.8049  0.5577
18957TIP3    H278287   3.268   1.282   5.305 -0.3256 -0.4029  0.2487
18958TIP3   OH278288   3.087   1.394   4.537 -0.2910  0.5284  0.2345
18958TIP3    H178289   3.097   1.331   4.465 -1.5127 -0.4663  0.8924
18958TIP3    H278290   2.999   1.431   4.525  0.4401  2.2306 -0.1975
18959TIP3   OH278291   5.714   3.971   0.113 -0.2615  0.5885  0.1854
18959TIP3    H178292   5.712   3.898   0.175 -1.3798  0.6292  0.2066
18959TIP3    H278293   5.808   3.987   0.100  0.0172 -0.9024  0.1086
18960TIP3   OH278294   5.534   6.797  15.483 -0.0830  0.1169  0.6854
18960TIP3    H178295   5.511   6.798  15.576 -0.3186 -2.3843  0.7373
18960TIP3    H278296   5.449   6.798  15.438 -0.2469 -2.8178  0.7045
18961TIP3   OH278297   5.492   0.993   4.883 -0.0739  0.0865  0.1688
18961TIP3    H178298   5.479   0.919   4.943 -0.2159  0.0901  0.1428
18961TIP3    H278299   5.582   0.984   4.853  0.2273  0.4776  0.9221
18962TIP3   OH278300   3.263   5.781  13.065 -0.7111  0.3958 -0.3440
18962TIP3    H178301   3.302   5.711  13.013  0.3650  0.7043  0.0351
18962TIP3    H278302   3.191   5.814  13.011 -0.7700 -0.5076 -0.8359
18963TIP3   OH278303   1.280   0.365   2.963 -0.8688 -0.6783 -0.1374
18963TIP3    H178304   1.242   0.290   3.010 -1.3141 -0.4048 -0.0677
18963TIP3    H278305   1.244   0.442   3.007 -2.1493 -0.4023 -1.6234
18964TIP3   OH278306   3.902   1.083   5.860  0.1117 -0.4523  0.1894
18964TIP3    H178307   3.909   1.178   5.856  0.1925 -0.4492  0.3723
18964TIP3    H278308   3.941   1.052   5.778  2.8192 -0.4562  1.3670
18965TIP3   OH278309   0.143   5.905  16.281  0.4771 -0.1774  0.1060
18965TIP3    H178310   0.187   5.990  16.280  3.6421 -1.6816 -1.1240
18965TIP3    H278311   0.112   5.894  16.371  1.2031  1.6706  0.6206
18966TIP3   OH278312   4.920   1.198   1.256 -0.0189 -0.6047 -0.0637
18966TIP3    H178313   4.872   1.127   1.212 -2.3647  0.7468  0.1084
18966TIP3    H278314   4.909   1.180   1.349  0.2556 -0.5551 -0.0209
18967TIP3   OH278315   0.659   0.780  13.927 -0.1445 -0.2434 -0.3263
18967TIP3    H178316   0.715   0.813  13.997  0.3783  1.0028 -1.2725
18967TIP3    H278317   0.600   0.718  13.969  1.0335 -0.5386  0.9539
18968TIP3   OH278318   4.074   3.264   2.640 -0.0129 -0.0461 -0.3890
18968TIP3    H178319   4.044   3.320   2.568 -0.1985 -0.6618 -0.8023
18968TIP3    H278320   4.006   3.272   2.707 -0.0807  0.1557 -0.4811
18969TIP3   OH278321   6.385   2.782  14.867 -0.0421 -0.5259 -0.1344
18969TIP3    H178322   6.374   2.874  14.842  0.2821 -0.7957 -1.3323
18969TIP3    H278323   6.298   2.754  14.895  0.4383  0.9992  3.4558
18970TIP3   OH278324   0.323   1.887   2.100  0.1576  0.4466  0.4526
18970TIP3    H178325   0.341   1.944   2.175 -0.4130  2.0346 -0.5828
18970TIP3    H278326   0.286   1.944   2.034 -0.7147 -1.1969 -0.5461
18971TIP3   OH278327   1.226   0.535   0.647  0.0117  0.2104  0.3049
18971TIP3    H178328   1.315   0.511   0.621  0.1082  1.6663 -0.8215
18971TIP3    H278329   1.231   0.629   0.666 -1.7321  0.8417 -1.9895
18972TIP3   OH278330   3.745   2.919  15.380  0.4688  0.1799 -0.5890
18972TIP3    H178331   3.766   2.953  15.293  1.3232  0.5491 -0.2501
18972TIP3    H278332   3.830   2.898  15.419  0.1384  0.5893  0.3824
18973TIP3   OH278333   6.404   0.666   1.856  0.1445 -0.2902  0.2068
18973TIP3    H178334   6.490   0.688   1.820  0.4826 -1.2522  0.4134
18973TIP3    H278335   6.390   0.575   1.830 -1.4075  0.2353 -0.9903
18974TIP3   OH278336   0.538   3.546  12.517 -0.1165  0.9496 -0.2318
18974TIP3    H178337   0.465   3.485  12.529  1.9436 -1.3482  1.8412
18974TIP3    H278338   0.531   3.607  12.591  2.4785 -2.2039  2.9969
18975TIP3   OH278339   0.652   4.744   0.774 -0.2608  0.3375 -0.2693
18975TIP3    H178340   0.568   4.712   0.740 -0.8294  1.7223 -0.2617
18975TIP3    H278341   0.681   4.808   0.709  1.2964 -0.8071 -0.7590
18976TIP3   OH278342   2.586   0.084  10.363 -0.1520 -0.3336 -0.0656
18976TIP3    H178343   2.496   0.116  10.366  1.0790  3.7979  2.7500
18976TIP3    H278344   2.597   0.034  10.444  0.8446  2.3290  1.5745
18977TIP3   OH278345   6.264   4.189  16.491 -0.0452 -0.7644 -0.6356
18977TIP3    H178346   6.253   4.124  16.561  0.5720 -0.4504 -0.2432
18977TIP3    H278347   6.334   4.154  16.436  0.6745 -0.1856 -0.1154
18978TIP3   OH278348   0.672   0.763  16.208 -0.0919 -0.0591  0.4125
18978TIP3    H178349   0.707   0.675  16.195  1.6066  0.4838  1.1406
18978TIP3    H278350   0.635   0.761  16.297  0.1805  0.0447  0.5275
18979TIP3   OH278351   0.301   1.331  14.580  0.2108  0.2925  0.0337
18979TIP3    H178352   0.325   1.423  14.591  1.0449 -0.0596  1.3531
18979TIP3    H278353   0.360   1.299  14.512  3.8749 -0.5638  3.2527
18980TIP3   OH278354   5.412   3.773   3.388 -0.8268 -0.3924  0.2342
18980TIP3    H178355   5.507   3.771   3.384 -0.8171 -1.5538  0.7244
18980TIP3    H278356   5.392   3.855   3.434  0.0078 -0.8999  1.5471
18981TIP3   OH278357   2.068   1.206  13.213 -0.2210 -0.5551 -0.2554
18981TIP3    H178358   2.035   1.294  13.199 -0.7848 -0.6647  0.3661
18981TIP3    H278359   2.164   1.215  13.213 -0.2771  0.0336 -0.2742
18982TIP3   OH278360   0.828   2.051  12.008 -0.1248  0.2445 -0.3404
18982TIP3    H178361   0.914   2.086  12.031  0.2079 -0.7989  0.0726
18982TIP3    H278362   0.818   2.071  11.915  0.9865 -0.4483 -0.6215
18983TIP3   OH278363   3.218   4.159   9.929  0.0208 -0.4977  0.7649
18983TIP3    H178364   3.309   4.129   9.931  0.6495  1.0896 -0.9614
18983TIP3    H278365   3.176   4.111  10.000  2.0154 -1.8400  1.1444
18984TIP3   OH278366   2.514   0.675  16.049 -0.0438 -0.1551  0.1183
18984TIP3    H178367   2.425   0.638  16.045  0.0183 -0.1736 -1.5298
18984TIP3    H278368   2.511   0.751  15.991  0.8528  0.2286  0.5626
18985TIP3   OH278369   5.669   5.045  14.520  0.4712  0.4392 -0.3210
18985TIP3    H178370   5.761   5.067  14.505  0.4251  0.0290 -1.3036
18985TIP3    H278371   5.629   5.049  14.433 -0.3877  0.3733  0.0633
18986TIP3   OH278372   2.011   2.911  11.462  0.0039 -0.4291 -0.0864
18986TIP3    H178373   2.041   2.821  11.476 -3.3271 -1.5576  0.9683
18986TIP3    H278374   2.038   2.932  11.373  2.9796 -1.4829  0.4646
18987TIP3   OH278375   3.109   6.097  12.278  0.4361 -0.2169  0.6111
18987TIP3    H178376   3.186   6.147  12.250 -0.7057  1.4060  0.2105
18987TIP3    H278377   3.045   6.108  12.207  0.5807 -3.5166 -0.2040
18988TIP3   OH278378   4.140   2.207   3.044  0.5589  0.0226 -0.1799
18988TIP3    H178379   4.151   2.173   3.133  0.9738 -1.6541 -0.8189
18988TIP3    H278380   4.056   2.172   3.015  0.1899  0.9765 -0.2919
18989TIP3   OH278381   4.705   5.248   5.875  0.6077  0.1301 -0.4821
18989TIP3    H178382   4.696   5.333   5.919  0.0061 -0.4002  0.4389
18989TIP3    H278383   4.711   5.184   5.946  2.0333 -0.5265 -1.1484
18990TIP3   OH278384   6.563   6.257  11.995 -0.0321 -0.2406  0.4892
18990TIP3    H178385   6.623   6.326  12.024 -0.3930  0.2039  0.1966
18990TIP3    H278386   6.548   6.276  11.902  0.5140 -1.2029  0.1927
18991TIP3   OH278387   5.368   2.673  16.696 -0.2749 -0.3245 -0.7251
18991TIP3    H178388   5.407   2.585  16.694  1.9221  0.6199 -1.1498
18991TIP3    H278389   5.426   2.724  16.751  1.0546  1.9521 -3.9322
18992TIP3   OH278390   5.769   2.863  13.055 -0.3703 -0.1948  0.0853
18992TIP3    H178391   5.684   2.827  13.082  0.2518 -0.1329  2.3044
18992TIP3    H278392   5.759   2.957  13.063  0.4055 -0.2430  2.1412
18993TIP3   OH278393   4.455   0.374   0.286 -0.4042 -1.1861 -0.0004
18993TIP3    H178394   4.429   0.461   0.315  0.1120 -1.3287  0.9323
18993TIP3    H278395   4.549   0.381   0.271 -0.8718 -0.6595 -3.3757
18994TIP3   OH278396   5.821   5.486  16.357  0.1815 -0.1893  0.0768
18994TIP3    H178397   5.785   5.429  16.425  0.4549  0.5588  0.8662
18994TIP3    H278398   5.874   5.550  16.405  1.2701 -0.3040 -0.9291
18995TIP3   OH278399   4.429   3.675  12.022 -0.4594 -0.3299 -0.1019
18995TIP3    H178400   4.405   3.760  12.058 -0.5896  0.6623 -2.3903
18995TIP3    H278401   4.350   3.646  11.976  0.7793  0.2529 -2.7613
18996TIP3   OH278402   3.770   4.003   5.037  0.5307 -0.1188  0.3650
18996TIP3    H178403   3.846   3.950   5.016  0.5161 -0.5579  1.3795
18996TIP3    H278404   3.790   4.090   5.001  0.4551 -0.8249 -1.5100
18997TIP3   OH278405   4.234   4.465   3.592  0.1211 -0.2817  0.4244
18997TIP3    H178406   4.305   4.526   3.614  0.1204 -0.2500  0.3391
18997TIP3    H278407   4.154   4.512   3.615  0.1300 -0.3415  0.5794
18998TIP3   OH278408   0.771   3.780  13.429 -0.1430 -0.1464 -0.6614
18998TIP3    H178409   0.790   3.789  13.336  1.4759  1.4222 -0.2460
18998TIP3    H278410   0.811   3.857  13.469 -2.5450  0.2975  1.1276
18999TIP3   OH278411   2.063   5.398  16.772  0.1161 -0.7016 -0.1585
18999TIP3    H178412   2.147   5.426  16.737  0.0367 -1.1701 -0.7389
18999TIP3    H278413   2.000   5.460  16.735 -0.0673 -1.6533 -1.4924
19000TIP3   OH278414   5.524   5.927  10.464 -0.1921  0.3305 -0.7591
19000TIP3    H178415   5.456   5.945  10.399 -3.1797 -1.5641  1.6142
19000TIP3    H278416   5.555   5.839  10.441  0.5002  0.6279 -0.9943
19001TIP3   OH278417   1.046   2.272  12.108  0.0235 -0.3401  0.0202
19001TIP3    H178418   1.008   2.255  12.194 -1.0569 -1.2234 -0.6215
19001TIP3    H278419   1.035   2.367  12.096 -0.6364 -0.3505  0.4682
19002TIP3   OH278420   2.571   0.356   1.804  0.0904 -0.5462 -0.4994
19002TIP3    H178421   2.643   0.353   1.742 -1.0558 -2.9137 -1.8789
19002TIP3    H278422   2.494   0.377   1.751 -0.6043 -0.5100  0.4843
19003TIP3   OH278423   5.186   4.527  12.512  0.2322  0.1539 -0.3188
19003TIP3    H178424   5.232   4.442  12.511  0.3220  0.1947  0.0199
19003TIP3    H278425   5.205   4.566  12.427  3.6395  1.6584  0.9772
19004TIP3   OH278426   0.455   1.901  12.555 -0.8617 -0.0102  0.2440
19004TIP3    H178427   0.486   1.949  12.478 -0.4019 -0.6103  0.0473
19004TIP3    H278428   0.381   1.953  12.587  0.6950  1.8020  1.0889
19005TIP3   OH278429   5.822   2.502  16.666  0.3443 -0.4161  0.6017
19005TIP3    H178430   5.769   2.429  16.698  0.8430 -0.2782  1.7795
19005TIP3    H278431   5.898   2.461  16.624 -0.6152 -0.6129 -1.0495
19006TIP3   OH278432   2.982   2.908   2.885  0.6566 -0.2542 -0.1705
19006TIP3    H178433   3.038   2.922   2.808  1.1857  0.9270  0.3963
19006TIP3    H278434   3.043   2.908   2.959  0.2565 -2.2604  0.2148
19007TIP3   OH278435   5.680   0.302  17.165  0.3060 -0.1281 -0.1573
19007TIP3    H178436   5.597   0.349  17.172  0.4519  0.5234 -2.0099
19007TIP3    H278437   5.655   0.216  17.131  0.2171 -0.7292  1.3758
19008TIP3   OH278438   5.061   3.666   3.966  0.5688 -0.3820  1.0057
19008TIP3    H178439   5.127   3.664   4.036  2.1919 -2.6011 -0.4618
19008TIP3    H278440   5.074   3.585   3.918 -1.6068  0.2897 -0.9239
19009TIP3   OH278441   4.437   5.072  11.679 -0.0075  0.1690  0.1672
19009TIP3    H178442   4.399   4.998  11.632 -1.1052 -0.4677  1.9501
19009TIP3    H278443   4.516   5.093  11.630 -0.4182 -1.2572 -1.2025
19010TIP3   OH278444   1.116   3.084   1.953 -0.4913  0.2652  0.4066
19010TIP3    H178445   1.171   3.060   1.879 -0.9228  0.1332  0.1243
19010TIP3    H278446   1.176   3.120   2.017 -0.0983  0.2671  0.0393
19011TIP3   OH278447   2.413   2.796  15.963 -0.2684  0.3101  0.5943
19011TIP3    H178448   2.380   2.871  16.012 -1.0078 -0.6754  1.6476
19011TIP3    H278449   2.505   2.818  15.946 -0.2302  1.0628  1.6611
19012TIP3   OH278450   5.289   5.968  12.627  0.3364  0.2439 -0.1421
19012TIP3    H178451   5.334   5.989  12.546  0.1185  0.8148 -0.1144
19012TIP3    H278452   5.288   5.872  12.629 -0.7453  0.2049 -1.4103
19013TIP3   OH278453   1.693   6.067   1.882  0.1024 -0.5398 -0.4445
19013TIP3    H178454   1.638   6.126   1.934 -0.9362  0.2201 -2.3216
19013TIP3    H278455   1.759   6.036   1.944 -0.1415  1.5155  0.9539
19014TIP3   OH278456   5.504   2.574  14.383  0.4438 -0.2778  0.0477
19014TIP3    H178457   5.436   2.613  14.437  1.2633 -0.1192  0.9806
19014TIP3    H278458   5.466   2.574  14.295 -0.3738  0.7118  0.3722
19015TIP3   OH278459   0.981   2.891   2.123  0.6035  0.6868  0.1466
19015TIP3    H178460   1.061   2.930   2.089  0.8064 -0.6173 -0.9213
19015TIP3    H278461   0.962   2.818   2.064 -1.1018  0.6654  0.6705
19016TIP3   OH278462   2.597   0.897   5.205  0.1669 -0.0677  0.0738
19016TIP3    H178463   2.591   0.993   5.208  0.9420  0.2880 -4.1827
19016TIP3    H278464   2.684   0.879   5.170  0.1864 -2.4358  1.1331
19017TIP3   OH278465   0.951   5.130  12.863 -0.3254 -0.2565  0.3748
19017TIP3    H178466   0.996   5.057  12.905  0.0875 -0.4448 -0.3882
19017TIP3    H278467   0.869   5.139  12.913  0.5480  0.1134  1.8014
19018TIP3   OH278468   0.798   1.784  12.076 -0.1029 -0.2968  0.0518
19018TIP3    H178469   0.882   1.751  12.108  0.7546 -1.6140 -3.2115
19018TIP3    H278470   0.817   1.871  12.043  0.8495 -1.6078 -3.2967
19019TIP3   OH278471   1.089   2.717   2.400 -0.3390  0.0310 -0.4975
19019TIP3    H178472   1.171   2.762   2.380 -0.7898  1.0880 -0.0139
19019TIP3    H278473   1.021   2.769   2.356 -0.7056 -1.2466 -1.5272
19020TIP3   OH278474   2.489   6.782   1.069  0.0601  0.2018  0.6826
19020TIP3    H178475   2.526   6.820   0.989 -0.3149 -1.3666 -0.2595
19020TIP3    H278476   2.451   6.857   1.115 -0.7467  0.9875 -1.1583
19021TIP3   OH278477   4.972   2.425  12.230 -0.0778  0.1279 -0.6053
19021TIP3    H178478   4.945   2.354  12.288 -0.2265  1.0211  0.4474
19021TIP3    H278479   4.924   2.410  12.149 -1.4894  0.0363  0.2251
19022TIP3   OH278480   1.355   2.583   2.565 -0.4613 -0.7959 -0.1010
19022TIP3    H178481   1.265   2.605   2.588 -0.7693 -1.3880 -0.7120
19022TIP3    H278482   1.373   2.503   2.613 -0.0076 -0.3017  0.5772
19023TIP3   OH278483   0.690   1.634  16.171 -0.8565 -0.2644  0.4572
19023TIP3    H178484   0.662   1.543  16.167 -3.3239  0.4428  0.4626
19023TIP3    H278485   0.686   1.664  16.080 -0.8664  0.0876  0.5715
19024TIP3   OH278486   2.940   3.397  11.977  0.7027 -0.2061 -0.1545
19024TIP3    H178487   2.910   3.448  12.052  1.8569 -1.2029  1.0323
19024TIP3    H278488   2.933   3.306  12.005 -0.2126 -0.6738 -1.8050
19025TIP3   OH278489   6.580   3.893  12.551  0.6087 -0.0151  0.6028
19025TIP3    H178490   6.566   3.874  12.644 -1.8440  0.5464  0.4362
19025TIP3    H278491   6.515   3.960  12.530 -1.0194 -2.1992 -2.1723
19026TIP3   OH278492   5.609   1.728   3.634 -0.0216 -0.9611  0.1302
19026TIP3    H178493   5.667   1.780   3.689 -2.3614  0.3282  1.5581
19026TIP3    H278494   5.644   1.737   3.546  0.9271  1.1974  0.6821
19027TIP3   OH278495   5.134   6.658   3.364 -0.0288  0.4401 -0.4140
19027TIP3    H178496   5.222   6.677   3.397  0.1078 -0.1630 -0.4178
19027TIP3    H278497   5.146   6.587   3.301 -0.4659  0.6417 -0.7349
19028TIP3   OH278498   4.680   4.718  15.063  0.3000  0.0241  0.1934
19028TIP3    H178499   4.629   4.787  15.021  0.4737  0.1661  0.2129
19028TIP3    H278500   4.771   4.736  15.037  0.3803 -0.0205  0.4445
19029TIP3   OH278501   1.794   2.664  13.064  0.3968 -0.3818  0.0088
19029TIP3    H178502   1.842   2.664  12.982  0.5178  1.0472  0.0492
19029TIP3    H278503   1.806   2.576  13.100  1.6865 -0.5220 -0.7236
19030TIP3   OH278504   0.269   5.219   5.996 -0.1289  0.3732  1.0385
19030TIP3    H178505   0.232   5.284   6.056 -0.2527  1.0389  0.2651
19030TIP3    H278506   0.268   5.137   6.045  0.1024  0.9688  2.0637
19031TIP3   OH278507   3.206   6.149  11.230  0.4180 -0.5810  0.1288
19031TIP3    H178508   3.207   6.098  11.149 -2.1402 -0.6628  0.0790
19031TIP3    H278509   3.245   6.090  11.295  2.1128 -0.6700 -0.9047
19032TIP3   OH278510   0.535   6.604  13.002  0.0549  0.0294 -0.2934
19032TIP3    H178511   0.603   6.671  12.986  0.4608 -0.5065 -0.8596
19032TIP3    H278512   0.564   6.528  12.951  0.1623 -0.9595  1.1828
19033TIP3   OH278513   0.420   6.017   4.284  0.1193  0.1577 -0.4700
19033TIP3    H178514   0.503   5.991   4.244  1.5047  0.8692  1.7624
19033TIP3    H278515   0.445   6.058   4.367 -2.4442  0.9724 -0.0080
19034TIP3   OH278516   1.708   1.778   4.589  0.0747  1.1684  0.0042
19034TIP3    H178517   1.741   1.731   4.513 -0.5086  1.7951 -0.6628
19034TIP3    H278518   1.775   1.767   4.656 -0.3122 -1.0805  0.0823
19035TIP3   OH278519   2.911   1.135  13.920  0.3908  0.0050 -0.6596
19035TIP3    H178520   2.954   1.211  13.880  1.0618 -0.5635 -1.0270
19035TIP3    H278521   2.852   1.173  13.985 -0.5324  0.9672 -1.9704
19036TIP3   OH278522   6.619   0.775   1.684 -0.5934 -0.3152 -0.2798
19036TIP3    H178523   6.690   0.725   1.645  0.5416  0.2792  0.9453
19036TIP3    H278524   6.559   0.793   1.611  0.4007 -0.9878 -1.2942
19037TIP3   OH278525   4.051   4.570  11.529  0.6214  0.0118 -0.2504
19037TIP3    H178526   4.043   4.658  11.566 -0.8533 -0.0300 -0.3951
19037TIP3    H278527   4.104   4.581  11.450 -1.5602  1.2435 -1.6471
19038TIP3   OH278528   5.910   6.781   2.333  0.0652 -0.1791 -0.0211
19038TIP3    H178529   5.976   6.745   2.274 -0.1947  1.3877 -1.3394
19038TIP3    H278530   5.828   6.773   2.284 -0.5024 -0.7872  1.0114
19039TIP3   OH278531   0.282   3.084  12.542  0.5482  0.7818  0.3702
19039TIP3    H178532   0.308   3.172  12.570 -0.1382  1.5314 -1.2151
19039TIP3    H278533   0.362   3.045  12.509  0.8290  0.8598  0.9503
19040TIP3   OH278534   0.341   3.781  13.629 -0.0088  0.1727  0.2291
19040TIP3    H178535   0.418   3.826  13.594 -0.4700  1.2461  0.5591
19040TIP3    H278536   0.373   3.742  13.711 -0.2172  2.1785  1.3404
19041TIP3   OH278537   1.736   5.733   5.456 -0.1633 -0.2209 -0.5498
19041TIP3    H178538   1.679   5.795   5.503 -0.9469 -1.1059 -0.2848
19041TIP3    H278539   1.745   5.771   5.369  1.4673  1.5491  0.3217
19042TIP3   OH278540   5.084   0.100   1.862  0.2493  0.1400 -0.3514
19042TIP3    H178541   5.090   0.065   1.773 -0.3489 -1.1810  0.1079
19042TIP3    H278542   5.047   0.029   1.914 -0.1787  1.1657  0.8099
19043TIP3   OH278543   4.740   6.476  16.355  0.0536  0.1997  0.7947
19043TIP3    H178544   4.790   6.416  16.411  1.6861  2.2211  1.6316
19043TIP3    H278545   4.777   6.464  16.268  0.3580 -0.0087  0.9501
19044TIP3   OH278546   5.947   3.362  13.207  0.1409 -0.3769  0.1709
19044TIP3    H178547   5.999   3.284  13.192 -0.3902 -0.6328 -0.3947
19044TIP3    H278548   5.908   3.382  13.121 -0.6923 -0.2061  0.5780
19045TIP3   OH278549   5.427   6.068  11.815  0.0405  0.1962 -0.8937
19045TIP3    H178550   5.352   6.127  11.825  0.3268  0.9510 -2.7283
19045TIP3    H278551   5.402   6.010  11.743 -0.1301 -1.8260  0.7055
19046TIP3   OH278552   0.274   4.460   1.735  0.2289 -0.2895  0.1386
19046TIP3    H178553   0.306   4.370   1.736  1.8708  0.2496 -0.1358
19046TIP3    H278554   0.283   4.488   1.644  1.1682  0.6073  0.4843
19047TIP3   OH278555   0.848   2.655  12.635  0.0715  0.9168 -0.2276
19047TIP3    H178556   0.906   2.634  12.562  1.9510  0.3752  1.3243
19047TIP3    H278557   0.768   2.687  12.594  0.4378 -0.8486 -2.5412
19048TIP3   OH278558   5.847   4.702   0.337  0.2524  0.4321 -0.0519
19048TIP3    H178559   5.782   4.637   0.364  1.0009 -1.0209 -1.5256
19048TIP3    H278560   5.826   4.780   0.387 -2.2004 -0.1917  0.0185
19049TIP3   OH278561   0.893   4.379  13.852  0.3802 -0.0954  0.3813
19049TIP3    H178562   0.878   4.285  13.862 -1.4255  0.1762  0.4364
19049TIP3    H278563   0.858   4.418  13.932  0.5144  0.6821  0.0666
19050TIP3   OH278564   3.854   4.162   3.825 -0.1140 -0.3196  0.7236
19050TIP3    H178565   3.820   4.085   3.779  1.5882 -0.2889 -0.7195
19050TIP3    H278566   3.949   4.156   3.814  0.0310  3.3118 -1.7097
19051TIP3   OH278567   0.565   4.403   3.926 -0.2501 -0.9085  0.3173
19051TIP3    H178568   0.561   4.334   3.859 -0.1355 -0.7109  0.1071
19051TIP3    H278569   0.495   4.380   3.987 -0.6667 -0.8318 -0.1194
19052TIP3   OH278570   5.469   4.451   6.668  0.2819 -0.5268  0.5962
19052TIP3    H178571   5.543   4.511   6.680  0.4707 -0.7658  0.6160
19052TIP3    H278572   5.400   4.487   6.724 -0.5285  1.2115 -1.3743
19053TIP3   OH278573   4.970   4.068  10.782  0.7032  0.7485  0.5881
19053TIP3    H178574   4.954   4.008  10.709  0.3730 -0.5784  1.7016
19053TIP3    H278575   5.008   4.146  10.741  2.6220 -0.7926 -0.7754
19054TIP3   OH278576   0.854   2.373   3.914  0.3124  0.4765  0.1690
19054TIP3    H178577   0.789   2.345   3.980 -1.2852  2.1468 -0.6063
19054TIP3    H278578   0.813   2.352   3.830  1.3163  0.4896 -0.3363
19055TIP3   OH278579   4.727   2.109  12.744 -0.2546  0.4365  0.6518
19055TIP3    H178580   4.807   2.156  12.721  0.6416 -0.6768  1.4119
19055TIP3    H278581   4.736   2.090  12.837 -0.2242 -1.8364  0.2413
19056TIP3   OH278582   2.186   2.858   5.066  0.5631 -0.4518 -0.5456
19056TIP3    H178583   2.253   2.836   5.001  2.2487 -0.9732  1.2788
19056TIP3    H278584   2.234   2.867   5.148 -1.4665  0.3846  0.6268
19057TIP3   OH278585   5.266   2.115  12.509  0.2808  0.0137 -0.0197
19057TIP3    H178586   5.216   2.034  12.502 -0.2039  0.2242  0.8602
19057TIP3    H278587   5.285   2.123  12.602  1.8428  0.0152 -0.2999
19058TIP3   OH278588   2.629   0.803   3.607 -0.4353 -0.2121  0.1323
19058TIP3    H178589   2.612   0.875   3.667  1.7354 -0.1907  0.8199
19058TIP3    H278590   2.669   0.735   3.661 -0.3494 -1.0213 -0.9117
19059TIP3   OH278591   1.283   1.296  14.264  0.1367 -0.7536  0.3329
19059TIP3    H178592   1.370   1.275  14.297  1.4511  0.7971 -1.8410
19059TIP3    H278593   1.224   1.240  14.314  2.5050 -2.9781  0.8600
19060TIP3   OH278594   2.553   5.127   3.084 -0.5706 -0.2785  0.1943
19060TIP3    H178595   2.535   5.154   2.994  0.7009 -1.2476 -0.3876
19060TIP3    H278596   2.607   5.048   3.075 -0.3984 -0.3806  1.8082
19061TIP3   OH278597   5.406   5.175   0.495 -0.6046 -0.6032 -0.2606
19061TIP3    H178598   5.422   5.174   0.400  0.2520  0.9302 -0.1598
19061TIP3    H278599   5.317   5.207   0.503 -0.9307 -1.4029 -0.5580
19062TIP3   OH278600   6.247   5.984  12.085  0.4018 -0.2046 -0.2672
19062TIP3    H178601   6.187   6.055  12.108  1.1666  0.3927 -0.1045
19062TIP3    H278602   6.226   5.963  11.994 -0.5450 -0.5039 -0.0009
19063TIP3   OH278603   2.944   6.015   3.175 -0.3249 -0.4201  0.3162
19063TIP3    H178604   2.925   6.063   3.255  0.4114  0.4983 -0.0422
19063TIP3    H278605   3.021   6.058   3.138 -1.9722  0.7291 -2.0896
19064TIP3   OH278606   1.152   4.076   1.355  0.2473  0.5016 -0.5292
19064TIP3    H178607   1.074   4.048   1.402  1.0363  0.0527  0.5497
19064TIP3    H278608   1.124   4.083   1.264 -0.6617 -1.2495 -0.4223
19065TIP3   OH278609   4.019   3.170   4.441 -0.0665 -0.2416  0.6529
19065TIP3    H178610   4.044   3.262   4.430 -1.6377  0.0140 -1.3805
19065TIP3    H278611   4.102   3.125   4.459  1.1123  1.2227 -0.8256
19066TIP3   OH278612   4.319   3.566  16.546  0.2083 -0.1189 -0.9206
19066TIP3    H178613   4.396   3.607  16.507 -0.4333 -0.0974 -2.2253
19066TIP3    H278614   4.299   3.620  16.622  2.3740 -1.0312  0.3975
19067TIP3   OH278615   2.181   6.007   0.591 -0.1687 -0.0039 -0.4674
19067TIP3    H178616   2.213   6.088   0.630 -1.7360  0.3877  0.0595
19067TIP3    H278617   2.118   5.972   0.654  0.6861 -1.8123 -0.5383
19068TIP3   OH278618   1.574   6.198   4.293  0.3736 -0.0521 -0.2717
19068TIP3    H178619   1.652   6.149   4.266  0.8551  1.0799 -1.0005
19068TIP3    H278620   1.569   6.272   4.232 -0.2697  0.8636  0.8450
19069TIP3   OH278621   6.271   5.738   5.969 -0.7681 -0.2239 -0.1198
19069TIP3    H178622   6.194   5.748   6.026  0.0352 -1.4273  1.2520
19069TIP3    H278623   6.320   5.820   5.981  0.3153 -1.1308  2.4718
19070TIP3   OH278624   3.852   2.955   4.726 -0.5434 -0.4230 -0.1314
19070TIP3    H178625   3.930   2.962   4.781 -0.7220  1.7760 -0.0772
19070TIP3    H278626   3.864   2.872   4.679  2.2087  0.1914 -0.7102
19071TIP3   OH278627   0.796   4.272  16.899  1.2430 -0.0597  0.6580
19071TIP3    H178628   0.780   4.223  16.980  0.9218  0.2947  0.8086
19071TIP3    H278629   0.766   4.361  16.918  1.2423  0.0463  0.1759
19072TIP3   OH278630   0.859   5.609   3.029  0.4881  0.0119  0.0222
19072TIP3    H178631   0.891   5.531   3.073 -0.4901 -0.5753 -0.2893
19072TIP3    H278632   0.769   5.619   3.060  0.9035  1.6419  0.8974
19073TIP3   OH278633   2.985   4.109   3.517  0.2523 -0.4462 -0.2592
19073TIP3    H178634   3.004   4.107   3.423 -1.3895 -0.0862 -0.6269
19073TIP3    H278635   2.965   4.200   3.535  0.4733 -0.5343  0.4314
19074TIP3   OH278636   5.703   4.048   1.316  0.1002 -0.3324  0.1926
19074TIP3    H178637   5.729   4.090   1.234  0.5434  2.0500  1.4547
19074TIP3    H278638   5.785   4.020   1.356  0.1062  0.4780  0.7785
19075TIP3   OH278639   1.773   2.779  13.421 -0.4491 -0.2703 -0.2033
19075TIP3    H178640   1.699   2.733  13.381 -0.1592 -2.3407  1.4189
19075TIP3    H278641   1.794   2.726  13.498  2.5775  0.3705 -0.4744
19076TIP3   OH278642   6.756   0.904  11.519  0.4573  0.2410 -0.1390
19076TIP3    H178643   6.790   0.862  11.598 -1.9346  0.9132  1.3319
19076TIP3    H278644   6.676   0.948  11.548 -0.3527  0.7361 -2.8978
19077TIP3   OH278645   0.039   3.014   6.223 -0.0869 -0.3721  0.0620
19077TIP3    H178646   0.004   3.104   6.227  0.0835 -0.1953 -1.6177
19077TIP3    H278647  -0.029   2.961   6.263 -0.7019  0.3933  0.0765
19078TIP3   OH278648   4.421   2.650   3.699  0.2552  0.1846 -0.6156
19078TIP3    H178649   4.447   2.559   3.707 -0.0104  0.1795  0.3971
19078TIP3    H278650   4.326   2.649   3.711  0.2919  0.6234 -0.2593
19079TIP3   OH278651   1.933   6.595  15.031 -0.2469 -1.0080  0.5909
19079TIP3    H178652   1.948   6.550  14.948 -1.1221 -1.5053  0.6849
19079TIP3    H278653   1.989   6.673  15.028  0.4435 -1.5298 -0.0488
19080TIP3   OH278654   1.646   1.652   2.722  0.2510 -0.0534 -0.1084
19080TIP3    H178655   1.586   1.609   2.661  0.1873  0.7864 -0.6481
19080TIP3    H278656   1.591   1.681   2.793  0.2207 -0.4250  0.0237
19081TIP3   OH278657   3.192   1.038  15.925 -0.1530 -0.5011 -0.6110
19081TIP3    H178658   3.100   1.062  15.936 -0.2826 -1.1462 -0.2977
19081TIP3    H278659   3.212   0.982  16.001  0.0664 -1.6441 -1.4932
19082TIP3   OH278660   1.618   5.651   4.788  0.4702 -0.1113 -0.1552
19082TIP3    H178661   1.678   5.633   4.716  0.3396  1.5975 -0.7346
19082TIP3    H278662   1.657   5.724   4.835 -0.2454 -0.1721  0.5723
19083TIP3   OH278663   4.363   6.055  12.746  0.3982  0.0787  0.0023
19083TIP3    H178664   4.408   6.048  12.830  0.9894  2.6719 -0.0114
19083TIP3    H278665   4.331   5.966  12.728 -1.7857 -0.1721  4.0132
19084TIP3   OH278666   4.535   3.528   1.850  0.1768  0.0746  0.4094
19084TIP3    H178667   4.614   3.583   1.851 -0.0862  0.5133 -1.1107
19084TIP3    H278668   4.465   3.586   1.820 -0.1848 -0.9722 -0.8604
19085TIP3   OH278669   2.477   3.535  15.622 -0.2631  0.3154  0.0586
19085TIP3    H178670   2.429   3.609  15.657  1.9055  1.5057  0.7176
19085TIP3    H278671   2.412   3.466  15.612 -1.8916  1.5148  1.7755
19086TIP3   OH278672   6.472   3.794  13.072 -0.1477 -0.1840 -1.0332
19086TIP3    H178673   6.492   3.880  13.034  0.7329  0.5300  0.8914
19086TIP3    H278674   6.533   3.734  13.030 -1.1555 -0.0170 -2.8136
19087TIP3   OH278675   1.647   1.278  15.647  0.2975  0.0642 -0.4407
19087TIP3    H178676   1.740   1.265  15.630  0.4237  1.3176 -0.7598
19087TIP3    H278677   1.604   1.205  15.602  1.0098  0.4029 -1.7116
19088TIP3   OH278678   1.750   4.848   0.528 -0.0655  0.1760 -0.0614
19088TIP3    H178679   1.671   4.878   0.572 -0.4637 -1.1462  0.1692
19088TIP3    H278680   1.736   4.870   0.436 -1.3200 -1.2154 -0.2444
19089TIP3   OH278681   1.658   6.272  16.113 -0.8186  0.3479 -0.1488
19089TIP3    H178682   1.648   6.178  16.125  1.0881  0.1391  0.1043
19089TIP3    H278683   1.622   6.289  16.026  1.2832 -1.0980 -1.3822
19090TIP3   OH278684   3.756   5.212  13.859  0.1514 -0.4914 -0.0448
19090TIP3    H178685   3.784   5.136  13.809 -0.3951 -0.6469 -0.1136
19090TIP3    H278686   3.663   5.199  13.874 -0.1308  0.5281 -0.7288
19091TIP3   OH278687   3.139   5.180  15.013 -0.2503  0.0571  0.1526
19091TIP3    H178688   3.232   5.197  14.997 -0.0467 -1.3832 -0.3577
19091TIP3    H278689   3.135   5.156  15.106 -0.0642 -0.1158  0.1175
19092TIP3   OH278690   2.023   4.451   4.636 -0.0550 -0.3239 -0.0899
19092TIP3    H178691   1.928   4.454   4.643 -0.1188  0.0065 -0.9271
19092TIP3    H278692   2.052   4.537   4.668 -0.1092 -0.0937 -0.6381
19093TIP3   OH278693   3.075   5.306   3.199  0.6444  0.1476  0.2384
19093TIP3    H178694   3.109   5.233   3.148  2.8512 -0.6363  2.5914
19093TIP3    H278695   3.125   5.382   3.168  1.5612 -0.2200  0.7507
19094TIP3   OH278696   6.018   1.707  16.104  0.2094  0.0046  0.4820
19094TIP3    H178697   6.057   1.743  16.184  2.8572 -0.9546 -0.2753
19094TIP3    H278698   5.924   1.719  16.116  0.6538  2.2092  2.6005
19095TIP3   OH278699   5.338   2.928   3.023 -0.0802  0.2974  0.0654
19095TIP3    H178700   5.284   2.851   3.038  0.1109  0.0984 -0.2663
19095TIP3    H278701   5.367   2.921   2.932  0.0352  0.6978  0.0663
19096TIP3   OH278702   0.467   6.751   5.769  0.3053  0.2048  0.4030
19096TIP3    H178703   0.479   6.691   5.843 -2.4119 -1.6006 -0.4844
19096TIP3    H278704   0.510   6.707   5.696  0.9271  0.8576  0.3601
19097TIP3   OH278705   4.961   6.042   4.490 -0.3878  0.1754  0.2695
19097TIP3    H178706   4.956   6.100   4.414  1.2249 -0.7061 -0.5443
19097TIP3    H278707   4.876   5.998   4.493 -0.1698 -0.4274 -1.5627
19098TIP3   OH278708   2.214   4.669   5.772 -0.7677 -0.3284  0.0033
19098TIP3    H178709   2.186   4.621   5.850  1.5549 -0.7026  0.7010
19098TIP3    H278710   2.237   4.756   5.804 -1.4538  0.0702 -0.5835
19099TIP3   OH278711   5.248   2.585   1.593  0.1770 -0.7195 -0.1569
19099TIP3    H178712   5.253   2.676   1.566  2.2728 -0.5601  0.5617
19099TIP3    H278713   5.169   2.579   1.646  1.3642  1.3492  2.0136
19100TIP3   OH278714   6.667   2.373  13.201  0.3242 -0.2292  0.0897
19100TIP3    H178715   6.725   2.388  13.276 -0.3087 -0.0553  0.5557
19100TIP3    H278716   6.661   2.458  13.158  1.6911 -0.6020 -0.9193
19101TIP3   OH278717   3.692   1.489   0.253  0.2355  0.1888  0.1846
19101TIP3    H178718   3.771   1.451   0.290  1.2104  2.0087  0.0844
19101TIP3    H278719   3.642   1.520   0.328  0.3250  0.3451  0.1807
19102TIP3   OH278720   5.236   4.702  14.832 -0.1156 -0.6030  0.2709
19102TIP3    H178721   5.206   4.752  14.909 -0.7364 -0.1685 -0.2409
19102TIP3    H278722   5.250   4.769  14.765  0.0174 -1.0230 -0.1204
19103TIP3   OH278723   6.051   0.278  11.978  0.4443 -0.5061 -0.3945
19103TIP3    H178724   6.140   0.299  11.949  0.8834  0.5071  1.4594
19103TIP3    H278725   5.995   0.336  11.926  1.1149  0.6543  0.1180
19104TIP3   OH278726   1.539   6.740   2.957  0.1145  0.3072 -0.3072
19104TIP3    H178727   1.450   6.721   2.926  0.8306 -1.3314 -1.5355
19104TIP3    H278728   1.575   6.800   2.891  0.8680 -1.3813 -1.5130
19105TIP3   OH278729   6.568   2.521   5.066 -0.5205  0.1084  0.2713
19105TIP3    H178730   6.490   2.491   5.113 -0.5459 -0.2461  0.0101
19105TIP3    H278731   6.585   2.609   5.101 -0.9508  0.1291  0.4355
19106TIP3   OH278732   4.347   0.203   4.434  0.1598  0.0744 -0.0585
19106TIP3    H178733   4.311   0.203   4.345 -1.5871  0.7606  0.6103
19106TIP3    H278734   4.303   0.130   4.477 -1.2775  1.5581  1.0774
19107TIP3   OH278735   6.619   3.922  14.600  0.1087  0.0988 -0.0535
19107TIP3    H178736   6.600   3.946  14.691 -0.1301  1.5292 -0.4565
19107TIP3    H278737   6.628   3.827  14.602  0.8178  0.1614  1.5969
19108TIP3   OH278738   0.176   0.252   3.826 -0.0652 -0.2213  0.1722
19108TIP3    H178739   0.108   0.243   3.893  0.8725  1.9995  1.5366
19108TIP3    H278740   0.129   0.290   3.751 -0.4960  0.6498  0.8572
19109TIP3   OH278741   4.374   3.199   4.030 -0.6261  0.4012 -0.3895
19109TIP3    H178742   4.304   3.255   3.998 -1.8313 -0.4766  0.6088
19109TIP3    H278743   4.394   3.232   4.117 -2.3502 -1.5062  0.8112
19110TIP3   OH278744   1.691   0.127  12.173  0.2425 -0.2016  0.1839
19110TIP3    H178745   1.719   0.160  12.258  2.5716 -0.7423 -0.3001
19110TIP3    H278746   1.600   0.157  12.164 -0.8629 -2.0345  3.7700
19111TIP3   OH278747   5.321   5.957  14.142  0.5116 -0.0584 -0.2691
19111TIP3    H178748   5.306   5.899  14.217 -0.2670 -0.7855 -0.9611
19111TIP3    H278749   5.234   5.968  14.103  1.0174 -0.3118 -1.4994
19112TIP3   OH278750   3.412   0.682  16.338  0.3183  0.0688  0.6372
19112TIP3    H178751   3.349   0.684  16.410 -1.1411  0.7854 -0.5927
19112TIP3    H278752   3.371   0.625  16.273  0.8367  0.7076 -0.2714
19113TIP3   OH278753   2.307   2.667   1.249  0.7884  0.4090 -0.0709
19113TIP3    H178754   2.286   2.744   1.302 -0.5368 -0.1175  0.2020
19113TIP3    H278755   2.391   2.688   1.209 -0.3708  2.8033 -1.4642
19114TIP3   OH278756   1.407   6.762   2.450 -0.1773  0.4394 -0.2944
19114TIP3    H178757   1.429   6.704   2.377  3.2874  2.2234 -0.8350
19114TIP3    H278758   1.467   6.736   2.520 -0.7614  1.3306  0.5574
19115TIP3   OH278759   0.774   1.232   4.257  0.1966 -0.4328  0.7734
19115TIP3    H178760   0.704   1.263   4.199  0.1792  0.3662  1.2031
19115TIP3    H278761   0.731   1.219   4.341  0.7591  1.1297  1.3326
19116TIP3   OH278762   3.479   3.908  12.804  0.3569 -0.0345 -0.2862
19116TIP3    H178763   3.409   3.945  12.859 -0.5057 -0.5056 -1.0390
19116TIP3    H278764   3.443   3.911  12.715  1.9894  1.3258 -0.9448
19117TIP3   OH278765   3.438   2.392  16.041  0.5838  0.9588  0.2895
19117TIP3    H178766   3.349   2.408  16.010  0.4505  0.7414  0.5607
19117TIP3    H278767   3.439   2.299  16.065  1.6395  0.2027 -2.2811
19118TIP3   OH278768   6.669   3.585   3.412 -0.4169 -0.2819 -0.2182
19118TIP3    H178769   6.679   3.490   3.420 -0.6685 -0.4403 -1.5555
19118TIP3    H278770   6.574   3.599   3.414 -0.3883 -0.0768 -0.3227
19119TIP3   OH278771   3.022   1.753   5.600  0.3484 -0.0303 -0.3353
19119TIP3    H178772   3.074   1.813   5.547 -0.6389  0.3203 -0.9318
19119TIP3    H278773   2.952   1.807   5.636 -1.3400 -1.0070 -1.9376
19120TIP3   OH278774   5.037   6.621   5.907  0.3006 -0.2537  0.4266
19120TIP3    H178775   5.065   6.574   5.985  0.0549 -1.1376 -0.0072
19120TIP3    H278776   4.988   6.556   5.856 -3.4864  1.4234  1.5936
19121TIP3   OH278777   6.702   1.786  15.842 -0.4428 -0.3323  0.1207
19121TIP3    H178778   6.656   1.704  15.857 -0.1478 -0.4846  0.1855
19121TIP3    H278779   6.694   1.833  15.925  0.1319 -0.6588  0.3623
19122TIP3   OH278780   1.496   3.492   0.305 -0.0458  0.0348  0.1917
19122TIP3    H178781   1.462   3.411   0.343 -0.2186  0.5320  1.1292
19122TIP3    H278782   1.534   3.465   0.221 -0.6795 -0.9047  0.1882
19123TIP3   OH278783   4.434   0.051  14.512 -0.0368 -0.0562 -0.4940
19123TIP3    H178784   4.369   0.093  14.569  0.3970 -1.0799  0.8116
19123TIP3    H278785   4.423  -0.043  14.529  1.8893 -0.2441 -0.1119
19124TIP3   OH278786   2.981   2.539  16.628 -0.4308  0.3484  0.2579
19124TIP3    H178787   2.890   2.560  16.607 -0.3714 -0.1870 -0.5808
19124TIP3    H278788   2.986   2.444  16.618  0.5099  0.5018 -0.9094
19125TIP3   OH278789   2.754   6.297   4.588 -0.0551  0.6826 -0.3372
19125TIP3    H178790   2.678   6.269   4.537  0.0412 -0.7413  0.2490
19125TIP3    H278791   2.811   6.220   4.591  0.7363  1.2720  0.4707
19126TIP3   OH278792   2.068   1.051  17.155  0.4624  0.0259  0.0170
19126TIP3    H178793   2.007   1.034  17.084  0.4107  0.0912  0.0456
19126TIP3    H278794   2.080   1.146  17.155 -1.7548  0.4078  1.9050
19127TIP3   OH278795   1.880   3.039   5.975 -0.4635  0.4572 -0.0547
19127TIP3    H178796   1.815   2.970   5.985 -0.1651  0.0906 -0.5613
19127TIP3    H278797   1.956   3.007   6.024  0.6824 -0.9260 -2.5563
19128TIP3   OH278798   6.149   0.448  11.595  0.3300  0.1464 -0.0647
19128TIP3    H178799   6.057   0.453  11.622  0.7186  0.9244  1.2201
19128TIP3    H278800   6.186   0.376  11.646  0.3273 -0.5456 -1.0000
19129TIP3   OH278801   5.199   0.742   2.315  0.4881 -0.2354  0.4580
19129TIP3    H178802   5.249   0.742   2.233 -0.1517 -3.0190 -0.0105
19129TIP3    H278803   5.244   0.678   2.371 -0.6801 -0.4058  1.2329
19130TIP3   OH278804   1.722   5.844  14.755 -0.2227  0.5092 -0.1019
19130TIP3    H178805   1.752   5.910  14.692  1.2751  0.0726  0.1148
19130TIP3    H278806   1.788   5.845  14.824 -1.5522  0.5849  1.2117
19131TIP3   OH278807   5.409   3.611  14.982  0.3006  0.2434  0.0842
19131TIP3    H178808   5.494   3.584  15.018  0.4141  0.0130 -0.3525
19131TIP3    H278809   5.413   3.586  14.890 -0.0964  0.5800 -0.0281
19132TIP3   OH278810   5.979   1.383   3.506 -0.1213 -0.5312  0.4402
19132TIP3    H178811   5.944   1.446   3.569  1.5305 -0.2913  1.1672
19132TIP3    H278812   6.023   1.317   3.560  0.2331 -1.0069 -0.4078
19133TIP3   OH278813   6.182   3.792  15.666 -0.0985  0.3686 -0.0323
19133TIP3    H178814   6.114   3.837  15.616  0.8566  0.6430 -1.1211
19133TIP3    H278815   6.264   3.814  15.621  0.6566 -0.3971  0.9251
19134TIP3   OH278816   0.421   0.788  15.468  0.3185  0.0606 -0.2031
19134TIP3    H178817   0.409   0.710  15.523 -1.2132  0.9427  0.7819
19134TIP3    H278818   0.412   0.861  15.529 -3.9652  1.1887 -1.8979
19135TIP3   OH278819   1.103   5.137  13.286 -0.2044 -0.1283  0.6889
19135TIP3    H178820   1.144   5.186  13.214  0.9338  0.0599  1.4519
19135TIP3    H278821   1.009   5.152  13.273 -0.1012 -0.8194 -1.2693
19136TIP3   OH278822   0.520   4.369   1.939  0.7263  0.0509 -0.3604
19136TIP3    H178823   0.479   4.452   1.963 -0.4397 -0.1458 -1.5684
19136TIP3    H278824   0.448   4.313   1.912  1.5584 -1.1516 -0.1835
19137TIP3   OH278825   6.337   0.871   1.577  0.1144  0.5618  0.1257
19137TIP3    H178826   6.418   0.917   1.553  1.7268 -2.5561 -0.9748
19137TIP3    H278827   6.285   0.872   1.497  0.9178 -0.8810 -0.4581
19138TIP3   OH278828   2.057   2.959   4.755  0.2554  0.5910  0.5042
19138TIP3    H178829   2.100   2.924   4.833 -0.8333  1.1667  1.3994
19138TIP3    H278830   2.099   3.044   4.741 -0.3964  1.0386  1.2213
19139TIP3   OH278831   4.949   5.274   3.249  0.4712 -0.2257 -0.2585
19139TIP3    H178832   5.004   5.349   3.226  0.4871 -0.3498 -0.6369
19139TIP3    H278833   4.958   5.266   3.344  0.4114  0.2956 -0.2023
19140TIP3   OH278834   2.938   2.627   2.114 -0.0033  0.3614  0.0863
19140TIP3    H178835   2.923   2.722   2.120  0.7017  0.3888  1.7391
19140TIP3    H278836   3.033   2.617   2.124  0.1410 -0.4372 -1.6741
19141TIP3   OH278837   5.802   2.875  15.920  0.1536  0.6867  0.4421
19141TIP3    H178838   5.888   2.917  15.926  0.6575 -0.0885 -1.0000
19141TIP3    H278839   5.803   2.808  15.989  2.3926 -2.1624 -2.1041
19142TIP3   OH278840   4.282   0.120   2.467 -0.5364  0.0817 -0.3991
19142TIP3    H178841   4.248   0.199   2.426 -0.6086  1.3605  1.9315
19142TIP3    H278842   4.377   0.127   2.457 -0.4773  0.9893  0.6117
19143TIP3   OH278843   0.910   4.348   4.562 -0.4144 -0.4627 -0.5150
19143TIP3    H178844   0.985   4.317   4.511 -0.5292 -1.2110 -0.2397
19143TIP3    H278845   0.879   4.425   4.515  2.9807  2.4565  1.4389
19144TIP3   OH278846   0.999   0.000  12.877  0.3137  0.3245 -0.7559
19144TIP3    H178847   1.043  -0.069  12.926 -0.1624  0.0690 -0.6846
19144TIP3    H278848   1.032  -0.008  12.788  0.3839  0.1114 -0.7110
19145TIP3   OH278849   4.339   5.882   1.871 -0.4941  0.6345 -0.6477
19145TIP3    H178850   4.421   5.911   1.832 -1.9469  1.8563 -3.0442
19145TIP3    H278851   4.320   5.799   1.828 -0.1178 -0.1199  0.5810
19146TIP3   OH278852   4.273   6.603  15.589  0.3379 -0.2954 -0.3668
19146TIP3    H178853   4.218   6.650  15.526  1.5146 -0.1471 -1.3204
19146TIP3    H278854   4.303   6.526  15.541  0.7539 -0.5160  0.2365
19147TIP3   OH278855   4.069   1.178   2.774  0.3452 -0.0624  0.3182
19147TIP3    H178856   4.163   1.168   2.756  0.4640  0.6806  0.4889
19147TIP3    H278857   4.035   1.224   2.698  0.1053 -0.3950  0.2259
19148TIP3   OH278858   1.767   6.027  16.928 -0.5090  0.4346  0.3353
19148TIP3    H178859   1.687   6.072  16.954  0.2358  1.1014  1.5534
19148TIP3    H278860   1.832   6.054  16.993  0.2970 -1.3825  0.3482
19149TIP3   OH278861   3.106   4.481   6.163  0.3825 -0.7108 -0.3988
19149TIP3    H178862   3.027   4.509   6.209 -0.2745 -3.3284  0.2289
19149TIP3    H278863   3.171   4.471   6.232  1.6776  2.2796 -1.0005
19150TIP3   OH278864   3.859   6.353  15.921 -0.6198  0.0978 -0.7328
19150TIP3    H178865   3.904   6.326  15.841 -1.5066 -1.5448 -0.7309
19150TIP3    H278866   3.813   6.433  15.897  0.9403  0.8945 -1.1972
19151TIP3   OH278867   1.548   3.819  10.777 -0.4342 -0.2181 -0.1328
19151TIP3    H178868   1.610   3.758  10.817 -1.8968 -1.2099  0.7227
19151TIP3    H278869   1.491   3.763  10.723  1.0604  0.9964 -3.2180
19152TIP3   OH278870   1.077   0.513  11.121 -0.2581  0.3621 -0.5148
19152TIP3    H178871   1.035   0.575  11.180  0.8095 -0.9525  1.7710
19152TIP3    H278872   1.127   0.568  11.060  1.7361  1.8853  2.2381
19153TIP3   OH278873   6.121   4.975   2.071  0.0224 -0.1226 -0.0742
19153TIP3    H178874   6.037   5.003   2.108 -0.1851 -1.5484  0.6058
19153TIP3    H278875   6.176   4.956   2.148 -0.3505 -2.9575 -0.3890
19154TIP3   OH278876   1.404   3.639  10.641  0.5075  0.5656 -0.5183
19154TIP3    H178877   1.425   3.565  10.698  2.2894  1.1611 -0.3252
19154TIP3    H278878   1.375   3.599  10.559  0.7893 -0.3492 -0.1889
19155TIP3   OH278879   0.040   6.469   2.608  0.0067 -0.1877  0.0590
19155TIP3    H178880   0.064   6.562   2.605 -0.8169  0.0168 -1.6020
19155TIP3    H278881  -0.019   6.462   2.684  1.2939  0.3023  1.1339
19156TIP3   OH278882   6.741   2.999   4.247 -0.3505 -0.0047 -0.0241
19156TIP3    H178883   6.807   3.046   4.195 -0.0000  0.6313  0.9733
19156TIP3    H278884   6.780   2.991   4.334 -1.5066  0.2089  0.5349
19157TIP3   OH278885   3.253   5.148  17.038  0.2698  0.0938  0.0178
19157TIP3    H178886   3.304   5.211  16.986  0.7957  0.6027  1.0964
19157TIP3    H278887   3.172   5.195  17.059 -1.0994 -1.0326 -2.4370
19158TIP3   OH278888   3.179   0.821   2.019  0.2327 -0.0142  0.1125
19158TIP3    H178889   3.164   0.914   2.032  0.7828 -0.0870  1.4721
19158TIP3    H278890   3.242   0.815   1.948 -1.1562  0.5497 -1.2269
19159TIP3   OH278891   0.540   0.807  11.197  0.1415  0.1883 -0.3915
19159TIP3    H178892   0.458   0.853  11.216  1.2661  1.4758  1.7664
19159TIP3    H278893   0.515   0.736  11.139 -2.2333  1.5278 -1.1551
19160TIP3   OH278894   2.223   3.993  13.701 -0.3097 -0.6284  0.0923
19160TIP3    H178895   2.302   4.025  13.658 -1.3806 -0.3191 -1.7408
19160TIP3    H278896   2.242   3.901  13.720  1.4523  0.0668  2.1791
19161TIP3   OH278897   4.273   3.544  15.018  0.0532 -0.0220  0.1027
19161TIP3    H178898   4.246   3.562  15.108 -0.8865  2.2845 -0.5681
19161TIP3    H278899   4.232   3.460  14.996 -2.1974  0.8046  0.8909
19162TIP3   OH278900   4.798   2.463   2.825 -0.1565  0.1834  0.3179
19162TIP3    H178901   4.865   2.402   2.793  0.6685  1.3081 -0.1625
19162TIP3    H278902   4.799   2.535   2.762  0.1901  1.5805  1.8590
19163TIP3   OH278903   5.994   1.394  11.039 -0.5469  0.0868  0.1129
19163TIP3    H178904   6.039   1.435  11.113  0.4613  1.7659 -1.3233
19163TIP3    H278905   5.933   1.462  11.009  0.8723  0.4741 -2.0960
19164TIP3   OH278906   1.252   0.572   2.610  0.3215  0.0521  0.3973
19164TIP3    H178907   1.206   0.618   2.540 -0.1839 -0.9131  0.0690
19164TIP3    H278908   1.345   0.587   2.592  0.1718  1.6484  0.8086
19165TIP3   OH278909   0.358   3.986   3.134  0.2080 -0.5629 -0.0826
19165TIP3    H178910   0.400   3.975   3.049  1.0350 -1.2222  0.4010
19165TIP3    H278911   0.302   4.064   3.123  1.1459  0.0183 -0.8920
19166TIP3   OH278912   0.272   5.742   6.502  0.5729 -0.5951  0.2310
19166TIP3    H178913   0.221   5.823   6.501 -0.6385 -1.2834 -1.9073
19166TIP3    H278914   0.361   5.769   6.525  0.8148  1.8425 -2.9429
19167TIP3   OH278915   6.140   2.728   6.747  0.3585  0.0669  0.5701
19167TIP3    H178916   6.184   2.755   6.667 -2.1863  0.1103 -0.9087
19167TIP3    H278917   6.111   2.810   6.788 -2.9813 -0.0269 -1.3228
19168TIP3   OH278918   4.663   4.058  11.932  0.1857  0.8334  0.0348
19168TIP3    H178919   4.747   4.101  11.941  0.4968  0.0029  1.3309
19168TIP3    H278920   4.663   3.989  11.999 -1.9061  1.4433  0.7650
19169TIP3   OH278921   4.729   1.460  12.037 -0.3720  0.2757  0.1242
19169TIP3    H178922   4.788   1.481  12.109  0.9885  0.8084 -1.0947
19169TIP3    H278923   4.782   1.408  11.976 -1.7542 -0.9870 -0.0785
19170TIP3   OH278924   4.406   5.886  14.892 -0.5129  0.2201 -0.5395
19170TIP3    H178925   4.362   5.955  14.942 -0.6920 -0.4344  0.2347
19170TIP3    H278926   4.497   5.890  14.920 -0.2826  0.8540 -1.3257
19171TIP3   OH278927   4.092   5.718   1.190 -0.3523 -0.7278 -0.3267
19171TIP3    H178928   4.030   5.655   1.154 -0.4028 -0.3642 -0.8912
19171TIP3    H278929   4.154   5.734   1.118  0.2953 -0.9586  0.1704
19172TIP3   OH278930   2.642   2.240   0.752 -0.1068  0.1023  0.2275
19172TIP3    H178931   2.547   2.241   0.761 -0.0385  2.3753  1.4531
19172TIP3    H278932   2.663   2.324   0.712  1.4847  0.3792  1.5493
19173TIP3   OH278933   2.297   2.327   2.765  0.2304  0.7821 -0.2035
19173TIP3    H178934   2.376   2.349   2.716 -0.2506  2.8745 -0.1499
19173TIP3    H278935   2.324   2.332   2.857  0.5938 -0.9668 -0.1766
19174TIP3   OH278936   2.950   0.397   5.465 -0.3000 -0.2652  0.3129
19174TIP3    H178937   2.969   0.412   5.372 -0.9229  0.3159  0.2797
19174TIP3    H278938   2.998   0.316   5.485 -3.3448 -2.7665 -1.5607
19175TIP3   OH278939   5.925   2.891  15.537  0.2640  0.3912 -0.4848
19175TIP3    H178940   5.956   2.875  15.626 -2.2092 -2.0117  0.0936
19175TIP3    H278941   5.961   2.818  15.486 -0.3941  0.3116 -0.8492
19176TIP3   OH278942   6.129   2.187  14.568  0.3666 -0.0861 -0.0793
19176TIP3    H178943   6.144   2.102  14.527 -0.4721  0.6104 -1.9412
19176TIP3    H278944   6.096   2.242  14.498 -2.4732  0.8384  1.7811
19177TIP3   OH278945   4.774   3.481   3.298  0.5598  0.1356  0.1158
19177TIP3    H178946   4.787   3.486   3.393  0.6556 -3.1964  0.3748
19177TIP3    H278947   4.862   3.478   3.262  0.5529  2.4047 -0.2636
19178TIP3   OH278948   4.540   1.999   6.001 -0.2945  0.0777  0.5164
19178TIP3    H178949   4.593   1.970   6.076  0.8935  0.2234 -0.2419
19178TIP3    H278950   4.547   2.094   6.002  1.9526  0.0322 -1.2633
19179TIP3   OH278951   6.713   2.099   4.223 -0.2662  0.4853  0.4750
19179TIP3    H178952   6.722   2.056   4.138  1.1719 -0.2588  0.9700
19179TIP3    H278953   6.692   2.028   4.284  0.4053  0.7338  1.0110
19180TIP3   OH278954   4.950   6.311  12.733 -0.3130  0.1435 -0.1119
19180TIP3    H178955   4.921   6.298  12.824 -1.7854 -0.6783 -0.6653
19180TIP3    H278956   5.008   6.237  12.716 -0.8116 -0.2484 -0.1368
19181TIP3   OH278957   6.780   1.879   3.510  0.1100  0.2348  0.0906
19181TIP3    H178958   6.761   1.960   3.461  0.8626  0.2828 -0.1384
19181TIP3    H278959   6.738   1.810   3.459  1.3143  0.2191 -0.9290
19182TIP3   OH278960   2.157   1.585  11.707 -0.2268  0.3770  0.2629
19182TIP3    H178961   2.210   1.594  11.628 -1.4605 -0.9041 -0.7474
19182TIP3    H278962   2.121   1.672  11.722 -1.4154  0.2537 -1.6350
19183TIP3   OH278963   6.242   1.449  16.506 -0.3377 -0.0851 -0.1824
19183TIP3    H178964   6.247   1.459  16.601 -1.7922  0.6600 -0.1506
19183TIP3    H278965   6.169   1.506  16.480 -0.9649 -1.4474 -1.5601
19184TIP3   OH278966   5.924   6.630   4.483  0.3935  0.1730 -1.0854
19184TIP3    H178967   5.941   6.652   4.574 -0.6738 -0.0016 -0.8257
19184TIP3    H278968   5.991   6.565   4.461  0.3187 -0.2118 -0.2447
19185TIP3   OH278969   5.112   4.931   2.769  0.1863  0.2000 -0.8325
19185TIP3    H178970   5.066   4.915   2.686 -1.4584 -0.3078  0.1343
19185TIP3    H278971   5.043   4.954   2.831  0.9691 -2.2436  1.1228
19186TIP3   OH278972   6.791   6.315   5.302 -0.3789 -0.2003 -0.1347
19186TIP3    H178973   6.862   6.268   5.346 -0.6928  0.6077  1.2568
19186TIP3    H278974   6.829   6.399   5.278 -1.3379  0.9709  2.2502
19187TIP3   OH278975   6.557   1.858   2.060 -0.4247 -0.6679  0.1947
19187TIP3    H178976   6.550   1.872   2.154 -1.5425  4.0060 -0.3784
19187TIP3    H278977   6.468   1.838   2.032 -0.3964 -0.4420 -0.0590
19188TIP3   OH278978   2.844   0.229  14.799  0.3051 -0.0239  0.4940
19188TIP3    H178979   2.827   0.306  14.852 -1.1323 -1.4461  2.2357
19188TIP3    H278980   2.861   0.263  14.711 -3.2239  2.1683  0.4813
19189TIP3   OH278981   1.939   1.821   1.525  0.2367 -0.2763  0.1247
19189TIP3    H178982   2.027   1.828   1.563 -0.0198  0.0163  0.6882
19189TIP3    H278983   1.886   1.781   1.595 -0.0076 -0.7435 -0.3262
19190TIP3   OH278984   0.305   4.846   0.325 -0.1081 -0.1636 -0.4191
19190TIP3    H178985   0.353   4.767   0.301  0.8131  0.3802 -0.4184
19190TIP3    H278986   0.363   4.918   0.299 -0.0016  0.4791  1.4604
19191TIP3   OH278987   5.019   5.453  12.218 -0.1537 -0.7606 -0.3566
19191TIP3    H178988   5.022   5.362  12.245  0.7074 -1.2225 -1.9123
19191TIP3    H278989   5.108   5.474  12.189 -0.5340  0.3076 -0.8412
19192TIP3   OH278990   0.842   0.520  16.237  0.0638  0.3882 -0.5578
19192TIP3    H178991   0.818   0.427  16.237  0.4501  0.2821 -1.5273
19192TIP3    H278992   0.916   0.525  16.297 -1.1375  0.4080  0.9895
19193TIP3   OH278993   6.350   6.077   2.075  0.7870 -0.3510  0.1544
19193TIP3    H178994   6.288   6.010   2.103  1.5938 -0.9050  0.6500
19193TIP3    H278995   6.400   6.098   2.154 -0.7160  2.2546  0.5060
19194TIP3   OH278996   5.859   6.519   3.595  0.1115 -0.2483 -0.5192
19194TIP3    H178997   5.860   6.551   3.685  0.2851 -1.5144 -0.0589
19194TIP3    H278998   5.825   6.593   3.544 -1.5737 -0.0823  0.7869
19195TIP3   OH278999   1.165   5.063  17.172 -0.1063 -0.4151 -0.0697
19195TIP3    H179000   1.175   5.060  17.077  1.5686  4.1290 -0.2799
19195TIP3    H279001   1.098   5.130  17.187 -0.2963 -0.9858  1.9798
19196TIP3   OH279002   6.027   1.083  16.747 -0.3626 -0.0501  0.0934
19196TIP3    H179003   6.052   0.996  16.776  0.7082 -0.0764 -0.8618
19196TIP3    H279004   5.985   1.069  16.662 -0.3413  0.3516  0.0141
19197TIP3   OH279005   0.934   3.693  12.861  0.8350 -0.0298 -0.1098
19197TIP3    H179006   0.923   3.714  12.954  1.6667  0.3917 -0.0958
19197TIP3    H279007   1.024   3.660  12.855  0.1233 -2.0094 -0.4243
19198TIP3   OH279008   6.459   5.242  16.160 -0.3543 -0.1791  0.1350
19198TIP3    H179009   6.424   5.178  16.222 -0.0949 -0.5978 -0.1479
19198TIP3    H279010   6.440   5.327  16.200 -1.4177 -0.3966  0.1342
19199TIP3   OH279011   1.371   4.539   2.098 -0.5177  0.0461 -0.0489
19199TIP3    H179012   1.277   4.542   2.118 -0.4389  0.0188  0.3303
19199TIP3    H279013   1.411   4.600   2.159 -0.4735  1.4189 -1.3880
19200TIP3   OH279014   0.088   1.048  15.621 -0.0376  0.0665  0.1608
19200TIP3    H179015   0.151   1.120  15.615  0.8547 -0.7342 -0.2501
19200TIP3    H279016   0.091   1.020  15.713 -2.7780  2.6042  1.2191
19201TIP3   OH279017   2.558   3.018  15.610 -0.6839  0.5089 -0.0679
19201TIP3    H179018   2.533   3.099  15.655 -1.0537 -1.0610  2.7911
19201TIP3    H279019   2.478   2.965  15.610 -0.0893 -0.4062 -0.6445
19202TIP3   OH279020   2.159   4.588   1.709 -0.1790 -0.3191  0.3881
19202TIP3    H179021   2.157   4.660   1.772  0.3273 -0.1567  0.2220
19202TIP3    H279022   2.181   4.511   1.761  1.6890  0.0489  0.2098
19203TIP3   OH279023   4.331   5.119  10.473 -0.4090 -0.6945  0.3381
19203TIP3    H179024   4.272   5.072  10.533 -0.6654  0.8917  1.3860
19203TIP3    H279025   4.291   5.205  10.461  0.8347 -0.1639 -0.2757
19204TIP3   OH279026   3.743   1.965   6.653  0.4042 -0.1421 -0.0867
19204TIP3    H179027   3.665   1.912   6.634 -0.3352 -0.1825  2.6389
19204TIP3    H279028   3.716   2.055   6.633 -1.0972  0.0933  2.5378
19205TIP3   OH279029   5.989   3.211   1.424 -0.1408  0.1195  0.9130
19205TIP3    H179030   5.942   3.264   1.360 -0.0172  2.4363  2.6271
19205TIP3    H279031   6.041   3.150   1.371  0.0119  1.9583 -1.1993
19206TIP3   OH279032   2.276   0.727   4.481  0.8673 -0.2254  0.2965
19206TIP3    H179033   2.235   0.804   4.442 -0.4113 -0.3164  1.3612
19206TIP3    H279034   2.220   0.654   4.454  2.0604 -0.8065 -0.6999
19207TIP3   OH279035   1.283   1.973   4.425  0.6301 -0.2321  0.0999
19207TIP3    H179036   1.267   1.901   4.486 -1.2501  0.9231  1.0672
19207TIP3    H279037   1.234   1.950   4.346  0.3728 -0.2050  0.2524
19208TIP3   OH279038   5.477   1.620   4.018 -0.0267  0.3251  0.7239
19208TIP3    H179039   5.459   1.565   3.941 -0.7602 -0.2854  1.3138
19208TIP3    H279040   5.413   1.592   4.083  0.1413  1.3112  1.3345
19209TIP3   OH279041   4.313   4.874   5.526 -0.0085  0.2168  0.1347
19209TIP3    H179042   4.339   4.877   5.618  1.5339  2.1100 -0.2765
19209TIP3    H279043   4.248   4.944   5.518  1.1046  1.2367 -0.4784
19210TIP3   OH279044   4.803   4.985   1.095  0.2267  0.6357  0.7347
19210TIP3    H179045   4.775   4.944   1.013 -2.7858 -0.1541  2.0058
19210TIP3    H279046   4.891   4.950   1.111 -0.3027 -1.5583 -0.6945
19211TIP3   OH279047   3.991   0.805  17.119  0.1657 -0.2064 -0.2971
19211TIP3    H179048   4.049   0.826  17.047 -1.4391 -0.2708 -1.6729
19211TIP3    H279049   3.990   0.883  17.174 -1.3206  1.2804 -2.2906
19212TIP3   OH279050   6.292   4.572   3.901  0.0347 -0.3843  0.9137
19212TIP3    H179051   6.294   4.605   3.991  0.1120 -0.8454  1.0871
19212TIP3    H279052   6.223   4.622   3.859  0.3815  0.2346  1.0712
19213TIP3   OH279053   6.056   0.051   0.971  0.3784 -0.8155 -0.0920
19213TIP3    H179054   5.966   0.072   0.998  0.6391 -0.1406  0.2776
19213TIP3    H279055   6.105   0.048   1.053  0.7584 -0.8501 -0.3217
19214TIP3   OH279056   0.046   3.253   3.855  1.0300  0.3321  0.7569
19214TIP3    H179057   0.042   3.269   3.949 -1.4965  0.3257  0.7082
19214TIP3    H279058  -0.004   3.173   3.841  1.7952  0.0406 -0.5548
19215TIP3   OH279059   4.343   2.311   6.143 -0.6845 -0.9819 -0.3946
19215TIP3    H179060   4.350   2.317   6.048 -2.5493 -0.0162 -0.5237
19215TIP3    H279061   4.249   2.298   6.159 -0.5580 -0.0870  1.3249
19216TIP3   OH279062   0.331   3.174   3.181  0.6150  0.2537  0.3734
19216TIP3    H179063   0.364   3.212   3.262 -0.5591 -0.7841  1.3932
19216TIP3    H279064   0.346   3.080   3.191  1.3820  0.2078 -1.0805
19217TIP3   OH279065   6.202   1.433   4.560  0.3625 -0.5882 -0.3620
19217TIP3    H179066   6.275   1.452   4.501  0.3729 -1.5192 -0.6665
19217TIP3    H279067   6.184   1.516   4.604  0.3900  0.1095 -1.6238
19218TIP3   OH279068   1.357   3.747  17.046  0.4195 -0.1199  0.5919
19218TIP3    H179069   1.277   3.793  17.024  0.9509  0.6263  0.1955
19218TIP3    H279070   1.341   3.709  17.133  0.0938  1.0859  1.0696
19219TIP3   OH279071   4.665   3.023  13.906 -0.2840 -0.4602 -0.4657
19219TIP3    H179072   4.693   2.964  13.976  1.3146 -0.0572 -0.7132
19219TIP3    H279073   4.589   3.069  13.942 -1.0188 -2.0165  0.0479
19220TIP3   OH279074   2.271   1.722  14.808 -0.0736 -0.6402 -0.2073
19220TIP3    H179075   2.182   1.756  14.798  0.3448  0.0724 -1.6906
19220TIP3    H279076   2.291   1.735  14.901 -0.6313  1.4692 -0.3287
19221TIP3   OH279077   3.225   0.487   0.233  0.4141  0.6892  0.4285
19221TIP3    H179078   3.270   0.565   0.264  0.0152  0.2857  2.1061
19221TIP3    H279079   3.281   0.414   0.259 -0.9674  0.2075  2.1924
19222TIP3   OH279080   0.476   6.116  13.553 -0.2967 -0.2514 -0.7871
19222TIP3    H179081   0.486   6.164  13.635  0.6566  1.2242 -1.7297
19222TIP3    H279082   0.476   6.024  13.580 -0.0932  0.1854  0.8651
19223TIP3   OH279083   3.265   5.022   6.373  0.4861 -0.1372  0.1375
19223TIP3    H179084   3.308   5.105   6.393 -1.4143  1.3099 -1.2897
19223TIP3    H279085   3.308   4.991   6.293  0.7527 -0.1466  0.2879
19224TIP3   OH279086   5.400   3.041  11.610  0.3540  0.3572 -0.2151
19224TIP3    H179087   5.360   2.983  11.676 -0.1160  0.1399 -0.6819
19224TIP3    H279088   5.438   2.981  11.546 -0.4647  0.5483 -0.8984
19225TIP3   OH279089   0.217   3.978  10.998  0.2725  0.2037 -0.8055
19225TIP3    H179090   0.199   4.029  10.919 -0.1354  3.1094  1.0263
19225TIP3    H279091   0.283   4.030  11.045 -2.1510  0.6124  2.4794
19226TIP3   OH279092   3.865   4.321   2.119 -0.3548  0.1179  0.4579
19226TIP3    H179093   3.787   4.366   2.152  0.5267  0.1622  2.6254
19226TIP3    H279094   3.928   4.391   2.102 -0.7525  0.0920 -1.3932
19227TIP3   OH279095   1.886   6.775  10.451  0.1401  0.0299 -0.1681
19227TIP3    H179096   1.853   6.731  10.529  0.3463 -1.1329 -0.6979
19227TIP3    H279097   1.879   6.868  10.470 -0.1588 -0.2297  1.0817
19228TIP3   OH279098   4.981   0.256   2.147  0.2330  0.4324 -0.3045
19228TIP3    H179099   4.971   0.211   2.231 -0.6885  0.9163 -0.1377
19228TIP3    H279100   4.923   0.209   2.088  1.8847 -0.7501 -1.0482
19229TIP3   OH279101   4.027   6.392  12.219 -0.3409  0.0671 -0.0876
19229TIP3    H179102   3.945   6.437  12.243 -0.5361 -0.3528  0.0382
19229TIP3    H279103   4.050   6.429  12.134 -0.8177 -0.0208 -0.2575
19230TIP3   OH279104   1.585   4.752  11.911  0.4703 -0.1189 -0.0247
19230TIP3    H179105   1.596   4.706  11.828  1.0172  0.6423 -0.3845
19230TIP3    H279106   1.549   4.686  11.971 -1.7049 -0.2277 -1.3303
19231TIP3   OH279107   4.570   4.748  13.865 -0.3156 -0.6720 -0.5359
19231TIP3    H179108   4.483   4.789  13.860 -0.1891 -0.3754 -0.3287
19231TIP3    H279109   4.623   4.811  13.915 -0.0967 -1.0516 -0.2893
19232TIP3   OH279110   5.898   2.642   6.005  0.3676 -0.0914 -0.1870
19232TIP3    H179111   5.919   2.672   5.916 -0.3325  1.6411  0.1946
19232TIP3    H279112   5.822   2.694   6.031  0.2382 -0.9347  1.2473
19233TIP3   OH279113   4.729   3.271  14.178  0.2937  0.2398  0.5349
19233TIP3    H179114   4.786   3.196  14.161  1.0251  0.7210  0.7906
19233TIP3    H279115   4.784   3.347  14.157  0.4649  0.7898  2.7403
19234TIP3   OH279116   3.563   2.011   0.002 -0.4979 -0.0424 -0.0201
19234TIP3    H179117   3.557   1.936   0.061  0.5628 -0.0951  0.0433
19234TIP3    H279118   3.645   2.055   0.028 -0.3046  0.2448 -1.0798
19235TIP3   OH279119   6.493   3.788  12.782  0.1662  0.0610 -0.0752
19235TIP3    H179120   6.421   3.790  12.845  2.2598 -0.9779  2.5411
19235TIP3    H279121   6.531   3.701  12.793  1.3644  0.2949 -1.9608
19236TIP3   OH279122   3.399   1.992  13.035 -0.2364 -0.5840  0.2623
19236TIP3    H179123   3.316   2.008  12.990 -0.0731 -0.6051 -0.0486
19236TIP3    H279124   3.439   2.078  13.044  0.4817 -0.7427 -1.1002
19237TIP3   OH279125   1.291   2.157   3.718 -0.1360 -0.3614  0.1557
19237TIP3    H179126   1.387   2.159   3.719 -0.0842  1.4269 -1.6507
19237TIP3    H279127   1.267   2.219   3.649 -2.6826  2.0332  2.9329
19238TIP3   OH279128   4.961   5.099   3.012  0.4591 -0.2212  0.3727
19238TIP3    H179129   4.947   5.118   3.105 -1.6089  0.1290  0.0218
19238TIP3    H279130   4.964   5.185   2.971 -0.7120 -0.4073 -0.1349
19239TIP3   OH279131   3.419   1.239   6.726  0.9720  0.2104  0.5906
19239TIP3    H179132   3.350   1.180   6.695  1.5337  1.2950 -3.2861
19239TIP3    H279133   3.495   1.183   6.740  1.2018 -0.2619 -2.0421
19240TIP3   OH279134   0.829   4.557   4.440  0.4250  0.2491 -0.1652
19240TIP3    H179135   0.758   4.576   4.501 -0.2358 -1.6179 -0.2769
19240TIP3    H279136   0.866   4.642   4.419 -1.4376  1.2318  0.3119
19241TIP3   OH279137   4.065   5.501  12.443 -0.2373 -0.6509  0.1492
19241TIP3    H179138   4.159   5.486  12.427  0.3824  2.4295  0.2362
19241TIP3    H279139   4.061   5.526  12.536 -1.3284 -1.7795  0.4235
19242TIP3   OH279140   4.297   3.338   4.726  0.2637  0.7390  0.1385
19242TIP3    H179141   4.350   3.268   4.689 -1.0589  0.0760 -0.5716
19242TIP3    H279142   4.349   3.372   4.798  0.1712 -2.2406  1.7680
19243TIP3   OH279143   1.477   2.786   5.564  0.0381  0.2431 -0.1796
19243TIP3    H179144   1.397   2.780   5.616 -0.5755 -1.3154 -1.2296
19243TIP3    H279145   1.462   2.727   5.490  1.6619  0.8958 -1.0837
19244TIP3   OH279146   5.967   4.540  13.786  0.1811 -0.6798  0.6656
19244TIP3    H179147   5.906   4.516  13.856  1.5284 -0.8012  1.8380
19244TIP3    H279148   6.052   4.544  13.829  0.8306  0.6974 -0.6817
19245TIP3   OH279149   1.377   4.038  11.576 -0.1028  0.2442  0.4292
19245TIP3    H179150   1.312   4.090  11.623  1.2647 -0.3458  3.1551
19245TIP3    H279151   1.360   4.057  11.484 -2.4255  2.1121  1.1370
19246TIP3   OH279152   5.864   6.151   0.421 -0.7904  0.2910 -0.6787
19246TIP3    H179153   5.871   6.168   0.327 -1.0875 -0.0952 -0.7778
19246TIP3    H279154   5.925   6.212   0.462 -1.0098  0.7956 -1.0891
19247TIP3   OH279155   6.114   0.421   2.387  0.0776 -0.0370 -0.0037
19247TIP3    H179156   6.050   0.470   2.335  0.2837  0.7361  0.4440
19247TIP3    H279157   6.069   0.403   2.470 -0.0577 -0.7735 -0.2355
19248TIP3   OH279158   4.916   2.526  16.478  0.4717  0.1172  0.4550
19248TIP3    H179159   5.001   2.559  16.506  0.2652  0.5582  0.5838
19248TIP3    H279160   4.864   2.524  16.559  0.5802 -0.8608  0.5143
19249TIP3   OH279161   1.801   3.431   3.060 -0.2420 -0.3816  0.0185
19249TIP3    H179162   1.776   3.501   3.121  0.5529 -0.9412  1.0105
19249TIP3    H279163   1.894   3.447   3.042 -0.4895 -0.1661 -1.1457
19250TIP3   OH279164   4.026   4.060  16.744  0.0932 -0.2189  0.6364
19250TIP3    H179165   3.999   3.991  16.684 -0.2303  0.5844 -0.1502
19250TIP3    H279166   3.947   4.111  16.760  0.1752 -0.4111  1.7447
19251TIP3   OH279167   0.238   5.407  10.995 -0.7303  0.2991 -0.3107
19251TIP3    H179168   0.180   5.336  10.966  0.7840 -0.7458 -0.9063
19251TIP3    H279169   0.199   5.486  10.958 -2.5722 -0.1588  0.5327
19252TIP3   OH279170   5.803   6.142   5.096  0.0039  0.0172  0.3015
19252TIP3    H179171   5.793   6.237   5.092 -0.5055 -0.0628 -0.4890
19252TIP3    H279172   5.830   6.117   5.008 -3.2239 -0.9248 -0.5453
19253TIP3   OH279173   0.422   2.035   2.991  0.5547  0.0482  0.4372
19253TIP3    H179174   0.344   2.061   3.041  0.7840  0.3603  0.6394
19253TIP3    H279175   0.438   2.109   2.932  0.4169 -0.2230  0.0610
19254TIP3   OH279176   4.468   0.727  13.637  0.2794 -0.3863 -0.4659
19254TIP3    H179177   4.464   0.713  13.731 -1.6369 -1.1933 -0.6153
19254TIP3    H279178   4.377   0.740  13.611  0.8959  1.1254 -2.0449
19255TIP3   OH279179   2.155   2.535  12.093 -0.0885  0.7119  0.6853
19255TIP3    H179180   2.140   2.503  12.182  0.5348  2.6885  1.5793
19255TIP3    H279181   2.068   2.556  12.060 -0.4531 -1.2903  0.2700
19256TIP3   OH279182   4.531   2.376   2.862  0.0896  0.2415 -0.5347
19256TIP3    H179183   4.613   2.423   2.847  1.1496 -1.5394 -0.6237
19256TIP3    H279184   4.483   2.431   2.924  1.0953  1.5987 -0.9074
19257TIP3   OH279185   3.759   1.160  13.350 -0.4261 -0.2207 -0.3743
19257TIP3    H179186   3.679   1.148  13.400 -0.3199 -0.2394 -0.2073
19257TIP3    H279187   3.829   1.155  13.415 -0.3437  0.7263 -0.3709
19258TIP3   OH279188   6.593   0.967  14.241 -0.4777 -0.1744  0.4253
19258TIP3    H179189   6.618   1.005  14.325 -0.0098  0.1671  0.1359
19258TIP3    H279190   6.502   0.995  14.228 -0.3784  0.2178  0.5697
19259TIP3   OH279191   0.904   3.918  12.127  0.1147  0.0493  0.5316
19259TIP3    H179192   0.885   3.827  12.105 -1.1431  0.9878 -2.8614
19259TIP3    H279193   0.844   3.938  12.199  0.5327 -1.7815  1.4483
19260TIP3   OH279194   6.393   2.614  16.742  0.1030  0.1017  0.2516
19260TIP3    H179195   6.487   2.600  16.755  0.2561  1.0536  0.2551
19260TIP3    H279196   6.386   2.648  16.653 -0.4170 -1.4909 -0.3330
19261TIP3   OH279197   1.900   6.453  12.864  1.0012 -0.0427  0.0953
19261TIP3    H179198   1.935   6.388  12.802  0.0031 -0.4294 -0.0717
19261TIP3    H279199   1.861   6.401  12.934 -0.8528  0.3348 -0.6103
19262TIP3   OH279200   0.528   2.955   4.064  0.0000  0.2852  0.6150
19262TIP3    H179201   0.489   3.042   4.072 -0.2507  0.0962  1.5816
19262TIP3    H279202   0.601   2.956   4.126  0.4235  0.0338  0.1238
19263TIP3   OH279203   2.088   5.713   3.734 -0.1268  0.3166 -0.3876
19263TIP3    H179204   2.133   5.797   3.743 -0.1013  0.3677 -1.0015
19263TIP3    H279205   2.153   5.648   3.761  1.0398  0.2150 -3.1598
19264TIP3   OH279206   0.499   3.803   0.635 -0.7787  0.0791 -0.5829
19264TIP3    H179207   0.578   3.856   0.622  0.1152 -1.5566 -2.6372
19264TIP3    H279208   0.427   3.866   0.632  0.3363  1.4066 -0.7536
19265TIP3   OH279209   5.691   5.305  12.089  0.2539 -0.4362  0.9458
19265TIP3    H179210   5.673   5.286  12.181  1.0953  0.4395  1.3062
19265TIP3    H279211   5.649   5.390  12.074  2.1681  0.5984  1.2125
19266TIP3   OH279212   5.730   0.380   3.653  0.0935 -0.1502  0.4562
19266TIP3    H179213   5.791   0.311   3.626 -0.6653 -0.4109 -0.6696
19266TIP3    H279214   5.694   0.348   3.736  0.1893 -0.8350  0.2450
19267TIP3   OH279215   5.240   3.831  16.331  0.0897  0.4074  0.0355
19267TIP3    H179216   5.307   3.855  16.395  1.7750  0.4592 -1.6501
19267TIP3    H279217   5.198   3.914  16.309 -2.7218  0.0290  3.2627
19268TIP3   OH279218   0.411   6.608  11.765 -0.2276  0.7086 -0.1170
19268TIP3    H179219   0.369   6.664  11.830  0.7990  1.7110 -0.2901
19268TIP3    H279220   0.343   6.593  11.698 -0.4727  1.8501 -0.1311
19269TIP3   OH279221   5.771   4.235   2.783 -0.1103  0.5734 -0.2750
19269TIP3    H179222   5.741   4.233   2.874 -0.7536 -0.3182 -0.5001
19269TIP3    H279223   5.857   4.193   2.785 -0.1697  0.4592 -0.0947
19270TIP3   OH279224   1.331   4.567  11.575  0.8075 -0.2843 -0.4348
19270TIP3    H179225   1.324   4.562  11.479  0.4310 -3.1113 -0.3444
19270TIP3    H279226   1.424   4.555  11.593  1.0931  1.6210 -0.4345
19271TIP3   OH279227   0.277   0.821  13.751  0.6673  0.1047  0.6265
19271TIP3    H179228   0.190   0.789  13.727  0.7112  1.2161 -1.1676
19271TIP3    H279229   0.260   0.900  13.802  0.6212 -0.9882  2.3799
19272TIP3   OH279230   1.247   6.528  16.306  0.2777  0.0334 -0.5550
19272TIP3    H179231   1.191   6.499  16.234  0.0683  1.2250 -0.9026
19272TIP3    H279232   1.330   6.484  16.292 -0.4003 -1.3681 -0.3258
19273TIP3   OH279233   3.180   0.191  13.013 -0.5610 -0.4880 -0.1151
19273TIP3    H179234   3.199   0.248  12.939 -1.1631  0.0538  0.1312
19273TIP3    H279235   3.194   0.102  12.980  1.8698 -0.1820 -0.0730
19274TIP3   OH279236   2.661   0.468  15.193  0.0480  0.1480 -0.0524
19274TIP3    H179237   2.588   0.517  15.231  1.1908  1.8366  0.0798
19274TIP3    H279238   2.729   0.472  15.260 -0.3656 -3.2132  0.7163
19275TIP3   OH279239   0.003   2.330   3.961  0.4244 -0.7611  0.4348
19275TIP3    H179240   0.014   2.324   3.866 -0.7453  0.2618  0.2155
19275TIP3    H279241   0.088   2.303   3.996  0.7753 -1.4670 -0.8810
19276TIP3   OH279242   2.263   6.349  14.098  0.0462 -0.1003  0.0638
19276TIP3    H179243   2.336   6.412  14.101 -0.1246  0.0858  0.2867
19276TIP3    H279244   2.306   6.264  14.102  0.2476  0.0108  0.3617
19277TIP3   OH279245   4.789   6.675  14.513 -0.5171 -0.2638 -0.5693
19277TIP3    H179246   4.860   6.635  14.562 -0.7351  0.8019  0.6561
19277TIP3    H279247   4.727   6.604  14.497 -1.2357 -0.3595  2.1642
19278TIP3   OH279248   4.645   6.421  11.828  0.1981  0.3310 -0.4537
19278TIP3    H179249   4.634   6.515  11.843  0.2146  0.5144 -1.5242
19278TIP3    H279250   4.581   6.400  11.760  2.3124  0.2204 -2.5202
19279TIP3   OH279251   4.450   2.413  14.559  0.8412 -0.4508  0.0363
19279TIP3    H179252   4.503   2.481  14.516 -1.3114  0.3482 -1.5392
19279TIP3    H279253   4.446   2.342  14.495  0.1462 -0.5534  0.1838
19280TIP3   OH279254   4.255   5.288   3.219 -0.1186  0.4501  0.2329
19280TIP3    H179255   4.282   5.206   3.179 -0.1000  0.9994 -0.9132
19280TIP3    H279256   4.162   5.296   3.199 -0.0103  0.9414 -0.0935
19281TIP3   OH279257   0.270   0.100  16.637  0.0594  0.4246 -0.0052
19281TIP3    H179258   0.228   0.058  16.711  2.5581 -0.2297  1.1495
19281TIP3    H279259   0.253   0.194  16.650 -1.7057  0.1525 -0.0976
19282TIP3   OH279260   6.532   0.974  13.574 -0.2183  0.0391 -0.1260
19282TIP3    H179261   6.446   0.957  13.534 -0.2750  0.9732 -0.4394
19282TIP3    H279262   6.534   0.918  13.652 -1.2316  0.1929  0.0287
19283TIP3   OH279263   1.726   5.489   3.013 -0.0376  0.3358  0.0968
19283TIP3    H179264   1.815   5.460   3.029 -0.1328  0.3901  0.7788
19283TIP3    H279265   1.694   5.433   2.943  0.2532 -0.2468  0.4246
19284TIP3   OH279266   5.321   3.865   1.940 -0.0444 -0.1223 -0.3138
19284TIP3    H179267   5.399   3.865   1.885 -1.2079 -1.5122 -2.0647
19284TIP3    H279268   5.353   3.842   2.027  1.6452  0.5892 -0.7243
19285TIP3   OH279269   3.901   5.815   2.430 -0.1117  0.2928  0.6690
19285TIP3    H179270   3.961   5.835   2.501  0.9600 -0.8560  0.1375
19285TIP3    H279271   3.940   5.739   2.387 -1.1926  0.4174 -0.5997
19286TIP3   OH279272   3.145   4.691  16.296  0.3247 -0.5841 -0.0654
19286TIP3    H179273   3.102   4.769  16.332 -0.1630 -1.0502  0.3709
19286TIP3    H279274   3.234   4.721  16.275  0.4167 -0.1280  0.9124
19287TIP3   OH279275   5.811   5.434  13.105  0.0824 -0.3264 -0.0743
19287TIP3    H179276   5.795   5.364  13.042  1.4103  0.1372 -0.9769
19287TIP3    H279277   5.794   5.395  13.190 -2.1864 -0.8546 -0.7007
19288TIP3   OH279278   5.234   2.350   4.589 -0.1258 -0.1782 -0.3858
19288TIP3    H179279   5.215   2.296   4.513 -0.5604  1.5766 -1.5834
19288TIP3    H279280   5.153   2.349   4.641 -0.2809 -0.2890 -0.6320
19289TIP3   OH279281   2.164   1.675  12.985 -0.9106  0.5390  0.1772
19289TIP3    H179282   2.103   1.693  12.914  0.8841 -2.0226 -2.2321
19289TIP3    H279283   2.250   1.694  12.947  0.1243 -1.2197  1.5003
19290TIP3   OH279284   0.896   5.902   0.190 -0.0254 -0.2639  0.0325
19290TIP3    H179285   0.855   5.980   0.229 -0.6049 -0.3088 -0.4829
19290TIP3    H279286   0.976   5.889   0.242 -0.1898  0.3663  0.4561
19291TIP3   OH279287   4.701   5.307   1.488  0.5309  0.2333 -0.1231
19291TIP3    H179288   4.745   5.390   1.469  1.4006 -0.4247 -1.0755
19291TIP3    H279289   4.620   5.311   1.438  0.6802  0.4065 -0.3498
19292TIP3   OH279290   0.760   6.684   5.063  0.1945 -0.2246  0.6879
19292TIP3    H179291   0.698   6.756   5.053  1.3589  0.8798  1.0965
19292TIP3    H279292   0.717   6.610   5.021 -1.6005  0.3524  1.3805
19293TIP3   OH279293   6.116   3.905   3.976  0.2636 -0.3365  0.4237
19293TIP3    H179294   6.118   3.988   3.929  0.5951  0.0717  1.1481
19293TIP3    H279295   6.106   3.929   4.068  0.2721 -1.0985  0.6298
19294TIP3   OH279296   1.997   5.654  11.507  0.0491  0.6763  0.0328
19294TIP3    H179297   1.969   5.636  11.597 -1.1603  1.3783 -0.1846
19294TIP3    H279298   1.931   5.613  11.452  0.2227  1.1261 -0.5235
19295TIP3   OH279299   3.045   1.379  13.751 -0.1353 -0.1570  0.1725
19295TIP3    H179300   3.130   1.414  13.725  0.0626  0.7367  1.8443
19295TIP3    H279301   2.981   1.437  13.710  0.1567  1.0789  1.3959
19296TIP3   OH279302   0.712   2.876  17.103 -0.2511  0.1858 -0.5175
19296TIP3    H179303   0.777   2.811  17.129  0.3556  0.8344 -0.3940
19296TIP3    H279304   0.644   2.825  17.059 -0.0359 -0.5976  0.0211
19297TIP3   OH279305   0.590   4.178   2.211 -0.5798 -0.4460  0.3432
19297TIP3    H179306   0.652   4.206   2.143  0.8077  1.2260  2.2060
19297TIP3    H279307   0.621   4.091   2.237 -0.3740 -0.5570 -0.2473
19298TIP3   OH279308   0.399   2.270  11.747  0.9417 -0.9585 -0.4132
19298TIP3    H179309   0.409   2.198  11.684 -0.4575 -1.5062 -0.0431
19298TIP3    H279310   0.307   2.294  11.741  0.9252 -0.6119  1.0124
19299TIP3   OH279311   3.671   2.100   4.313 -0.5880 -0.2778 -0.0813
19299TIP3    H179312   3.750   2.151   4.294 -0.0114 -0.9918  0.3497
19299TIP3    H279313   3.629   2.147   4.385 -1.2507  0.8149 -1.1377
19300TIP3   OH279314   0.755   4.386   3.658  0.2629  0.0803 -0.1203
19300TIP3    H179315   0.685   4.442   3.625  1.3601  0.5735 -1.7367
19300TIP3    H279316   0.836   4.435   3.641  1.0070  0.2917  3.2043
19301TIP3   OH279317   2.104   2.570   1.461  0.3769 -0.1642  0.0783
19301TIP3    H179318   2.076   2.494   1.410 -0.9393  1.0281 -1.0632
19301TIP3    H279319   2.157   2.622   1.400  1.6756 -0.3674  0.9897
19302TIP3   OH279320   3.709   1.609  12.418 -0.2192  0.1710  0.1926
19302TIP3    H179321   3.668   1.624  12.333 -2.2751  0.5788  1.1798
19302TIP3    H279322   3.727   1.697  12.452 -0.2678  0.0490  0.5446
19303TIP3   OH279323   4.231   3.355  16.870 -0.5840  0.3160 -0.5598
19303TIP3    H179324   4.238   3.373  16.964 -1.7601 -0.1862 -0.3571
19303TIP3    H279325   4.137   3.352  16.853 -0.5125 -2.9798 -1.0606
19304TIP3   OH279326   4.658   3.071   2.419 -0.1966 -0.0980 -0.3476
19304TIP3    H179327   4.629   3.160   2.441  3.3601  0.9691  0.7121
19304TIP3    H279328   4.643   3.063   2.325 -2.4894  0.7516 -0.1272
19305TIP3   OH279329   0.147   6.236   1.757 -0.0974  0.0059 -0.5992
19305TIP3    H179330   0.110   6.314   1.799 -0.8780 -0.0903 -1.0892
19305TIP3    H279331   0.108   6.162   1.805  0.9516 -0.0891  0.1271
19306TIP3   OH279332   3.896   0.152  16.552  0.1071  0.0813  0.1987
19306TIP3    H179333   3.963   0.113  16.496 -1.6623 -3.2311  0.1822
19306TIP3    H279334   3.919   0.123  16.640 -0.6649 -0.0849  0.3465
19307TIP3   OH279335   4.736   5.862  15.826 -0.3854 -0.1298  0.6235
19307TIP3    H179336   4.805   5.823  15.878  0.0714  1.2596  1.0925
19307TIP3    H279337   4.776   5.880  15.741 -0.5615 -0.5653  0.4461
19308TIP3   OH279338   2.929   0.080   4.639 -0.0816 -0.2525 -0.0130
19308TIP3    H179339   2.922  -0.008   4.676  0.7049  0.1913  1.2522
19308TIP3    H279340   2.845   0.121   4.661 -0.0514 -0.3622  0.3248
19309TIP3   OH279341   3.107   5.103  15.261  0.3979  0.0948 -0.2553
19309TIP3    H179342   3.154   5.131  15.339 -0.8491  0.0128  0.5593
19309TIP3    H279343   3.143   5.017  15.239  0.8890  0.2073  0.1173
19310TIP3   OH279344   3.931   6.511  12.791 -0.0635  0.3937 -0.5086
19310TIP3    H179345   3.855   6.567  12.807  0.0617  0.4108  0.0498
19310TIP3    H279346   3.897   6.422  12.803  0.1675  0.4312  0.4546
19311TIP3   OH279347   5.723   1.636  11.973  0.0489  0.2230 -0.3108
19311TIP3    H179348   5.710   1.602  11.885  1.2696  1.4166 -0.9862
19311TIP3    H279349   5.634   1.647  12.007 -0.4266 -0.6022 -1.2372
19312TIP3   OH279350   0.988   1.022   3.352  0.5658 -0.0723 -0.1675
19312TIP3    H179351   1.076   0.987   3.359  0.5697  0.0257  0.2991
19312TIP3    H279352   0.931   0.950   3.379  0.4739 -0.2702 -0.8612
19313TIP3   OH279353   4.293   5.129   5.246  0.4090  0.4576  0.1224
19313TIP3    H179354   4.215   5.168   5.284 -1.4788 -1.5370 -1.4713
19313TIP3    H279355   4.274   5.121   5.153  1.4932 -2.2235  0.0239
19314TIP3   OH279356   5.106   0.445  14.548 -0.3900 -0.3409 -0.0169
19314TIP3    H179357   5.161   0.520  14.573 -0.3656 -0.3615 -0.0093
19314TIP3    H279358   5.026   0.456  14.601 -0.9558  0.4285 -1.0018
19315TIP3   OH279359   4.980   4.828   0.849  0.4039 -0.5405  0.3521
19315TIP3    H179360   4.932   4.755   0.809  2.4689 -0.7061 -1.9685
19315TIP3    H279361   4.990   4.892   0.779  2.1527  0.1917  1.2264
19316TIP3   OH279362   2.833   0.505  17.060  0.2053 -0.5098  0.6458
19316TIP3    H179363   2.856   0.420  17.022 -2.5204 -0.8466 -0.4883
19316TIP3    H279364   2.883   0.509  17.142 -0.9080 -4.0545  1.6801
19317TIP3   OH279365   5.667   3.287   3.662  0.1630  0.5400 -0.3148
19317TIP3    H179366   5.639   3.365   3.614 -1.9056 -0.4884 -0.9084
19317TIP3    H279367   5.659   3.312   3.755 -2.5885  0.4295 -0.4539
19318TIP3   OH279368   1.836   2.555  13.611  0.1241  0.6592 -0.0190
19318TIP3    H179369   1.842   2.474  13.560 -0.4346  1.7058 -1.8667
19318TIP3    H279370   1.753   2.548  13.658 -0.7780  0.8404 -1.5122
19319TIP3   OH279371   5.843   2.683  14.453 -0.0664 -0.8140  0.1188
19319TIP3    H179372   5.882   2.672  14.540  1.5934  0.7537 -0.3741
19319TIP3    H279373   5.753   2.710  14.471  0.3294 -0.2267  1.3665
19320TIP3   OH279374   0.887   4.809   4.323  0.7700  0.1061 -0.8918
19320TIP3    H179375   0.961   4.821   4.383  0.4201  1.7472 -0.7220
19320TIP3    H279376   0.813   4.850   4.368 -0.3419 -1.7429 -0.9460
19321TIP3   OH279377   1.836   4.087   4.155  0.6986 -0.1851  0.7613
19321TIP3    H179378   1.920   4.130   4.136  1.1440 -1.9183 -1.6401
19321TIP3    H279379   1.845   3.999   4.117 -2.6749  0.0122 -0.8238
19322TIP3   OH279380   4.141   3.682  13.268 -0.1055  0.2740  0.6937
19322TIP3    H179381   4.162   3.594  13.236 -2.2694 -0.8514  2.1173
19322TIP3    H279382   4.077   3.715  13.205 -0.4145  0.2185  0.9804
19323TIP3   OH279383   4.833   5.920  13.464 -0.0906 -0.4203  0.5159
19323TIP3    H179384   4.809   6.003  13.422  2.6951 -0.9953 -2.6117
19323TIP3    H279385   4.896   5.945  13.532  0.6077  0.0619 -0.2931
19324TIP3   OH279386   2.878   3.836   1.460 -0.0848 -0.0659  0.6499
19324TIP3    H179387   2.824   3.825   1.382 -0.6636 -0.7748  1.1352
19324TIP3    H279388   2.968   3.822   1.429 -0.2404  0.3785 -0.0211
19325TIP3   OH279389   2.953   3.529  13.870  0.4548  0.2145  0.1482
19325TIP3    H179390   2.969   3.448  13.821  0.6676  0.4991 -0.2708
19325TIP3    H279391   2.972   3.599  13.806 -0.1743  0.5870  0.3630
19326TIP3   OH279392   5.068   1.222  11.994  0.5741  0.1842  0.1614
19326TIP3    H179393   5.136   1.216  12.061  0.1702  1.6064  0.7332
19326TIP3    H279394   4.987   1.196  12.038  0.1229  2.1396  0.5702
19327TIP3   OH279395   0.654   2.423   1.439 -0.1094 -0.0722 -0.6279
19327TIP3    H179396   0.740   2.418   1.397 -0.4138 -0.8555 -1.1726
19327TIP3    H279397   0.596   2.457   1.372  0.0226  1.8003  0.1542
19328TIP3   OH279398   5.707   1.671   4.702  0.7040  0.6842 -0.3709
19328TIP3    H179399   5.681   1.741   4.642  0.4322 -0.8361 -2.1344
19328TIP3    H279400   5.649   1.598   4.679  2.0797 -0.6461  0.2695
19329TIP3   OH279401   2.546   3.848  15.753  0.3299  0.1338 -0.0149
19329TIP3    H179402   2.599   3.831  15.675  0.9636 -2.1386  0.8348
19329TIP3    H279403   2.456   3.848  15.722  0.6602  1.9367 -1.1330
19330TIP3   OH279404   4.079   3.254  11.683 -0.2794  0.4514  0.9790
19330TIP3    H179405   4.019   3.221  11.750 -0.3330 -3.5744 -0.8181
19330TIP3    H279406   4.044   3.222  11.600  1.9770  1.7536 -0.5969
19331TIP3   OH279407   5.230   4.296   3.076  0.0201  0.7945  0.0050
19331TIP3    H179408   5.220   4.385   3.042 -1.7964  0.5646 -0.1807
19331TIP3    H279409   5.176   4.295   3.155  0.6919  0.0780  0.4738
19332TIP3   OH279410   3.944   2.020  16.296  0.5580  0.0395  0.1003
19332TIP3    H179411   3.970   2.041  16.385  1.4259 -0.2011 -0.0936
19332TIP3    H279412   3.961   2.100  16.246  2.3821 -0.5860 -0.3257
19333TIP3   OH279413   1.322   4.825  14.399 -0.0698 -0.1026 -0.2774
19333TIP3    H179414   1.416   4.819  14.414  0.1511  3.7918  1.0161
19333TIP3    H279415   1.307   4.778  14.317  3.3374  0.8769 -1.6035
19334TIP3   OH279416   1.118   5.814  16.091  0.0106 -0.3683 -0.3290
19334TIP3    H179417   1.145   5.754  16.160  1.3659 -0.5656 -1.0013
19334TIP3    H279418   1.132   5.902  16.128 -0.1422 -0.4674 -0.0341
19335TIP3   OH279419   3.083   2.529  12.927 -0.1178  0.0054 -0.1846
19335TIP3    H179420   3.117   2.578  13.002 -1.7089 -1.6994  1.7761
19335TIP3    H279421   2.995   2.564  12.914  0.1884  0.3704 -1.3867
19336TIP3   OH279422   2.471   6.601   4.519 -0.8435  0.5912 -0.0700
19336TIP3    H179423   2.386   6.566   4.495 -0.4742 -0.7520  0.4696
19336TIP3    H279424   2.508   6.635   4.438 -0.5351 -1.8312 -1.0064
19337TIP3   OH279425   0.195   3.252   2.931  0.1009 -0.2603 -0.1514
19337TIP3    H179426   0.262   3.205   2.980  0.4845 -1.5886 -1.8411
19337TIP3    H279427   0.178   3.196   2.855 -2.2337  0.5055 -0.2656
19338TIP3   OH279428   5.486   1.035   0.404  0.3617  0.0055 -0.3501
19338TIP3    H179429   5.568   1.076   0.378  0.9780 -1.1865 -0.3338
19338TIP3    H279430   5.490   1.030   0.500 -0.2380  0.9503 -0.2585
19339TIP3   OH279431   0.751   1.652  14.295  0.3181 -0.1881 -0.1737
19339TIP3    H179432   0.776   1.654  14.203 -0.3462 -0.6594 -0.3662
19339TIP3    H279433   0.748   1.559  14.318  1.3969 -0.0523  0.5823
19340TIP3   OH279434   0.366   2.733   3.805  0.1957  0.1984 -0.4172
19340TIP3    H179435   0.292   2.672   3.815 -0.4712  1.1977  1.2475
19340TIP3    H279436   0.438   2.690   3.850 -0.0436  0.2332  0.0144
19341TIP3   OH279437   5.750   3.313  14.955 -0.0629  0.2366  0.3776
19341TIP3    H179438   5.747   3.408  14.955 -1.1596  0.2557 -1.3622
19341TIP3    H279439   5.830   3.291  15.003  0.1226  2.0108  0.9468
19342TIP3   OH279440   0.108   3.708  15.793 -0.4977  0.3463 -0.5789
19342TIP3    H179441   0.131   3.737  15.881 -0.6927 -0.2404 -0.3278
19342TIP3    H279442   0.184   3.730  15.740 -0.8551  1.8206 -0.5272
19343TIP3   OH279443   5.439   6.523   0.534 -0.4451  0.0364 -0.0166
19343TIP3    H179444   5.454   6.616   0.514 -1.3621  0.2606  0.3038
19343TIP3    H279445   5.525   6.483   0.524  0.1644  1.0906  0.7632
19344TIP3   OH279446   3.911   4.209   4.866  0.0354  0.6513 -0.1189
19344TIP3    H179447   3.865   4.277   4.816  0.6159  1.7700  0.8099
19344TIP3    H279448   3.971   4.258   4.923 -0.0730 -0.6044  1.1314
19345TIP3   OH279449   3.060   2.725   1.860 -0.4346  0.2097  0.0221
19345TIP3    H179450   3.001   2.664   1.904 -0.5705 -0.6352 -1.3040
19345TIP3    H279451   3.069   2.692   1.771 -2.4929  3.4440 -1.6033
19346TIP3   OH279452   5.047   5.373   0.817 -0.3711 -0.2070  0.5279
19346TIP3    H179453   5.003   5.431   0.755  2.1208 -0.0781 -1.2657
19346TIP3    H279454   5.085   5.432   0.882  0.1947 -0.0097  0.0232
19347TIP3   OH279455   5.217   1.953   5.563  0.0419 -0.1794  0.4730
19347TIP3    H179456   5.210   1.915   5.650 -1.3436  1.3044  1.0636
19347TIP3    H279457   5.262   2.037   5.576 -1.0909  0.5357 -0.0520
19348TIP3   OH279458   5.045   3.493   0.510 -0.1478 -0.4764 -0.4271
19348TIP3    H179459   4.984   3.421   0.495 -0.9135  0.0901 -0.0942
19348TIP3    H279460   5.025   3.556   0.441  2.1981 -1.6035 -2.3016
19349TIP3   OH279461   5.752   3.076   5.322  0.3544 -0.5702 -0.5168
19349TIP3    H179462   5.777   2.984   5.316 -1.4377 -1.0988 -0.4987
19349TIP3    H279463   5.659   3.077   5.300  0.9615  1.6397 -3.5195
19350TIP3   OH279464   6.555   2.355  10.842 -0.0881 -0.8383  0.7000
19350TIP3    H179465   6.465   2.385  10.852  0.7773  1.8845  1.1387
19350TIP3    H279466   6.571   2.301  10.920 -1.4017 -1.6102  0.4616
19351TIP3   OH279467   5.387   5.865  11.617 -0.1720 -0.2788  0.3973
19351TIP3    H179468   5.416   5.796  11.678  1.4916  0.0055 -0.0286
19351TIP3    H279469   5.393   5.825  11.531  1.4694  0.5760  0.0821
19352TIP3   OH279470   5.291   1.318  16.784  0.1717  0.1977  0.0200
19352TIP3    H179471   5.206   1.286  16.757  0.5486  0.3061 -1.4043
19352TIP3    H279472   5.327   1.250  16.841  0.0119 -0.8614 -1.1019
19353TIP3   OH279473   1.254   0.858  14.051  0.0858 -0.0029  0.2949
19353TIP3    H179474   1.344   0.857  14.084 -0.5703 -1.2293  2.2065
19353TIP3    H279475   1.249   0.780  13.994  0.2484  0.1069  0.1292
19354TIP3   OH279476   2.221   3.876  15.415  0.1075  0.1920 -0.2372
19354TIP3    H179477   2.279   3.908  15.346 -0.0763 -0.9909 -0.9647
19354TIP3    H279478   2.163   3.950  15.433 -0.7493  0.0994 -2.3452
19355TIP3   OH279479   2.321   1.093   0.309  0.3095 -0.0416 -0.0537
19355TIP3    H179480   2.416   1.087   0.316  0.2784  0.2930  0.8241
19355TIP3    H279481   2.294   1.136   0.390 -0.5637  0.1450 -0.4307
19356TIP3   OH279482   3.200   3.719  13.510 -0.0378  0.3760 -0.1901
19356TIP3    H179483   3.278   3.729  13.454 -0.9861  1.5044 -1.3747
19356TIP3    H279484   3.169   3.631  13.491  0.2428  0.3737 -0.6645
19357TIP3   OH279485   0.180   2.461   2.666 -0.0783 -0.0286  0.0841
19357TIP3    H179486   0.158   2.422   2.581 -2.1198 -1.1541  1.0522
19357TIP3    H279487   0.262   2.508   2.650 -0.5219  0.0135 -2.5504
19358TIP3   OH279488   5.742   5.532  16.042  0.2270 -0.2050 -0.0950
19358TIP3    H179489   5.829   5.493  16.048  0.2318  0.0168  2.1300
19358TIP3    H279490   5.694   5.494  16.116 -0.7678  1.5290  0.2082
19359TIP3   OH279491   1.002   5.322  11.751  0.2369 -0.2563 -0.3413
19359TIP3    H179492   1.061   5.357  11.685  1.0151 -0.7804  0.0617
19359TIP3    H279493   1.054   5.323  11.832 -0.5104 -0.1580  0.1438
19360TIP3   OH279494   5.317   0.791  14.185 -0.2626 -0.4698  0.3091
19360TIP3    H179495   5.367   0.721  14.143 -2.1420 -1.0410 -1.1037
19360TIP3    H279496   5.327   0.866  14.127 -0.5666 -0.4198  0.3209
19361TIP3   OH279497   3.042   4.513   3.222 -0.2094  0.2884  0.3201
19361TIP3    H179498   3.111   4.453   3.250  1.3400  1.7182 -0.3101
19361TIP3    H279499   3.076   4.554   3.142 -1.3952  1.6879  0.4878
19362TIP3   OH279500   4.116   1.857   4.487 -0.2031 -0.1535  0.3674
19362TIP3    H179501   4.052   1.874   4.418 -1.6326  0.6119  1.8188
19362TIP3    H279502   4.108   1.763   4.504 -1.8932  0.1137  1.3468
19363TIP3   OH279503   5.975   2.519  13.543 -0.0884  0.0837 -0.2750
19363TIP3    H179504   5.909   2.575  13.503  1.6532  1.5803 -1.2093
19363TIP3    H279505   6.039   2.579  13.581  1.3544 -1.2651 -0.4357
19364TIP3   OH279506   3.956   0.933  11.481  0.0741 -0.2698 -0.1868
19364TIP3    H179507   3.937   0.926  11.387 -3.4415 -0.0243  0.3732
19364TIP3    H279508   3.878   0.898  11.524  0.2898  2.2846  2.6419
19365TIP3   OH279509   6.470   3.000   0.439  0.4910  0.4684 -0.7420
19365TIP3    H179510   6.463   3.095   0.449 -0.0128  0.4071 -0.5292
19365TIP3    H279511   6.424   2.981   0.357 -0.4178  0.2711 -0.1917
19366TIP3   OH279512   2.530   6.120  12.181  0.5131 -0.5135  0.1309
19366TIP3    H179513   2.623   6.143  12.172  0.5581  0.3378  2.1795
19366TIP3    H279514   2.531   6.031  12.217  0.5264 -0.6021 -0.0877
19367TIP3   OH279515   5.781   2.185  13.147  0.2965 -0.6224  0.2827
19367TIP3    H179516   5.834   2.262  13.125 -0.2368 -0.1286  0.6810
19367TIP3    H279517   5.728   2.169  13.068 -0.0326 -0.1937  0.4065
19368TIP3   OH279518   2.579   5.205   4.405 -0.0358  0.6707 -0.0152
19368TIP3    H179519   2.602   5.196   4.313 -0.6889  1.6461 -0.2943
19368TIP3    H279520   2.483   5.210   4.405 -0.4600 -3.5898  1.1189
19369TIP3   OH279521   3.944   5.423  14.356  0.5027 -0.0230  0.5939
19369TIP3    H179522   4.033   5.438  14.324  1.0232  0.3298  2.0970
19369TIP3    H279523   3.891   5.412  14.277  1.7748  0.3526 -0.3445
19370TIP3   OH279524   4.928   6.640  16.734 -0.4274  0.3753  0.4869
19370TIP3    H179525   4.971   6.597  16.807 -2.0583 -0.0392  1.2542
19370TIP3    H279526   4.981   6.617  16.658  0.6989 -0.0776  1.3818
19371TIP3   OH279527   6.079   5.869  15.874 -0.0133 -0.2012 -0.4070
19371TIP3    H179528   6.092   5.778  15.847  0.0885  0.3034 -2.1829
19371TIP3    H279529   6.158   5.890  15.924 -0.3145 -1.2503  0.5473
19372TIP3   OH279530   1.038   2.165   5.244  0.0757  0.0493  0.3250
19372TIP3    H179531   0.963   2.106   5.256  0.4091  0.1491  3.9502
19372TIP3    H279532   0.999   2.246   5.212 -1.2150 -0.2991  0.9289
19373TIP3   OH279533   4.091   4.713  13.407  1.2557  0.7872  0.6497
19373TIP3    H179534   4.091   4.746  13.317  2.0113  2.1204  1.1130
19373TIP3    H279535   4.096   4.791  13.461 -0.4553  0.0981  1.9188
19374TIP3   OH279536   5.504   5.765   1.904  1.1086  0.4434 -0.0709
19374TIP3    H179537   5.481   5.750   1.812  0.4537 -0.6933  0.2616
19374TIP3    H279538   5.438   5.716   1.954  1.6489  0.7771  1.0009
19375TIP3   OH279539   5.512   6.422   3.402  0.4321  0.3750  0.0894
19375TIP3    H179540   5.593   6.461   3.370 -0.4756  2.2089 -0.0903
19375TIP3    H279541   5.482   6.366   3.330  2.9637 -2.7610  1.2257
19376TIP3   OH279542   0.408   2.169   1.906 -0.0921  0.0177 -0.2703
19376TIP3    H179543   0.450   2.150   1.990  1.7695  0.2162 -1.1109
19376TIP3    H279544   0.407   2.265   1.900 -0.3836  0.0091 -0.4162
19377TIP3   OH279545   1.268   3.524  15.722 -0.0489 -0.0227  0.5268
19377TIP3    H179546   1.337   3.568  15.771 -0.5005 -0.1487  1.2964
19377TIP3    H279547   1.194   3.519  15.783 -0.8954  0.4928 -0.4163
19378TIP3   OH279548   1.657   4.334  13.728  0.1150 -0.4346 -0.0216
19378TIP3    H179549   1.564   4.335  13.753 -0.2978 -0.4143 -1.4761
19378TIP3    H279550   1.695   4.263  13.779 -0.7510 -0.5962  0.4187
19379TIP3   OH279551   4.613   5.491   0.518 -0.1428 -0.0752  0.5075
19379TIP3    H179552   4.623   5.402   0.486  2.3925 -0.4942  2.1928
19379TIP3    H279553   4.637   5.547   0.443 -1.1307 -0.7877 -0.3619
19380TIP3   OH279554   5.123   0.612   3.152  0.7098  0.1673  0.1793
19380TIP3    H179555   5.196   0.566   3.192 -0.2562 -0.1087  1.6758
19380TIP3    H279556   5.153   0.703   3.146  1.8680 -0.2544 -0.9780
19381TIP3   OH279557   4.283   3.747  11.150  0.3518 -0.4325 -0.4500
19381TIP3    H179558   4.236   3.830  11.163  1.5415  0.1744  0.1161
19381TIP3    H279559   4.264   3.696  11.229  1.8455  0.4255  0.4966
19382TIP3   OH279560   0.022   5.068  16.637 -0.6411 -0.2381  0.0597
19382TIP3    H179561   0.076   5.124  16.582  0.7097  0.0653  1.6044
19382TIP3    H279562  -0.066   5.078  16.602  0.2654 -0.9102 -2.7035
19383TIP3   OH279563   5.844   4.856  11.242  0.5766 -0.5414 -0.6168
19383TIP3    H179564   5.754   4.882  11.220  1.2649  0.0086 -2.9813
19383TIP3    H279565   5.891   4.856  11.159  2.8195 -0.7377  0.5685
19384TIP3   OH279566   2.604   6.213  16.835 -0.1617 -0.3977  0.3856
19384TIP3    H179567   2.524   6.185  16.880 -0.0204  0.6305  1.3214
19384TIP3    H279568   2.658   6.251  16.904  0.4558  0.3668 -0.4987
19385TIP3   OH279569   6.187   2.704  13.532  0.2603  0.3632 -0.1913
19385TIP3    H179570   6.274   2.665  13.520  0.5978  0.3545  1.9012
19385TIP3    H279571   6.191   2.786  13.482  1.2907  0.1255 -0.5276
19386TIP3   OH279572   3.473   5.043  17.164 -0.1959  0.0352 -0.1789
19386TIP3    H179573   3.399   5.096  17.135 -0.3868 -0.0809  0.0891
19386TIP3    H279574   3.453   5.022  17.255  0.1903  0.0442 -0.0910
19387TIP3   OH279575   0.438   1.232   1.989 -0.2159  0.1691 -0.0634
19387TIP3    H179576   0.365   1.225   1.927 -0.2408  1.9551 -0.2892
19387TIP3    H279577   0.465   1.142   2.004 -2.4652 -0.5608  0.0248
19388TIP3   OH279578   4.798   4.214   6.164 -0.5675 -0.9973  0.5641
19388TIP3    H179579   4.762   4.213   6.075 -1.0284 -2.6015  0.7498
19388TIP3    H279580   4.878   4.266   6.156 -0.8922 -0.6435 -0.6641
19389TIP3   OH279581   1.715   0.620   5.110  0.6239  0.6614 -0.1773
19389TIP3    H179582   1.696   0.592   5.021  1.5211 -0.3578 -0.0643
19389TIP3    H279583   1.774   0.694   5.100 -1.8256  2.7382 -0.4800
19390TIP3   OH279584   1.578   5.114  15.398 -0.1117 -0.0100  0.7564
19390TIP3    H179585   1.530   5.185  15.441 -1.0958 -0.6186  0.7036
19390TIP3    H279586   1.619   5.066  15.471  0.2651  0.3926  0.8169
19391TIP3   OH279587   0.072   2.594  11.185  0.1236 -0.2391 -0.4211
19391TIP3    H179588   0.041   2.680  11.155  1.5980 -0.8393 -4.1602
19391TIP3    H279589  -0.006   2.539  11.184 -0.7157  0.8193  1.3925
19392TIP3   OH279590   2.057   1.335  17.186  0.5345 -0.6292 -0.2617
19392TIP3    H179591   1.981   1.363  17.135  0.8809 -0.9700 -0.9948
19392TIP3    H279592   2.021   1.305  17.269 -0.1860 -1.2168 -0.7725
19393TIP3   OH279593   0.914   5.784  17.110 -0.0428 -0.0018  0.1023
19393TIP3    H179594   0.902   5.807  17.202  2.3615  2.4743 -0.1051
19393TIP3    H279595   1.000   5.742  17.106 -0.3397 -0.5562 -0.9608
19394TIP3   OH279596   4.659   2.747  11.201  0.4743  0.3483  1.0596
19394TIP3    H179597   4.746   2.770  11.232  0.3436  0.6857  1.1767
19394TIP3    H279598   4.616   2.831  11.182 -0.8322  0.3950  3.7012
19395TIP3   OH279599   3.519   2.963  17.144 -0.2518 -0.0356 -0.6328
19395TIP3    H179600   3.442   2.971  17.201 -0.9840 -3.4518 -0.8795
19395TIP3    H279601   3.590   2.937  17.203  1.0341  3.6328 -0.3203
19396TIP3   OH279602   0.430   3.712  13.882 -0.2870 -0.3705  0.2195
19396TIP3    H179603   0.468   3.627  13.858  0.1187  0.0720 -0.7640
19396TIP3    H279604   0.506   3.769  13.895 -0.4748 -0.5435  2.5556
19397TIP3   OH279605   0.192   5.253  12.511 -0.0720 -0.2302 -0.3662
19397TIP3    H179606   0.097   5.268  12.507 -0.7118 -3.1966  0.8942
19397TIP3    H279607   0.218   5.283  12.598 -0.1983 -0.9177 -0.0862
19398TIP3   OH279608   1.318   5.809   6.609  0.3822  0.1498  0.4551
19398TIP3    H179609   1.246   5.822   6.547 -0.3011 -0.3057  1.1286
19398TIP3    H279610   1.375   5.745   6.566  0.1612  0.1947  0.0908
19399TIP3   OH279611   0.001   6.002   4.746  0.0579 -0.4195 -0.0735
19399TIP3    H179612  -0.018   5.932   4.809 -0.3824  1.1184  1.5922
19399TIP3    H279613   0.095   5.994   4.730  0.2828 -0.5329  1.1952
19400TIP3   OH279614   0.534   1.398  11.748  0.0095 -0.2272 -0.0574
19400TIP3    H179615   0.625   1.384  11.722 -0.3167 -1.1177 -0.7465
19400TIP3    H279616   0.509   1.480  11.704  0.0716 -0.6851 -0.9591
19401TIP3   OH279617   0.046   4.019  14.796 -0.2336 -0.3092 -0.1098
19401TIP3    H179618   0.075   3.954  14.731 -2.0223  0.1346 -1.4613
19401TIP3    H279619  -0.050   4.016  14.790 -0.3760  2.3347 -0.1033
19402TIP3   OH279620   1.185   6.333   4.099  0.0423 -0.1445 -0.0525
19402TIP3    H179621   1.189   6.336   4.003 -2.0966  1.9724 -0.1952
19402TIP3    H279622   1.125   6.261   4.118 -1.6091  1.0326 -0.5248
19403TIP3   OH279623   1.430   4.094  10.745  0.2495  0.4230  0.1109
19403TIP3    H179624   1.525   4.093  10.754  0.3139 -0.8028 -0.5812
19403TIP3    H279625   1.400   4.017  10.792 -0.3555  0.4479 -0.2212
19404TIP3   OH279626   3.796   2.118   2.061  0.3341  0.5108  0.1896
19404TIP3    H179627   3.716   2.124   2.112 -0.6127 -0.4247 -1.1172
19404TIP3    H279628   3.776   2.162   1.978  0.3489 -1.6540 -1.0521
19405TIP3   OH279629   4.983   5.423  12.521 -1.0096  0.0452 -0.5754
19405TIP3    H179630   4.900   5.465  12.501 -1.7779 -1.2182 -0.1459
19405TIP3    H279631   4.959   5.340  12.562  0.4540 -0.6081 -0.9695
19406TIP3   OH279632   5.967   0.818   5.859  0.2765  0.7186 -0.3946
19406TIP3    H179633   6.023   0.873   5.914  1.3335 -1.2617  0.5800
19406TIP3    H279634   5.925   0.757   5.920 -2.0846  1.3409 -1.2520
19407TIP3   OH279635   4.516   3.725   5.928  0.5029  0.4001  0.1585
19407TIP3    H179636   4.529   3.814   5.895  0.1198  0.8327  1.1330
19407TIP3    H279637   4.521   3.734   6.023  1.4397 -0.7839  0.2433
19408TIP3   OH279638   3.683   3.984   0.695 -0.6699 -0.2140  0.0881
19408TIP3    H179639   3.618   4.010   0.629  0.5571  0.2042 -0.9987
19408TIP3    H279640   3.767   3.997   0.652  0.2415  1.0648  2.0877
19409TIP3   OH279641   2.859   2.892  10.455  0.1072 -0.3857  0.4056
19409TIP3    H179642   2.785   2.921  10.508  0.0892 -0.5340  0.4637
19409TIP3    H279643   2.827   2.814  10.409 -0.8612  1.3712 -2.1225
19410TIP3   OH279644   3.318   3.905  13.719  0.1802 -0.4480 -0.1989
19410TIP3    H179645   3.294   3.853  13.796  3.3120  0.2984  1.4193
19410TIP3    H279646   3.274   3.989  13.733 -0.2674 -0.7270  0.1135
19411TIP3   OH279647   4.223   0.694  12.499 -0.5521 -0.0438 -0.0348
19411TIP3    H179648   4.276   0.763  12.537 -0.2243 -1.1692  1.6691
19411TIP3    H279649   4.198   0.727  12.413  2.0726  0.9209 -0.5036
19412TIP3   OH279650   5.666   2.399  12.953 -0.6402  0.4785  0.3078
19412TIP3    H179651   5.718   2.464  13.001  0.3869 -0.1671  0.0971
19412TIP3    H279652   5.693   2.410  12.862 -0.6510 -0.0618  0.2344
19413TIP3   OH279653   5.368   3.040   0.465 -0.1098  0.3658 -0.9056
19413TIP3    H179654   5.273   3.032   0.452 -0.1121  0.1644 -0.7766
19413TIP3    H279655   5.379   3.118   0.519 -0.0777  1.4495 -2.4167
19414TIP3   OH279656   2.476   6.404  16.662  0.1796  0.5186 -0.1240
19414TIP3    H179657   2.518   6.355  16.732  0.2744  0.6361 -0.0984
19414TIP3    H279658   2.402   6.350  16.635 -0.4613  0.9451  0.7604
19415TIP3   OH279659   2.806   2.237   5.973  0.7516 -0.2664 -0.4457
19415TIP3    H179660   2.724   2.232   5.924 -0.2061  1.0341  0.9253
19415TIP3    H279661   2.849   2.153   5.957 -0.7537 -0.8925 -1.3626
19416TIP3   OH279662   2.934   0.258   4.406  0.0130  0.2104 -0.3776
19416TIP3    H179663   2.948   0.192   4.474  2.7127 -0.4718 -1.4646
19416TIP3    H279664   2.844   0.245   4.377 -0.8970 -0.1014  2.3651
19417TIP3   OH279665   4.252   2.707   1.535  0.0229 -0.4075  0.4122
19417TIP3    H179666   4.255   2.789   1.484 -1.4858  0.0086  0.9253
19417TIP3    H279667   4.338   2.667   1.522  0.4869  0.8381 -0.5563
19418TIP3   OH279668   6.601   4.056   5.385  0.0760  0.3463  0.9344
19418TIP3    H179669   6.693   4.081   5.373  0.1004 -0.7296 -1.6899
19418TIP3    H279670   6.579   4.089   5.472  2.6439  1.5137  1.2415
19419TIP3   OH279671   5.331   3.477   0.295  0.0537  0.1531  0.1076
19419TIP3    H179672   5.384   3.414   0.343 -0.9312 -1.2833 -0.6397
19419TIP3    H279673   5.356   3.562   0.331 -1.0363 -0.8484  3.6148
19420TIP3   OH279674   2.654   4.648  16.744 -0.3010  0.6244  0.1738
19420TIP3    H179675   2.745   4.623  16.754 -0.4556  0.2617  0.7758
19420TIP3    H279676   2.652   4.703  16.666  0.1429 -0.7481 -0.8429
19421TIP3   OH279677   2.714   5.743   0.871 -0.1117  0.3529 -0.2574
19421TIP3    H179678   2.716   5.802   0.946 -0.5686  0.6712 -0.4891
19421TIP3    H279679   2.701   5.801   0.796  0.1836  0.0240 -0.5658
19422TIP3   OH279680   5.746   5.094   5.110  0.4897  0.3702  0.3067
19422TIP3    H179681   5.704   5.010   5.093  1.2270 -0.1586  1.0175
19422TIP3    H279682   5.738   5.106   5.204  1.8521  0.2771  0.4572
19423TIP3   OH279683   0.196   1.989   0.578  0.4232  0.5364 -0.2048
19423TIP3    H179684   0.151   2.001   0.494 -0.1465  0.7540  0.1235
19423TIP3    H279685   0.256   1.917   0.563  0.8548  1.0484 -1.0101
19424TIP3   OH279686   2.127   0.962  13.594 -0.4111  0.1301  0.2424
19424TIP3    H179687   2.068   0.953  13.668  0.3036 -0.6469  0.7416
19424TIP3    H279688   2.093   0.899  13.529  0.3906 -1.0158  0.9000
19425TIP3   OH279689   1.165   3.994  10.730 -0.0102 -0.6560  0.4453
19425TIP3    H179690   1.196   3.969  10.643  2.2184  0.1625  0.9187
19425TIP3    H279691   1.224   4.065  10.757 -0.8012 -0.7093  2.5146
19426TIP3   OH279692   0.052   0.298   5.174 -0.3454  0.4621 -0.1147
19426TIP3    H179693  -0.011   0.310   5.104 -0.3846  3.2858  0.2710
19426TIP3    H279694   0.003   0.255   5.244  0.1496 -4.1949 -2.2335
19427TIP3   OH279695   0.720   0.571   3.205 -0.2387 -0.3228  0.2563
19427TIP3    H179696   0.677   0.492   3.172 -1.1081  0.3050 -0.1676
19427TIP3    H279697   0.740   0.622   3.127  0.7141 -0.3105  0.4978
19428TIP3   OH279698   0.588   6.349  14.052  0.5225  0.2371 -0.2292
19428TIP3    H179699   0.589   6.380  14.142 -2.2756 -0.0173 -0.0363
19428TIP3    H279700   0.539   6.415  14.004  1.9505  0.3632 -1.6226
19429TIP3   OH279701   5.918   0.021   5.257  0.3969 -0.4814 -0.0864
19429TIP3    H179702   5.980   0.071   5.309  0.8715 -1.8908  0.7651
19429TIP3    H279703   5.958   0.014   5.170  0.8244 -0.3028  0.0998
19430TIP3   OH279704   5.103   4.625  16.520  0.1155  0.3847 -0.5493
19430TIP3    H179705   5.153   4.566  16.464  0.0142  0.4828 -0.7417
19430TIP3    H279706   5.169   4.669  16.574  0.2327  0.4708 -0.7608
19431TIP3   OH279707   2.656   6.738  15.523 -0.2832 -0.6966  0.0734
19431TIP3    H179708   2.698   6.795  15.459 -0.4385 -1.5680 -0.8415
19431TIP3    H279709   2.723   6.673  15.545 -0.6233 -1.1276 -0.1519
19432TIP3   OH279710   1.339   1.314   4.549 -0.2304  0.5028  0.5892
19432TIP3    H179711   1.255   1.289   4.510  0.9148 -1.0173 -1.0321
19432TIP3    H279712   1.402   1.249   4.517  1.9624  2.6737  0.1507
19433TIP3   OH279713   1.673   2.225  12.551  0.4058 -0.2343 -0.0332
19433TIP3    H179714   1.732   2.295  12.577  0.3350 -0.4536  0.7392
19433TIP3    H279715   1.597   2.271  12.514  0.0968  0.1294  1.0187
19434TIP3   OH279716   0.952   5.931   3.396 -0.2630  0.3441 -0.3268
19434TIP3    H179717   0.925   5.845   3.363  0.5103 -0.2114  0.4380
19434TIP3    H279718   0.953   5.988   3.319 -0.5995 -0.3743 -0.8716
19435TIP3   OH279719   6.686   0.892   5.025 -0.2883  0.2017  0.1171
19435TIP3    H179720   6.699   0.923   5.115 -0.3444 -3.1658  1.4311
19435TIP3    H279721   6.592   0.903   5.009  0.1364  3.4693 -0.7298
19436TIP3   OH279722   1.322   3.887   0.649  0.1415 -0.1757  0.4820
19436TIP3    H179723   1.354   3.815   0.702 -0.9024 -0.0334  1.3176
19436TIP3    H279724   1.243   3.854   0.607  1.0833 -0.3896 -1.2634
19437TIP3   OH279725   3.645   0.201   4.329  0.5036 -0.4098 -0.7767
19437TIP3    H179726   3.685   0.206   4.416 -0.3378 -0.3332 -0.3839
19437TIP3    H279727   3.627   0.293   4.306  0.2259 -0.4698 -0.7965
19438TIP3   OH279728   0.177   5.626   5.012  0.2889 -0.2179 -0.2493
19438TIP3    H179729   0.162   5.532   5.009  0.4270 -0.3868  2.0979
19438TIP3    H279730   0.251   5.637   5.071  1.0490  1.3243 -1.4053
19439TIP3   OH279731   0.255   3.576  16.003 -0.4345  0.0730 -0.2405
19439TIP3    H179732   0.338   3.612  15.973 -0.7867  1.4585  0.4074
19439TIP3    H279733   0.267   3.481  15.999  1.4306  0.2454  0.5356
19440TIP3   OH279734   5.235   2.737  12.506  0.0992  0.5275 -0.8294
19440TIP3    H179735   5.192   2.816  12.473  1.2443  0.3447 -2.9460
19440TIP3    H279736   5.328   2.750  12.488  0.2358 -1.6517 -2.1894
19441TIP3   OH279737   2.421   0.350  12.457 -0.1931  0.3530  0.4804
19441TIP3    H179738   2.505   0.329  12.416 -0.7275  2.8701 -2.2670
19441TIP3    H279739   2.373   0.267  12.456  0.7379 -0.2501 -1.8965
19442TIP3   OH279740   5.173   5.768  13.363 -0.8357 -0.2252 -0.3297
19442TIP3    H179741   5.230   5.840  13.336 -1.4290 -0.0004 -1.0089
19442TIP3    H279742   5.198   5.751  13.454  0.7933 -0.6134 -0.8126
19443TIP3   OH279743   6.025   2.997  16.012  0.9448  0.1310  0.4059
19443TIP3    H179744   6.102   3.037  16.054 -1.2124  2.3416  2.6171
19443TIP3    H279745   6.018   2.910  16.053  2.2375 -0.1054  0.1656
19444TIP3   OH279746   0.334   1.080   4.539  0.0040 -0.0203  0.3877
19444TIP3    H179747   0.293   1.038   4.463 -2.0622  0.8712  0.9186
19444TIP3    H279748   0.327   1.015   4.609  1.0896 -0.5044  0.0640
19445TIP3   OH279749   6.085   5.078   5.589  0.4099 -0.2865  0.1941
19445TIP3    H179750   6.067   5.059   5.497 -0.9536 -1.0238  0.5887
19445TIP3    H279751   6.091   5.173   5.594 -1.1219 -0.1352 -0.3932
19446TIP3   OH279752   5.543   2.903   0.145  0.2293  0.7744 -0.0420
19446TIP3    H179753   5.569   2.831   0.203 -1.1561 -0.9866 -1.4706
19446TIP3    H279754   5.563   2.871   0.057 -1.5142  1.6142 -0.7967
19447TIP3   OH279755   2.580   4.558   0.555 -0.2433  0.0741 -0.0345
19447TIP3    H179756   2.557   4.542   0.646  0.0877 -2.6603 -0.3557
19447TIP3    H279757   2.676   4.557   0.554 -0.2087  1.2577 -0.2864
19448TIP3   OH279758   1.750   6.630   5.984 -0.1335 -0.1484  0.3258
19448TIP3    H179759   1.765   6.586   6.067  1.9797 -1.1233 -0.4974
19448TIP3    H279760   1.811   6.704   5.985 -2.4160  1.8249  0.9611
19449TIP3   OH279761   3.977   0.840  16.351  0.2725  0.1708  0.3368
19449TIP3    H179762   4.006   0.749  16.343 -0.4071 -0.1744  1.5300
19449TIP3    H279763   3.985   0.876  16.263  3.1222 -0.2434  0.3595
19450TIP3   OH279764   5.906   2.551   1.635 -0.8576  0.3599  0.1166
19450TIP3    H179765   5.893   2.464   1.599 -0.4174 -0.2247  1.3223
19450TIP3    H279766   5.818   2.581   1.658 -0.9393 -0.0365  0.3174
19451TIP3   OH279767   0.566   3.360   1.437  0.0075  0.6886 -0.0419
19451TIP3    H179768   0.656   3.332   1.419  0.2287 -0.5962  2.5965
19451TIP3    H279769   0.540   3.411   1.359  1.6880 -1.9594 -2.5103
19452TIP3   OH279770   4.578   0.800  17.153  0.5832 -0.6776 -0.0399
19452TIP3    H179771   4.629   0.794  17.234  0.9062 -1.8798 -0.3116
19452TIP3    H279772   4.638   0.841  17.090  0.7798 -0.9007 -0.0034
19453TIP3   OH279773   6.392   3.226   5.787 -0.2724  0.3150  0.4998
19453TIP3    H179774   6.347   3.272   5.858 -0.8949  1.0663 -0.3434
19453TIP3    H279775   6.360   3.136   5.792 -2.2339  0.9082 -0.3037
19454TIP3   OH279776   6.349   3.716   1.501  0.1299  0.3143 -0.5697
19454TIP3    H179777   6.315   3.702   1.589 -0.7506 -1.0065 -1.0814
19454TIP3    H279778   6.434   3.757   1.514  0.3752 -0.5927  0.9315
19455TIP3   OH279779   0.884   2.834  13.162  0.2348 -0.2387 -0.7137
19455TIP3    H179780   0.922   2.751  13.132  0.2620  0.3953 -2.5828
19455TIP3    H279781   0.797   2.810  13.193  1.4671 -1.4640  2.1286
19456TIP3   OH279782   6.031   1.140   0.403  0.3193 -0.7752  0.0546
19456TIP3    H179783   6.053   1.164   0.313 -2.0017  0.4869 -0.2273
19456TIP3    H279784   6.116   1.119   0.443  1.7089  1.1030 -1.6896
19457TIP3   OH279785   1.501   6.627   1.430  0.7718 -0.4609  0.0708
19457TIP3    H179786   1.480   6.668   1.346  0.4654  0.8739  0.7724
19457TIP3    H279787   1.424   6.574   1.451 -0.1729  1.0778  0.6169
19458TIP3   OH279788   6.694   0.967   0.509  0.0755 -0.1424 -0.4247
19458TIP3    H179789   6.651   0.899   0.457 -0.9276  0.0043  0.1829
19458TIP3    H279790   6.736   0.920   0.580  0.0967 -0.2020 -0.4766
19459TIP3   OH279791   4.869   4.113   5.543 -0.0844  0.3876 -0.7431
19459TIP3    H179792   4.905   4.176   5.606 -2.3357 -1.1914  2.4202
19459TIP3    H279793   4.794   4.159   5.504  1.1137  1.2512 -2.1159
19460TIP3   OH279794   4.879   5.291   0.530 -0.4369  0.0078  0.1018
19460TIP3    H179795   4.870   5.375   0.575 -0.6801 -0.4599  0.9426
19460TIP3    H279796   4.816   5.295   0.458 -0.2205  0.6614 -0.0584
19461TIP3   OH279797   2.849   4.910  13.997  0.0978 -0.3705  0.6152
19461TIP3    H179798   2.854   4.941  13.907 -1.0239  1.8830  1.2497
19461TIP3    H279799   2.766   4.863  14.001 -1.6300  2.4953  1.1949
19462TIP3   OH279800   3.151   1.558  16.246  0.3819 -0.1537  0.0276
19462TIP3    H179801   3.151   1.484  16.185 -1.1321 -0.1093 -0.0698
19462TIP3    H279802   3.243   1.584  16.253  0.7233 -0.9407 -1.2703
19463TIP3   OH279803   6.656   2.626  14.102  0.3601  0.6177 -0.0695
19463TIP3    H179804   6.700   2.650  14.183  1.6213  4.1090 -1.5804
19463TIP3    H279805   6.666   2.531  14.096  1.0840  0.3753  3.3095
19464TIP3   OH279806   2.097   2.955   2.075 -0.2359 -0.1179 -0.0389
19464TIP3    H179807   2.085   2.900   1.997 -2.7075  0.1057  0.0927
19464TIP3    H279808   2.060   3.040   2.050  2.7325  1.3277  0.0672
19465TIP3   OH279809   5.376   3.180  11.366  0.4362  0.5603 -0.0953
19465TIP3    H179810   5.286   3.210  11.376  0.1875 -0.1905 -0.0645
19465TIP3    H279811   5.382   3.102  11.421  0.0825 -1.4563 -2.7012
19466TIP3   OH279812   5.588   3.256   2.353 -0.1516 -0.3201 -0.3182
19466TIP3    H179813   5.648   3.222   2.286  1.9769  2.5440 -0.0510
19466TIP3    H279814   5.642   3.269   2.430 -0.8025  3.0523 -0.2629
19467TIP3   OH279815   3.538   5.709   0.612 -0.5363 -0.3217  0.4911
19467TIP3    H179816   3.501   5.798   0.619  0.4486  0.1445 -0.0194
19467TIP3    H279817   3.550   5.696   0.518  1.2261 -0.1773  0.6676
19468TIP3   OH279818   2.312   1.639   2.068 -0.0015 -0.4016  0.6198
19468TIP3    H179819   2.371   1.565   2.059  2.0610  1.0648  1.4105
19468TIP3    H279820   2.225   1.600   2.072  0.8464 -2.6388 -0.7895
19469TIP3   OH279821   2.721   4.721  14.638  0.2104 -0.2662  0.1920
19469TIP3    H179822   2.777   4.735  14.714  0.5598 -1.0260  0.0903
19469TIP3    H279823   2.700   4.627  14.641  0.8766 -0.4756 -1.0799
19470TIP3   OH279824   4.927   5.679   0.372  0.5212  0.3209 -0.2638
19470TIP3    H179825   4.904   5.709   0.284  2.0421  0.3598 -0.6703
19470TIP3    H279826   4.858   5.617   0.395 -1.1866  1.9893 -0.5265
19471TIP3   OH279827   0.371   2.723  13.330 -0.6358 -0.3783  0.3937
19471TIP3    H179828   0.332   2.794  13.380 -0.5570 -0.9771  1.3403
19471TIP3    H279829   0.325   2.644  13.359 -0.9110 -0.7006 -0.8357
19472TIP3   OH279830   5.731   1.689   5.041 -0.0780 -0.2503  0.1110
19472TIP3    H179831   5.791   1.727   4.977  0.5190  0.2642  0.9440
19472TIP3    H279832   5.687   1.764   5.081  0.1250 -0.5069  0.8352
19473TIP3   OH279833   6.187   2.485   2.829 -0.1472 -0.3327 -0.4186
19473TIP3    H179834   6.214   2.570   2.864 -0.6796 -0.8810  1.4257
19473TIP3    H279835   6.091   2.490   2.826 -0.1766 -0.8511 -0.3377
19474TIP3   OH279836   0.176   2.166   1.440  0.5944  0.2344  0.4147
19474TIP3    H179837   0.263   2.170   1.401  0.2505  0.2752 -0.3559
19474TIP3    H279838   0.186   2.212   1.524  0.9874  1.5062 -0.3019
19475TIP3   OH279839   6.237   3.852  12.050  0.5161 -0.5931 -0.1849
19475TIP3    H179840   6.319   3.804  12.047  0.5587 -0.7066  1.5132
19475TIP3    H279841   6.170   3.784  12.057  0.3679 -0.4705 -0.4084
19476TIP3   OH279842   5.532   2.796  12.485  0.8662 -0.1863 -0.0151
19476TIP3    H179843   5.577   2.880  12.496  0.2544  0.2996 -1.0459
19476TIP3    H279844   5.602   2.731  12.484  1.5493  0.5196 -1.2953
19477TIP3   OH279845   6.575   0.128   3.161 -0.0670  0.2966  0.0359
19477TIP3    H179846   6.485   0.127   3.129  0.0125 -1.6804 -0.2803
19477TIP3    H279847   6.623   0.182   3.099 -0.6612 -0.3169 -0.9805
19478TIP3   OH279848   5.813   5.884   5.535  0.6844 -0.2725 -0.0821
19478TIP3    H179849   5.904   5.874   5.563  0.4801 -0.4494  0.5283
19478TIP3    H279850   5.804   5.977   5.516  0.5356  0.0636  1.5113
19479TIP3   OH279851   5.720   6.088   4.167  0.1438  0.1668 -0.1646
19479TIP3    H179852   5.640   6.046   4.135  0.5470 -0.4210 -0.4165
19479TIP3    H279853   5.791   6.036   4.131  0.6206 -0.5807  1.7008
19480TIP3   OH279854   4.378   6.354   0.974  0.2629  0.6285 -0.5146
19480TIP3    H179855   4.388   6.259   0.973  1.2078  0.7015  0.1752
19480TIP3    H279856   4.452   6.385   1.026 -1.3550  1.5795  1.3477
19481TIP3   OH279857   6.628   6.723   2.538  0.1404  0.7964 -0.1310
19481TIP3    H179858   6.696   6.713   2.471  0.5095  2.6193 -0.0789
19481TIP3    H279859   6.628   6.817   2.558 -3.0409  1.0457 -0.8174
19482TIP3   OH279860   6.765   4.111  12.863  0.0082 -0.4026  0.1640
19482TIP3    H179861   6.740   4.185  12.808  0.4630 -0.3230  0.0564
19482TIP3    H279862   6.852   4.134  12.897 -0.4368 -0.2817  1.2370
19483TIP3   OH279863   1.409   5.757  12.448 -0.3494  0.2105  0.3127
19483TIP3    H179864   1.316   5.781  12.441 -1.1528 -2.5490  0.3529
19483TIP3    H279865   1.428   5.761  12.541  0.7680  4.4033  0.0997
19484TIP3   OH279866   5.446   0.659   5.363 -0.5731  0.7042 -0.8155
19484TIP3    H179867   5.499   0.736   5.344  0.1821  0.2354 -0.6569
19484TIP3    H279868   5.372   0.693   5.414  0.0215  1.2561 -0.2969
19485TIP3   OH279869   4.765   6.504  13.086 -0.1101  0.2293 -0.0670
19485TIP3    H179870   4.675   6.525  13.063 -0.7641 -0.7521  1.4587
19485TIP3    H279871   4.774   6.533  13.177  0.2706 -2.0152  0.6657
19486TIP3   OH279872   0.687   3.303   4.731 -0.4497 -0.1541 -0.2955
19486TIP3    H179873   0.598   3.332   4.712 -0.9141 -0.3685  1.3452
19486TIP3    H279874   0.736   3.384   4.745 -0.4779 -0.0463 -0.7976
19487TIP3   OH279875   4.077   0.155   1.304  0.2816 -0.5252  0.5125
19487TIP3    H179876   4.157   0.115   1.272  0.7110  0.9231 -0.3267
19487TIP3    H279877   4.049   0.214   1.233 -1.3724 -0.7876  0.8930
19488TIP3   OH279878   1.216   5.114  15.823 -0.4560  0.3788 -0.0221
19488TIP3    H179879   1.199   5.047  15.758 -1.0391 -0.7231  1.2151
19488TIP3    H279880   1.205   5.197  15.776 -0.2918 -0.3726 -1.4364
19489TIP3   OH279881   2.841   2.841   4.838  0.0353  0.5811  0.4692
19489TIP3    H179882   2.936   2.837   4.848  0.1382  0.8091 -0.4001
19489TIP3    H279883   2.812   2.751   4.850  0.5430  0.1995 -1.0250
19490TIP3   OH279884   2.733   3.669   2.222 -0.3449  0.6234  0.5519
19490TIP3    H179885   2.706   3.730   2.291  1.8866 -0.8419  2.9034
19490TIP3    H279886   2.788   3.605   2.267  2.9714  0.6963 -2.8991
19491TIP3   OH279887   4.780   3.477   2.768 -0.1730  0.0020 -0.2193
19491TIP3    H179888   4.860   3.486   2.819  0.2405 -0.0690 -0.8571
19491TIP3    H279889   4.747   3.567   2.759 -0.2326  0.0193  0.1369
19492TIP3   OH279890   3.502   5.389  12.307 -0.3439  0.1364  0.1721
19492TIP3    H179891   3.497   5.329  12.233 -2.0785  1.4419 -0.8684
19492TIP3    H279892   3.549   5.341  12.375  0.8490 -1.2916 -1.5811
19493TIP3   OH279893   3.336   5.054   4.818  0.0347 -0.0518 -0.1369
19493TIP3    H179894   3.312   5.142   4.847  1.4305 -0.3075  2.0803
19493TIP3    H279895   3.292   4.995   4.880  1.1125 -0.7686 -0.0098
19494TIP3   OH279896   5.172   4.013  13.702 -0.1754 -0.1218  0.9618
19494TIP3    H179897   5.150   4.100  13.671  1.3634  1.1309  3.0760
19494TIP3    H279898   5.232   3.978  13.635 -2.3796 -0.5037 -0.9442
19495TIP3   OH279899   4.827   3.244  11.592 -0.2555  0.4255  0.4610
19495TIP3    H179900   4.904   3.217  11.542  0.6184 -1.0050  2.4440
19495TIP3    H279901   4.752   3.223  11.535  0.6423 -1.8848  0.0271
19496TIP3   OH279902   3.662   2.651   3.648 -0.7087  0.1167 -0.1382
19496TIP3    H179903   3.747   2.629   3.687 -0.5319  2.6051  1.0344
19496TIP3    H279904   3.671   2.624   3.556  1.5814  0.8040 -0.1891
19497TIP3   OH279905   1.830   1.645   5.429  0.0184  0.3846 -0.5253
19497TIP3    H179906   1.764   1.588   5.389  0.6795 -0.2973 -0.6735
19497TIP3    H279907   1.788   1.679   5.508 -0.4029 -0.2826 -0.4583
19498TIP3   OH279908   6.273   4.142   4.305  0.1499  0.2146  0.0643
19498TIP3    H179909   6.344   4.130   4.242 -0.0633  0.9576 -0.3253
19498TIP3    H279910   6.210   4.073   4.283  0.9240 -0.7243  0.6876
19499TIP3   OH279911   3.017   5.474  13.207  0.2643 -0.0091  0.0849
19499TIP3    H179912   2.933   5.429  13.210  0.2243  0.0442 -0.1838
19499TIP3    H279913   2.997   5.560  13.170  0.2696  0.3919  0.9994
19500TIP3   OH279914   2.763   4.322   5.420  0.1795  0.5589 -0.3696
19500TIP3    H179915   2.837   4.317   5.480 -0.5059 -0.7161  0.4181
19500TIP3    H279916   2.745   4.231   5.395 -1.2477  0.8077 -0.3560
19501TIP3   OH279917   6.696   2.289   1.749 -0.4773  0.4201  0.4763
19501TIP3    H179918   6.662   2.300   1.660 -0.4426  0.1177  0.4274
19501TIP3    H279919   6.790   2.303   1.741 -0.5451  0.9610  0.5626
19502TIP3   OH279920   2.868   5.239   4.785  0.2960  0.3581 -0.2256
19502TIP3    H179921   2.946   5.234   4.730  0.2644  0.2673 -0.2621
19502TIP3    H279922   2.831   5.325   4.766 -1.0358 -0.5800 -2.1459
19503TIP3   OH279923   5.566   4.134   2.610  0.2835  0.4322 -0.2738
19503TIP3    H179924   5.632   4.151   2.678 -0.0901 -0.3619  0.2977
19503TIP3    H279925   5.604   4.064   2.557  0.0529  0.2216 -0.1593
19504TIP3   OH279926   4.006   3.021   1.479 -0.2620 -0.4125 -0.1154
19504TIP3    H179927   4.063   3.021   1.556 -0.9974 -0.5575  0.4393
19504TIP3    H279928   4.060   2.986   1.409  0.9816  1.3339 -0.1002
19505TIP3   OH279929   3.562   6.466   5.841 -0.6915 -0.4233 -0.0932
19505TIP3    H179930   3.615   6.504   5.911 -0.2799 -0.5841 -0.3121
19505TIP3    H279931   3.487   6.524   5.833 -0.7826 -0.4489  0.5386
19506TIP3   OH279932   6.510   0.468   5.372  0.5922 -0.0587  0.7157
19506TIP3    H179933   6.565   0.543   5.395  2.9587 -1.8455  1.4011
19506TIP3    H279934   6.561   0.421   5.305 -0.4514 -1.4065  0.8175
19507TIP3   OH279935   1.752   5.301   2.563 -0.2357  0.3677 -0.2346
19507TIP3    H179936   1.807   5.340   2.494  0.2829 -0.5998 -0.3919
19507TIP3    H279937   1.809   5.237   2.605 -1.2379 -0.6500 -0.3814
19508TIP3   OH279938   3.466   1.571   0.476 -0.0302  0.5373 -0.0867
19508TIP3    H179939   3.463   1.537   0.566 -1.8794 -1.9006 -0.9389
19508TIP3    H279940   3.394   1.633   0.472  0.6932  1.4204  0.3604
19509TIP3   OH279941   3.657   5.175  11.282  0.2863 -0.4980  0.3627
19509TIP3    H179942   3.687   5.085  11.269 -0.5271 -0.8864  1.0682
19509TIP3    H279943   3.638   5.207  11.194  1.0438 -0.8392  0.0615
19510TIP3   OH279944   6.210   6.304   1.989 -0.2709  0.0753 -0.6593
19510TIP3    H179945   6.265   6.229   2.010  0.0878  0.4756 -0.1248
19510TIP3    H279946   6.160   6.320   2.069 -0.3728  0.3757 -0.7809
19511TIP3   OH279947   3.510   5.608   2.090 -0.3616  0.2262 -0.1802
19511TIP3    H179948   3.573   5.667   2.049 -0.7325 -0.3118 -1.5963
19511TIP3    H279949   3.553   5.578   2.170  1.5791 -0.7948 -1.5202
19512TIP3   OH279950   4.827   2.471   0.912 -0.7433  0.8231  0.0747
19512TIP3    H179951   4.786   2.442   0.830  0.3124  0.5508 -0.3826
19512TIP3    H279952   4.840   2.565   0.900 -1.7741  1.0169  0.4689
19513TIP3   OH279953   1.806   5.284  11.334  0.6101  0.3719  0.2754
19513TIP3    H179954   1.864   5.296  11.409 -0.8109 -0.9334  1.6694
19513TIP3    H279955   1.864   5.257  11.263  1.8808  0.6355  1.1739
19514TIP3   OH279956   6.319   2.007   5.165  0.0331  0.1370  0.3692
19514TIP3    H179957   6.245   1.991   5.223 -0.1285 -1.5742 -0.2599
19514TIP3    H279958   6.362   2.085   5.202 -1.1370  0.1979  1.6715
19515TIP3   OH279959   2.305   0.263   4.856  0.2181 -0.2575  0.6842
19515TIP3    H179960   2.262   0.265   4.941 -2.2167  0.1032 -0.4624
19515TIP3    H279961   2.279   0.179   4.818 -0.9314  0.6562 -0.6850
19516TIP3   OH279962   2.678   4.517  11.946 -0.4978  0.6293 -0.0367
19516TIP3    H179963   2.592   4.482  11.921  0.3417 -1.3595 -0.3107
19516TIP3    H279964   2.730   4.513  11.866  0.2227  0.6277  0.4257
19517TIP3   OH279965   5.704   3.893  15.008  0.0217  0.1770  0.6271
19517TIP3    H179966   5.610   3.907  15.020  0.1824  1.5930  0.4614
19517TIP3    H279967   5.716   3.889  14.913  0.1192 -0.1235  0.6503
19518TIP3   OH279968   4.059   1.835  12.348  0.2448  0.0708 -0.8322
19518TIP3    H179969   4.137   1.889  12.360 -0.1457  0.4764  0.0663
19518TIP3    H279970   4.088   1.746  12.364  0.2670  0.3539  0.8939
19519TIP3   OH279971   4.336   5.405  11.375  0.2659 -0.1284 -0.0682
19519TIP3    H179972   4.258   5.354  11.396  1.2200 -1.4604  0.4218
19519TIP3    H279973   4.363   5.371  11.289  0.9183 -0.4866  0.2706
19520TIP3   OH279974   6.368   0.181   4.073  0.3365  0.0631 -0.1487
19520TIP3    H179975   6.421   0.251   4.112  0.7339 -0.0766 -0.4279
19520TIP3    H279976   6.430   0.130   4.021  0.4251 -1.5860  1.4639
19521TIP3   OH279977   3.100   6.205   5.992 -0.0631  0.2286 -0.4598
19521TIP3    H179978   3.013   6.186   6.029 -0.3373  0.1433 -1.1404
19521TIP3    H279979   3.160   6.190   6.065 -0.4334 -1.5002 -0.4626
19522TIP3   OH279980   0.396   1.638   5.713 -0.1264  0.1859 -0.4795
19522TIP3    H179981   0.396   1.710   5.650 -2.4581 -0.4648 -1.3313
19522TIP3    H279982   0.379   1.681   5.797  0.6967  0.8283 -0.6295
19523TIP3   OH279983   0.756   4.273  15.997 -0.1292  0.0859 -0.2360
19523TIP3    H179984   0.681   4.305  16.048 -1.6151  0.5165 -2.5083
19523TIP3    H279985   0.727   4.188  15.964  1.0062 -0.4182  0.0457
19524TIP3   OH279986   4.949   1.343   6.088 -0.4294 -0.3346  0.2374
19524TIP3    H179987   4.855   1.347   6.105 -0.5702 -1.0064 -0.3454
19524TIP3    H279988   4.957   1.291   6.008  0.5204 -1.3670  0.9818
19525TIP3   OH279989   2.687   0.504  10.545 -0.7277 -0.4609  0.5875
19525TIP3    H179990   2.655   0.456  10.621 -1.2883 -1.7352 -0.4129
19525TIP3    H279991   2.691   0.439  10.475 -0.3186  0.6939 -0.5093
19526TIP3   OH279992   1.771   0.656   6.220  0.1319  0.4470 -0.1982
19526TIP3    H179993   1.712   0.618   6.285  1.4806  0.7484  1.2526
19526TIP3    H279994   1.733   0.630   6.136 -0.8938 -1.1382  0.6963
19527TIP3   OH279995   6.514   1.094  17.142 -0.2156  0.1188  0.1556
19527TIP3    H179996   6.437   1.148  17.121  0.6260  2.4157  2.5315
19527TIP3    H279997   6.505   1.074  17.235  1.5923 -0.3588  0.2622
19528TIP3   OH279998   2.975   0.725   0.875  0.3700 -0.1829  0.4838
19528TIP3    H179999   2.902   0.721   0.814 -0.3547 -0.2040  1.3453
19528TIP3    H280000   3.048   0.759   0.823 -0.1968 -0.3383 -0.4225
19529TIP3   OH280001   0.119   2.150   4.595  0.2874 -0.0597 -0.0711
19529TIP3    H180002   0.198   2.176   4.642  1.7236 -0.1409 -2.2644
19529TIP3    H280003   0.146   2.075   4.542 -0.9035  0.6344 -1.7763
19530TIP3   OH280004   0.879   4.255  13.168  0.0999 -0.3612 -0.1588
19530TIP3    H180005   0.920   4.340  13.181  0.8991 -0.7234 -0.2767
19530TIP3    H280006   0.836   4.262  13.083 -3.2255  1.2468  1.4411
19531TIP3   OH280007   5.711   1.807   2.862  0.1118 -0.1027  0.2674
19531TIP3    H180008   5.695   1.720   2.826 -1.0284 -0.2620  1.1017
19531TIP3    H280009   5.771   1.793   2.935 -0.0682 -0.1939  0.3981
19532TIP3   OH280010   0.688   2.480   1.952  0.3747 -0.1274 -0.2371
19532TIP3    H180011   0.632   2.520   1.886  1.0976 -0.1919 -0.9015
19532TIP3    H280012   0.739   2.415   1.904  1.8722  0.7458  0.1042
19533TIP3   OH280013   0.977   1.879  13.439 -0.1544 -0.2596 -0.5656
19533TIP3    H180014   1.038   1.925  13.497  0.8538 -0.6686 -1.2678
19533TIP3    H280015   0.899   1.863  13.493  1.3680 -2.1186  1.2619
19534TIP3   OH280016   0.943   1.726   4.966  0.2082 -0.5305  0.5470
19534TIP3    H180017   0.975   1.806   4.925 -0.2823  0.4788  2.0317
19534TIP3    H280018   0.849   1.740   4.977  0.1909 -1.1007  1.2351
19535TIP3   OH280019   3.468   2.103   4.736 -0.3962  0.1644  0.0768
19535TIP3    H180020   3.549   2.052   4.747  0.5098  1.3720 -0.7216
19535TIP3    H280021   3.408   2.043   4.691  0.9335  0.0261 -1.6217
19536TIP3   OH280022   6.587   0.059   2.053  0.5163  0.0696  0.4809
19536TIP3    H180023   6.592  -0.036   2.060 -1.0515  0.0561  2.2085
19536TIP3    H280024   6.541   0.075   1.971  0.8719 -0.6325  0.1322
19537TIP3   OH280025   2.700   2.690  12.370 -0.8792 -0.4967 -0.2507
19537TIP3    H180026   2.730   2.780  12.383 -0.1370 -0.4600 -1.9629
19537TIP3    H280027   2.649   2.694  12.289  0.1964 -1.8510 -1.0178
19538TIP3   OH280028   6.477   5.428   2.815  0.1138 -0.3909  0.5032
19538TIP3    H180029   6.507   5.516   2.791 -1.5501  0.1920  0.4192
19538TIP3    H280030   6.398   5.415   2.763  0.4468 -2.0358  0.3672
19539TIP3   OH280031   0.399   0.825   0.882 -0.3481  0.5115  0.1600
19539TIP3    H180032   0.382   0.736   0.915 -2.3034  0.3431 -1.1366
19539TIP3    H280033   0.482   0.817   0.835  0.3461 -0.2172  1.4668
19540TIP3   OH280034   0.847   3.599   3.999  0.4060 -0.6903 -0.7435
19540TIP3    H180035   0.794   3.648   4.062  2.2410 -1.0263  1.1755
19540TIP3    H280036   0.881   3.666   3.939  1.0886  0.1169  0.5047
19541TIP3   OH280037   5.708   2.554  11.735 -0.0672  0.2046  0.3054
19541TIP3    H180038   5.740   2.494  11.803 -0.2498 -1.1804 -0.7711
19541TIP3    H280039   5.702   2.639  11.779 -0.2276 -0.6371  2.0271
19542TIP3   OH280040   0.352   3.130  11.057 -0.2319 -0.1730  0.7531
19542TIP3    H180041   0.377   3.119  10.965 -2.3134  1.4804 -0.1028
19542TIP3    H280042   0.435   3.125  11.105  0.8240 -1.8269 -1.1017
19543TIP3   OH280043   2.775   1.209  15.780  0.0598  0.0148  0.0924
19543TIP3    H180044   2.840   1.191  15.849 -0.3803 -1.7184  0.0921
19543TIP3    H280045   2.768   1.127  15.732 -2.3968  0.0568  0.2938
19544TIP3   OH280046   1.802   2.108   0.712 -0.5534 -0.5901  0.3165
19544TIP3    H180047   1.817   2.197   0.745  0.4642 -0.7026  0.1997
19544TIP3    H280048   1.710   2.107   0.687 -0.4354  0.6258 -0.2427
19545TIP3   OH280049   5.148   4.739   0.212 -0.4669 -0.2047 -0.0117
19545TIP3    H180050   5.152   4.653   0.255  0.3835 -0.2481 -0.1593
19545TIP3    H280051   5.182   4.800   0.277  0.6322 -0.2428 -0.5198
19546TIP3   OH280052   3.481   1.907  16.135 -0.6379 -0.1179  0.3687
19546TIP3    H180053   3.433   1.989  16.129 -0.4017 -0.0571 -1.0011
19546TIP3    H280054   3.565   1.925  16.092  0.1112 -0.5921  1.5708
19547TIP3   OH280055   5.754   4.761  15.977  0.2778  0.0578  0.0912
19547TIP3    H180056   5.821   4.774  16.044  0.4990  0.3875 -0.1931
19547TIP3    H280057   5.777   4.822  15.907 -0.2461  0.0797 -0.0640
19548TIP3   OH280058   1.574   1.943   3.587  0.2022  0.6889 -0.1620
19548TIP3    H180059   1.515   1.957   3.661  0.7050  1.2267  0.1520
19548TIP3    H280060   1.524   1.968   3.510 -0.3194  0.1455 -0.0076
19549TIP3   OH280061   1.686   0.416  11.848  0.1921  0.0147 -0.0769
19549TIP3    H180062   1.631   0.340  11.869 -0.7688  0.3999 -1.0502
19549TIP3    H280063   1.676   0.426  11.753 -1.4007  2.5828  0.2527
19550TIP3   OH280064   1.249   1.355   6.197  0.2621  0.0963  0.4785
19550TIP3    H180065   1.322   1.401   6.157 -1.0596  0.2565 -1.9313
19550TIP3    H280066   1.211   1.419   6.258  0.3172  1.1183 -0.5267
19551TIP3   OH280067   6.665   3.889   0.945 -0.4366  0.0210 -0.3871
19551TIP3    H180068   6.617   3.970   0.925  0.9561  0.7233 -1.0567
19551TIP3    H280069   6.631   3.826   0.881 -1.2686  0.1701 -0.1075
19552TIP3   OH280070   5.591   3.286  13.124 -0.5850  0.3159 -0.1804
19552TIP3    H180071   5.592   3.323  13.036 -0.2372 -0.5856 -0.5647
19552TIP3    H280072   5.555   3.198  13.112 -0.0362 -0.0069  0.5008
19553TIP3   OH280073   2.202   4.444   1.937 -0.4588  0.0707 -0.0627
19553TIP3    H180074   2.141   4.496   1.990  0.2697 -0.2259  1.1001
19553TIP3    H280075   2.233   4.376   1.996 -1.1298 -1.5342 -1.4424
19554TIP3   OH280076   6.558   5.525  13.139 -0.1588  0.0180 -0.1876
19554TIP3    H180077   6.462   5.525  13.139 -0.1742 -1.1723 -1.4062
19554TIP3    H280078   6.582   5.448  13.190  0.1766  0.6982  0.7078
19555TIP3   OH280079   2.459   2.918   5.889 -0.1646 -0.1739 -0.0239
19555TIP3    H180080   2.446   2.824   5.877 -2.1735 -0.0071  0.4459
19555TIP3    H280081   2.422   2.957   5.809 -1.8801  0.3001  0.9392
19556TIP3   OH280082   6.432   5.080   2.251  0.2414  0.1679 -0.1395
19556TIP3    H180083   6.448   5.134   2.173  1.7846  1.2288  0.8680
19556TIP3    H280084   6.434   5.141   2.324 -0.0533 -0.9758  0.8631
19557TIP3   OH280085   5.149   2.366  14.483  0.7791 -0.0985  0.2880
19557TIP3    H180086   5.147   2.301  14.413 -0.3264  0.7064 -0.4799
19557TIP3    H280087   5.103   2.324  14.556 -0.8374  0.1291 -0.5394
19558TIP3   OH280088   0.960   4.841   2.946 -0.2133  0.4803 -0.2820
19558TIP3    H180089   0.865   4.838   2.946 -0.1984 -0.2681 -0.3808
19558TIP3    H280090   0.987   4.771   3.006  0.2661  1.9719  1.3227
19559TIP3   OH280091   1.476   3.067   1.976  0.3309 -0.9352 -0.1619
19559TIP3    H180092   1.431   3.149   1.996  0.7825 -0.6895 -0.1205
19559TIP3    H280093   1.444   3.005   2.042  0.0037 -0.7832 -0.1800
19560TIP3   OH280094   5.157   6.744   4.481 -0.5391  0.4638 -0.7993
19560TIP3    H180095   5.074   6.769   4.521 -0.1049  2.7787 -1.1754
19560TIP3    H280096   5.211   6.823   4.488  1.7406 -1.0338 -0.3144
19561TIP3   OH280097   6.245   1.177   1.944 -0.4076  0.4698  0.4240
19561TIP3    H180098   6.248   1.086   1.917  2.3213 -0.3851  3.0630
19561TIP3    H280099   6.309   1.222   1.889 -2.4448  1.1678 -1.5655
19562TIP3   OH280100   6.704   5.886   0.148  0.2466  0.1717  0.0706
19562TIP3    H180101   6.778   5.829   0.129  0.4953  0.3344  0.5361
19562TIP3    H280102   6.717   5.963   0.093  0.0234 -0.1155 -0.3995
19563TIP3   OH280103   2.275   1.932   2.983 -0.2236  0.0124 -0.1361
19563TIP3    H180104   2.271   1.840   3.010  2.4818 -0.5758 -1.3741
19563TIP3    H280105   2.279   1.928   2.887 -0.7426  1.4923 -0.2440
19564TIP3   OH280106   2.298   2.641   6.550  0.1772 -0.0099 -0.3032
19564TIP3    H180107   2.361   2.588   6.600 -0.9676 -0.9131  0.2326
19564TIP3    H280108   2.281   2.589   6.471 -1.1169 -0.5870  0.3255
19565TIP3   OH280109   1.297   1.142  12.149  0.5025  0.2371  0.3657
19565TIP3    H180110   1.391   1.127  12.137  0.2651 -1.1924  0.0825
19565TIP3    H280111   1.258   1.055  12.142 -0.7347  0.6540  1.6590
19566TIP3   OH280112   6.542   5.094  13.871  0.4265  0.0248  0.1509
19566TIP3    H180113   6.594   5.091  13.791  0.7035 -0.3186  0.3424
19566TIP3    H280114   6.536   5.187  13.893  0.1904  0.1358 -0.3727
19567TIP3   OH280115   1.756   3.688  13.449 -0.2619 -0.3214 -0.2475
19567TIP3    H180116   1.822   3.630  13.488  0.0114 -0.2050 -0.5353
19567TIP3    H280117   1.768   3.679  13.355 -0.7070 -0.3506 -0.3045
19568TIP3   OH280118   2.923   6.134  16.742 -0.4165 -0.3976  0.4983
19568TIP3    H180119   2.981   6.205  16.713 -1.9624  0.6213 -0.1825
19568TIP3    H280120   2.835   6.166  16.726 -1.1951 -2.0375  1.2502
19569TIP3   OH280121   0.416   0.334   2.159  0.3289  0.3247  0.8538
19569TIP3    H180122   0.491   0.371   2.114 -0.3254  1.8747  0.9782
19569TIP3    H280123   0.384   0.265   2.101 -1.2621  3.0657 -1.7564
19570TIP3   OH280124   0.643   0.764   1.297  0.4706  0.0537  0.4871
19570TIP3    H180125   0.737   0.782   1.289  0.8350 -1.9046 -0.1730
19570TIP3    H280126   0.602   0.816   1.228  0.9152  1.7230  1.4306
19571TIP3   OH280127   4.271   4.329  13.974  0.1062  0.6253 -0.6333
19571TIP3    H180128   4.247   4.362  13.888 -2.7801 -0.1502 -0.2337
19571TIP3    H280129   4.193   4.341  14.028  1.3219 -0.2603  1.4754
19572TIP3   OH280130   3.070   4.264  10.667 -0.1448 -0.0606 -0.2191
19572TIP3    H180131   3.110   4.258  10.580 -1.2605 -0.4511 -0.7285
19572TIP3    H280132   3.062   4.358  10.683  0.1788  0.0165 -0.4889
19573TIP3   OH280133   1.090   0.671   3.449 -0.0698  0.0449  0.7151
19573TIP3    H180134   1.170   0.693   3.400  0.8120  0.1447  2.1557
19573TIP3    H280135   1.086   0.575   3.447  0.9317 -0.0420  1.9003
19574TIP3   OH280136   0.613   1.066  13.510 -0.1364  0.0588  0.4079
19574TIP3    H180137   0.627   1.074  13.604 -1.8381  2.0231  0.5700
19574TIP3    H280138   0.601   0.972  13.495 -0.1903 -0.2549  2.1792
19575TIP3   OH280139   4.848   5.115  10.364 -0.0646 -0.4433 -0.0825
19575TIP3    H180140   4.768   5.075  10.328  0.3850 -1.2266 -0.2320
19575TIP3    H280141   4.919   5.077  10.313  0.5027 -0.6966  0.8616
19576TIP3   OH280142   4.686   5.966   3.354 -0.8463 -0.5988  0.2877
19576TIP3    H180143   4.756   5.926   3.303  0.0407 -2.2626  2.6026
19576TIP3    H280144   4.617   5.899   3.357 -1.3400 -0.0950  0.3865
19577TIP3   OH280145   5.593   4.068   0.846 -0.4251 -0.6333 -0.2051
19577TIP3    H180146   5.639   4.045   0.766  1.0564 -0.0161  0.4495
19577TIP3    H280147   5.659   4.063   0.915 -1.2447  0.6025  0.7132
19578TIP3   OH280148   5.731   0.212  13.398  0.4459  0.0245 -0.2931
19578TIP3    H180149   5.658   0.184  13.453  0.8627  0.0437  0.2760
19578TIP3    H280150   5.791   0.138  13.398 -0.0356 -0.3811 -1.5939
19579TIP3   OH280151   4.170   1.004  14.551 -0.1586 -0.5210 -0.5368
19579TIP3    H180152   4.210   0.917  14.553 -0.0521 -0.4792 -0.8018
19579TIP3    H280153   4.218   1.052  14.483 -2.1764 -1.2366 -2.6194
19580TIP3   OH280154   0.327   0.801  12.616  0.2011  0.1902 -0.3649
19580TIP3    H180155   0.328   0.726  12.557  1.7481 -1.2848  1.4177
19580TIP3    H280156   0.393   0.861  12.579 -0.1734  0.1434 -1.1233
19581TIP3   OH280157   2.315   1.571   4.707 -0.0736 -0.0936 -0.1436
19581TIP3    H180158   2.297   1.520   4.786 -0.4290 -0.5656 -0.5208
19581TIP3    H280159   2.410   1.564   4.696  0.0124  0.1885  0.3798
19582TIP3   OH280160   0.527   2.799   1.006  0.1985  0.2970  0.4535
19582TIP3    H180161   0.474   2.751   1.069 -0.3185 -1.6277 -1.3539
19582TIP3    H280162   0.468   2.865   0.970  0.0523  0.4016  0.8787
19583TIP3   OH280163   0.742   1.174  11.769 -0.2309 -0.2095  0.2977
19583TIP3    H180164   0.711   1.089  11.738 -0.0382 -0.0385 -0.3860
19583TIP3    H280165   0.831   1.159  11.798 -0.5941 -0.4868  1.3074
19584TIP3   OH280166   3.643   6.769   1.215 -0.6241  0.0273  0.1691
19584TIP3    H180167   3.725   6.795   1.258 -0.5154 -0.7243  0.4474
19584TIP3    H280168   3.662   6.776   1.121 -0.0892 -0.5582  0.2246
19585TIP3   OH280169   3.821   0.929   2.449  0.0578  0.1178 -0.2747
19585TIP3    H180170   3.893   0.877   2.485 -0.5803 -0.8925 -0.4127
19585TIP3    H280171   3.856   0.965   2.367 -0.1091 -1.7480 -1.2096
19586TIP3   OH280172   0.526   4.784   2.376  0.1295 -0.4115  0.3685
19586TIP3    H180173   0.574   4.867   2.382 -1.1345  0.3737 -0.1030
19586TIP3    H280174   0.594   4.717   2.389  0.7967  0.6788  3.7137
19587TIP3   OH280175   5.756   1.019   1.289 -0.2200  0.0686  0.0339
19587TIP3    H180176   5.772   0.936   1.244  1.1917  0.4168 -0.1594
19587TIP3    H280177   5.820   1.021   1.360  0.4805  1.4221 -0.5795
19588TIP3   OH280178   5.963   0.346   1.754  0.5525 -0.0939  0.0254
19588TIP3    H180179   5.878   0.391   1.746  0.7389  0.5302  1.2160
19588TIP3    H280180   5.942   0.253   1.751 -0.1860  0.0573  0.3536
19589TIP3   OH280181   2.408   5.304  14.056  0.2718  0.2951 -0.4443
19589TIP3    H180182   2.430   5.248  13.981 -1.0327 -0.2315 -0.4560
19589TIP3    H280183   2.492   5.315  14.102  0.8615 -0.3670 -1.3083
19590TIP3   OH280184   3.359   3.340  16.224  0.1000 -0.4307  0.0719
19590TIP3    H180185   3.418   3.283  16.273 -0.8127 -0.1354  1.5761
19590TIP3    H280186   3.312   3.389  16.291 -0.9782  0.2197 -1.1210
19591TIP3   OH280187   0.747   5.649   2.203  0.0107  0.3205 -0.1224
19591TIP3    H180188   0.829   5.687   2.235  0.3799  0.6595 -1.4153
19591TIP3    H280189   0.709   5.717   2.148 -2.0810  0.8815  1.8468
19592TIP3   OH280190   1.558   2.094  14.588 -0.6900 -0.4333 -0.3948
19592TIP3    H180191   1.541   2.031  14.518  0.5657  0.9847 -2.0404
19592TIP3    H280192   1.523   2.177  14.555 -0.9779  0.0730  1.1032
19593TIP3   OH280193   1.001   3.905   3.552 -0.1606 -0.3040  0.1288
19593TIP3    H180194   1.061   3.978   3.565  1.1340 -1.2643 -0.1964
19593TIP3    H280195   0.915   3.940   3.574  0.4465  1.2507  0.1483
19594TIP3   OH280196   5.842   4.631   3.274 -0.5186  0.3505 -0.5900
19594TIP3    H180197   5.843   4.715   3.229  2.5159  0.1969 -1.0021
19594TIP3    H280198   5.798   4.572   3.212 -1.5065  1.3322 -0.8519
19595TIP3   OH280199   1.234   1.692  13.687 -0.1337  0.4823  0.0501
19595TIP3    H180200   1.265   1.644  13.763  0.7827 -1.8153 -1.6498
19595TIP3    H280201   1.150   1.652  13.666  0.1678  0.2920 -0.8215
19596TIP3   OH280202   2.954   5.489  14.834 -0.1444  0.0966 -0.0396
19596TIP3    H180203   2.935   5.532  14.917  1.0098  1.4985 -0.4548
19596TIP3    H280204   3.007   5.553  14.786  0.7681 -1.4196 -1.1146
19597TIP3   OH280205   2.074   1.662   0.135  0.4977  0.4567 -0.3533
19597TIP3    H180206   1.995   1.626   0.175 -0.0839  1.0930 -0.9020
19597TIP3    H280207   2.072   1.755   0.157  0.7170  0.6124 -0.9594
19598TIP3   OH280208   1.956   5.552   4.435 -0.2499  0.4307  0.5522
19598TIP3    H180209   1.975   5.565   4.342 -0.0192  1.8473  0.7705
19598TIP3    H280210   1.996   5.468   4.456  0.5953  0.5699 -0.4048
19599TIP3   OH280211   5.977   2.228  12.835  0.5656  0.2289 -0.4130
19599TIP3    H180212   5.930   2.150  12.803  0.1463  0.1429  0.3990
19599TIP3    H280213   6.054   2.192  12.880 -0.0735  0.2350  0.7041
19600TIP3   OH280214   3.869   3.162   6.064 -0.2890 -0.5346 -0.8105
19600TIP3    H180215   3.958   3.190   6.083 -1.4246  2.2432  1.1597
19600TIP3    H280216   3.827   3.239   6.024 -2.4051 -0.8583  0.5959
19601TIP3   OH280217   6.615   4.062  15.554 -0.4313  0.1618 -0.7769
19601TIP3    H180218   6.661   3.979  15.542  0.5583  0.4798  0.5728
19601TIP3    H280219   6.645   4.094  15.639 -2.7330  0.6723 -0.0834
19602TIP3   OH280220   5.311   1.848  10.425  0.5351 -0.1209  0.2215
19602TIP3    H180221   5.341   1.764  10.459 -0.9380 -0.8433 -0.2086
19602TIP3    H280222   5.231   1.828  10.377 -1.4646  1.8794  2.4453
19603TIP3   OH280223   5.633   4.465  13.769 -0.2831  0.4531  0.6238
19603TIP3    H180224   5.716   4.431  13.801  0.0970  0.5952 -0.2050
19603TIP3    H280225   5.599   4.396  13.712  0.0644  1.0764 -0.3541
19604TIP3   OH280226   0.195   5.706  16.648  0.1151  0.0815 -0.4034
19604TIP3    H180227   0.273   5.718  16.593 -0.5018  1.1137 -1.0953
19604TIP3    H280228   0.169   5.615  16.634  2.2980 -0.9110  1.3632
19605TIP3   OH280229   2.297   3.850   2.896  0.3873 -0.2555  0.1107
19605TIP3    H180230   2.346   3.871   2.816 -1.6700  0.3092 -1.0919
19605TIP3    H280231   2.267   3.760   2.883  0.7974 -0.4725  0.6642
19606TIP3   OH280232   1.648   6.678  11.066  0.4522  0.0252  0.4740
19606TIP3    H180233   1.561   6.651  11.037  0.9974 -0.6158 -0.6230
19606TIP3    H280234   1.674   6.746  11.005  1.1385 -0.5074  0.1652
19607TIP3   OH280235   0.758   4.627   5.586 -0.1480  0.1363 -0.4098
19607TIP3    H180236   0.814   4.568   5.536 -0.3344  0.6804 -1.2829
19607TIP3    H280237   0.670   4.611   5.552 -1.0125 -2.4385  2.5628
19608TIP3   OH280238   3.072   1.107   2.380 -0.2490 -0.4474 -0.2672
19608TIP3    H180239   3.007   1.156   2.431  0.2860 -0.6657  0.6585
19608TIP3    H280240   3.149   1.165   2.377 -0.0602 -0.6942 -0.2707
19609TIP3   OH280241   4.233   2.646  14.414 -0.1279  0.7870  0.1253
19609TIP3    H180242   4.192   2.563  14.388 -0.1899  1.0661 -0.7102
19609TIP3    H280243   4.321   2.642  14.377 -0.1214  1.0792  0.1082
19610TIP3   OH280244   6.015   4.099  17.134  0.5311 -0.3055 -0.1107
19610TIP3    H180245   6.027   4.045  17.056  0.7329 -2.4807  1.3565
19610TIP3    H280246   6.043   4.044  17.207 -1.0958  1.0901  1.6923
19611TIP3   OH280247   6.517   2.510  12.722 -0.4568 -0.9433 -0.1917
19611TIP3    H180248   6.468   2.505  12.639 -0.4331 -0.5076 -0.2323
19611TIP3    H280249   6.468   2.573  12.775 -0.6842 -1.5066  0.2701
19612TIP3   OH280250   0.552   1.165  15.750  0.2461  0.2055 -0.1915
19612TIP3    H180251   0.515   1.083  15.717  0.7492 -0.2463  0.3303
19612TIP3    H280252   0.509   1.179  15.834 -0.7343  1.1375 -0.8309
19613TIP3   OH280253   5.347   4.903   0.079 -0.4529  0.3324  0.6234
19613TIP3    H180254   5.419   4.908   0.142  0.0393  0.2532  0.0732
19613TIP3    H280255   5.286   4.971   0.107 -1.2302 -1.0039  2.4074
19614TIP3   OH280256   4.149   4.707  12.295  0.2779  0.2209  0.4772
19614TIP3    H180257   4.106   4.632  12.255  0.2600 -1.2108  2.9380
19614TIP3    H280258   4.082   4.776  12.295 -0.2516 -0.2772 -0.3693
19615TIP3   OH280259   3.459   0.923   5.301  0.8049 -0.2735  0.4340
19615TIP3    H180260   3.456   0.831   5.274 -0.7024 -0.5654  1.4547
19615TIP3    H280261   3.412   0.970   5.231 -1.6230 -0.8060  1.6004
19616TIP3   OH280262   2.199   0.488   0.423 -0.0412  0.2813 -0.1971
19616TIP3    H180263   2.220   0.547   0.351  0.7282  1.4435  0.9465
19616TIP3    H280264   2.201   0.401   0.383  1.6833  0.7709 -1.3013
19617TIP3   OH280265   3.474   3.271  11.181 -0.5410  0.2689  0.8510
19617TIP3    H180266   3.455   3.205  11.248  0.2622  0.2475  1.0685
19617TIP3    H280267   3.548   3.235  11.133  0.0792  1.1244  1.1407
19618TIP3   OH280268   1.260   3.082  16.929 -0.1196  0.6846 -0.4313
19618TIP3    H180269   1.222   3.149  16.986  0.6933  0.4151  0.4511
19618TIP3    H280270   1.233   3.107  16.841 -2.6663  0.2866  0.1585
19619TIP3   OH280271   4.222   3.860   4.799  0.1092 -0.1869  1.1661
19619TIP3    H180272   4.311   3.879   4.826  0.0900  0.6239  0.6844
19619TIP3    H280273   4.227   3.774   4.758  0.8632  0.2757  0.2521
19620TIP3   OH280274   3.597   6.430   3.676  0.3050  0.1951 -0.7619
19620TIP3    H180275   3.636   6.367   3.737 -1.7285  1.0034  1.5760
19620TIP3    H280276   3.537   6.377   3.623  1.3712 -0.3765 -1.4169
19621TIP3   OH280277   1.237   3.840  14.295  0.7308  0.0329  0.3225
19621TIP3    H180278   1.237   3.933  14.271 -0.9700 -0.8701 -4.2649
19621TIP3    H280279   1.176   3.834  14.368 -0.4218  2.3757 -0.3435
19622TIP3   OH280280   5.056   2.222   3.818 -0.0265  0.1904 -0.4929
19622TIP3    H180281   4.978   2.180   3.782 -0.6713 -0.4122  1.4818
19622TIP3    H280282   5.128   2.165   3.791 -0.6645 -1.1122  0.4686
19623TIP3   OH280283   2.422   3.325   4.441  0.0398  0.0502 -0.9250
19623TIP3    H180284   2.399   3.232   4.449  1.3254 -0.2341 -0.0598
19623TIP3    H280285   2.511   3.330   4.477 -0.8953  2.0131  1.4424
19624TIP3   OH280286   4.632   3.873   5.397 -0.5833  0.7512 -0.3725
19624TIP3    H180287   4.671   3.866   5.310 -1.1242  0.8650 -0.6299
19624TIP3    H280288   4.621   3.967   5.410 -0.4339  0.7378 -0.1463
19625TIP3   OH280289   0.162   2.423   2.357  0.2175  0.3437 -0.2966
19625TIP3    H180290   0.250   2.415   2.319 -0.2411  0.7828 -1.4942
19625TIP3    H280291   0.106   2.373   2.297 -0.2808 -0.3676  0.7371
19626TIP3   OH280292   3.839   4.046   2.875  0.1041 -0.5877  0.1898
19626TIP3    H180293   3.801   4.098   2.804  1.8960  0.5482 -0.0147
19626TIP3    H280294   3.919   4.009   2.836  1.7124  0.9259  1.8328
19627TIP3   OH280295   2.789   3.211  13.946 -0.5173 -0.1008  0.6505
19627TIP3    H180296   2.864   3.249  13.901 -1.2350  1.3987  0.6676
19627TIP3    H280297   2.719   3.210  13.880 -0.3404 -2.0740  0.4443
19628TIP3   OH280298   6.427   0.243   0.971 -0.0323  0.1144 -0.0707
19628TIP3    H180299   6.372   0.177   1.013 -1.2842 -0.6082 -2.6919
19628TIP3    H280300   6.367   0.315   0.951  1.0421  1.5150  1.4906
19629TIP3   OH280301   1.192   1.425  14.013 -0.0128  0.7200 -0.6464
19629TIP3    H180302   1.163   1.401  14.102  0.5026  1.6489 -0.2125
19629TIP3    H280303   1.224   1.514  14.022  1.4119  0.3227 -1.4565
19630TIP3   OH280304   5.095   4.079  16.284 -0.3798 -0.1277 -0.2365
19630TIP3    H180305   5.020   4.112  16.235 -0.2610 -0.2172 -0.4829
19630TIP3    H280306   5.067   4.080  16.375  0.3325  2.6707  0.0577
19631TIP3   OH280307   3.436   1.734   2.452  0.0430 -0.0286 -0.1425
19631TIP3    H180308   3.438   1.660   2.391  0.2071 -1.3082  1.3680
19631TIP3    H280309   3.353   1.777   2.434 -0.3040 -0.8927 -0.6757
19632TIP3   OH280310   6.122   5.131  16.919  0.1959  0.1344  0.4419
19632TIP3    H180311   6.210   5.102  16.897 -0.4135 -0.9823 -0.6629
19632TIP3    H280312   6.065   5.060  16.890 -1.1792  1.3766 -0.0633
19633TIP3   OH280313   2.253   1.382  16.482  0.0572  0.5454 -0.9338
19633TIP3    H180314   2.211   1.323  16.546 -1.8318  1.7546 -0.9981
19633TIP3    H280315   2.307   1.323  16.428  0.7251 -0.6808  0.9374
19634TIP3   OH280316   2.028   4.591   5.038 -0.1913 -0.2479 -0.2721
19634TIP3    H180317   1.973   4.553   5.107 -0.4453  3.1377  1.6098
19634TIP3    H280318   2.117   4.567   5.063 -0.3900 -0.3031  0.4043
19635TIP3   OH280319   6.762   1.245   2.723  0.2555  0.8673 -0.2011
19635TIP3    H180320   6.681   1.260   2.672  1.4458  0.7791 -2.2377
19635TIP3    H280321   6.828   1.296   2.677  1.8623 -0.9588 -0.0108
19636TIP3   OH280322   0.890   0.312  11.065  0.6450  0.3175 -0.1972
19636TIP3    H180323   0.832   0.354  11.002 -2.6201 -0.5403  2.0095
19636TIP3    H280324   0.929   0.384  11.115  0.1499  0.8631 -0.5905
19637TIP3   OH280325   6.378   1.587  11.305  0.5284 -0.4488  0.2701
19637TIP3    H180326   6.359   1.651  11.236 -1.6729 -0.5935  0.6694
19637TIP3    H280327   6.390   1.640  11.383  1.2963 -0.3846  0.1119
19638TIP3   OH280328   4.274   5.802  13.190  0.1748  0.1345  0.1339
19638TIP3    H180329   4.179   5.794  13.186  0.2951 -0.8682 -1.0621
19638TIP3    H280330   4.301   5.742  13.260  0.1273 -1.7023 -1.3581
19639TIP3   OH280331   0.791   3.135  16.489  0.2246  0.2027 -0.1028
19639TIP3    H180332   0.805   3.186  16.569  0.1654 -0.3392  0.2633
19639TIP3    H280333   0.869   3.079  16.483 -0.9312 -1.6553  1.0496
19640TIP3   OH280334   5.336   1.875   3.573 -0.3139  0.5132 -0.3433
19640TIP3    H180335   5.386   1.937   3.521  0.2126  0.4813  0.1117
19640TIP3    H280336   5.397   1.803   3.590 -0.7826  0.0705 -0.5020
19641TIP3   OH280337   6.246   5.132  14.486  0.3247 -0.0303 -0.1912
19641TIP3    H180338   6.183   5.109  14.418  0.0773  1.2499 -0.4211
19641TIP3    H280339   6.199   5.192  14.543  1.1653  0.5152 -0.0587
19642TIP3   OH280340   6.544   1.616   4.112 -0.5277 -0.0513 -0.0221
19642TIP3    H180341   6.615   1.553   4.118 -1.1327 -0.7369  0.0507
19642TIP3    H280342   6.578   1.685   4.055 -0.4090 -1.2236 -1.4334
19643TIP3   OH280343   5.516   2.782  12.034  0.2502 -0.3081  0.0473
19643TIP3    H180344   5.477   2.694  12.029  0.8472 -0.7163  1.8825
19643TIP3    H280345   5.480   2.820  12.114  0.3162  0.9868 -0.5093
19644TIP3   OH280346   5.204   3.011  12.215 -0.6166 -0.1913 -0.4420
19644TIP3    H180347   5.187   3.028  12.308 -0.3053  2.0392 -0.7359
19644TIP3    H280348   5.227   2.918  12.212 -1.0003 -0.4125  1.6467
19645TIP3   OH280349   6.721   3.973  16.407  0.0901  0.1646  0.6293
19645TIP3    H180350   6.785   3.906  16.382  1.1303  1.0375  0.9266
19645TIP3    H280351   6.764   4.056  16.389 -1.8167  0.8147 -1.3683
19646TIP3   OH280352   3.221   0.617   5.826  0.3748 -0.4660  0.5977
19646TIP3    H180353   3.285   0.636   5.758 -1.0223 -0.4209 -0.7532
19646TIP3    H280354   3.166   0.548   5.789 -0.5695 -0.2640  1.5720
19647TIP3   OH280355   0.043   3.445   1.816 -0.2822  0.2720 -0.2113
19647TIP3    H180356   0.126   3.488   1.794  0.6017 -1.6843 -0.9035
19647TIP3    H280357   0.002   3.426   1.732 -0.9582  0.3142  0.0996
19648TIP3   OH280358   3.071   3.087   3.418 -0.1757  0.9573 -0.6249
19648TIP3    H180359   2.982   3.118   3.399 -0.4425  0.0366 -0.9589
19648TIP3    H280360   3.059   2.994   3.436  0.7394  0.8165 -0.7263
19649TIP3   OH280361   0.484   6.105  11.587  0.3039 -0.6253  0.2009
19649TIP3    H180362   0.498   6.189  11.629  0.0384 -0.4662 -0.0323
19649TIP3    H280363   0.433   6.124  11.509  0.5807 -0.9488 -0.0687
19650TIP3   OH280364   4.220   5.612   2.488  0.2399 -0.4281 -0.1780
19650TIP3    H180365   4.189   5.625   2.577 -1.1280  0.0006 -0.6943
19650TIP3    H280366   4.292   5.675   2.479  1.1828 -1.3143  0.9805
19651TIP3   OH280367   2.070   1.334  14.705  0.3719 -0.5526  0.0752
19651TIP3    H180368   2.002   1.332  14.773  0.5952 -1.5545  0.2829
19651TIP3    H280369   2.129   1.262  14.727  1.2097 -0.0331 -0.4145
19652TIP3   OH280370   3.564   0.859   0.385  0.6694  0.0743  0.3533
19652TIP3    H180371   3.554   0.944   0.344  0.2286 -0.6788 -1.1619
19652TIP3    H280372   3.500   0.803   0.341 -2.2545 -0.1028  4.2300
19653TIP3   OH280373   0.205   6.487  12.025 -0.4799  0.0230 -0.0108
19653TIP3    H180374   0.178   6.500  12.116 -0.4701 -1.3180  0.2034
19653TIP3    H280375   0.285   6.435  12.030 -1.5065 -1.7269 -0.7963
19654TIP3   OH280376   4.518   5.484  14.706  0.1893  0.0426  0.2507
19654TIP3    H180377   4.532   5.412  14.645  1.3664 -0.7499  1.4147
19654TIP3    H280378   4.551   5.452  14.789 -2.1694  0.7489  1.5725
19655TIP3   OH280379   4.491   2.644  15.566  0.3992 -0.1691  0.3603
19655TIP3    H180380   4.554   2.667  15.497  0.7634  1.4852  1.1735
19655TIP3    H280381   4.434   2.721  15.572  0.8730  0.0700  2.4123
19656TIP3   OH280382   4.700   4.127  15.684  0.2819  0.5839  0.1397
19656TIP3    H180383   4.672   4.211  15.721 -0.4049  1.6824 -2.6376
19656TIP3    H280384   4.621   4.088  15.650  0.8135 -0.6234  0.2498
19657TIP3   OH280385   1.355   5.658  15.099 -0.0810 -0.0645  0.3876
19657TIP3    H180386   1.405   5.598  15.043 -0.2563  0.5535 -0.4631
19657TIP3    H280387   1.402   5.741  15.092 -0.9252  0.4001 -0.0381
19658TIP3   OH280388   3.722   3.990  11.625  0.6650 -0.2240 -0.1531
19658TIP3    H180389   3.730   3.915  11.684  0.4366 -1.6272 -1.8146
19658TIP3    H280390   3.812   4.015  11.604  0.7884 -1.7280 -1.5852
19659TIP3   OH280391   2.894   1.914  13.911 -0.5810  0.1405  0.0852
19659TIP3    H180392   2.957   1.918  13.982  0.0371 -0.4903 -0.4051
19659TIP3    H280393   2.852   2.000  13.909  1.5559  1.2324 -0.7351
19660TIP3   OH280394   1.722   4.189   4.737  0.6500  0.0698 -0.1903
19660TIP3    H180395   1.649   4.164   4.681 -0.6819  0.1653  1.4594
19660TIP3    H280396   1.735   4.282   4.720  0.3280  0.0758 -0.3996
19661TIP3   OH280397   1.686   3.078  15.533 -0.3720 -0.1999 -0.4893
19661TIP3    H180398   1.642   3.129  15.465  1.0351  2.7206  0.6316
19661TIP3    H280399   1.778   3.076  15.506  0.1010  0.4899  0.9510
19662TIP3   OH280400   3.408   3.329  12.242 -0.1014 -0.1298  0.2260
19662TIP3    H180401   3.374   3.356  12.328  0.1627 -1.9506  0.9505
19662TIP3    H280402   3.333   3.288  12.199  0.3026 -1.1584  0.4788
19663TIP3   OH280403   1.762   2.406   4.843  0.6318  0.6973  0.4043
19663TIP3    H180404   1.780   2.500   4.845  0.8996  0.6642 -0.2744
19663TIP3    H280405   1.711   2.390   4.922 -0.6581  1.6817 -0.1871
19664TIP3   OH280406   6.341   1.576   0.168 -0.1818  0.2817 -0.2375
19664TIP3    H180407   6.306   1.628   0.240 -1.4379 -1.1930  0.2714
19664TIP3    H280408   6.290   1.603   0.091 -1.4843 -0.7882  0.2081
19665TIP3   OH280409   5.022   1.819  15.668 -0.5631  0.1643 -0.7961
19665TIP3    H180410   5.060   1.803  15.582  0.7411  2.9841 -0.8756
19665TIP3    H280411   5.072   1.762  15.727  0.1941 -0.0542 -1.6242
19666TIP3   OH280412   2.849   4.907   5.528  0.4312 -0.6897  0.6078
19666TIP3    H180413   2.784   4.872   5.589  0.8798 -0.7977  1.0341
19666TIP3    H280414   2.837   5.002   5.533 -1.2370 -0.7543 -1.0486
19667TIP3   OH280415   5.486   6.488  10.383 -0.2712  0.2697 -0.2168
19667TIP3    H180416   5.484   6.564  10.442 -1.0367  0.0008  0.1248
19667TIP3    H280417   5.555   6.508  10.320  0.6630  0.5093  0.8417
19668TIP3   OH280418   4.251   1.452  14.406 -0.3338  0.6509  0.5517
19668TIP3    H180419   4.234   1.383  14.342 -0.8652  1.6864 -0.4517
19668TIP3    H280420   4.345   1.469  14.398 -0.5822  1.4916 -0.7119
19669TIP3   OH280421   4.009   5.980   0.932 -0.6014  0.8490 -0.0452
19669TIP3    H180422   3.952   5.955   1.005  1.0772  3.0918  2.2440
19669TIP3    H280423   4.028   6.073   0.947  1.5605  0.8516 -2.1416
19670TIP3   OH280424   2.781   4.458  13.586 -1.0469 -0.0065 -0.0254
19670TIP3    H180425   2.757   4.434  13.676  0.2814 -1.2360  0.0355
19670TIP3    H280426   2.758   4.550  13.579 -2.5082 -0.2430  1.1064
19671TIP3   OH280427   0.206   5.679   1.344 -0.4248 -0.1206  0.1727
19671TIP3    H180428   0.224   5.742   1.273 -2.6266  2.7272  1.9098
19671TIP3    H280429   0.259   5.602   1.321  1.4869  1.8272 -2.8089
19672TIP3   OH280430   3.731   0.741  16.220 -0.0326 -0.1089 -0.1021
19672TIP3    H180431   3.674   0.800  16.268 -0.5784 -0.9201  0.2691
19672TIP3    H280432   3.812   0.790  16.208 -0.5821  0.8217 -0.0805
19673TIP3   OH280433   4.101   4.208   2.479  0.4137 -0.1931  0.1097
19673TIP3    H180434   4.097   4.283   2.421  0.4820 -0.9505 -0.9106
19673TIP3    H280435   4.191   4.176   2.472  0.8058  0.4770  1.6772
19674TIP3   OH280436   5.793   3.396  15.697  0.1420 -0.1199  0.4612
19674TIP3    H180437   5.815   3.312  15.657  1.0742 -0.7841  2.2459
19674TIP3    H280438   5.738   3.440  15.633  2.0521 -0.8335 -1.8166
19675TIP3   OH280439   3.363   2.646   3.649 -0.3698 -0.1469 -0.1718
19675TIP3    H180440   3.344   2.735   3.677  0.1474 -0.7425  2.4265
19675TIP3    H280441   3.458   2.643   3.639 -0.4620 -0.2038 -1.0414
19676TIP3   OH280442   6.369   5.052  15.307  0.0425  0.0712 -0.0760
19676TIP3    H180443   6.381   5.110  15.232  0.2642 -0.2119 -0.2626
19676TIP3    H280444   6.449   5.062  15.358  0.8436 -1.3196 -0.9767
19677TIP3   OH280445   5.762   4.978   3.418  0.1595  0.0256  0.0108
19677TIP3    H180446   5.769   5.073   3.433  3.3078  0.1540 -1.4891
19677TIP3    H280447   5.776   4.939   3.504 -0.0959  0.8954  0.4605
19678TIP3   OH280448   2.691   3.973   1.204 -0.4419 -0.4238 -0.1689
19678TIP3    H180449   2.628   3.900   1.196  0.1153 -0.9590  0.2352
19678TIP3    H280450   2.726   3.984   1.116  0.7333 -1.8019  0.0957
19679TIP3   OH280451   5.579   1.343   3.265 -0.2517  0.3778 -0.8614
19679TIP3    H180452   5.647   1.299   3.215 -0.7324 -1.6470  0.1592
19679TIP3    H280453   5.498   1.328   3.216 -0.6035 -0.9734  0.0620
19680TIP3   OH280454   5.088   3.022  12.467  0.8078  0.1319 -0.4339
19680TIP3    H180455   5.004   3.003  12.425  1.3762 -2.8010 -0.4641
19680TIP3    H280456   5.067   3.083  12.538 -1.2805 -0.2409 -0.6852
19681TIP3   OH280457   5.570   2.831  16.827  0.0700  0.3824 -0.3964
19681TIP3    H180458   5.663   2.818  16.810 -0.3871 -1.6461 -1.5909
19681TIP3    H280459   5.538   2.878  16.750  0.2013  1.7239  0.3371
19682TIP3   OH280460   5.613   5.888  11.969 -0.4573 -0.0950 -0.4011
19682TIP3    H180461   5.525   5.899  12.007  0.6270  0.0473  2.2754
19682TIP3    H280462   5.609   5.936  11.886 -2.6649  0.6170  0.0410
19683TIP3   OH280463   3.655   2.968  12.391  0.3949 -0.5496 -0.5691
19683TIP3    H180464   3.720   2.902  12.415  1.1790  1.0545  2.2418
19683TIP3    H280465   3.599   2.925  12.326  2.8169 -2.7911 -1.3504
19684TIP3   OH280466   5.008   4.937  15.240  0.0983  0.4644  0.1232
19684TIP3    H180467   4.976   4.850  15.215 -0.2046  0.6580 -0.1661
19684TIP3    H280468   4.956   4.998  15.187  0.5239  0.8077  0.0943
19685TIP3   OH280469   5.085   3.869  14.542  0.2655 -0.6216 -0.0387
19685TIP3    H180470   5.018   3.818  14.588 -1.1440 -0.2253 -1.5609
19685TIP3    H280471   5.035   3.928  14.485  1.8897  1.1433  0.2732
19686TIP3   OH280472   5.069   2.842   4.867 -0.1801  0.5329 -0.0744
19686TIP3    H180473   4.985   2.850   4.823 -0.8560  0.4677  1.1559
19686TIP3    H280474   5.048   2.808   4.954  1.1670  0.0273  0.0932
19687TIP3   OH280475   3.265   2.169  11.092 -0.5441  0.3323  0.1509
19687TIP3    H180476   3.195   2.191  11.030 -2.2465  0.5152  2.0032
19687TIP3    H280477   3.340   2.220  11.063 -1.0940 -0.0134 -2.0456
19688TIP3   OH280478   1.952   6.355   0.306  0.3282 -0.6574 -0.1798
19688TIP3    H180479   1.994   6.387   0.385 -1.2580 -0.7507  0.7538
19688TIP3    H280480   1.968   6.261   0.306  1.0602 -0.5397 -0.4492
19689TIP3   OH280481   4.936   5.994  14.623 -0.0509 -0.4945 -0.5141
19689TIP3    H180482   4.984   6.005  14.705 -1.0458  1.7022 -0.1342
19689TIP3    H280483   4.954   5.904  14.595  2.2645 -0.5087  0.8336
19690TIP3   OH280484   5.199   2.069   2.700  0.0187  0.5424  0.3301
19690TIP3    H180485   5.202   2.011   2.776  0.3833  1.1545  0.7942
19690TIP3    H280486   5.112   2.056   2.663  0.5302 -1.2912 -0.3805
19691TIP3   OH280487   3.511   4.698  13.515 -0.6879 -0.2954  0.7977
19691TIP3    H180488   3.533   4.648  13.593 -0.4844 -1.1858  0.1968
19691TIP3    H280489   3.571   4.665  13.448 -0.3200  1.0065  0.4468
19692TIP3   OH280490   5.415   5.165  14.015  0.0719  0.3086 -0.2963
19692TIP3    H180491   5.405   5.261  14.019  0.5157  0.3258  0.9663
19692TIP3    H280492   5.498   5.152  13.969  0.7815  0.6077  0.8432
19693TIP3   OH280493   5.030   5.073   3.714 -0.5171 -0.6060  0.2877
19693TIP3    H180494   5.066   5.062   3.626 -1.8934  1.6226 -0.6363
19693TIP3    H280495   5.106   5.096   3.768 -0.0986  1.8807 -1.1768
19694TIP3   OH280496   1.699   3.490   3.498  0.1400 -0.3894 -0.0072
19694TIP3    H180497   1.769   3.427   3.479  0.2568 -0.3866  0.3903
19694TIP3    H280498   1.618   3.443   3.477  0.2795 -0.1930 -1.0177
19695TIP3   OH280499   2.924   3.184  16.263  0.2577 -0.6011 -0.0110
19695TIP3    H180500   2.962   3.272  16.263 -1.1182  0.0202  0.6113
19695TIP3    H280501   2.893   3.171  16.173 -0.7432  0.1182  0.2120
19696TIP3   OH280502   1.666   2.897  13.068 -0.0940 -0.0550  0.1429
19696TIP3    H180503   1.626   2.929  13.150 -0.8419 -1.1660  0.2350
19696TIP3    H280504   1.706   2.814  13.093  0.3064 -0.0431 -0.4675
19697TIP3   OH280505   6.542   0.960   3.088 -0.6152  0.3521  0.0335
19697TIP3    H180506   6.586   1.003   3.162 -0.3428  0.8944 -0.4265
19697TIP3    H280507   6.449   0.966   3.108 -0.5628  0.8647  0.1394
19698TIP3   OH280508   2.852   6.687   2.990  0.4130 -0.6395 -0.0451
19698TIP3    H180509   2.784   6.726   2.935  0.2355  0.8890  1.1756
19698TIP3    H280510   2.819   6.600   3.011 -0.2688 -0.6264 -1.0119
19699TIP3   OH280511   2.849   6.231   0.160  0.6151  0.2049 -0.1613
19699TIP3    H180512   2.889   6.307   0.203 -1.3211  0.7577  0.8040
19699TIP3    H280513   2.905   6.157   0.185  2.8442  1.3344 -1.5676
19700TIP3   OH280514   3.320   2.037  11.701  0.0122 -0.0312  0.3118
19700TIP3    H180515   3.372   2.007  11.775  0.4587 -0.6925 -0.2495
19700TIP3    H280516   3.241   1.984  11.703 -0.6290  0.9212  1.1204
19701TIP3   OH280517   2.870   4.330  12.023 -0.3443  0.4327  1.4716
19701TIP3    H180518   2.964   4.340  12.040  0.0173  2.2748 -1.0578
19701TIP3    H280519   2.832   4.415  12.043 -0.6858  1.0871 -1.4253
19702TIP3   OH280520   3.508   2.764  10.549  0.0301  0.1546  0.0288
19702TIP3    H180521   3.553   2.691  10.591  0.6394  0.2754 -0.4007
19702TIP3    H280522   3.566   2.791  10.478 -0.3312  0.8521 -0.0159
19703TIP3   OH280523   4.115   5.246  11.475  0.4983  0.2124  0.5537
19703TIP3    H180524   4.026   5.277  11.454  0.0954  0.1095  2.0016
19703TIP3    H280525   4.119   5.248  11.570  1.3097 -1.8370  0.6249
19704TIP3   OH280526   3.774   0.692  11.477 -0.2833  0.1451 -0.4699
19704TIP3    H180527   3.762   0.631  11.550  0.1018  0.1844 -0.3721
19704TIP3    H280528   3.696   0.747  11.479 -0.6990 -0.4263 -0.6416
19705TIP3   OH280529   6.127   0.045  12.735 -0.0584 -0.0219  0.3601
19705TIP3    H180530   6.108   0.137  12.754  1.0781  0.4770 -0.7515
19705TIP3    H280531   6.082  -0.003  12.804 -4.3594  1.0343 -1.3705
19706TIP3   OH280532   1.385   2.135   4.057 -0.6658  0.0736  0.3031
19706TIP3    H180533   1.456   2.122   4.120  0.1503 -0.4489 -0.6892
19706TIP3    H280534   1.311   2.086   4.093  0.5386 -2.3625 -0.3685
19707TIP3   OH280535   1.798   2.050  13.187  0.0044  0.2607 -0.5751
19707TIP3    H180536   1.885   2.019  13.213 -0.7520  0.3020  2.3054
19707TIP3    H280537   1.757   1.975  13.144 -0.1990 -1.4179  2.3438
19708TIP3   OH280538   1.342   6.543   0.954 -0.5068  0.2970  0.6808
19708TIP3    H180539   1.309   6.570   0.868  0.8574  1.2791  0.4351
19708TIP3    H280540   1.286   6.589   1.017 -2.0545 -1.0734  0.3729
19709TIP3   OH280541   2.378   3.513  11.022 -0.2692  0.3555 -0.0439
19709TIP3    H180542   2.441   3.576  11.059 -0.2758 -0.4722  1.4441
19709TIP3    H280543   2.418   3.428  11.037 -2.2458 -0.3010  2.1016
19710TIP3   OH280544   4.024   0.416  16.082 -0.1286  0.2635  0.0206
19710TIP3    H180545   4.011   0.349  16.015 -0.7646  0.8333 -0.4405
19710TIP3    H280546   3.970   0.388  16.156  1.2940 -0.8524  0.6813
19711TIP3   OH280547   0.891   0.837  16.998 -0.5114  0.9161 -0.4436
19711TIP3    H180548   0.941   0.914  16.970  1.3461 -0.3339 -0.7546
19711TIP3    H280549   0.952   0.788  17.054 -1.4589 -0.5924 -0.6710
19712TIP3   OH280550   1.964   0.706   5.439  0.3363 -0.0743  0.5694
19712TIP3    H180551   2.001   0.784   5.480 -0.2822 -0.1015  1.2086
19712TIP3    H280552   1.896   0.677   5.500  1.3669 -1.8276  0.9432
19713TIP3   OH280553   4.910   1.728  12.811 -1.1039 -0.3311 -0.0826
19713TIP3    H180554   4.847   1.764  12.874 -0.8261 -0.3330  0.1984
19713TIP3    H280555   4.994   1.762  12.841 -0.9811 -0.2712 -0.4999
19714TIP3   OH280556   3.330   0.605   0.786 -0.5117 -0.0294 -0.2554
19714TIP3    H180557   3.317   0.520   0.743  0.6687  0.3885 -1.5389
19714TIP3    H280558   3.361   0.583   0.874 -0.3081 -0.9354 -0.5347
19715TIP3   OH280559   0.231   3.882   2.808  0.3146 -0.4686  0.1506
19715TIP3    H180560   0.179   3.838   2.875 -1.4174 -0.0381 -0.8564
19715TIP3    H280561   0.240   3.972   2.839 -1.6493  0.0893 -0.7745
19716TIP3   OH280562   2.550   6.048  15.856 -0.7032  0.0849 -0.0163
19716TIP3    H180563   2.485   6.060  15.788 -0.2094  1.7313 -0.2339
19716TIP3    H280564   2.506   6.071  15.937 -0.4089  1.2623 -0.1712
19717TIP3   OH280565   0.215   5.123  11.325 -0.2238  0.3005  0.5025
19717TIP3    H180566   0.148   5.153  11.264 -0.0874  0.1296  0.2685
19717TIP3    H280567   0.167   5.071  11.390 -0.4864  1.1633  1.0098
19718TIP3   OH280568   2.287   6.665  10.663  0.1930 -0.1109  0.0488
19718TIP3    H180569   2.234   6.644  10.586  0.2549  1.6229 -0.5023
19718TIP3    H280570   2.376   6.672  10.630  0.3898 -0.4325  0.4978
19719TIP3   OH280571   2.225   3.368   3.037 -0.7942 -0.0722  0.0110
19719TIP3    H180572   2.180   3.293   2.997  0.2205 -0.4294 -0.4720
19719TIP3    H280573   2.280   3.404   2.968 -1.0055  0.9254  0.3375
19720TIP3   OH280574   3.303   0.633  13.466 -0.0518  0.2451 -0.7004
19720TIP3    H180575   3.254   0.707  13.502 -1.3051 -0.4650 -0.8881
19720TIP3    H280576   3.330   0.663  13.378  1.4103  1.2796  0.0498
19721TIP3   OH280577   2.053   6.522   0.122 -0.6696 -0.2733 -0.2699
19721TIP3    H180578   1.966   6.550   0.094 -0.7150  0.0242  0.1634
19721TIP3    H280579   2.036   6.451   0.185 -0.5383 -2.4910 -2.5751
19722TIP3   OH280580   2.307   0.781   6.000 -0.5212 -0.6882 -0.0604
19722TIP3    H180581   2.228   0.737   5.970 -0.6842  1.2471 -2.8250
19722TIP3    H280582   2.280   0.829   6.078 -2.3705  0.5717 -1.3932
19723TIP3   OH280583   1.346   6.771   6.223 -1.0405  0.3836 -0.6907
19723TIP3    H180584   1.266   6.726   6.251 -0.6399  0.0069 -0.1432
19723TIP3    H280585   1.404   6.767   6.299  0.0430 -0.5969 -1.5341
19724TIP3   OH280586   6.311   4.552   1.739 -0.0855  0.0410 -0.2467
19724TIP3    H180587   6.316   4.482   1.803 -0.3610 -0.0028 -0.2736
19724TIP3    H280588   6.276   4.627   1.787 -0.1035  0.0659 -0.2979
19725TIP3   OH280589   3.920   2.510  15.565 -0.0476 -0.0832 -0.4209
19725TIP3    H180590   3.847   2.540  15.511  0.3961  0.6870 -0.6191
19725TIP3    H280591   3.937   2.584  15.624  1.1361  0.1115 -0.9790
19726TIP3   OH280592   6.627   2.904   1.519  0.0189  0.0638  0.0640
19726TIP3    H180593   6.666   2.921   1.604 -0.1267 -1.2004  0.3948
19726TIP3    H280594   6.642   2.985   1.469 -0.6281  1.1432  1.5350
19727TIP3   OH280595   1.218   5.971   6.846  0.6075 -0.1175 -0.5204
19727TIP3    H180596   1.288   6.011   6.897  0.8485  0.1987 -1.0887
19727TIP3    H280597   1.262   5.934   6.769 -0.0223  1.4891 -1.7052
19728TIP3   OH280598   0.895   1.259   2.546  0.0215 -0.1876  0.2398
19728TIP3    H180599   0.977   1.303   2.569  0.7108 -0.4918 -1.4891
19728TIP3    H280600   0.837   1.277   2.620  1.2557  1.0373  0.9602
19729TIP3   OH280601   4.714   1.641   4.263  0.0337  0.1137  0.1458
19729TIP3    H180602   4.657   1.703   4.218 -0.7115 -0.1606  0.7045
19729TIP3    H280603   4.696   1.556   4.223 -1.3142 -0.3033  1.5364
19730TIP3   OH280604   5.595   2.863  15.065 -0.3289 -0.4895  0.4059
19730TIP3    H180605   5.690   2.866  15.079 -0.2058 -2.9364  0.4781
19730TIP3    H280606   5.559   2.917  15.135  0.9485 -0.4651  1.0793
19731TIP3   OH280607   1.200   1.382   5.350 -0.1408  0.0625 -0.2491
19731TIP3    H180608   1.197   1.470   5.313 -3.3292  0.5283  0.7709
19731TIP3    H280609   1.112   1.347   5.335  0.9880 -2.9225 -0.4744
19732TIP3   OH280610   5.695   4.220   6.355 -0.6448 -0.2135  0.5352
19732TIP3    H180611   5.612   4.173   6.352 -0.2012 -1.0031  0.5844
19732TIP3    H280612   5.670   4.312   6.361 -1.5230 -0.2850 -1.4222
19733TIP3   OH280613   1.153   2.766   5.326  0.1348 -0.1443 -0.2179
19733TIP3    H180614   1.175   2.690   5.380 -0.2051  0.9780  1.5817
19733TIP3    H280615   1.236   2.794   5.289  1.0915  1.1919  2.6694
19734TIP3   OH280616   5.541   2.000   4.862 -0.1259  0.0520 -0.4420
19734TIP3    H180617   5.460   2.027   4.819  0.5514  1.2396 -1.0357
19734TIP3    H280618   5.593   2.080   4.867 -0.0301 -0.0620  2.3528
19735TIP3   OH280619   1.540   3.668  14.717 -0.2596  0.4060 -0.1464
19735TIP3    H180620   1.473   3.704  14.774  0.3007 -0.1454  0.8946
19735TIP3    H280621   1.623   3.697  14.756  0.1918 -1.4704  0.4013
19736TIP3   OH280622   1.812   6.048  16.640  0.3677 -0.2756  0.4424
19736TIP3    H180623   1.792   6.022  16.730  2.7514  0.9416  1.4039
19736TIP3    H280624   1.762   6.128  16.627 -1.6851 -1.5870 -0.1482
19737TIP3   OH280625   3.681   6.058  16.804 -0.0513 -0.0752  0.1018
19737TIP3    H180626   3.670   5.976  16.757  0.9432  0.3376 -0.8934
19737TIP3    H280627   3.730   6.035  16.883 -1.1014 -0.6583  0.6027
19738TIP3   OH280628   4.978   1.379   4.149 -0.2169 -0.2897  0.1361
19738TIP3    H180629   4.999   1.349   4.061  0.1321  0.5740 -0.0891
19738TIP3    H280630   5.051   1.436   4.174 -0.5664 -0.1049  0.7745
19739TIP3   OH280631   2.928   1.513   3.024 -0.2217 -0.3328  0.2265
19739TIP3    H180632   2.994   1.481   3.086 -0.7855  0.6604  1.3771
19739TIP3    H280633   2.891   1.433   2.986 -1.1457 -1.1008  2.5541
19740TIP3   OH280634   1.517   3.686   0.489  0.5610  0.0804  0.2889
19740TIP3    H180635   1.510   3.623   0.417 -0.5910  0.0786  0.3798
19740TIP3    H280636   1.518   3.632   0.568  1.2665  0.1104  0.3106
19741TIP3   OH280637   4.100   0.154  12.176 -0.6663  0.4899  0.7504
19741TIP3    H180638   4.052   0.224  12.133  1.2409  1.5366  0.2580
19741TIP3    H280639   4.115   0.089  12.108  1.9898  1.9591 -0.2013
19742TIP3   OH280640   5.411   0.903   2.594 -0.3029 -0.4417 -0.3070
19742TIP3    H180641   5.427   0.872   2.684  2.3755  0.0748 -0.5081
19742TIP3    H280642   5.375   0.991   2.605  1.9087  0.4453  0.3453
19743TIP3   OH280643   5.190   4.484   1.982 -0.1969 -0.1286  0.0516
19743TIP3    H180644   5.251   4.495   2.055  0.2406  0.7758 -0.4436
19743TIP3    H280645   5.238   4.431   1.918 -0.2640 -0.1780  0.0409
19744TIP3   OH280646   1.026   5.593  12.378  0.6150 -0.7414  0.5709
19744TIP3    H180647   1.091   5.655  12.344 -1.0303  0.5464 -0.4406
19744TIP3    H280648   1.041   5.512  12.329  0.1726  0.1954 -1.2152
19745TIP3   OH280649   1.309   1.367  13.591  0.3189  0.3908 -0.3259
19745TIP3    H180650   1.256   1.416  13.654  1.7438  1.4885  0.0579
19745TIP3    H280651   1.256   1.289  13.572 -0.8477  0.7962  1.0230
19746TIP3   OH280652   2.401   5.912  12.915  0.4383  0.4326 -0.4882
19746TIP3    H180653   2.336   5.976  12.887  0.9428 -0.2593 -3.6535
19746TIP3    H280654   2.353   5.830  12.922  0.2698  0.6387  1.1214
19747TIP3   OH280655   2.800   2.642   4.150  0.6822  0.1071 -0.5531
19747TIP3    H180656   2.736   2.690   4.202 -0.6021 -0.0690 -1.9124
19747TIP3    H280657   2.847   2.589   4.213 -0.8178 -0.0878  0.4395
19748TIP3   OH280658   0.794   2.292   6.256  0.5618  0.5089 -0.0984
19748TIP3    H180659   0.820   2.298   6.348 -0.0370  0.4599  0.0790
19748TIP3    H280660   0.711   2.244   6.257  1.2219 -0.6956 -0.7958
19749TIP3   OH280661   6.218   5.489  15.900  0.5308  0.3111 -0.1874
19749TIP3    H180662   6.240   5.445  15.982 -0.7950  0.4747  0.2756
19749TIP3    H280663   6.295   5.542  15.880  1.4837 -0.8882  0.1359
19750TIP3   OH280664   4.401   1.886  13.241 -0.3803 -0.0967 -0.0429
19750TIP3    H180665   4.427   1.933  13.162  0.8671  0.4557  0.6629
19750TIP3    H280666   4.315   1.921  13.263 -0.0262  0.9375 -0.2594
19751TIP3   OH280667   6.174   1.028   1.103 -0.0976 -0.1025  0.5489
19751TIP3    H180668   6.083   1.026   1.132 -0.3113  3.0055  0.4572
19751TIP3    H280669   6.172   0.994   1.013 -1.5054  1.4188 -0.0434
19752TIP3   OH280670   5.943   3.992  12.708  0.1137  0.2557 -0.8497
19752TIP3    H180671   5.988   4.000  12.624  0.5358 -0.3673 -0.6859
19752TIP3    H280672   5.971   4.070  12.757  2.6991 -1.1010  0.0201
19753TIP3   OH280673   2.316   5.053  11.430  0.2520  0.0899  0.1603
19753TIP3    H180674   2.321   5.140  11.470  0.6121 -0.7643  2.0827
19753TIP3    H280675   2.229   5.021  11.454  0.6230 -0.5965  0.6188
19754TIP3   OH280676   0.929   5.485  13.221 -0.4319 -0.5546  0.1112
19754TIP3    H180677   0.875   5.521  13.292  0.7106 -1.0194  1.2458
19754TIP3    H280678   1.018   5.488  13.254  0.2309 -0.1536 -1.5961
19755TIP3   OH280679   3.256   0.039  13.815  0.0851 -0.4389  0.1755
19755TIP3    H180680   3.228  -0.052  13.810  0.1763 -0.4109 -3.2978
19755TIP3    H280681   3.175   0.090  13.816  0.0417 -0.5129  0.6675
19756TIP3   OH280682   4.491   1.266   1.646 -0.1792  1.2879 -0.8786
19756TIP3    H180683   4.525   1.177   1.641  2.2192  2.0136  0.7590
19756TIP3    H280684   4.432   1.264   1.722  0.8192  1.3410 -0.0833
19757TIP3   OH280685   4.608   6.405  14.697  0.4406  0.4068 -0.4641
19757TIP3    H180686   4.513   6.395  14.702  0.5870 -1.3199 -0.7638
19757TIP3    H280687   4.624   6.446  14.612 -0.0283  0.8792 -0.3283
19758TIP3   OH280688   2.639   4.580  12.809 -0.2628  0.2167 -0.5316
19758TIP3    H180689   2.721   4.534  12.794  0.0783  0.6081  0.1086
19758TIP3    H280690   2.662   4.673  12.807 -0.2129  0.3417  2.0231
19759TIP3   OH280691   0.649   3.669   0.154  0.2982 -0.2396 -0.2250
19759TIP3    H180692   0.701   3.734   0.200 -0.9725  0.2050  0.6543
19759TIP3    H280693   0.564   3.712   0.140  0.3555 -0.6746 -2.2456
19760TIP3   OH280694   2.180   1.178   1.380 -0.2536 -0.0402  0.1686
19760TIP3    H180695   2.189   1.168   1.285 -2.2742 -0.0471 -0.0533
19760TIP3    H280696   2.265   1.151   1.414 -0.1813 -2.2625 -1.4906
19761TIP3   OH280697   6.163   1.348  14.146  0.5184  0.0631  0.1945
19761TIP3    H180698   6.171   1.280  14.213  2.2813 -0.9070 -0.9102
19761TIP3    H280699   6.252   1.379  14.132  0.4981 -0.8639 -2.7152
19762TIP3   OH280700   5.491   5.472  12.709 -0.2551  0.2011  0.2634
19762TIP3    H180701   5.564   5.416  12.684  0.3048  1.2810 -0.5815
19762TIP3    H280702   5.507   5.494  12.801  1.9115  2.4858 -0.5650
19763TIP3   OH280703   2.126   2.324  11.909 -0.0104  0.0757  0.4034
19763TIP3    H180704   2.191   2.319  11.839  0.6433 -0.4747  1.0296
19763TIP3    H280705   2.163   2.387  11.971 -0.6880  0.7273  0.1576
19764TIP3   OH280706   6.499   2.980   1.962  0.2722 -0.7264  0.1740
19764TIP3    H180707   6.438   3.034   1.911 -0.4702 -0.6769  1.0764
19764TIP3    H280708   6.585   2.999   1.925 -0.4033 -2.3447 -2.5373
19765TIP3   OH280709   2.982   1.947   3.805  0.0252 -0.5560  0.0437
19765TIP3    H180710   2.925   2.023   3.801  1.5702  0.6722  0.0749
19765TIP3    H280711   2.927   1.876   3.838 -1.3829  0.6244  0.2986
19766TIP3   OH280712   0.878   6.199   5.422 -0.4283 -0.8963  0.2798
19766TIP3    H180713   0.941   6.259   5.460  0.4701 -2.3849  1.2239
19766TIP3    H280714   0.797   6.250   5.415  1.0172  1.3603 -1.8025
19767TIP3   OH280715   1.911   5.591  11.229 -0.1045 -0.0442 -0.1588
19767TIP3    H180716   1.924   5.599  11.134 -0.7273 -0.8285 -0.3246
19767TIP3    H280717   1.842   5.525  11.238 -0.5726  0.5540  0.8216
19768TIP3   OH280718   6.589   4.389   4.269  0.2853  0.3813  0.0929
19768TIP3    H180719   6.557   4.381   4.179  0.8208 -3.0450  0.0919
19768TIP3    H280720   6.525   4.445   4.312 -0.7641  0.9415 -2.0492
19769TIP3   OH280721   6.509   1.915   5.807  0.4382 -0.2179  0.1261
19769TIP3    H180722   6.509   1.977   5.880 -2.6995  0.4511 -0.2632
19769TIP3    H280723   6.448   1.847   5.834  1.5540 -1.5837 -0.6946
19770TIP3   OH280724   3.693   4.721   1.374  0.3330  0.0281 -0.4232
19770TIP3    H180725   3.668   4.631   1.394  2.1769 -0.5122 -0.4190
19770TIP3    H280726   3.613   4.772   1.391  0.4585 -0.9141  4.0775
19771TIP3   OH280727   4.664   4.809  10.677  0.0777 -0.2186  0.3685
19771TIP3    H180728   4.645   4.732  10.623  0.6871  0.9454 -1.5864
19771TIP3    H280729   4.757   4.826  10.663 -0.6518  2.6935 -1.8116
19772TIP3   OH280730   5.616   4.850   4.007  0.0345  0.2339  0.1962
19772TIP3    H180731   5.605   4.762   4.042 -0.3546  0.3561  0.3945
19772TIP3    H280732   5.588   4.908   4.078  0.0753  0.5113 -0.0089
19773TIP3   OH280733   6.428   3.293  16.207  0.2420  0.6052 -0.5100
19773TIP3    H180734   6.518   3.275  16.234  0.4968  0.4172 -1.4376
19773TIP3    H280735   6.404   3.373  16.253  0.4198 -0.0469  0.7604
19774TIP3   OH280736   4.294   1.646  15.184  0.3920  0.0475 -0.6693
19774TIP3    H180737   4.263   1.605  15.103 -1.8562  1.4046 -0.5490
19774TIP3    H280738   4.264   1.587  15.253  0.4265  0.0079 -0.6875
19775TIP3   OH280739   3.850   0.382   1.317 -0.6232 -1.1455  0.2343
19775TIP3    H180740   3.770   0.435   1.316  0.0592 -0.0944 -0.8966
19775TIP3    H280741   3.889   0.398   1.402 -0.2650  0.4361 -0.2073
19776TIP3   OH280742   6.266   0.521  14.825  0.4561 -0.1832 -0.5092
19776TIP3    H180743   6.176   0.494  14.847  0.5422 -1.5104 -1.6963
19776TIP3    H280744   6.321   0.451  14.860  1.0362  0.5345  0.0470
19777TIP3   OH280745   2.736   4.129   5.039  0.0447  0.0331  0.2890
19777TIP3    H180746   2.776   4.054   5.082 -1.7703 -1.0016  0.2525
19777TIP3    H280747   2.689   4.092   4.964  0.4462  1.4149 -0.6890
19778TIP3   OH280748   1.258   0.159  13.124 -0.5387  0.2548  0.2054
19778TIP3    H180749   1.255   0.246  13.163 -0.6316 -0.7835  2.7201
19778TIP3    H280750   1.167   0.132  13.116 -0.4770 -0.0021  0.3602
19779TIP3   OH280751   5.477   3.862   4.460 -0.9219 -0.2225 -0.1689
19779TIP3    H180752   5.480   3.806   4.382 -2.0758  0.2263 -0.5482
19779TIP3    H280753   5.566   3.897   4.467  0.1140 -2.7531  0.5913
19780TIP3   OH280754   4.606   2.345   4.367 -0.4982  0.4827 -0.5510
19780TIP3    H180755   4.528   2.292   4.383 -0.3863  0.5655  0.3661
19780TIP3    H280756   4.603   2.413   4.434  0.2569  0.5985 -0.6217
19781TIP3   OH280757   2.592   5.586  13.702  0.4136 -0.2441 -0.0446
19781TIP3    H180758   2.587   5.645  13.777 -1.9917 -0.0747 -0.2450
19781TIP3    H280759   2.529   5.517  13.722  1.9855 -1.9103 -0.5573
19782TIP3   OH280760   6.326   6.165  11.107  0.2977 -0.0155 -0.4175
19782TIP3    H180761   6.316   6.169  11.012  1.7321 -2.5945 -0.7675
19782TIP3    H280762   6.419   6.146  11.121  0.1413  0.3772  1.5252
19783TIP3   OH280763   1.184   4.893   2.233  0.0758 -0.5571 -0.3486
19783TIP3    H180764   1.159   4.881   2.325 -1.3011  0.3149 -0.5896
19783TIP3    H280765   1.190   4.803   2.199  0.0113 -0.8703  0.4360
19784TIP3   OH280766   2.526   3.576   4.262  0.4499  0.0089  0.7718
19784TIP3    H180767   2.518   3.648   4.199 -0.3849  0.2095  1.0823
19784TIP3    H280768   2.508   3.617   4.347 -4.4876 -1.2021  0.6424
19785TIP3   OH280769   1.273   0.533  15.606 -0.6989 -0.0305  0.5789
19785TIP3    H180770   1.282   0.610  15.550  1.9834 -0.2440  0.6001
19785TIP3    H280771   1.196   0.487  15.571 -0.2639  0.8321 -1.7140
19786TIP3   OH280772   3.440   1.142  16.471 -0.2098 -0.0543  0.5497
19786TIP3    H180773   3.445   1.053  16.508 -3.6129 -0.9028 -0.7121
19786TIP3    H280774   3.497   1.138  16.394 -0.4484 -1.2125  0.4057
19787TIP3   OH280775   1.729   2.193  15.152 -0.1754  0.1077 -0.0260
19787TIP3    H180776   1.736   2.245  15.071 -0.0268  1.8973  1.0872
19787TIP3    H280777   1.653   2.136  15.137  0.2014 -0.0378 -1.6378
19788TIP3   OH280778   1.461   5.823   2.199  0.1134  0.3423  0.4025
19788TIP3    H180779   1.513   5.870   2.265  0.3098 -0.0789  0.5548
19788TIP3    H280780   1.511   5.742   2.183  0.2169  0.5733 -0.4852
19789TIP3   OH280781   3.555   0.385  14.074 -0.4864  0.2458  0.0017
19789TIP3    H180782   3.628   0.339  14.033 -0.1201  1.1547 -0.3949
19789TIP3    H280783   3.506   0.422  14.001 -0.8703  0.3397  0.3044
19790TIP3   OH280784   3.144   0.469  14.802  0.3271  0.3099  0.1617
19790TIP3    H180785   3.072   0.519  14.762  0.3711 -1.1998 -1.9739
19790TIP3    H280786   3.113   0.378  14.801  1.4100 -0.0901  1.2404
19791TIP3   OH280787   2.256   6.162   6.518  0.4338  0.5083  0.0328
19791TIP3    H180788   2.225   6.251   6.497  0.2935  0.2528 -0.8861
19791TIP3    H280789   2.210   6.139   6.599  1.7075  1.8979  1.2198
19792TIP3   OH280790   0.516   1.697   2.078 -0.0501 -0.0467  0.6260
19792TIP3    H180791   0.450   1.766   2.087 -0.6189 -0.6436  1.2024
19792TIP3    H280792   0.591   1.729   2.128 -0.5302 -0.0980  1.3944
19793TIP3   OH280793   4.235   1.920   5.995  0.2603  0.3238  0.0574
19793TIP3    H180794   4.202   1.849   6.050  0.4306  0.1138 -0.1079
19793TIP3    H280795   4.330   1.913   6.002  0.3539 -0.9425 -1.7844
19794TIP3   OH280796   3.287   4.530  12.723 -0.2539  0.6653 -0.4750
19794TIP3    H180797   3.228   4.455  12.714  0.4618  0.1287 -0.7962
19794TIP3    H280798   3.268   4.564  12.810 -0.8939  0.3827 -0.4925
19795TIP3   OH280799   3.354   0.039  11.833 -0.1194 -0.4313 -0.1571
19795TIP3    H180800   3.265   0.028  11.866 -0.3989  0.8543 -0.4159
19795TIP3    H280801   3.410   0.035  11.910 -0.4070 -1.1494  0.0173
19796TIP3   OH280802   3.248   5.715  15.016  0.0951 -0.0468 -0.3265
19796TIP3    H180803   3.228   5.748  15.103 -0.3048  0.0018 -0.4331
19796TIP3    H280804   3.248   5.620  15.026  0.3074 -0.0339 -0.2173
19797TIP3   OH280805   0.996   4.569  11.243  0.3616 -0.4468 -0.2879
19797TIP3    H180806   0.923   4.508  11.236  0.4265 -0.3791 -2.0777
19797TIP3    H280807   0.996   4.616  11.160  1.4445  0.7156  0.3259
19798TIP3   OH280808   0.605   3.295  11.831 -0.4055 -0.4214 -0.0808
19798TIP3    H180809   0.625   3.253  11.914 -1.9237 -0.6826  0.1851
19798TIP3    H280810   0.580   3.384  11.855  3.5484  1.0879 -0.6944
19799TIP3   OH280811   1.788   2.443  11.508 -0.1762  0.1011 -0.0569
19799TIP3    H180812   1.838   2.495  11.571 -0.1600  0.8696 -0.6840
19799TIP3    H280813   1.806   2.485  11.423  0.9821 -1.7847 -0.8065
19800TIP3   OH280814   0.527   1.490   1.911 -0.4122  0.0052 -0.5512
19800TIP3    H180815   0.483   1.421   1.960  0.2643 -0.1030 -0.0722
19800TIP3    H280816   0.529   1.565   1.971  0.9357 -0.3081 -0.1458
19801TIP3   OH280817   0.790   1.223  15.357 -0.3880  0.4658 -0.4017
19801TIP3    H180818   0.715   1.257  15.406 -1.1676  0.3152 -1.4612
19801TIP3    H280819   0.848   1.187  15.424 -1.3526  0.4003  0.4194
19802TIP3   OH280820   3.939   0.899   4.527  0.4120 -0.5297  0.2859
19802TIP3    H180821   3.963   0.971   4.584  1.0829 -0.4817 -0.0399
19802TIP3    H280822   3.861   0.929   4.481  0.2358 -0.3223  0.7197
19803TIP3   OH280823   2.269   5.299  14.492  0.0550  0.2410  0.2436
19803TIP3    H180824   2.240   5.354  14.419 -1.4181 -1.3700 -0.4438
19803TIP3    H280825   2.347   5.254  14.459  0.1179  0.4422  0.1128
19804TIP3   OH280826   1.305   3.189  14.712 -0.8431  0.5418 -0.2225
19804TIP3    H180827   1.235   3.246  14.743 -0.6528  1.1023 -0.8028
19804TIP3    H280828   1.357   3.245  14.654  0.5441  0.3562  0.8112
19805TIP3   OH280829   5.730   1.706  16.145 -0.1164  0.0556  0.1869
19805TIP3    H180830   5.692   1.780  16.098  1.0867  1.0333  0.6953
19805TIP3    H280831   5.654   1.657  16.177 -0.9397  0.9848 -0.2680
19806TIP3   OH280832   3.193   5.541   3.491 -0.4290 -0.0568  0.2895
19806TIP3    H180833   3.128   5.592   3.443  0.4117  1.0411  0.2787
19806TIP3    H280834   3.176   5.562   3.583 -1.5934 -1.6221  0.4707
19807TIP3   OH280835   5.010   1.032   4.186 -0.2597 -0.2077  0.4117
19807TIP3    H180836   5.039   1.045   4.276  2.0421  2.4463 -0.5991
19807TIP3    H280837   4.979   1.117   4.157 -1.9579 -1.2380 -1.0559
19808TIP3   OH280838   5.674   2.194  11.788 -0.5762  0.0440 -0.5137
19808TIP3    H180839   5.714   2.162  11.869 -1.3382  0.7277  0.1512
19808TIP3    H280840   5.683   2.121  11.727  2.8306  0.6008 -0.8432
19809TIP3   OH280841   6.549   6.542  16.842 -0.0109 -0.2239 -0.1867
19809TIP3    H180842   6.542   6.451  16.812  0.5115 -0.0080 -0.9717
19809TIP3    H280843   6.596   6.587  16.772  0.8680  0.3833  0.7704
19810TIP3   OH280844   5.248   2.676   0.460  0.4123  0.2174  0.2785
19810TIP3    H180845   5.259   2.730   0.539 -1.1050  1.3796 -0.2472
19810TIP3    H280846   5.239   2.740   0.389  1.7957 -0.8052 -0.8765
19811TIP3   OH280847   2.383   3.704  16.283  0.4623  0.1329  0.2414
19811TIP3    H180848   2.340   3.785  16.255  1.0027  0.1507 -0.5810
19811TIP3    H280849   2.408   3.721  16.373  1.8386  1.4610 -0.3347
19812TIP3   OH280850   0.502   3.557  15.405 -0.1525  0.0604 -0.2059
19812TIP3    H180851   0.479   3.464  15.409 -0.2310 -0.0715 -2.3890
19812TIP3    H280852   0.561   3.571  15.479 -1.3741 -1.3292  1.0988
19813TIP3   OH280853   3.473   3.536  14.387  0.0139  0.5107 -0.4578
19813TIP3    H180854   3.532   3.595  14.434 -2.3399  1.9214  0.9322
19813TIP3    H280855   3.491   3.449  14.424  0.5469  1.0538  0.6032
19814TIP3   OH280856   4.980   2.027  15.933  0.2569  0.0476  0.2728
19814TIP3    H180857   4.962   1.933  15.943  0.5323 -0.2981 -2.0453
19814TIP3    H280858   4.957   2.064  16.018 -0.4922 -2.0128  1.0453
19815TIP3   OH280859   0.602   5.328  11.516 -0.6800 -0.4151  0.0141
19815TIP3    H180860   0.645   5.405  11.555  0.0183 -0.0709 -1.3632
19815TIP3    H280861   0.517   5.325  11.558 -0.2741  0.4274  0.9481
19816TIP3   OH280862   5.057   4.498   2.531  0.7925 -0.2758 -0.0022
19816TIP3    H180863   5.024   4.469   2.616 -1.5213  0.2818 -0.6457
19816TIP3    H280864   5.056   4.419   2.477 -3.4922  0.2918 -1.1370
19817TIP3   OH280865   6.533   6.575  16.187 -0.3956  0.0358 -0.4221
19817TIP3    H180866   6.571   6.508  16.245 -1.4175  0.2206  0.4824
19817TIP3    H280867   6.599   6.644  16.184 -0.2077 -0.1075  0.2954
19818TIP3   OH280868   4.485   2.922   0.024 -1.1064 -0.1252 -0.1635
19818TIP3    H180869   4.434   2.849   0.059 -2.2374  0.2674 -0.9239
19818TIP3    H280870   4.469   2.919  -0.071 -2.0206  1.6980 -0.1065
19819TIP3   OH280871   0.798   1.396  16.793 -0.2342 -0.2070 -0.2093
19819TIP3    H180872   0.727   1.416  16.854  0.6295 -0.9469  1.0681
19819TIP3    H280873   0.823   1.481  16.757 -1.2558  0.1457 -0.1210
19820TIP3   OH280874   3.314   2.245  12.870  1.3064  0.1424 -0.4521
19820TIP3    H180875   3.352   2.189  12.803  1.8169 -1.3716  1.0438
19820TIP3    H280876   3.238   2.196  12.903  0.0789  1.5900 -1.0008
19821TIP3   OH280877   5.132   3.522  13.457  0.3006 -0.5014 -0.0361
19821TIP3    H180878   5.176   3.588  13.403 -0.5302  0.4421  0.4069
19821TIP3    H280879   5.049   3.562  13.481 -0.0683 -1.5814  0.5435
19822TIP3   OH280880   5.598   4.520   2.070 -0.5330  0.3063  0.3051
19822TIP3    H180881   5.633   4.438   2.105 -0.7260 -0.6638 -1.6390
19822TIP3    H280882   5.667   4.585   2.088 -1.2742  0.2836  3.8012
19823TIP3   OH280883   2.790   5.309  12.170 -0.2585  0.5390 -0.1639
19823TIP3    H180884   2.743   5.367  12.110  0.0478  0.6552 -0.2966
19823TIP3    H280885   2.866   5.361  12.198 -0.5283  0.5742  0.5131
19824TIP3   OH280886   1.278   1.270   0.793  0.1452  0.0338  0.2456
19824TIP3    H180887   1.352   1.325   0.769  0.1149  1.5558  3.2369
19824TIP3    H280888   1.201   1.325   0.781 -0.0777 -0.0146  1.3668
19825TIP3   OH280889   4.492   2.189  16.928  0.0465 -0.4131  0.0524
19825TIP3    H180890   4.469   2.119  16.866  1.0736 -0.6654 -0.0605
19825TIP3    H280891   4.559   2.150  16.984 -2.7191 -1.1588  3.1775
19826TIP3   OH280892   2.243   6.657   0.287  0.7718  0.0756  0.1040
19826TIP3    H180893   2.302   6.679   0.215  0.5754 -0.0496 -0.0974
19826TIP3    H280894   2.159   6.640   0.244  0.6652 -0.0372  0.3586
19827TIP3   OH280895   1.693   5.111   0.015  0.6980 -0.4081 -0.0831
19827TIP3    H180896   1.660   5.131  -0.073 -1.2989 -2.6745  0.0515
19827TIP3    H280897   1.724   5.020   0.009  3.4023  0.3418  0.8690
19828TIP3   OH280898   3.878   0.583   0.540  0.1235 -0.2545  0.1115
19828TIP3    H180899   3.872   0.495   0.502 -2.2778  0.2132 -0.8294
19828TIP3    H280900   3.800   0.591   0.594  0.4222  1.2082  0.3742
19829TIP3   OH280901   6.607   3.606   3.949 -0.0638  0.1751  0.5392
19829TIP3    H180902   6.562   3.527   3.919  1.0526 -0.5679  0.7520
19829TIP3    H280903   6.561   3.677   3.906  1.4560 -0.8090 -3.1091
19830TIP3   OH280904   3.185   4.950   3.841  0.2793 -0.2679 -0.2007
19830TIP3    H180905   3.183   4.998   3.923  0.8631 -0.7772  0.1212
19830TIP3    H280906   3.278   4.931   3.826  0.4833  1.9151 -2.2272
19831TIP3   OH280907   3.802   3.820   5.864 -0.7051 -0.2622 -0.1681
19831TIP3    H180908   3.886   3.830   5.909 -0.6798 -0.1017 -0.2505
19831TIP3    H280909   3.812   3.740   5.813 -1.1959 -1.1882  1.1192
19832TIP3   OH280910   6.613   5.294  12.854 -0.4387 -0.1614 -0.0681
19832TIP3    H180911   6.521   5.283  12.830 -0.6318 -0.5750  0.8296
19832TIP3    H280912   6.656   5.213  12.825 -0.9054 -1.2118  2.0102
19833TIP3   OH280913   1.308   5.550  14.091 -0.2196 -0.4453  0.2798
19833TIP3    H180914   1.299   5.468  14.139  1.2159  0.4229  2.1647
19833TIP3    H280915   1.370   5.529  14.021  0.4362 -0.8987  0.9762
19834TIP3   OH280916   2.757   3.611   5.741  0.2703  0.1668  0.3204
19834TIP3    H180917   2.744   3.552   5.816 -0.8700  0.5773  0.4643
19834TIP3    H280918   2.748   3.699   5.778  0.8413  0.4021 -0.0982
19835TIP3   OH280919   6.282   0.981   3.178 -0.3865 -0.1265 -0.0728
19835TIP3    H180920   6.277   0.989   3.274  1.3163  1.2091 -0.0491
19835TIP3    H280921   6.193   0.956   3.152 -1.1825  0.5570  1.7761
19836TIP3   OH280922   3.888   4.529  13.402 -0.3615 -0.3503  0.1688
19836TIP3    H180923   3.822   4.529  13.472  0.7470 -0.7931  1.2527
19836TIP3    H280924   3.955   4.590  13.433  0.3878 -0.9338 -0.2755
19837TIP3   OH280925   6.208   1.732   0.750  0.0115 -0.3059 -0.1966
19837TIP3    H180926   6.145   1.674   0.793  0.6278 -1.1704 -0.4238
19837TIP3    H280927   6.227   1.689   0.666 -0.9330  1.1963 -1.2178
19838TIP3   OH280928   0.089   1.767   6.447  0.0972 -0.1211  0.0870
19838TIP3    H180929   0.055   1.856   6.459  1.3664  0.6536 -1.6167
19838TIP3    H280930   0.172   1.767   6.495  0.1367 -0.3583  0.0193
19839TIP3   OH280931   2.185   2.325  14.674 -0.0768  0.0930 -0.2444
19839TIP3    H180932   2.131   2.352  14.600  1.1218  1.5556 -0.6216
19839TIP3    H280933   2.187   2.401  14.732  0.7088 -0.3069  0.2681
19840TIP3   OH280934   6.667   3.952  16.887 -0.2527 -0.3175 -0.1459
19840TIP3    H180935   6.661   3.870  16.838 -0.1822 -1.7184  2.0367
19840TIP3    H280936   6.579   3.968  16.920 -0.0887  0.0251  0.1461
19841TIP3   OH280937   4.595   0.008   0.996 -0.2360 -0.0656 -0.3484
19841TIP3    H180938   4.500   0.016   0.989 -0.8503 -2.4693  3.0399
19841TIP3    H280939   4.617   0.051   1.079  1.6116  0.1415 -0.8925
19842TIP3   OH280940   5.095   3.155   0.726  0.5036 -0.1021  0.1459
19842TIP3    H180941   5.076   3.110   0.809  0.2862 -1.7511 -0.7708
19842TIP3    H280942   5.183   3.190   0.737  0.6661 -0.7274  0.8994
19843TIP3   OH280943   4.553   0.886  11.635  0.5574  0.2276 -0.3723
19843TIP3    H180944   4.540   0.825  11.708  0.4171 -0.2735 -0.8100
19843TIP3    H280945   4.508   0.845  11.562  1.8591  0.0475 -1.1012
19844TIP3   OH280946   1.908   5.626  13.793  0.1226 -0.6316 -0.4793
19844TIP3    H180947   1.835   5.661  13.742 -0.1584  1.8107  1.3949
19844TIP3    H280948   1.980   5.687  13.777  1.3591 -2.2200 -1.2099
19845TIP3   OH280949   1.064   5.788   1.530 -0.1876  0.3671  0.3113
19845TIP3    H180950   1.077   5.850   1.601 -1.4667 -0.0698  0.9563
19845TIP3    H280951   0.973   5.759   1.540  0.3346 -1.5106 -0.0266
19846TIP3   OH280952   4.455   6.715  16.201  0.4027  0.2847 -0.2688
19846TIP3    H180953   4.495   6.784  16.148 -0.1691  0.6692 -0.2038
19846TIP3    H280954   4.437   6.645  16.138  0.5748  0.3679 -0.4146
19847TIP3   OH280955   6.771   6.742  16.177  0.3863  0.1611  0.2431
19847TIP3    H180956   6.850   6.765  16.127 -0.0677  0.5545 -0.3092
19847TIP3    H280957   6.796   6.755  16.268  0.9524  0.3246  0.0695
19848TIP3   OH280958   5.413   3.478   3.894 -0.1740 -1.0563  0.4830
19848TIP3    H180959   5.486   3.525   3.936 -0.9680 -0.8330  1.6478
19848TIP3    H280960   5.417   3.506   3.802  0.4748 -0.1113  0.7787
19849TIP3   OH280961   0.182   6.041  15.405  0.0431 -0.1359  0.2638
19849TIP3    H180962   0.125   6.069  15.333  1.1491 -0.9419 -0.9561
19849TIP3    H280963   0.239   6.116  15.421  0.6780 -0.4129 -0.6279
19850TIP3   OH280964   4.895   4.635   3.505 -0.4136 -0.1555 -0.4620
19850TIP3    H180965   4.866   4.544   3.497  0.0722 -0.5688  1.6956
19850TIP3    H280966   4.819   4.687   3.480 -0.5956 -1.1114 -2.0621
19851TIP3   OH280967   0.783   0.516  11.480 -0.2257  0.1130 -0.5475
19851TIP3    H180968   0.772   0.504  11.386 -0.0168  1.5604 -0.7705
19851TIP3    H280969   0.703   0.559  11.509  0.1675  0.6706 -0.2640
19852TIP3   OH280970   0.501   4.262   3.511  0.0013 -0.3028  0.1897
19852TIP3    H180971   0.530   4.351   3.531 -0.7167 -0.1697  0.7177
19852TIP3    H280972   0.515   4.253   3.417 -1.6545  1.0612 -0.2536
19853TIP3   OH280973   1.067   5.329   4.289 -0.0096  0.6953  0.4002
19853TIP3    H180974   1.041   5.253   4.341  1.3958 -0.5194 -0.5841
19853TIP3    H280975   1.038   5.308   4.200 -0.3816  1.7258  0.2648
19854TIP3   OH280976   0.296   3.311  12.286 -0.4207  0.1157  0.2788
19854TIP3    H180977   0.247   3.346  12.360 -1.6298 -2.2029  0.6483
19854TIP3    H280978   0.231   3.263  12.234  0.9585 -0.7827 -0.6935
19855TIP3   OH280979   0.749   6.147   1.618 -0.3456 -0.3558 -0.2717
19855TIP3    H180980   0.842   6.150   1.595 -0.2849 -1.4940 -0.2348
19855TIP3    H280981   0.718   6.063   1.584 -1.7249  0.6322 -1.5681
19856TIP3   OH280982   1.132   1.413  13.319  0.1120  0.4463 -0.2594
19856TIP3    H180983   1.078   1.350  13.367 -0.3065 -0.0152 -1.3080
19856TIP3    H280984   1.220   1.401  13.356 -0.1083 -0.2179  0.0707
19857TIP3   OH280985   2.186   6.768  17.131 -0.5001 -0.4463  0.3106
19857TIP3    H180986   2.241   6.718  17.192 -0.4482 -0.5443  0.1829
19857TIP3    H280987   2.129   6.703  17.091 -3.1303  0.0301  2.8857
19858TIP3   OH280988   6.192   1.657  14.284 -0.2539  0.1891 -0.6419
19858TIP3    H180989   6.266   1.606  14.318 -0.0613  0.5861 -0.4528
19858TIP3    H280990   6.124   1.593  14.267 -0.4349 -0.0034  0.7007
19859TIP3   OH280991   0.959   4.154   4.799  0.2974  0.9246  0.1793
19859TIP3    H180992   1.034   4.136   4.856  0.6743  0.1363 -0.5349
19859TIP3    H280993   0.995   4.206   4.727 -0.1449  1.7830  0.5615
19860TIP3   OH280994   1.244   0.670   1.561  0.4195 -0.5104  0.9678
19860TIP3    H180995   1.282   0.599   1.509  0.9564 -0.7793  1.7114
19860TIP3    H280996   1.210   0.628   1.639 -1.7399 -0.3194  0.2038
19861TIP3   OH280997   0.590   2.308  15.348  0.5468 -0.1730  0.0360
19861TIP3    H180998   0.671   2.307  15.296 -0.4253  0.7977 -1.5603
19861TIP3    H280999   0.614   2.356  15.427  0.9825  2.1973 -1.4510
19862TIP3   OH281000   4.078   6.099  11.782 -0.4891  0.0830 -0.2828
19862TIP3    H181001   4.018   6.118  11.855 -1.8201 -0.4860 -1.1876
19862TIP3    H281002   4.073   6.004  11.772  2.3879 -0.3279  1.0942
19863TIP3   OH281003   5.580   1.914  14.489 -0.0156  0.2675  0.3164
19863TIP3    H181004   5.509   1.978  14.489 -0.2059  0.1462  2.2339
19863TIP3    H281005   5.549   1.846  14.550  1.9642  0.5056  1.6816
19864TIP3   OH281006   2.969   3.901   4.150  0.1315 -0.0313  0.2162
19864TIP3    H181007   2.986   3.935   4.238 -0.9679 -1.0326  0.8413
19864TIP3    H281008   2.981   3.806   4.159  1.8407 -0.0014 -1.1784
19865TIP3   OH281009   2.316   4.670   4.637 -0.1674 -0.4463  0.2689
19865TIP3    H181010   2.227   4.703   4.627 -0.2263 -1.1168 -1.8864
19865TIP3    H281011   2.307   4.597   4.699 -1.3503 -1.2708 -0.8193
19866TIP3   OH281012   5.390   1.980   0.100  0.4795  0.1461  0.2354
19866TIP3    H181013   5.311   2.024   0.069  0.7134  1.5659  1.5270
19866TIP3    H281014   5.399   1.904   0.042 -1.5532  0.1949 -0.2421
19867TIP3   OH281015   0.901   6.527   2.493  0.2392 -0.1880 -0.1528
19867TIP3    H181016   0.922   6.572   2.411  2.1496 -1.6683 -0.5388
19867TIP3    H281017   0.821   6.478   2.473 -0.8818  1.5808 -0.2408
19868TIP3   OH281018   0.724   5.551   0.700  0.2708  0.5353 -0.0908
19868TIP3    H181019   0.641   5.576   0.740 -1.0266 -1.4719 -1.3879
19868TIP3    H281020   0.705   5.549   0.606  1.1997 -1.8726 -0.2812
19869TIP3   OH281021   6.208   3.764  12.888 -0.4546  0.0152 -0.1851
19869TIP3    H181022   6.205   3.859  12.904 -0.3713 -0.0545  0.2407
19869TIP3    H281023   6.126   3.731  12.925  0.9881 -0.5485  2.7620
19870TIP3   OH281024   6.210   2.867   6.493  0.2237 -0.1201  0.0491
19870TIP3    H181025   6.128   2.897   6.454 -0.6106 -3.1361 -0.7645
19870TIP3    H281026   6.275   2.881   6.424 -0.5890 -2.1632 -1.2219
19871TIP3   OH281027   5.733   6.563   4.935  0.1269  0.1215  0.1964
19871TIP3    H181028   5.647   6.553   4.894 -0.3767 -1.0273  1.4619
19871TIP3    H281029   5.793   6.578   4.862 -1.0896  0.6077 -0.7302
19872TIP3   OH281030   2.397   1.399  13.803 -0.6158 -0.1673  0.1587
19872TIP3    H181031   2.355   1.463  13.861 -0.3047  1.1221 -0.9887
19872TIP3    H281032   2.434   1.451  13.732  2.5067 -1.2372  0.7921
19873TIP3   OH281033   4.086   5.242  16.526  0.0852 -0.2513  0.1791
19873TIP3    H181034   3.997   5.278  16.529 -0.7068 -1.6867 -2.9139
19873TIP3    H281035   4.134   5.299  16.466  1.6172  0.9987  2.4247
19874TIP3   OH281036   4.178   3.545  11.938  0.2173 -0.6722 -0.3441
19874TIP3    H181037   4.098   3.493  11.945  0.0583 -0.3188  0.6673
19874TIP3    H281038   4.249   3.480  11.938  0.0551 -0.9153  1.6060
19875TIP3   OH281039   0.555   4.006  16.823  0.6302  0.0937 -0.5132
19875TIP3    H181040   0.575   3.924  16.868  1.0084  0.5771  0.2218
19875TIP3    H281041   0.635   4.026  16.774  0.3337 -0.2671 -1.1458
19876TIP3   OH281042   0.080   4.303  14.769  0.0965 -0.3216 -0.1121
19876TIP3    H181043  -0.009   4.327  14.745 -0.2546 -0.2356  1.1792
19876TIP3    H281044   0.076   4.210  14.790 -0.3891  0.2542  2.7445
19877TIP3   OH281045   1.912   1.797  13.858 -0.1647  0.3249  0.1660
19877TIP3    H181046   1.930   1.812  13.765 -1.8088 -4.1398 -1.1249
19877TIP3    H281047   1.989   1.830  13.903  2.7606 -1.2658 -3.2259
19878TIP3   OH281048   6.682   1.877  14.473 -0.2258  0.7893 -0.1221
19878TIP3    H181049   6.762   1.827  14.457 -1.3329 -1.2428  0.2542
19878TIP3    H281050   6.703   1.934  14.547  0.6746 -0.2334  0.4320
19879TIP3   OH281051   1.233   5.972  16.721  0.2439 -0.3990  0.0784
19879TIP3    H181052   1.328   5.966  16.713  0.1224 -1.4714 -0.6375
19879TIP3    H281053   1.220   6.021  16.803  1.3928 -1.3489  0.8690
19880TIP3   OH281054   0.953   3.243   1.653  0.1384  0.7247  0.2258
19880TIP3    H181055   1.020   3.272   1.592  0.9944  1.7594  1.5850
19880TIP3    H281056   0.953   3.310   1.722 -1.0203 -0.2085  1.1799
19881TIP3   OH281057   3.570   3.483   4.888 -0.3157  0.2233  0.1066
19881TIP3    H181058   3.559   3.552   4.822  0.8250  0.9217  0.6164
19881TIP3    H281059   3.598   3.529   4.967  0.6977 -0.8323  0.4026
19882TIP3   OH281060   0.255   0.514  15.133 -0.6860  0.1070  0.4498
19882TIP3    H181061   0.350   0.522  15.127 -0.6367 -0.3813  0.5595
19882TIP3    H281062   0.230   0.458  15.060 -0.6238 -1.6693  1.7227
19883TIP3   OH281063   5.810   3.436  15.411  0.2333 -0.2035 -0.1732
19883TIP3    H181064   5.894   3.483  15.410  0.4718 -0.4416  2.1980
19883TIP3    H281065   5.834   3.344  15.407  0.2076 -0.3171  1.4985
19884TIP3   OH281066   5.222   1.597   5.003  0.2224  0.8027  0.4072
19884TIP3    H181067   5.161   1.649   5.056 -0.0652  1.7792 -0.8320
19884TIP3    H281068   5.275   1.663   4.957  2.3552 -0.0025  1.5667
19885TIP3   OH281069   4.092   3.990   3.825 -0.1915  0.1194  0.0601
19885TIP3    H181070   4.088   4.021   3.735  1.1680  0.4236  0.0790
19885TIP3    H281071   4.182   4.008   3.852  0.1196 -2.1120  0.6901
19886TIP3   OH281072   1.811   3.852   5.100  0.2751  0.5323  0.2395
19886TIP3    H181073   1.832   3.793   5.027 -0.1491  2.2395 -1.3258
19886TIP3    H281074   1.715   3.855   5.101  0.2791  1.9247 -0.3853
19887TIP3   OH281075   4.542   1.489   2.144 -0.6987  0.1108  0.0707
19887TIP3    H181076   4.571   1.552   2.211  1.2608 -2.1087  1.4889
19887TIP3    H281077   4.502   1.418   2.194 -1.6546 -0.4008 -1.3627
19888TIP3   OH281078   6.067   2.411  16.055 -0.0242 -0.2481 -0.0819
19888TIP3    H181079   6.066   2.317  16.070  0.8099 -0.4547 -1.1601
19888TIP3    H281080   6.159   2.433  16.045 -0.2162  0.6686  0.0602
19889TIP3   OH281081   3.584   2.320   5.091  0.2185 -0.1958  0.3617
19889TIP3    H181082   3.518   2.282   5.033 -0.7306  0.7147  0.8129
19889TIP3    H281083   3.652   2.354   5.032 -0.2500 -0.1625 -0.1646
19890TIP3   OH281084   4.679   2.390   4.688 -1.1340 -0.1868  0.6443
19890TIP3    H181085   4.728   2.431   4.760 -1.2561 -0.1938  0.7308
19890TIP3    H281086   4.746   2.346   4.636 -1.1157 -0.7808  1.1483
19891TIP3   OH281087   0.267   2.003  11.879 -0.0475  0.3765  0.6938
19891TIP3    H181088   0.330   2.073  11.893  1.4636 -0.6092 -0.8168
19891TIP3    H281089   0.295   1.933  11.937 -1.7083  1.0470  2.3928
19892TIP3   OH281090   2.905   1.791  13.660  0.3157 -0.1633  0.0436
19892TIP3    H181091   2.870   1.705  13.681 -1.8775  0.6082 -0.2566
19892TIP3    H281092   2.906   1.837  13.744  0.7062 -0.1957  0.0608
19893TIP3   OH281093   0.975   5.162  14.641 -0.1187 -0.3716  0.2742
19893TIP3    H181094   0.937   5.101  14.705  0.5831 -0.4453  0.6336
19893TIP3    H281095   1.050   5.114  14.604 -0.8800 -0.5803 -1.0797
19894TIP3   OH281096   1.499   2.137   2.257 -0.3213 -0.1215 -0.0084
19894TIP3    H181097   1.458   2.056   2.287  0.0918  0.0696  1.1221
19894TIP3    H281098   1.449   2.206   2.300  0.1967  0.1727  0.1185
19895TIP3   OH281099   4.553   2.294  14.095 -0.4002  0.2650  0.1383
19895TIP3    H181100   4.563   2.326  14.005  0.6101 -0.8232 -0.1777
19895TIP3    H281101   4.462   2.265  14.100 -0.3534 -0.0842 -0.7002
19896TIP3   OH281102   5.205   2.644   4.220  0.1332  0.8206  0.8401
19896TIP3    H181103   5.159   2.565   4.194  0.3560  1.1844 -0.7752
19896TIP3    H281104   5.196   2.648   4.315 -1.5659 -0.0873  0.7442
19897TIP3   OH281105   6.590   3.187   6.120 -0.9105 -0.0933  0.5097
19897TIP3    H181106   6.496   3.199   6.106 -1.0924 -1.0630  0.8545
19897TIP3    H281107   6.628   3.273   6.100 -1.5971 -0.2771 -1.9053
19898TIP3   OH281108   2.248   2.414  15.824 -0.4932 -0.0742 -0.4601
19898TIP3    H181109   2.264   2.320  15.823 -0.5222 -0.0814 -0.2039
19898TIP3    H281110   2.332   2.453  15.800 -0.1586 -0.1231  0.5997
19899TIP3   OH281111   4.148   0.854   4.085  0.0420 -0.9299 -0.9116
19899TIP3    H181112   4.179   0.784   4.144 -0.1822 -0.0716  0.2626
19899TIP3    H281113   4.120   0.924   4.144 -1.7167 -0.6605 -2.0043
19900TIP3   OH281114   5.440   2.736  13.433  0.1123 -0.0110 -0.5549
19900TIP3    H181115   5.360   2.691  13.460  0.4643  0.0367  0.5866
19900TIP3    H281116   5.511   2.687  13.474  0.5342  1.2901  0.3168
19901TIP3   OH281117   3.241   0.215   3.126  0.3557  0.6636  0.0616
19901TIP3    H181118   3.249   0.166   3.044  5.8272  0.1290  0.5613
19901TIP3    H281119   3.239   0.307   3.099  1.0000  0.4684 -0.6980
19902TIP3   OH281120   0.595   2.035   0.794  0.3073  0.5440 -0.0968
19902TIP3    H181121   0.603   1.965   0.729  0.8159  0.5680 -0.0610
19902TIP3    H281122   0.503   2.031   0.822  1.0029 -2.2811  2.3109
19903TIP3   OH281123   5.546   0.461   0.694 -0.3825 -0.6847 -0.6247
19903TIP3    H181124   5.566   0.457   0.787 -0.0888 -1.7876 -0.7160
19903TIP3    H281125   5.465   0.411   0.684 -0.7790 -0.0133 -0.8829
19904TIP3   OH281126   2.340   6.383  16.251  0.0414 -0.5694 -0.2994
19904TIP3    H181127   2.275   6.450  16.272 -0.0377 -0.5267 -0.6635
19904TIP3    H281128   2.302   6.302  16.285  0.0782 -0.4496  0.0277
19905TIP3   OH281129   1.666   2.075   6.047 -0.1002  0.5293  0.3256
19905TIP3    H181130   1.627   2.005   6.100 -0.0538  0.2004 -0.0691
19905TIP3    H281131   1.737   2.109   6.100  3.4340 -3.2370 -1.4720
19906TIP3   OH281132   6.135   2.602  11.363  0.2359  0.2422  0.3271
19906TIP3    H181133   6.145   2.622  11.270  0.8577 -0.1108  0.3115
19906TIP3    H281134   6.221   2.568  11.390  0.2301  0.8746  1.1688
19907TIP3   OH281135   5.842   2.918   0.323  0.6129  0.0848  0.1694
19907TIP3    H181136   5.849   2.824   0.337  1.1603 -0.0721 -0.9753
19907TIP3    H281137   5.784   2.949   0.392  1.0915 -0.9585  1.0684
19908TIP3   OH281138   0.137   0.638  14.900 -0.5397  0.3602 -0.0258
19908TIP3    H181139   0.109   0.607  14.986 -0.8038 -1.1641 -0.6197
19908TIP3    H281140   0.069   0.699  14.872 -0.2986  1.1049  0.9517
19909TIP3   OH281141   1.571   4.919  10.958 -0.8845 -0.2332 -0.1480
19909TIP3    H181142   1.606   5.008  10.952 -2.3355  0.3071 -1.0199
19909TIP3    H281143   1.539   4.899  10.870 -1.8117 -1.1044  0.3649
19910TIP3   OH281144   3.616   4.240  11.634  0.3051 -0.4647 -0.3818
19910TIP3    H181145   3.663   4.158  11.639  0.9069 -0.1817 -1.2311
19910TIP3    H281146   3.541   4.222  11.577 -1.2135 -1.1611  1.6753
19911TIP3   OH281147   4.387   5.284  15.523 -0.3853  0.3633  0.1991
19911TIP3    H181148   4.365   5.241  15.441  2.1757 -1.7864  0.5101
19911TIP3    H281149   4.443   5.357  15.498  1.0785 -0.7742 -0.0220
19912TIP3   OH281150   6.270   2.446   0.950 -0.4130 -0.4505 -0.1539
19912TIP3    H181151   6.197   2.498   0.985 -1.2326 -0.8083 -1.2617
19912TIP3    H281152   6.346   2.504   0.955 -1.0493  0.4014 -0.1968
19913TIP3   OH281153   4.673   6.774  11.373 -0.1281 -0.5345  0.5048
19913TIP3    H181154   4.662   6.820  11.456  1.5386  1.5320 -0.3353
19913TIP3    H281155   4.649   6.839  11.306 -2.5492 -2.4888 -0.6806
19914TIP3   OH281156   2.323   2.769   2.122 -0.1110  0.0225  0.7810
19914TIP3    H181157   2.294   2.750   2.033 -2.4275  0.5296  1.3557
19914TIP3    H281158   2.317   2.685   2.168 -1.8929  0.3125  1.1628
19915TIP3   OH281159   3.549   5.968  16.188  0.0311  0.0144 -0.1227
19915TIP3    H181160   3.484   6.036  16.171  1.2160  0.6282 -2.8876
19915TIP3    H281161   3.613   6.009  16.246  0.4160  1.1427 -1.2837
19916TIP3   OH281162   5.409   3.950  14.959  0.1832 -0.7940 -0.3921
19916TIP3    H181163   5.347   3.910  14.899 -0.9303 -0.2889  0.3967
19916TIP3    H281164   5.437   4.031  14.914 -1.3445  0.0569  0.1391
19917TIP3   OH281165   5.560   5.266  10.161  0.1174 -0.4419  0.0069
19917TIP3    H181166   5.626   5.197  10.154  1.0366  0.5371 -1.7194
19917TIP3    H281167   5.571   5.301  10.249  1.5202 -0.6866 -0.0501
19918TIP3   OH281168   0.641   0.251  14.656 -0.0404  0.0079  0.5426
19918TIP3    H181169   0.583   0.183  14.692 -0.8317  0.6050  0.4086
19918TIP3    H281170   0.676   0.295  14.733  0.9776 -0.9443  0.6524
19919TIP3   OH281171   2.022   2.142  15.257 -0.6825  0.3382  0.1255
19919TIP3    H181172   2.063   2.211  15.205  0.1278  1.1048  1.7428
19919TIP3    H281173   1.928   2.151  15.238 -0.3979  0.2851 -1.5263
19920TIP3   OH281174   0.619   1.517   5.385 -0.1888  0.1631 -0.1421
19920TIP3    H181175   0.539   1.486   5.342  0.8492 -1.5508 -0.9848
19920TIP3    H281176   0.638   1.601   5.344 -0.0680 -0.7258 -2.0048
19921CLA    CLA81177   1.442   1.471   2.570 -0.2373 -0.1998 -0.5071
19922LIG     O181178   3.432   3.521   1.186  0.6007  0.3806 -0.3616
19922LIG     O281179   3.678   3.633   1.571 -0.0830  0.9269 -0.8222
19922LIG     O381180   3.279   3.444   1.030 -0.2376 -0.3630 -0.0833
19922LIG     O481181   3.349   3.631   0.849 -0.0717 -0.6776 -0.3394
19922LIG      N81182   3.402   3.344   1.566  0.6061 -0.3052  0.1165
19922LIG     C181183   3.267   3.384   1.507 -0.4551  0.1327 -0.5486
19922LIG     C281184   3.490   3.282   1.461 -0.7126  0.2770 -0.3757
19922LIG     C381185   3.293   3.487   1.385 -0.4178 -0.0626  0.3855
19922LIG     C481186   3.530   3.373   1.349 -0.2405  0.5501  0.2065
19922LIG     C581187   3.394   3.426   1.284 -0.1570  0.3926  0.5111
19922LIG     C681188   3.471   3.467   1.624  0.3896 -0.0340 -0.0012
19922LIG     C781189   3.391   3.244   1.675 -0.0383  0.2784 -0.4860
19922LIG     C881190   3.614   3.434   1.684 -0.2496 -0.3876 -0.9816
19922LIG     C981191   3.657   3.574   1.702 -0.0954 -0.8104  0.7915
19922LIG    C1081192   3.364   3.519   1.073 -0.2104 -0.0763  0.4499
19922LIG    C1181193   3.411   3.638   0.979  0.5251 -0.4832 -0.1987
19922LIG    C1281194   3.571   3.631   0.962 -0.0526 -0.0923  0.8875
19922LIG    C1381195   3.381   3.773   1.059  0.1674 -0.7826 -0.1055
19922LIG    C1481196   3.691   3.779   1.563  0.1153  0.4280 -0.0907
19922LIG    C1581197   3.646   3.737   0.908  0.4430  0.6362 -0.6842
19922LIG    C1681198   3.261   3.842   1.039 -0.3198 -0.5593  0.3272
19922LIG    C1781199   3.648   3.509   0.984 -0.4486  0.5500  0.2183
19922LIG    C1881200   3.448   3.802   1.179  0.1230  0.0837 -0.0907
19922LIG    C1981201   3.661   3.868   1.667 -0.5871  0.3199 -0.5135
19922LIG    C2081202   3.745   3.831   1.441 -0.3385  0.4550 -0.1372
19922LIG    C2181203   3.785   3.728   0.883  0.2422 -1.0429 -0.8874
19922LIG    C2281204   3.217   3.941   1.117 -0.2035 -0.2117  0.1737
19922LIG    C2381205   3.783   3.499   0.952  0.2624  0.2322  0.8770
19922LIG    C2481206   3.403   3.905   1.267 -0.1762  0.6709 -1.3170
19922LIG    C2581207   3.854   3.611   0.913  0.2788 -0.2182 -0.3276
19922LIG    C2681208   3.287   3.975   1.232  0.1471 -0.2488 -0.3600
19922LIG    C2781209   3.668   4.006   1.645 -0.0077  0.5322 -0.2159
19922LIG    C2881210   3.739   3.966   1.411 -0.1290  0.2323 -0.4122
19922LIG    C2981211   3.702   4.057   1.520 -0.5481  0.1112 -0.0532
19922LIG     H181212   3.204   3.431   1.582  2.0179  1.1093  1.0692
19922LIG     H281213   3.211   3.297   1.476  0.1362 -0.1500 -0.8367
19922LIG     H381214   3.448   3.199   1.405  0.9131  0.0767 -1.3502
19922LIG     H481215   3.574   3.234   1.508 -1.7132  0.5441  1.7966
19922LIG     H581216   3.329   3.580   1.434 -1.9240  1.7304 -1.7265
19922LIG     H681217   3.199   3.511   1.332  0.1348 -1.3073 -1.2446
19922LIG     H781218   3.590   3.329   1.266 -1.1464  2.2532 -1.4375
19922LIG     H881219   3.582   3.462   1.388 -3.4586  2.2139  1.0497
19922LIG     H981220   3.347   3.334   1.242  2.6323 -0.1368 -1.7151
19922LIG    H1081221   3.402   3.510   1.695 -0.4978 -2.9363  1.0561
19922LIG    H1181222   3.488   3.540   1.547  0.0586  0.6423  0.5585
19922LIG    H1281223   3.327   3.161   1.651  0.4928 -0.3036  0.0939
19922LIG    H1381224   3.357   3.298   1.762  1.2581  2.1222 -1.0556
19922LIG    H1481225   3.485   3.206   1.710 -1.6652 -0.9868  2.8771
19922LIG    H1581226   3.683   3.399   1.604 -1.0345 -0.2450 -1.7369
19922LIG    H1681227   3.610   3.361   1.767  1.6607  0.7717  0.1792
19922LIG    H1781228   3.574   3.627   1.754 -0.3809 -0.3449 -0.1201
19922LIG    H1881229   3.754   3.576   1.756 -0.0469 -0.9859  0.7124
19922LIG    H1981230   3.393   3.567   0.793  0.9922  0.5291 -0.9178
19922LIG    H2081231   3.595   3.831   0.893 -0.8721  0.0595  0.0696
19922LIG    H2181232   3.201   3.803   0.958  1.4167 -0.9343 -0.8454
19922LIG    H2281233   3.589   3.422   1.006 -2.2442  0.9966 -2.3093
19922LIG    H2381234   3.537   3.745   1.203  1.8818  2.0954 -1.4534
19922LIG    H2481235   3.610   3.838   1.757 -1.6962  0.8113 -0.9533
19922LIG    H2581236   3.761   3.752   1.369  2.2170  0.5394  0.2409
19922LIG    H2681237   3.838   3.815   0.847 -0.0677 -0.4965 -0.0526
19922LIG    H2781238   3.115   3.974   1.103 -0.2765 -0.6709 -0.4485
19922LIG    H2881239   3.837   3.406   0.953 -0.1895 -0.0792 -1.1900
19922LIG    H2981240   3.454   3.925   1.360  0.4728 -0.7350 -1.3511
19922LIG    H3081241   3.960   3.599   0.898  1.3506  2.8006  3.4375
19922LIG    H3181242   3.243   4.049   1.297 -1.6881 -2.5319  1.1835
19922LIG    H3281243   3.645   4.075   1.725  0.1057 -0.2271  0.4802
19922LIG    H3381244   3.746   3.994   1.307  0.6643 -0.4099 -0.5475
19922LIG    H3481245   3.713   4.162   1.497  0.1515 -0.3133 -1.8136
   6.79708   6.79708  17.18594
