Title
42782
    1SAPS     N    1   3.346   4.773   7.291  0.2802  0.5221 -0.0867
    1SAPS   HN1    2   3.292   4.749   7.377  0.4213  1.4261  0.2677
    1SAPS   HN2    3   3.431   4.715   7.277 -0.6752 -0.6674 -1.1895
    1SAPS   HN3    4   3.375   4.873   7.299  1.7738  0.0426  0.8258
    1SAPS   C12    5   3.273   4.761   7.168  0.3014 -0.4866 -0.2786
    1SAPS  H12A    6   3.252   4.655   7.157  3.6361 -1.4182  0.9153
    1SAPS   C13    7   3.144   4.842   7.165 -0.6522  0.4054 -0.0386
    1SAPS  O13A    8   3.113   4.918   7.253  0.5019 -0.5969 -0.1710
    1SAPS  O13B    9   3.056   4.805   7.077  0.5024  0.2694  0.3408
    1SAPS   C11   10   3.356   4.821   7.049  0.1603  0.7239 -0.5985
    1SAPS  H11A   11   3.356   4.932   7.054  0.2802  0.7515 -1.1423
    1SAPS  H11B   12   3.309   4.807   6.949  2.6288 -1.0876 -1.5986
    1SAPS     P   13   3.531   4.655   6.961  0.0115  0.2258  0.0755
    1SAPS   O13   14   3.672   4.607   6.997  0.4008 -0.6102 -0.0179
    1SAPS   O14   15   3.422   4.556   6.952 -0.3239  0.0921  0.3035
    1SAPS   O12   16   3.492   4.768   7.059  0.5693  0.2944 -0.2320
    1SAPS   O11   17   3.542   4.721   6.825  0.5176  0.4489 -0.5874
    1SAPS    C1   18   3.630   4.836   6.807  0.7370  0.4756 -0.1305
    1SAPS    HA   19   3.566   4.911   6.756 -1.1153 -0.6315  0.4762
    1SAPS    HB   20   3.661   4.893   6.898  0.8685  0.0328  0.1054
    1SAPS    C2   21   3.759   4.808   6.729 -0.1170  0.1741  0.9011
    1SAPS    HS   22   3.811   4.731   6.791 -0.8319 -1.7720 -0.8160
    1SAPS   O21   23   3.845   4.925   6.729 -0.2754 -0.4348 -0.4752
    1SAPS   C21   24   3.978   4.895   6.727  0.4104 -0.2384  0.0905
    1SAPS   O22   25   4.019   4.782   6.738 -0.2783  0.0315  0.2745
    1SAPS   C22   26   4.048   5.030   6.700  0.6912 -0.2193  0.0336
    1SAPS   H2R   27   3.998   5.077   6.612  0.8326 -0.2224 -0.0492
    1SAPS   H2S   28   4.031   5.098   6.786 -0.6137 -1.5099  0.8555
    1SAPS    C3   29   3.728   4.755   6.586 -0.1598 -0.1371  0.0102
    1SAPS    HX   30   3.683   4.835   6.525  1.0733 -0.6080 -1.5702
    1SAPS    HY   31   3.654   4.672   6.593  0.8241 -0.9953  0.4486
    1SAPS   O31   32   3.841   4.716   6.506 -0.2978 -0.0324 -0.6254
    1SAPS   C31   33   3.871   4.584   6.521 -0.1686  0.5742  0.0458
    1SAPS   O32   34   3.800   4.499   6.574 -0.2756  0.8188 -0.1026
    1SAPS   C32   35   4.008   4.561   6.467 -0.4546  0.0854 -0.2866
    1SAPS   H2X   36   4.052   4.472   6.517  0.2156  0.1209 -0.8070
    1SAPS   H2Y   37   4.062   4.647   6.511 -0.2422 -1.1569  2.0976
    1SAPS   C23   38   4.203   5.021   6.679  0.1236  0.3605 -0.3090
    1SAPS   H3R   39   4.264   4.988   6.766  3.9912  1.8713 -2.2286
    1SAPS   H3S   40   4.228   5.129   6.672  3.8867 -0.2124  1.7577
    1SAPS   C24   41   4.240   4.961   6.544  0.1645 -0.0573 -0.1872
    1SAPS   H4R   42   4.200   5.023   6.460 -2.6077 -0.6845  0.5544
    1SAPS   H4S   43   4.191   4.861   6.547  0.7984 -0.3463  2.0825
    1SAPS   C25   44   4.391   4.942   6.526  0.8887  0.0160  0.0482
    1SAPS   H5R   45   4.446   5.033   6.555  0.6907  0.9191 -2.1810
    1SAPS   C26   46   4.462   4.836   6.488 -0.6010 -0.6365 -0.3085
    1SAPS   H6R   47   4.571   4.849   6.493 -0.3481 -2.7947  1.9145
    1SAPS   C27   48   4.423   4.697   6.445 -0.9145 -0.1141 -0.3005
    1SAPS   H7R   49   4.444   4.696   6.336  1.0382 -1.4208  0.0354
    1SAPS   H7S   50   4.313   4.684   6.435 -0.9683  0.2247 -0.1726
    1SAPS   C28   51   4.479   4.583   6.534 -0.3526 -0.1313  0.0430
    1SAPS   H8R   52   4.504   4.610   6.638 -1.1689 -1.4077  0.6023
    1SAPS   C29   53   4.521   4.466   6.482  0.3028 -0.1939  0.2576
    1SAPS   H9R   54   4.583   4.398   6.542  0.7144 -1.0738 -1.1058
    1SAPS  C210   55   4.497   4.421   6.342 -0.0511  0.0076 -0.0174
    1SAPS  H10R   56   4.584   4.357   6.316  1.4773  2.8260 -2.4897
    1SAPS  H10S   57   4.498   4.494   6.258  0.6096 -0.3767 -0.3468
    1SAPS  C211   58   4.379   4.328   6.327  0.1018 -0.5184 -0.0168
    1SAPS  H11R   59   4.305   4.337   6.408 -1.0263  1.0496 -1.1766
    1SAPS  C212   60   4.362   4.235   6.229  0.2782  0.6357 -0.4104
    1SAPS  H12R   61   4.267   4.179   6.236 -0.6610  2.3485  1.5269
    1SAPS  C213   62   4.456   4.207   6.115  0.5298  0.5198  0.4323
    1SAPS  H13R   63   4.549   4.268   6.119  0.8173  0.0607  0.7834
    1SAPS  H13S   64   4.410   4.229   6.016 -0.0131  0.5886  0.6983
    1SAPS  C214   65   4.476   4.058   6.132 -0.7471  0.3083  0.4819
    1SAPS  H14R   66   4.483   4.024   6.236  1.6621  0.0862  0.3146
    1SAPS  C215   67   4.527   3.987   6.031 -0.0793  0.3151  0.2104
    1SAPS  H15R   68   4.515   3.879   6.050 -4.8754  0.2840 -1.5912
    1SAPS  C216   69   4.542   4.028   5.886  0.1224  0.6187  0.1797
    1SAPS  H16R   70   4.647   4.061   5.875  1.3296 -2.5434  1.1999
    1SAPS  H16S   71   4.484   4.119   5.860 -2.5753 -0.4394  2.0490
    1SAPS  C217   72   4.498   3.928   5.779 -0.3484 -0.0585 -0.0598
    1SAPS  H17R   73   4.544   3.834   5.817  1.4733  0.9446  0.3705
    1SAPS  H17S   74   4.540   3.965   5.683  1.1178  2.1911  1.3470
    1SAPS  C218   75   4.351   3.892   5.768  1.0295 -0.8106  0.5382
    1SAPS  H18R   76   4.293   3.978   5.729  1.2514 -0.5751  0.7208
    1SAPS  H18S   77   4.319   3.871   5.873  0.2916 -0.7926  0.3229
    1SAPS  C219   78   4.322   3.761   5.699  0.8244 -0.0757 -0.1479
    1SAPS  H19R   79   4.376   3.672   5.739  1.2183 -2.2340 -4.7553
    1SAPS  H19S   80   4.338   3.775   5.590  0.1625 -0.0958 -0.2521
    1SAPS  C220   81   4.179   3.722   5.725 -0.7466 -0.4895  0.4131
    1SAPS  H20R   82   4.175   3.702   5.834  1.1281  0.6095  0.7270
    1SAPS  H20S   83   4.139   3.634   5.671 -3.1424  1.5219 -1.2880
    1SAPS  H20T   84   4.111   3.809   5.714 -1.2566 -0.9873 -0.4708
    1SAPS   C33   85   4.013   4.553   6.310 -0.2491 -0.3925  0.5556
    1SAPS   H3X   86   4.111   4.568   6.261 -0.6144  0.0874 -0.0474
    1SAPS   H3Y   87   3.953   4.624   6.249  0.3316 -0.6354 -0.3222
    1SAPS   C34   88   3.973   4.412   6.261 -0.3474 -0.3001  0.1454
    1SAPS   H4X   89   3.873   4.377   6.293 -1.3245  0.7201 -1.6396
    1SAPS   H4Y   90   4.064   4.349   6.277  0.8760  1.1596 -0.7732
    1SAPS   C35   91   3.944   4.418   6.102 -0.1258  0.1700  0.1005
    1SAPS   H5X   92   3.871   4.500   6.082  0.2031  0.7772  1.2759
    1SAPS   H5Y   93   3.894   4.325   6.069 -1.6209  0.9784 -0.0441
    1SAPS   C36   94   4.073   4.434   6.028  0.9201 -0.2520  0.3107
    1SAPS   H6X   95   4.138   4.349   6.058  1.7813 -0.4792 -1.9953
    1SAPS   H6Y   96   4.121   4.532   6.051  1.3523 -0.7297  1.5254
    1SAPS   C37   97   4.053   4.419   5.873  0.3297  0.3818  0.0211
    1SAPS   H7X   98   4.005   4.511   5.834  1.3624  0.7890 -0.3102
    1SAPS   H7Y   99   4.001   4.326   5.841  1.3338 -0.2035  0.0373
    1SAPS   C38  100   4.179   4.410   5.797 -0.5426  0.5204  0.0869
    1SAPS   H8X  101   4.239   4.318   5.812 -0.7215  0.2181 -0.9538
    1SAPS   H8Y  102   4.242   4.492   5.837  1.4164 -1.2034  0.7577
    1SAPS   C39  103   4.161   4.436   5.644  0.7834  0.2237 -0.0168
    1SAPS   H9X  104   4.113   4.537   5.644  2.0690  0.9269 -2.6853
    1SAPS   H9Y  105   4.096   4.357   5.603 -0.7838  0.4236  1.9198
    1SAPS  C310  106   4.294   4.457   5.572 -0.0114 -0.1155 -0.1833
    1SAPS  H10X  107   4.359   4.368   5.586 -0.6085 -0.4131  0.8060
    1SAPS  H10Y  108   4.341   4.548   5.614  1.5130 -0.7912 -0.3748
    1SAPS  C311  109   4.266   4.472   5.422  0.1503 -0.2180 -0.1039
    1SAPS  H11X  110   4.174   4.535   5.412  0.2511 -0.2047 -1.0551
    1SAPS  H11Y  111   4.232   4.371   5.389  0.2293  0.0704 -1.1286
    1SAPS  C312  112   4.378   4.522   5.332  0.0245 -0.6345  0.2015
    1SAPS  H12X  113   4.344   4.517   5.226  0.2540 -1.1824  0.1545
    1SAPS  H12Y  114   4.455   4.443   5.339  0.7896  0.0627 -0.0665
    1SAPS  C313  115   4.446   4.656   5.371 -0.0182  0.5965 -0.0766
    1SAPS  H13X  116   4.488   4.643   5.473 -1.4709  0.7859  0.5704
    1SAPS  H13Y  117   4.381   4.746   5.373  0.0764  0.6564  1.2349
    1SAPS  C314  118   4.558   4.687   5.279  0.5613  0.2038 -0.3506
    1SAPS  H14X  119   4.521   4.695   5.174  1.0101  1.4839 -0.4277
    1SAPS  H14Y  120   4.626   4.600   5.284 -0.1292 -0.3441 -0.4070
    1SAPS  C315  121   4.637   4.819   5.305  0.5850 -0.7272 -0.3787
    1SAPS  H15X  122   4.656   4.830   5.414 -0.1735 -0.5279 -0.2596
    1SAPS  H15Y  123   4.572   4.902   5.270  1.5380 -0.2449 -1.0333
    1SAPS  C316  124   4.773   4.825   5.224  0.0913 -0.5193 -0.6000
    1SAPS  H16X  125   4.827   4.728   5.236  0.0667 -0.7598 -2.2080
    1SAPS  H16Y  126   4.823   4.901   5.287 -1.5131 -1.1613  1.5988
    1SAPS  C317  127   4.759   4.866   5.075 -0.0806 -0.4266 -0.8111
    1SAPS  H17X  128   4.669   4.806   5.050  0.0902 -2.5377  2.9292
    1SAPS  H17Y  129   4.846   4.819   5.025  0.4434  2.1871 -2.5306
    1SAPS  C318  130   4.740   5.017   5.056 -0.3238 -0.7895 -0.1022
    1SAPS  H18X  131   4.648   5.058   5.103  0.2803 -0.4141  0.7741
    1SAPS  H18Y  132   4.736   5.038   4.947  1.0380 -1.9291 -0.4043
    1SAPS  H18Z  133   4.827   5.076   5.092  1.3575 -0.8228 -3.6397
    2SAPS     N  134   6.606   1.217   6.689  0.4150  0.2778 -0.5421
    2SAPS   HN1  135   6.545   1.299   6.673 -0.8986 -1.1406 -3.6194
    2SAPS   HN2  136   6.706   1.226   6.662  0.7610 -0.9984  0.2119
    2SAPS   HN3  137   6.565   1.144   6.628 -0.5700  0.1558  0.2495
    2SAPS   C12  138   6.602   1.167   6.826  0.3153  0.1156 -0.0043
    2SAPS  H12A  139   6.647   1.069   6.827  1.6858  0.6841  2.2327
    2SAPS   C13  140   6.686   1.252   6.924 -0.0519  0.5216 -0.1332
    2SAPS  O13A  141   6.743   1.353   6.880  0.3192 -0.0175  0.1043
    2SAPS  O13B  142   6.703   1.212   7.042  0.1894 -0.5381 -0.2319
    2SAPS   C11  143   6.455   1.151   6.867 -0.4104  0.7972 -0.0014
    2SAPS  H11A  144   6.416   1.254   6.875 -2.2746  0.0813  0.8086
    2SAPS  H11B  145   6.449   1.114   6.972 -0.4756 -1.1374 -0.6396
    2SAPS     P  146   6.336   0.926   6.801  0.0565  0.4650  0.3373
    2SAPS   O13  147   6.456   0.852   6.851 -0.3090  1.0237 -0.5280
    2SAPS   O14  148   6.205   0.926   6.876  0.0714  0.0964 -0.6692
    2SAPS   O12  149   6.379   1.075   6.776 -0.1525  0.2535 -0.0050
    2SAPS   O11  150   6.311   0.885   6.647 -0.1948  0.1516 -0.6565
    2SAPS    C1  151   6.220   0.779   6.623 -0.3708  0.1229  0.1899
    2SAPS    HA  152   6.263   0.686   6.664 -0.7963  0.2206  0.8730
    2SAPS    HB  153   6.124   0.816   6.666  0.3945  0.9502  1.2332
    2SAPS    C2  154   6.210   0.766   6.466 -0.4209  0.0966  0.1475
    2SAPS    HS  155   6.151   0.674   6.443  0.8674 -0.6268 -0.3880
    2SAPS   O21  156   6.337   0.761   6.401  0.0182  0.1538  0.0451
    2SAPS   C21  157   6.413   0.657   6.427 -0.7226 -0.4662  0.0587
    2SAPS   O22  158   6.386   0.557   6.494  0.4291  0.4211  0.7726
    2SAPS   C22  159   6.551   0.678   6.362 -0.1905  0.4615  0.1129
    2SAPS   H2R  160   6.559   0.771   6.302 -2.4861  0.5041 -0.2352
    2SAPS   H2S  161   6.627   0.669   6.442 -0.4870 -1.8617  0.1967
    2SAPS    C3  162   6.133   0.884   6.396 -0.0275 -0.3630 -0.5686
    2SAPS    HX  163   6.165   0.976   6.450 -0.5842  0.5082 -1.6705
    2SAPS    HY  164   6.026   0.873   6.421  0.2284 -0.5141  0.5444
    2SAPS   O31  165   6.136   0.890   6.251 -0.7482 -0.0433  0.2434
    2SAPS   C31  166   6.222   0.973   6.197 -0.2884  0.6343 -0.5493
    2SAPS   O32  167   6.284   1.063   6.254 -0.5472 -0.1206 -0.3168
    2SAPS   C32  168   6.207   0.965   6.046  0.2293 -0.1542 -0.5853
    2SAPS   H2X  169   6.176   1.070   6.025 -2.3186 -0.3121  1.7487
    2SAPS   H2Y  170   6.117   0.903   6.022 -0.7070  0.6119  0.7814
    2SAPS   C23  171   6.585   0.556   6.279 -0.1901  0.0812  0.3334
    2SAPS   H3R  172   6.580   0.466   6.343 -1.1384 -0.1413 -0.0414
    2SAPS   H3S  173   6.689   0.565   6.241  0.5663  2.1380  2.5884
    2SAPS   C24  174   6.495   0.534   6.148 -0.1518 -0.5215 -0.3314
    2SAPS   H4R  175   6.510   0.618   6.076  0.4284  0.1201  0.5064
    2SAPS   H4S  176   6.391   0.537   6.186 -0.4398  0.0738 -1.1318
    2SAPS   C25  177   6.524   0.406   6.066 -0.2362 -0.0862 -0.0966
    2SAPS   H5R  178   6.571   0.333   6.134  0.9376  1.4110  0.7682
    2SAPS   C26  179   6.493   0.375   5.940  0.0117 -0.2529  0.1139
    2SAPS   H6R  180   6.513   0.273   5.904 -0.6301 -0.3543  0.0164
    2SAPS   C27  181   6.453   0.478   5.834 -0.1483  0.9105  0.5085
    2SAPS   H7R  182   6.538   0.547   5.820  1.1255 -0.7121 -0.0646
    2SAPS   H7S  183   6.361   0.525   5.874  0.3982  1.2953  1.3295
    2SAPS   C28  184   6.418   0.412   5.699  0.6345  0.8689  0.2857
    2SAPS   H8R  185   6.493   0.414   5.618  2.2461 -0.5860  1.6719
    2SAPS   C29  186   6.304   0.347   5.661 -0.5404 -0.2061  0.1875
    2SAPS   H9R  187   6.300   0.303   5.561  2.5525  0.8830 -0.5240
    2SAPS  C210  188   6.191   0.323   5.749 -0.2520  0.0311 -0.2774
    2SAPS  H10R  189   6.225   0.284   5.848  0.6220 -0.9167 -0.9322
    2SAPS  H10S  190   6.132   0.242   5.702  2.0939 -1.9561  0.0173
    2SAPS  C211  191   6.099   0.447   5.758 -0.3428 -0.2321  0.0576
    2SAPS  H11R  192   6.088   0.494   5.659 -0.3142 -2.7868 -1.2721
    2SAPS  C212  193   6.054   0.506   5.865  0.4745 -0.2627 -0.6622
    2SAPS  H12R  194   6.006   0.604   5.851  0.9453  0.2025  0.8650
    2SAPS  C213  195   6.067   0.452   6.005  0.0159 -0.3421  0.4364
    2SAPS  H13R  196   6.081   0.547   6.061  1.7545  1.4895 -2.8225
    2SAPS  H13S  197   6.164   0.398   6.008 -0.2500 -0.9426 -1.2619
    2SAPS  C214  198   5.955   0.365   6.046  0.0590  0.3002 -0.5170
    2SAPS  H14R  199   5.926   0.294   5.967 -0.4714  0.9412 -0.9043
    2SAPS  C215  200   5.908   0.348   6.172 -0.6602  0.7610 -0.1841
    2SAPS  H15R  201   5.828   0.276   6.190  0.8869 -1.2934 -1.0964
    2SAPS  C216  202   5.959   0.423   6.294  0.5439  0.0595  0.4813
    2SAPS  H16R  203   5.880   0.467   6.359 -0.7089 -0.4564 -0.6362
    2SAPS  H16S  204   6.036   0.499   6.273  0.0392  0.1471 -1.2311
    2SAPS  C217  205   6.047   0.314   6.370 -0.2520  0.1544 -0.1946
    2SAPS  H17R  206   6.137   0.300   6.306  2.1608 -1.8632  3.2818
    2SAPS  H17S  207   5.990   0.218   6.377  2.0596 -1.2594  0.4816
    2SAPS  C218  208   6.107   0.365   6.503  0.2282 -0.5364  0.0759
    2SAPS  H18R  209   6.148   0.468   6.491 -0.8814 -0.2295 -1.2116
    2SAPS  H18S  210   6.177   0.281   6.526 -2.0204 -2.4896  0.1313
    2SAPS  C219  211   5.999   0.383   6.616 -0.3486 -0.2020  0.1543
    2SAPS  H19R  212   5.944   0.473   6.581  0.1220 -0.0204 -0.1234
    2SAPS  H19S  213   6.042   0.406   6.715  0.6146 -0.8340 -0.1075
    2SAPS  C220  214   5.912   0.253   6.638  0.4606  0.6906  0.3256
    2SAPS  H20R  215   5.847   0.274   6.726 -2.3789  0.1469 -1.5165
    2SAPS  H20S  216   5.977   0.165   6.654 -1.0770 -0.3794  1.0279
    2SAPS  H20T  217   5.854   0.217   6.550  1.4645 -2.4853  0.8301
    2SAPS   C33  218   6.337   0.918   5.963  0.7393  0.1411 -0.3231
    2SAPS   H3X  219   6.408   0.872   6.035  0.9174  0.6013 -0.2043
    2SAPS   H3Y  220   6.389   1.010   5.930  0.2649  0.6001  0.2041
    2SAPS   C34  221   6.311   0.826   5.848  0.6935  0.3151  0.2780
    2SAPS   H4X  222   6.260   0.730   5.872  1.4405 -0.4775 -1.1459
    2SAPS   H4Y  223   6.408   0.793   5.807  0.4081  0.2865 -0.3943
    2SAPS   C35  224   6.230   0.891   5.728  0.7666 -0.8025  0.2248
    2SAPS   H5X  225   6.294   0.974   5.693  2.0949 -1.3571  1.2492
    2SAPS   H5Y  226   6.141   0.946   5.766  2.9134  2.8172  0.4430
    2SAPS   C36  227   6.193   0.793   5.616  0.5280  0.0184  0.7223
    2SAPS   H6X  228   6.132   0.853   5.546  0.9500 -0.3468  0.0262
    2SAPS   H6Y  229   6.124   0.713   5.650  0.3238 -0.1586 -0.0836
    2SAPS   C37  230   6.320   0.734   5.542  0.9031 -0.3015 -0.8072
    2SAPS   H7X  231   6.391   0.682   5.610  0.0742 -1.0116 -0.4496
    2SAPS   H7Y  232   6.372   0.820   5.496  2.6811 -1.2167 -0.5903
    2SAPS   C38  233   6.275   0.630   5.439 -0.1196  0.1032  0.3651
    2SAPS   H8X  234   6.212   0.686   5.367 -0.5337 -1.3921 -0.4777
    2SAPS   H8Y  235   6.211   0.553   5.488  1.4733 -2.7684 -1.7271
    2SAPS   C39  236   6.384   0.572   5.354 -0.1759  0.1934  0.3029
    2SAPS   H9X  237   6.467   0.522   5.408 -1.1338 -1.4031  0.3766
    2SAPS   H9Y  238   6.438   0.660   5.314  0.9200 -1.0815 -1.1340
    2SAPS  C310  239   6.358   0.492   5.231  0.3518  0.1769  0.2048
    2SAPS  H10X  240   6.446   0.501   5.164 -1.1481  1.6618 -1.6890
    2SAPS  H10Y  241   6.278   0.546   5.175 -0.0124  0.4950  1.0039
    2SAPS  C311  242   6.309   0.361   5.262  0.6282  0.3254 -0.3917
    2SAPS  H11X  243   6.200   0.368   5.282  0.8468 -1.4691  1.8648
    2SAPS  H11Y  244   6.367   0.321   5.348  0.6389 -0.8760 -0.9416
    2SAPS  C312  245   6.326   0.254   5.142 -0.0646 -0.7716  0.7301
    2SAPS  H12X  246   6.262   0.167   5.166 -1.1522 -0.8465 -2.1260
    2SAPS  H12Y  247   6.424   0.206   5.121 -0.4148 -0.2528 -2.7248
    2SAPS  C313  248   6.270   0.304   5.004 -0.5276  0.5797  0.1697
    2SAPS  H13X  249   6.333   0.391   4.972  0.2122 -0.0649 -0.1760
    2SAPS  H13Y  250   6.172   0.353   5.022 -0.6458  0.8681 -1.1023
    2SAPS  C314  251   6.264   0.196   4.893  0.2391 -0.1420 -0.0594
    2SAPS  H14X  252   6.215   0.102   4.926  0.8883  0.1045  1.6797
    2SAPS  H14Y  253   6.364   0.157   4.865 -0.8617 -1.8128 -1.9176
    2SAPS  C315  254   6.193   0.246   4.769 -0.2299  0.3817  0.9894
    2SAPS  H15X  255   6.256   0.313   4.706 -0.4812  1.1424  1.5275
    2SAPS  H15Y  256   6.121   0.325   4.799 -0.9319  0.4783 -0.8319
    2SAPS  C316  257   6.125   0.132   4.682 -0.1779 -0.2784 -0.1463
    2SAPS  H16X  258   6.066   0.171   4.597 -0.1073  0.2968  0.0667
    2SAPS  H16Y  259   6.051   0.069   4.736  0.2299 -0.5178  0.1459
    2SAPS  C317  260   6.224   0.028   4.626 -0.9608 -0.4515  0.1780
    2SAPS  H17X  261   6.174  -0.064   4.589 -2.7197  0.7739 -0.6767
    2SAPS  H17Y  262   6.281   0.011   4.719  1.2986  3.3552 -0.3041
    2SAPS  C318  263   6.317   0.081   4.510  0.2879  0.3331  0.2579
    2SAPS  H18X  264   6.249   0.130   4.438  1.6133  0.2892 -1.0624
    2SAPS  H18Y  265   6.369  -0.001   4.456 -0.4775  0.8445 -1.2975
    2SAPS  H18Z  266   6.387   0.158   4.548  1.2736 -0.9758  1.2134
    3SAPS     N  267   4.497   6.281   6.573 -0.4474  0.0149  0.1432
    3SAPS   HN1  268   4.489   6.376   6.532 -0.8615  0.0755  0.3590
    3SAPS   HN2  269   4.584   6.259   6.625 -1.8621 -5.0967  0.8481
    3SAPS   HN3  270   4.485   6.225   6.487  2.5282 -1.1545  0.3548
    3SAPS   C12  271   4.381   6.286   6.679  0.1023 -0.3273  0.4054
    3SAPS  H12A  272   4.412   6.346   6.763 -1.4452  0.1081  0.6970
    3SAPS   C13  273   4.249   6.343   6.641  0.0029  0.1055 -0.3023
    3SAPS  O13A  274   4.222   6.366   6.522  0.0701 -0.7399  0.0600
    3SAPS  O13B  275   4.156   6.343   6.728 -0.1645  0.6614  0.0718
    3SAPS   C11  276   4.353   6.142   6.733 -0.2298 -0.0730 -0.2122
    3SAPS  H11A  277   4.321   6.092   6.640  0.4885 -1.4102  0.2421
    3SAPS  H11B  278   4.275   6.147   6.812  1.4636 -1.7720  1.7074
    3SAPS     P  279   4.476   5.933   6.805  0.0434 -0.1388 -0.0254
    3SAPS   O13  280   4.587   5.905   6.896 -0.0616 -0.4734 -0.2599
    3SAPS   O14  281   4.342   5.881   6.841 -0.2901  0.0852 -0.1403
    3SAPS   O12  282   4.470   6.087   6.791 -0.6675  0.3403 -0.9378
    3SAPS   O11  283   4.513   5.885   6.663 -0.5366  0.8518 -0.1196
    3SAPS    C1  284   4.634   5.933   6.607 -0.0938 -0.5077  0.4999
    3SAPS    HA  285   4.629   6.044   6.607 -1.2637 -0.5019  2.3840
    3SAPS    HB  286   4.721   5.915   6.674  0.3107 -3.8744 -0.7873
    3SAPS    C2  287   4.669   5.886   6.464  0.5132  0.2682  0.3121
    3SAPS    HS  288   4.724   5.962   6.406  3.0027 -2.2286 -0.8655
    3SAPS   O21  289   4.552   5.854   6.380  0.2683 -0.2215  0.7657
    3SAPS   C21  290   4.474   5.951   6.379  0.6039 -0.3786 -0.0264
    3SAPS   O22  291   4.501   6.070   6.396 -0.3725 -0.1054  0.5285
    3SAPS   C22  292   4.330   5.899   6.344  0.3851 -0.7032 -0.1592
    3SAPS   H2R  293   4.303   5.818   6.416 -2.1818  2.0520  2.2445
    3SAPS   H2S  294   4.252   5.976   6.358 -0.9336 -1.9362 -0.4645
    3SAPS    C3  295   4.763   5.761   6.458 -0.5501  0.0816 -0.2014
    3SAPS    HX  296   4.710   5.686   6.520 -0.1697  1.2490  1.6174
    3SAPS    HY  297   4.853   5.794   6.514 -0.3615 -1.6854  0.6077
    3SAPS   O31  298   4.791   5.728   6.320  0.1548 -0.4457 -0.3125
    3SAPS   C31  299   4.724   5.618   6.281  0.2124  0.2175  0.2496
    3SAPS   O32  300   4.649   5.548   6.351 -0.4504  0.0507  0.1064
    3SAPS   C32  301   4.758   5.583   6.141 -0.7044  0.6084  0.0751
    3SAPS   H2X  302   4.743   5.674   6.079 -2.6349 -0.2889 -0.8644
    3SAPS   H2Y  303   4.695   5.504   6.095 -0.5568  0.4654  0.1191
    3SAPS   C23  304   4.321   5.843   6.195 -0.1694 -0.3359  0.0454
    3SAPS   H3R  305   4.402   5.768   6.184  0.1761  0.3781 -3.0698
    3SAPS   H3S  306   4.347   5.927   6.127 -0.4023 -1.7955 -1.9075
    3SAPS   C24  307   4.180   5.801   6.157  0.2867  0.0274 -0.3252
    3SAPS   H4R  308   4.152   5.727   6.236 -1.4964  0.7062 -0.2731
    3SAPS   H4S  309   4.176   5.747   6.060  2.4755 -1.0405  0.0931
    3SAPS   C25  310   4.084   5.912   6.156 -0.3512  0.4470  0.3446
    3SAPS   H5R  311   4.005   5.909   6.232 -0.9749  2.1117 -0.2003
    3SAPS   C26  312   4.067   6.005   6.061 -0.0823 -0.7166  0.0591
    3SAPS   H6R  313   3.996   6.086   6.082  0.9361  0.5162 -1.0730
    3SAPS   C27  314   4.132   6.016   5.929  0.5287  0.0984  0.2021
    3SAPS   H7R  315   4.159   5.914   5.894  4.2435  1.3123 -0.9027
    3SAPS   H7S  316   4.229   6.069   5.930  2.0861 -2.6019  0.8141
    3SAPS   C28  317   4.040   6.084   5.829 -0.2820  0.0036 -0.3624
    3SAPS   H8R  318   3.962   6.142   5.880  0.7125  0.9925  0.0594
    3SAPS   C29  319   4.029   6.076   5.699 -0.2423  0.1456  0.0649
    3SAPS   H9R  320   3.942   6.127   5.653  0.3527 -0.9961 -2.4961
    3SAPS  C210  321   4.110   5.990   5.597  0.1111 -0.5047 -0.0522
    3SAPS  H10R  322   4.042   5.989   5.509 -0.4844  0.6950  0.3762
    3SAPS  H10S  323   4.094   5.884   5.625 -0.2514 -0.6263 -0.6827
    3SAPS  C211  324   4.260   6.000   5.565  0.2156  0.1167  0.4851
    3SAPS  H11R  325   4.329   6.050   5.635  1.1185 -0.7643  0.2469
    3SAPS  C212  326   4.333   5.972   5.457  0.8025  0.3902  0.2306
    3SAPS  H12R  327   4.443   5.981   5.465  0.7610  0.2501  0.9918
    3SAPS  C213  328   4.284   5.916   5.329 -0.5380  0.4637 -0.5314
    3SAPS  H13R  329   4.260   6.012   5.279 -0.8501  1.3772  1.2673
    3SAPS  H13S  330   4.181   5.875   5.326 -1.5561  2.7061  0.7840
    3SAPS  C214  331   4.382   5.843   5.243 -0.1530 -0.2689  0.1821
    3SAPS  H14R  332   4.402   5.888   5.145 -2.6108  0.6493  0.0258
    3SAPS  C215  333   4.442   5.729   5.272 -0.6483  0.4650 -0.1589
    3SAPS  H15R  334   4.498   5.686   5.188 -1.7918 -1.2775 -0.0823
    3SAPS  C216  335   4.421   5.645   5.400 -0.5289  0.3678 -0.8133
    3SAPS  H16R  336   4.345   5.686   5.469 -0.5109 -1.6671  0.4841
    3SAPS  H16S  337   4.519   5.645   5.452 -1.3458  0.0113  0.7619
    3SAPS  C217  338   4.379   5.490   5.378  0.0951 -0.7645 -0.3765
    3SAPS  H17R  339   4.294   5.479   5.307 -2.5385 -0.8924  2.5639
    3SAPS  H17S  340   4.320   5.460   5.467 -0.1244  0.1946 -0.1826
    3SAPS  C218  341   4.490   5.392   5.357  0.0732 -0.9524  0.4762
    3SAPS  H18R  342   4.550   5.376   5.449  1.7823  0.7440 -0.2913
    3SAPS  H18S  343   4.560   5.431   5.280  2.3752 -1.6930  2.0883
    3SAPS  C219  344   4.458   5.249   5.309 -0.2276  0.3978  0.1589
    3SAPS  H19R  345   4.544   5.178   5.308 -1.1582 -0.7508 -0.0366
    3SAPS  H19S  346   4.379   5.201   5.370 -0.5385 -0.3263 -0.7796
    3SAPS  C220  347   4.415   5.257   5.163  0.2971 -0.3563  0.2808
    3SAPS  H20R  348   4.367   5.353   5.134  3.3072  1.1657 -0.0102
    3SAPS  H20S  349   4.358   5.163   5.148  0.5944 -0.4715 -0.1518
    3SAPS  H20T  350   4.498   5.244   5.089 -0.5238 -3.7922 -0.2196
    3SAPS   C33  351   4.907   5.537   6.125 -0.2813  0.2743 -0.2799
    3SAPS   H3X  352   4.923   5.446   6.187  0.7624  1.3334  1.0538
    3SAPS   H3Y  353   4.976   5.608   6.174 -0.3636 -0.2722  0.6630
    3SAPS   C34  354   4.959   5.500   5.981 -0.1238  0.6664 -0.5980
    3SAPS   H4X  355   5.051   5.442   5.999 -0.5150  0.9363  3.2479
    3SAPS   H4Y  356   4.985   5.595   5.930 -0.5047  1.9745  1.5104
    3SAPS   C35  357   4.857   5.428   5.896  0.1160  0.1518 -0.7228
    3SAPS   H5X  358   4.812   5.347   5.957  0.9268  0.7387  0.6937
    3SAPS   H5Y  359   4.781   5.503   5.866  1.1147  0.9947 -1.2286
    3SAPS   C36  360   4.914   5.368   5.769 -0.2829 -0.5194 -0.4663
    3SAPS   H6X  361   4.988   5.288   5.791 -0.9649 -1.3192 -0.9947
    3SAPS   H6Y  362   4.969   5.451   5.720 -2.1351  0.4456 -0.9974
    3SAPS   C37  363   4.816   5.317   5.662  0.3075  0.2674  0.6140
    3SAPS   H7X  364   4.874   5.281   5.574 -1.3617 -1.8337  0.2852
    3SAPS   H7Y  365   4.752   5.403   5.632 -0.6761  0.7797  3.8169
    3SAPS   C38  366   4.730   5.198   5.709  0.4066  1.0898  0.3251
    3SAPS   H8X  367   4.672   5.238   5.795 -0.0875 -0.8385  0.9282
    3SAPS   H8Y  368   4.799   5.127   5.759 -0.0262  0.8479  0.5834
    3SAPS   C39  369   4.633   5.134   5.609  0.1153 -0.3568 -0.3739
    3SAPS   H9X  370   4.684   5.080   5.527  1.0740 -0.0332 -0.0041
    3SAPS   H9Y  371   4.565   5.215   5.573  0.1244  0.2206  0.8647
    3SAPS  C310  372   4.550   5.022   5.674 -0.5297 -0.1472 -0.5404
    3SAPS  H10X  373   4.519   5.065   5.772  1.1123  1.1451 -0.5600
    3SAPS  H10Y  374   4.615   4.936   5.701  0.4188  1.0928  1.2785
    3SAPS  C311  375   4.428   4.982   5.595 -0.5442  0.2998  0.6140
    3SAPS  H11X  376   4.402   4.886   5.646 -0.2794  0.3687  0.8812
    3SAPS  H11Y  377   4.460   4.967   5.490  0.6705  0.0759  1.0021
    3SAPS  C312  378   4.305   5.061   5.605  0.8591  0.4487 -0.1430
    3SAPS  H12X  379   4.306   5.162   5.559 -3.5860  0.3960 -0.7329
    3SAPS  H12Y  380   4.265   5.075   5.708 -0.7616  2.7227 -1.0163
    3SAPS  C313  381   4.188   4.998   5.528  0.1228 -0.2476 -0.0678
    3SAPS  H13X  382   4.225   4.984   5.424  0.8926 -1.8074  0.3936
    3SAPS  H13Y  383   4.121   5.086   5.515 -0.9475 -0.6832  1.9763
    3SAPS  C314  384   4.119   4.870   5.578 -0.9647  0.3756  0.4204
    3SAPS  H14X  385   4.051   4.901   5.661  1.2392 -0.2640  2.5977
    3SAPS  H14Y  386   4.192   4.803   5.627  2.1798  3.2808  0.0505
    3SAPS  C315  387   4.030   4.792   5.470 -0.1750 -0.0554  0.5385
    3SAPS  H15X  388   3.934   4.849   5.467 -0.3785 -0.3966  0.5720
    3SAPS  H15Y  389   4.000   4.690   5.501  0.9401 -0.7086 -0.4692
    3SAPS  C316  390   4.081   4.796   5.325  0.2059 -0.1805 -0.3743
    3SAPS  H16X  391   4.186   4.761   5.323  0.3407  0.2603 -1.2947
    3SAPS  H16Y  392   4.095   4.895   5.277 -1.3604 -0.3025 -1.1668
    3SAPS  C317  393   4.005   4.716   5.230 -0.2443  0.3863  0.2418
    3SAPS  H17X  394   3.926   4.780   5.184  0.9655 -0.6235 -3.6093
    3SAPS  H17Y  395   3.964   4.617   5.262 -1.3694  0.7700  0.0519
    3SAPS  C318  396   4.087   4.667   5.109 -1.2549  0.0390  0.1714
    3SAPS  H18X  397   4.165   4.743   5.090 -2.9042  1.8356  0.2318
    3SAPS  H18Y  398   4.034   4.667   5.011 -0.6580 -1.2363 -0.1784
    3SAPS  H18Z  399   4.133   4.568   5.131  1.9417  0.7834 -2.4623
    4SAPS     N  400   3.026   3.121   6.926  0.0419 -0.5550 -0.1712
    4SAPS   HN1  401   3.091   3.053   6.969 -0.0901 -0.0697  0.8217
    4SAPS   HN2  402   2.927   3.090   6.934 -0.9219  2.3232  0.1242
    4SAPS   HN3  403   3.058   3.133   6.828  4.0569 -2.1339  0.7466
    4SAPS   C12  404   3.045   3.252   6.988  0.3976 -0.2045  0.4914
    4SAPS  H12A  405   3.016   3.242   7.092  2.5755  1.1234  1.2795
    4SAPS   C13  406   3.190   3.305   7.002  0.0227  0.5006  0.1445
    4SAPS  O13A  407   3.278   3.219   6.970  0.0998  0.2035  0.6399
    4SAPS  O13B  408   3.210   3.414   7.060  0.1111  0.0547  0.4284
    4SAPS   C11  409   2.949   3.350   6.926 -0.4735  0.5454 -0.3062
    4SAPS  H11A  410   2.967   3.378   6.820 -4.0813  0.3764 -1.1105
    4SAPS  H11B  411   2.955   3.450   6.973 -0.2926  0.0645  0.7236
    4SAPS     P  412   2.713   3.318   7.059 -0.4431  0.1979  0.4291
    4SAPS   O13  413   2.614   3.210   7.045 -0.0938  0.1434 -0.4862
    4SAPS   O14  414   2.781   3.332   7.192  0.3246  0.5401  0.4465
    4SAPS   O12  415   2.820   3.288   6.943 -0.8416 -1.0860  0.0483
    4SAPS   O11  416   2.649   3.457   7.014 -0.5733 -0.8808 -0.2267
    4SAPS    C1  417   2.609   3.477   6.872  0.6716 -0.0459  0.3133
    4SAPS    HA  418   2.697   3.462   6.805 -0.6126  1.1477 -1.7234
    4SAPS    HB  419   2.538   3.394   6.852 -0.4098  1.1241 -0.8766
    4SAPS    C2  420   2.530   3.617   6.844 -0.1451 -0.1222  0.1209
    4SAPS    HS  421   2.464   3.589   6.759  0.8703  1.4710 -1.2456
    4SAPS   O21  422   2.629   3.720   6.813  0.0253 -0.4552  0.1516
    4SAPS   C21  423   2.678   3.709   6.689 -0.6237  0.2584  0.1413
    4SAPS   O22  424   2.642   3.628   6.603  0.1168  0.3838  0.3583
    4SAPS   C22  425   2.783   3.819   6.671  0.0390  0.0619  0.8838
    4SAPS   H2R  426   2.722   3.911   6.656 -1.3458 -0.8240  0.9221
    4SAPS   H2S  427   2.833   3.832   6.770 -0.5861 -0.9831  1.3516
    4SAPS    C3  428   2.450   3.661   6.967 -0.2610 -0.0112  0.6283
    4SAPS    HX  429   2.514   3.683   7.054  1.4251  3.1934 -1.2167
    4SAPS    HY  430   2.377   3.590   7.011  1.5078 -0.6037  2.7502
    4SAPS   O31  431   2.384   3.784   6.943  0.0941 -0.1092 -0.1741
    4SAPS   C31  432   2.266   3.777   6.874 -0.7792 -0.3094 -0.2979
    4SAPS   O32  433   2.217   3.686   6.817  0.9084 -0.2372 -0.1342
    4SAPS   C32  434   2.204   3.914   6.871 -0.0643 -0.7756  0.4800
    4SAPS   H2X  435   2.286   3.988   6.864 -2.8017  2.5872  1.0457
    4SAPS   H2Y  436   2.142   3.934   6.961  0.2913 -0.0835  0.5801
    4SAPS   C23  437   2.874   3.799   6.545  0.2276 -0.2248 -0.1471
    4SAPS   H3R  438   2.929   3.891   6.520 -0.6340 -0.0775 -1.6067
    4SAPS   H3S  439   2.798   3.779   6.466 -1.3388  0.3533  1.1630
    4SAPS   C24  440   2.979   3.682   6.552  0.4257  0.6041 -0.6497
    4SAPS   H4R  441   2.913   3.593   6.557  0.7039  0.3599 -1.2629
    4SAPS   H4S  442   3.035   3.675   6.648  0.2064 -2.2734 -0.6537
    4SAPS   C25  443   3.080   3.666   6.440 -0.1170 -0.1204 -0.5721
    4SAPS   H5R  444   3.182   3.648   6.479  0.0624  0.3821 -0.7975
    4SAPS   C26  445   3.056   3.655   6.309  0.7165 -1.3921  0.2717
    4SAPS   H6R  446   3.144   3.637   6.246  2.3594  1.2527  1.6792
    4SAPS   C27  447   2.924   3.663   6.225 -0.1003 -0.2060 -0.1455
    4SAPS   H7R  448   2.964   3.652   6.122  2.3376  1.1255  0.5842
    4SAPS   H7S  449   2.882   3.764   6.243 -0.2061 -0.4024  0.7682
    4SAPS   C28  450   2.828   3.558   6.265 -0.3204  0.9066  0.0568
    4SAPS   H8R  451   2.797   3.563   6.370 -2.7284 -1.0350 -0.4805
    4SAPS   C29  452   2.759   3.476   6.191 -0.0735 -0.0437 -0.2307
    4SAPS   H9R  453   2.693   3.411   6.250  1.2159  0.3653  1.7318
    4SAPS  C210  454   2.764   3.469   6.040  0.1078  0.1192 -0.4711
    4SAPS  H10R  455   2.845   3.396   6.018  0.4066  0.5184 -0.6969
    4SAPS  H10S  456   2.796   3.561   5.987 -1.5127  0.6919 -0.5169
    4SAPS  C211  457   2.637   3.410   5.983 -0.1651  0.3632 -0.1796
    4SAPS  H11R  458   2.552   3.451   6.039  0.2572 -0.7630  1.3486
    4SAPS  C212  459   2.616   3.308   5.893 -0.4674 -0.1561  0.4076
    4SAPS  H12R  460   2.512   3.299   5.857  0.7231 -0.6158 -3.3416
    4SAPS  C213  461   2.717   3.229   5.821  0.6237  0.2069  0.5205
    4SAPS  H13R  462   2.665   3.141   5.777  0.1219  0.3189  0.8727
    4SAPS  H13S  463   2.790   3.188   5.894  1.8241 -0.8949 -1.2105
    4SAPS  C214  464   2.784   3.314   5.710 -0.7448  0.5973 -0.1313
    4SAPS  H14R  465   2.825   3.409   5.747 -2.5788  1.0114  0.9556
    4SAPS  C215  466   2.816   3.278   5.585 -0.4076 -0.1493  0.2171
    4SAPS  H15R  467   2.856   3.352   5.515 -0.1523 -1.3756 -0.9809
    4SAPS  C216  468   2.769   3.153   5.519 -0.4725 -0.7714  0.0031
    4SAPS  H16R  469   2.730   3.081   5.594  1.9416 -2.2775 -0.0920
    4SAPS  H16S  470   2.863   3.113   5.476 -0.7543 -2.7537  1.0948
    4SAPS  C217  471   2.665   3.167   5.410  0.1672  0.0126 -0.3108
    4SAPS  H17R  472   2.579   3.227   5.448  0.5588 -0.2657  1.0733
    4SAPS  H17S  473   2.616   3.070   5.384 -1.3466 -0.0874  2.5891
    4SAPS  C218  474   2.710   3.228   5.274 -0.3790  0.3387 -0.0519
    4SAPS  H18R  475   2.754   3.150   5.209  0.8698 -1.7838  3.1532
    4SAPS  H18S  476   2.787   3.305   5.298 -0.5707  0.7506 -0.7063
    4SAPS  C219  477   2.591   3.299   5.206 -0.5308 -0.1311  0.4834
    4SAPS  H19R  478   2.553   3.374   5.278 -0.5492  0.8512 -0.5279
    4SAPS  H19S  479   2.506   3.228   5.202 -1.3485  0.8543 -0.2221
    4SAPS  C220  480   2.624   3.362   5.073  0.3200  0.0641 -0.7447
    4SAPS  H20R  481   2.655   3.288   4.996 -0.1275 -1.7914  0.7772
    4SAPS  H20S  482   2.705   3.435   5.092 -0.6851  0.7053  1.4073
    4SAPS  H20T  483   2.529   3.400   5.030  0.7486 -0.2601 -2.0136
    4SAPS   C33  484   2.120   3.943   6.744  0.3670  0.0223 -0.0902
    4SAPS   H3X  485   2.076   4.044   6.757 -0.4694 -0.3923  0.4057
    4SAPS   H3Y  486   2.034   3.873   6.736  0.5877 -0.1506 -1.0511
    4SAPS   C34  487   2.207   3.949   6.620  0.2393 -0.3422  0.0911
    4SAPS   H4X  488   2.245   3.850   6.588 -1.0008 -0.5388 -0.8753
    4SAPS   H4Y  489   2.290   4.016   6.650  1.9821 -1.3792 -2.1977
    4SAPS   C35  490   2.129   4.020   6.504 -1.2541 -0.6841 -0.1399
    4SAPS   H5X  491   2.152   4.129   6.502 -3.4856 -0.1607 -1.6344
    4SAPS   H5Y  492   2.018   4.016   6.513 -1.2457  0.7957  1.0836
    4SAPS   C36  493   2.189   3.975   6.369 -0.1637  0.3014 -0.5569
    4SAPS   H6X  494   2.146   3.875   6.346  1.6438 -0.5480 -0.4208
    4SAPS   H6Y  495   2.298   3.954   6.377 -0.6461 -1.8457  1.5084
    4SAPS   C37  496   2.160   4.069   6.248  0.6513  0.3412 -0.4675
    4SAPS   H7X  497   2.223   4.158   6.270  2.0638 -0.6466 -0.4386
    4SAPS   H7Y  498   2.050   4.088   6.249  0.5387 -0.2295  1.2345
    4SAPS   C38  499   2.207   4.003   6.127  0.7383 -0.1608  0.9828
    4SAPS   H8X  500   2.137   3.918   6.114  1.2243 -0.3167 -0.8742
    4SAPS   H8Y  501   2.309   3.963   6.145  0.7940  0.2746  1.7241
    4SAPS   C39  502   2.196   4.087   5.997 -0.3767  0.3780  0.4647
    4SAPS   H9X  503   2.272   4.167   6.010  2.6403 -2.1426 -0.4641
    4SAPS   H9Y  504   2.090   4.116   5.985 -0.6377 -0.4028  0.8159
    4SAPS  C310  505   2.227   4.008   5.869 -0.3444 -0.0279  0.2424
    4SAPS  H10X  506   2.155   3.924   5.877 -0.0835 -0.3654 -0.7816
    4SAPS  H10Y  507   2.331   3.968   5.868  0.0707  0.9114  1.8678
    4SAPS  C311  508   2.209   4.098   5.745 -0.6325 -0.5373 -0.7909
    4SAPS  H11X  509   2.264   4.188   5.781  1.0332 -2.2188  1.1461
    4SAPS  H11Y  510   2.100   4.119   5.749 -0.3842  0.6031  0.5653
    4SAPS  C312  511   2.257   4.043   5.614  0.5673 -0.4038 -0.0102
    4SAPS  H12X  512   2.198   3.958   5.574 -1.3749  0.6663  0.4451
    4SAPS  H12Y  513   2.362   4.007   5.619  1.0254  0.9758  1.3557
    4SAPS  C313  514   2.256   4.155   5.513  0.4370  0.3209  0.7074
    4SAPS  H13X  515   2.315   4.237   5.558  1.2651 -0.6903  1.5050
    4SAPS  H13Y  516   2.154   4.199   5.516  0.4871  0.3867  1.8860
    4SAPS  C314  517   2.298   4.116   5.366  0.2604  0.2871 -0.1617
    4SAPS  H14X  518   2.204   4.073   5.325 -0.1991 -0.8742  1.9535
    4SAPS  H14Y  519   2.377   4.039   5.371  3.7907  3.6186 -0.0678
    4SAPS  C315  520   2.330   4.231   5.275 -0.5595 -0.3204  1.5371
    4SAPS  H15X  521   2.433   4.271   5.288 -0.0696 -0.2392 -1.8433
    4SAPS  H15Y  522   2.265   4.319   5.293 -0.2337  0.4747 -0.7972
    4SAPS  C316  523   2.320   4.191   5.124  0.7581  0.6884 -0.0854
    4SAPS  H16X  524   2.255   4.103   5.105  3.5997 -1.1624 -1.9669
    4SAPS  H16Y  525   2.416   4.146   5.091 -0.1451 -1.4066  0.0255
    4SAPS  C317  526   2.280   4.315   5.036 -0.0978  0.7048  0.1028
    4SAPS  H17X  527   2.361   4.388   5.055  1.2011 -0.7631  0.3315
    4SAPS  H17Y  528   2.180   4.360   5.058 -1.1805 -1.1277 -0.8174
    4SAPS  C318  529   2.281   4.277   4.889  0.6157 -0.2620  0.6419
    4SAPS  H18X  530   2.230   4.181   4.866 -0.7165  0.2855  1.1613
    4SAPS  H18Y  531   2.387   4.272   4.857  0.4136 -0.8663  0.0564
    4SAPS  H18Z  532   2.223   4.356   4.835 -0.8870 -2.0712 -0.5223
    5SAPS     N  533   4.883   6.685   6.964 -0.5220 -0.1271  0.6004
    5SAPS   HN1  534   4.881   6.621   6.882 -1.1840  2.7351 -1.7731
    5SAPS   HN2  535   4.854   6.629   7.047 -2.5632 -1.0381 -0.6429
    5SAPS   HN3  536   4.818   6.762   6.940 -0.0868  0.5748  1.6014
    5SAPS   C12  537   5.014   6.760   6.983  0.2969 -0.5492  1.1739
    5SAPS  H12A  538   5.048   6.799   6.888 -1.7880 -2.2786 -0.3793
    5SAPS   C13  539   5.017   6.878   7.088 -0.2111  0.0713 -0.1843
    5SAPS  O13A  540   4.909   6.918   7.132 -0.0586  0.3331 -0.0497
    5SAPS  O13B  541   5.122   6.949   7.088 -0.3081  0.1446 -0.6592
    5SAPS   C11  542   5.111   6.653   7.032  0.2639 -0.6918 -0.6077
    5SAPS  H11A  543   5.066   6.608   7.123 -3.1078 -1.7753 -2.6404
    5SAPS  H11B  544   5.210   6.699   7.055  1.0856 -3.0821  0.9510
    5SAPS     P  545   5.215   6.421   6.954  0.4037  0.1545 -0.3209
    5SAPS   O13  546   5.338   6.451   7.033  0.6611  0.2094  0.3388
    5SAPS   O14  547   5.121   6.329   7.023 -0.8209 -0.5903  0.5818
    5SAPS   O12  548   5.146   6.558   6.933  0.2649  0.0480 -0.4229
    5SAPS   O11  549   5.250   6.370   6.816 -0.0577  0.3210 -0.0554
    5SAPS    C1  550   5.324   6.249   6.799  0.1457 -0.0155  0.6329
    5SAPS    HA  551   5.428   6.267   6.834  1.2532 -3.5569 -0.4304
    5SAPS    HB  552   5.277   6.169   6.860 -0.3489  0.8081  1.3631
    5SAPS    C2  553   5.322   6.188   6.660  0.0915  0.5253 -0.1466
    5SAPS    HS  554   5.411   6.124   6.640  0.5159  0.7173  1.0683
    5SAPS   O21  555   5.334   6.287   6.555  0.3215 -0.2873  0.0027
    5SAPS   C21  556   5.454   6.341   6.534  0.9891  0.3196 -0.1575
    5SAPS   O22  557   5.553   6.327   6.600 -0.5592  0.1005  0.0820
    5SAPS   C22  558   5.436   6.443   6.425 -0.3036 -0.3554  1.0145
    5SAPS   H2R  559   5.345   6.503   6.447 -0.0029  0.6729 -0.4256
    5SAPS   H2S  560   5.521   6.514   6.428 -0.7188  0.1781  0.5088
    5SAPS    C3  561   5.196   6.101   6.637  0.0171  0.1667 -0.0323
    5SAPS    HX  562   5.108   6.170   6.632  0.0938  0.3865  1.4365
    5SAPS    HY  563   5.177   6.038   6.727 -1.2004 -0.3163 -0.5942
    5SAPS   O31  564   5.209   6.009   6.524 -0.2321  0.2309 -0.5732
    5SAPS   C31  565   5.094   5.962   6.481  0.4147 -0.2975  0.2212
    5SAPS   O32  566   4.981   6.009   6.502 -0.3390  0.0780  0.4989
    5SAPS   C32  567   5.127   5.853   6.384 -0.2152  0.1382 -0.4712
    5SAPS   H2X  568   5.032   5.841   6.328 -1.3232  0.0456  1.3364
    5SAPS   H2Y  569   5.150   5.765   6.448 -1.0088 -0.0425 -0.4155
    5SAPS   C23  570   5.425   6.385   6.280 -0.0320  0.3080 -0.2095
    5SAPS   H3R  571   5.401   6.454   6.196  1.5481  1.1086 -0.0346
    5SAPS   H3S  572   5.341   6.312   6.276  1.7050 -1.7935  0.0260
    5SAPS   C24  573   5.554   6.306   6.244 -0.1324  0.2874 -1.0677
    5SAPS   H4R  574   5.521   6.234   6.166  0.1571 -0.6685 -0.3284
    5SAPS   H4S  575   5.585   6.236   6.325 -0.6935  1.7079  0.4209
    5SAPS   C25  576   5.669   6.390   6.200 -0.1813  0.3638  0.3784
    5SAPS   H5R  577   5.728   6.427   6.286  2.0249 -2.0992  0.0508
    5SAPS   C26  578   5.696   6.434   6.073 -0.2236  0.0060 -0.4729
    5SAPS   H6R  579   5.792   6.482   6.047 -1.6489  2.9039 -0.8274
    5SAPS   C27  580   5.613   6.398   5.953 -0.6219  0.0327 -0.5357
    5SAPS   H7R  581   5.544   6.312   5.970 -2.4610  1.6647  0.6150
    5SAPS   H7S  582   5.678   6.361   5.870 -0.5755 -0.3109 -0.3487
    5SAPS   C28  583   5.533   6.511   5.909 -0.0074 -0.7639  0.0827
    5SAPS   H8R  584   5.467   6.545   5.991 -1.2175  0.5667 -1.3818
    5SAPS   C29  585   5.531   6.575   5.793 -0.2717 -0.3592 -0.3224
    5SAPS   H9R  586   5.459   6.657   5.780  1.6884  1.6748  0.9015
    5SAPS  C210  587   5.598   6.529   5.675 -0.6206  0.2565  0.0402
    5SAPS  H10R  588   5.585   6.419   5.667  1.9631 -0.1081 -0.0563
    5SAPS  H10S  589   5.706   6.557   5.679 -1.2253  2.7953 -0.0806
    5SAPS  C211  590   5.545   6.585   5.546  0.6331 -0.4379  0.5122
    5SAPS  H11R  591   5.592   6.681   5.519 -0.0430  0.2326  1.6319
    5SAPS  C212  592   5.466   6.530   5.464  0.0852 -0.1836  0.0766
    5SAPS  H12R  593   5.434   6.586   5.375  3.6674 -0.4649 -1.5475
    5SAPS  C213  594   5.385   6.406   5.476 -0.4562  0.3240 -0.2194
    5SAPS  H13R  595   5.388   6.356   5.575 -2.0160 -0.8270 -0.7138
    5SAPS  H13S  596   5.422   6.327   5.408 -1.9412 -0.3662 -0.2791
    5SAPS  C214  597   5.244   6.447   5.440  0.5718  0.3860 -0.3054
    5SAPS  H14R  598   5.178   6.464   5.527 -0.4735 -2.0436 -0.5392
    5SAPS  C215  599   5.203   6.446   5.314 -0.3041 -0.3445  0.3318
    5SAPS  H15R  600   5.106   6.493   5.294  0.9133  1.2541 -2.4116
    5SAPS  C216  601   5.289   6.420   5.195  0.6751  0.3376 -0.3158
    5SAPS  H16R  602   5.381   6.376   5.239 -0.7647 -1.6180  0.9301
    5SAPS  H16S  603   5.308   6.519   5.149 -0.9549  0.0449 -1.7540
    5SAPS  C217  604   5.216   6.329   5.098  0.8109 -0.4766 -0.2604
    5SAPS  H17R  605   5.125   6.384   5.064  0.0084 -0.5893  1.5602
    5SAPS  H17S  606   5.188   6.229   5.137  0.5232 -0.6470 -0.9003
    5SAPS  C218  607   5.311   6.292   4.989  0.7286  0.2890  0.0612
    5SAPS  H18R  608   5.380   6.218   5.035 -1.1012 -1.3772  0.3052
    5SAPS  H18S  609   5.367   6.377   4.945  1.2689  0.1894  0.5374
    5SAPS  C219  610   5.235   6.231   4.875  0.0264 -0.2541  0.4133
    5SAPS  H19R  611   5.171   6.314   4.839  0.2880  0.3196  1.2370
    5SAPS  H19S  612   5.158   6.159   4.910 -0.4371  0.2130  0.3765
    5SAPS  C220  613   5.318   6.165   4.760 -1.0277  0.1984 -0.7202
    5SAPS  H20R  614   5.352   6.063   4.788 -1.1692  0.8512  2.1554
    5SAPS  H20S  615   5.411   6.224   4.744 -1.7778  1.5448 -0.3050
    5SAPS  H20T  616   5.263   6.168   4.663 -0.5964  4.0438 -1.0038
    5SAPS   C33  617   5.243   5.905   6.291 -0.2917  0.7340  0.0827
    5SAPS   H3X  618   5.253   5.825   6.215 -0.7212  0.1349  0.6511
    5SAPS   H3Y  619   5.342   5.921   6.339  0.9993  0.3864 -2.3161
    5SAPS   C34  620   5.216   6.038   6.211 -0.3002 -0.5962  0.0932
    5SAPS   H4X  621   5.258   6.117   6.278  0.4581 -1.2133  0.3658
    5SAPS   H4Y  622   5.111   6.069   6.190  0.3903 -0.2752 -3.3999
    5SAPS   C35  623   5.290   6.046   6.079  0.0613  0.1452  0.9127
    5SAPS   H5X  624   5.329   5.949   6.043  0.5821  1.0300 -1.1151
    5SAPS   H5Y  625   5.382   6.109   6.088  0.8388 -0.8085 -0.1225
    5SAPS   C36  626   5.197   6.106   5.972 -1.2982 -0.0438 -0.3601
    5SAPS   H6X  627   5.163   6.202   6.016  0.1029  1.5803 -2.6058
    5SAPS   H6Y  628   5.106   6.045   5.953  0.4222 -1.7115 -4.3741
    5SAPS   C37  629   5.261   6.136   5.833  0.0067  0.1490 -0.0411
    5SAPS   H7X  630   5.320   6.230   5.837 -0.8226  0.6501  3.1508
    5SAPS   H7Y  631   5.176   6.157   5.764 -0.0048 -0.9446 -0.3864
    5SAPS   C38  632   5.347   6.021   5.778  0.1213  0.2374 -0.0036
    5SAPS   H8X  633   5.298   5.921   5.770  1.6011 -0.4301 -1.2102
    5SAPS   H8Y  634   5.431   6.012   5.849  1.1166  0.6435 -1.0896
    5SAPS   C39  635   5.403   6.046   5.637  0.0096 -0.5880 -0.1012
    5SAPS   H9X  636   5.484   5.974   5.614  0.5340  1.2112 -5.1182
    5SAPS   H9Y  637   5.454   6.145   5.631  1.5180 -1.3622 -0.4481
    5SAPS  C310  638   5.295   6.021   5.532 -0.0796  0.0842 -0.2141
    5SAPS  H10X  639   5.234   6.114   5.526  1.6704  1.1885 -2.3933
    5SAPS  H10Y  640   5.233   5.941   5.579 -0.1105  0.0397 -0.3304
    5SAPS  C311  641   5.356   5.976   5.393  0.0010 -0.2036  0.0501
    5SAPS  H11X  642   5.434   5.900   5.412 -1.1714 -1.9039 -1.4986
    5SAPS  H11Y  643   5.402   6.066   5.346  1.1456  0.2464  1.9753
    5SAPS  C312  644   5.248   5.921   5.306 -0.2178 -0.0852 -0.0176
    5SAPS  H12X  645   5.163   5.993   5.304 -0.4902 -0.4113 -1.4298
    5SAPS  H12Y  646   5.215   5.822   5.345  1.8352 -0.7262  0.1688
    5SAPS  C313  647   5.298   5.891   5.160  0.1861 -0.3588  0.0094
    5SAPS  H13X  648   5.337   5.787   5.169  0.7658 -0.3647 -1.9895
    5SAPS  H13Y  649   5.382   5.959   5.132 -0.6827  0.9091  0.3875
    5SAPS  C314  650   5.192   5.902   5.056  0.0164 -0.2256  0.3192
    5SAPS  H14X  651   5.227   5.879   4.953  0.7312 -2.0661  0.9399
    5SAPS  H14Y  652   5.159   6.008   5.064 -0.3704 -0.3588  0.4897
    5SAPS  C315  653   5.069   5.819   5.081  0.3305  0.4818  0.2149
    5SAPS  H15X  654   5.020   5.833   5.180 -0.7326 -0.6011 -0.1371
    5SAPS  H15Y  655   5.105   5.715   5.064 -0.5931 -0.0471  1.3723
    5SAPS  C316  656   4.953   5.854   4.982  0.3639 -0.3799 -0.3515
    5SAPS  H16X  657   4.989   5.838   4.878  0.4966  0.5822 -0.4639
    5SAPS  H16Y  658   4.949   5.965   4.985 -0.5922 -0.1542 -4.0341
    5SAPS  C317  659   4.820   5.782   5.009 -0.1697  0.1567  0.0989
    5SAPS  H17X  660   4.787   5.787   5.115 -1.4878 -0.2180 -0.2737
    5SAPS  H17Y  661   4.839   5.673   5.001 -1.2642 -0.0075 -0.4793
    5SAPS  C318  662   4.704   5.833   4.916 -1.0350 -0.2952  0.0906
    5SAPS  H18X  663   4.740   5.835   4.811  0.1699  0.1655  0.4822
    5SAPS  H18Y  664   4.665   5.935   4.938 -1.7184 -0.3642 -0.7794
    5SAPS  H18Z  665   4.620   5.762   4.930 -1.4218  0.3313  1.1305
    6SAPS     N  666   1.267   6.311   7.243  0.0440 -0.4311 -0.2757
    6SAPS   HN1  667   1.267   6.208   7.234  0.2738 -0.5158  0.5431
    6SAPS   HN2  668   1.364   6.338   7.216  0.4062 -1.9597 -0.5853
    6SAPS   HN3  669   1.260   6.338   7.344  0.3317 -2.1516  0.2404
    6SAPS   C12  670   1.155   6.374   7.172  1.0240 -0.9567 -0.0449
    6SAPS  H12A  671   1.164   6.335   7.072  2.2025 -1.1374  0.1124
    6SAPS   C13  672   1.014   6.338   7.229  0.0834  0.5796  0.1620
    6SAPS  O13A  673   1.006   6.269   7.330  0.0813  0.5561 -0.2242
    6SAPS  O13B  674   0.919   6.388   7.172  1.0939 -0.1136 -0.2976
    6SAPS   C11  675   1.171   6.526   7.156  0.6764  0.3779 -0.8772
    6SAPS  H11A  676   1.174   6.575   7.255 -0.0715  0.4071 -0.8631
    6SAPS  H11B  677   1.084   6.563   7.098 -0.6889 -3.0939 -1.2992
    6SAPS     P  678   1.337   6.576   6.960 -0.0261 -0.1861 -0.1724
    6SAPS   O13  679   1.265   6.689   6.894  0.4201  0.7543  0.1740
    6SAPS   O14  680   1.483   6.585   6.953 -0.5114  0.4406  0.7909
    6SAPS   O12  681   1.292   6.567   7.112  0.1064 -0.0051  0.0566
    6SAPS   O11  682   1.283   6.449   6.888  0.1504 -0.8330 -0.2054
    6SAPS    C1  683   1.360   6.366   6.799 -0.2363  0.0100  0.4892
    6SAPS    HA  684   1.468   6.391   6.813  0.2207  0.8965 -3.3931
    6SAPS    HB  685   1.338   6.260   6.821 -1.9854  0.6505  2.0537
    6SAPS    C2  686   1.336   6.391   6.646 -0.0898  0.0634  0.6426
    6SAPS    HS  687   1.394   6.320   6.584 -1.6378 -0.6009 -0.1142
    6SAPS   O21  688   1.360   6.522   6.599 -0.0793  0.3492  0.2115
    6SAPS   C21  689   1.491   6.559   6.595 -0.3804  0.9875 -0.6764
    6SAPS   O22  690   1.590   6.491   6.627 -0.3067  0.6765  0.1622
    6SAPS   C22  691   1.500   6.708   6.558 -0.8877  0.2376 -0.2763
    6SAPS   H2R  692   1.442   6.712   6.463  0.2037  1.2225 -0.9274
    6SAPS   H2S  693   1.455   6.764   6.642  0.7499 -1.9044  2.1783
    6SAPS    C3  694   1.187   6.343   6.619 -0.7058  0.0368  0.7929
    6SAPS    HX  695   1.125   6.406   6.686  0.5857 -0.6861  2.7480
    6SAPS    HY  696   1.182   6.237   6.652  3.5333 -0.4276  0.4873
    6SAPS   O31  697   1.138   6.344   6.483  0.3082 -1.0766  0.1454
    6SAPS   C31  698   1.111   6.462   6.417  0.2998  0.5309 -0.1488
    6SAPS   O32  699   1.134   6.575   6.452 -0.3508  0.1600  0.4410
    6SAPS   C32  700   1.075   6.419   6.273  0.3199 -0.5650 -0.1086
    6SAPS   H2X  701   0.970   6.450   6.254  0.3487 -0.8028 -0.6736
    6SAPS   H2Y  702   1.094   6.312   6.248  0.6415 -0.7425  0.8548
    6SAPS   C23  703   1.645   6.756   6.526  0.1465  0.3784 -0.0529
    6SAPS   H3R  704   1.716   6.741   6.609 -1.1734 -0.6499  0.9358
    6SAPS   H3S  705   1.634   6.867   6.523  3.3310  0.8274  1.3772
    6SAPS   C24  706   1.688   6.722   6.381 -0.2259  0.5135  0.1383
    6SAPS   H4R  707   1.614   6.759   6.307  2.1041  1.2045 -1.9823
    6SAPS   H4S  708   1.682   6.611   6.384  0.0600  0.5103  0.7954
    6SAPS   C25  709   1.829   6.749   6.324 -0.3920  0.1259  0.3406
    6SAPS   H5R  710   1.906   6.692   6.377 -2.2792 -2.1230  0.8412
    6SAPS   C26  711   1.868   6.813   6.210  0.2996  0.7069 -0.8638
    6SAPS   H6R  712   1.974   6.809   6.183  0.4278 -2.7623 -0.2912
    6SAPS   C27  713   1.777   6.865   6.104 -0.0119  0.3886  0.5153
    6SAPS   H7R  714   1.806   6.973   6.103 -0.8200  0.6241  1.0368
    6SAPS   H7S  715   1.667   6.861   6.120  0.3441 -0.2012  3.4539
    6SAPS   C28  716   1.805   6.812   5.963 -0.5903  0.5638 -0.2094
    6SAPS   H8R  717   1.860   6.716   5.958 -1.3185  0.0800  0.7824
    6SAPS   C29  718   1.784   6.884   5.859  0.6606  0.0713  0.8086
    6SAPS   H9R  719   1.811   6.847   5.759 -0.6986  2.0990 -0.4013
    6SAPS  C210  720   1.716   7.021   5.851 -0.1158 -0.5157  0.0883
    6SAPS  H10R  721   1.637   7.030   5.928  0.1068  0.7399  0.2025
    6SAPS  H10S  722   1.661   7.027   5.754 -1.2040 -2.2045  0.5580
    6SAPS  C211  723   1.809   7.147   5.857 -0.2994 -0.1811 -0.3673
    6SAPS  H11R  724   1.876   7.151   5.945 -2.0552  2.6178  0.9920
    6SAPS  C212  725   1.812   7.253   5.775 -0.2507 -0.8402  0.1733
    6SAPS  H12R  726   1.884   7.334   5.792  1.0029 -1.6351 -1.0355
    6SAPS  C213  727   1.743   7.279   5.638 -0.6987 -0.8404  0.6516
    6SAPS  H13R  728   1.646   7.227   5.648 -1.5740  0.7658  0.8968
    6SAPS  H13S  729   1.804   7.220   5.566 -1.6639 -0.2734 -0.6836
    6SAPS  C214  730   1.712   7.422   5.595  0.3666 -0.3280 -0.1866
    6SAPS  H14R  731   1.668   7.487   5.672  0.5662  0.5464 -0.7938
    6SAPS  C215  732   1.723   7.463   5.470  0.1362 -0.2036  0.3199
    6SAPS  H15R  733   1.697   7.567   5.446 -0.4791 -0.0776  1.4347
    6SAPS  C216  734   1.776   7.386   5.350  0.7468  0.4735 -0.2110
    6SAPS  H16R  735   1.688   7.351   5.292  0.0727 -0.0065  1.0721
    6SAPS  H16S  736   1.832   7.294   5.377  1.2880  0.7859 -0.2491
    6SAPS  C217  737   1.873   7.467   5.261 -0.0640  0.0383 -0.0814
    6SAPS  H17R  738   1.962   7.503   5.317 -1.0601  0.0404  1.5571
    6SAPS  H17S  739   1.828   7.560   5.220  0.0888  0.8052  1.4395
    6SAPS  C218  740   1.921   7.389   5.139 -0.0054 -0.5073 -0.5127
    6SAPS  H18R  741   1.829   7.386   5.076 -0.8741 -0.4340  0.7047
    6SAPS  H18S  742   1.953   7.286   5.164  0.7769 -0.3565 -0.8561
    6SAPS  C219  743   2.035   7.457   5.063  0.0808 -0.2914  0.1436
    6SAPS  H19R  744   2.013   7.565   5.048  0.2921 -0.3759 -0.8965
    6SAPS  H19S  745   2.036   7.412   4.961 -1.0187  0.1635 -0.0805
    6SAPS  C220  746   2.173   7.435   5.125 -0.2396 -0.9625 -0.4429
    6SAPS  H20R  747   2.202   7.328   5.130  0.1928 -0.9435 -1.9488
    6SAPS  H20S  748   2.171   7.478   5.227 -0.8112 -2.6021  0.2601
    6SAPS  H20T  749   2.253   7.483   5.064 -2.2438  1.0770 -1.5829
    6SAPS   C33  750   1.171   6.499   6.180  0.0029  0.1600 -0.0835
    6SAPS   H3X  751   1.165   6.608   6.201 -1.0959  0.2266 -0.6788
    6SAPS   H3Y  752   1.128   6.485   6.078 -1.9564 -0.1947  0.7571
    6SAPS   C34  753   1.323   6.462   6.183 -0.4062 -0.5554  0.2832
    6SAPS   H4X  754   1.339   6.394   6.097  0.7297 -0.3573  0.3249
    6SAPS   H4Y  755   1.331   6.416   6.284 -1.0039 -1.3754 -0.0411
    6SAPS   C35  756   1.416   6.587   6.173  0.2996 -0.5832 -0.6969
    6SAPS   H5X  757   1.523   6.571   6.196  0.2456  1.0533  0.9438
    6SAPS   H5Y  758   1.377   6.655   6.252  2.6762 -2.2833  2.1193
    6SAPS   C36  759   1.396   6.648   6.029  0.1191  0.2516  0.0104
    6SAPS   H6X  760   1.454   6.742   6.030  0.9318 -0.2329  0.8503
    6SAPS   H6Y  761   1.292   6.674   6.002  0.0711  0.9565  0.8507
    6SAPS   C37  762   1.470   6.569   5.922  0.5660 -0.9588  0.7562
    6SAPS   H7X  763   1.422   6.473   5.892  2.1730 -1.1481 -1.4777
    6SAPS   H7Y  764   1.570   6.537   5.960  0.3100 -0.1568  2.1565
    6SAPS   C38  765   1.479   6.653   5.798  0.0175 -0.3099  0.3842
    6SAPS   H8X  766   1.527   6.749   5.824  2.4903 -1.3373 -0.0512
    6SAPS   H8Y  767   1.383   6.669   5.745 -0.0457 -0.8949  0.3092
    6SAPS   C39  768   1.566   6.577   5.697  0.4412  0.7609 -0.2403
    6SAPS   H9X  769   1.523   6.477   5.676  1.2228  0.6855 -1.6269
    6SAPS   H9Y  770   1.663   6.560   5.749  0.7220  1.7593 -0.4115
    6SAPS  C310  771   1.570   6.641   5.555 -0.0112 -0.1107 -0.9900
    6SAPS  H10X  772   1.599   6.748   5.562  1.7435 -0.6405  4.2345
    6SAPS  H10Y  773   1.461   6.640   5.538 -0.1595 -0.5410 -0.0479
    6SAPS  C311  774   1.648   6.555   5.449 -0.2988 -0.0797 -0.0989
    6SAPS  H11X  775   1.671   6.453   5.486 -1.5510 -0.5073 -0.4701
    6SAPS  H11Y  776   1.736   6.617   5.419 -1.3543  1.5282 -0.0287
    6SAPS  C312  777   1.567   6.534   5.318  0.0287  0.1710  0.2354
    6SAPS  H12X  778   1.463   6.497   5.332 -0.3590  1.7285  1.8153
    6SAPS  H12Y  779   1.617   6.457   5.255  0.5480 -1.1618  2.1958
    6SAPS  C313  780   1.563   6.657   5.232 -0.2818 -0.7564  0.4569
    6SAPS  H13X  781   1.670   6.685   5.222  0.0960 -2.2649 -0.0141
    6SAPS  H13Y  782   1.511   6.740   5.285 -1.7663 -2.5384  1.9699
    6SAPS  C314  783   1.489   6.647   5.096 -0.5778 -0.0968  0.0116
    6SAPS  H14X  784   1.475   6.750   5.057  0.3933 -0.0330 -0.1911
    6SAPS  H14Y  785   1.388   6.604   5.116 -1.5023 -0.1402 -3.9211
    6SAPS  C315  786   1.554   6.550   5.005  0.2098  0.1588  0.5781
    6SAPS  H15X  787   1.541   6.447   5.043 -3.5162 -0.5587 -2.0814
    6SAPS  H15Y  788   1.660   6.580   4.991  0.6129 -1.0547  0.9466
    6SAPS  C316  789   1.475   6.560   4.863 -0.0866 -0.9875  0.4136
    6SAPS  H16X  790   1.461   6.668   4.844  0.2241 -0.7055  1.6823
    6SAPS  H16Y  791   1.379   6.505   4.878  0.0424 -1.4173 -0.3074
    6SAPS  C317  792   1.544   6.490   4.748 -0.7082  0.6451  0.5262
    6SAPS  H17X  793   1.650   6.492   4.780 -0.5965 -0.2940  0.2184
    6SAPS  H17Y  794   1.538   6.554   4.657 -0.9867  2.4427  1.7410
    6SAPS  C318  795   1.514   6.346   4.718  0.3739 -0.2827  0.1104
    6SAPS  H18X  796   1.568   6.306   4.629 -2.5920  1.3716 -2.6210
    6SAPS  H18Y  797   1.405   6.331   4.709  0.7130 -2.0303 -2.2457
    6SAPS  H18Z  798   1.550   6.295   4.810 -2.0477 -3.5870 -0.5843
    7SAPS     N  799   5.341   0.166   7.195 -0.1494 -0.8433  0.2927
    7SAPS   HN1  800   5.341   0.130   7.292 -0.7117  0.5815  0.8441
    7SAPS   HN2  801   5.247   0.153   7.152 -0.4478  0.8714  0.3562
    7SAPS   HN3  802   5.424   0.138   7.139  2.8507  0.9098  3.4339
    7SAPS   C12  803   5.368   0.313   7.233  0.1076  0.4942 -0.1629
    7SAPS  H12A  804   5.274   0.353   7.269  0.2944 -0.2762  1.2748
    7SAPS   C13  805   5.469   0.342   7.346 -0.8113 -0.3256 -0.0985
    7SAPS  O13A  806   5.514   0.252   7.416 -0.2863  0.2767 -0.2079
    7SAPS  O13B  807   5.512   0.459   7.354 -0.4978 -0.3646  0.0423
    7SAPS   C11  808   5.416   0.382   7.102 -0.7075 -0.3141  0.1537
    7SAPS  H11A  809   5.517   0.356   7.064 -0.7285 -0.2613  0.0629
    7SAPS  H11B  810   5.422   0.492   7.116 -0.4101 -0.2825 -0.2012
    7SAPS     P  811   5.332   0.399   6.851 -0.4057 -0.2533  0.5900
    7SAPS   O13  812   5.244   0.321   6.753 -0.1517 -0.4110  1.0611
    7SAPS   O14  813   5.320   0.542   6.843  0.5425  0.0126  0.5320
    7SAPS   O12  814   5.302   0.357   7.011 -0.9243  0.1863  0.3462
    7SAPS   O11  815   5.482   0.363   6.834 -0.1495 -0.1941  0.0517
    7SAPS    C1  816   5.535   0.275   6.732  0.3630  0.8647  1.0504
    7SAPS    HA  817   5.636   0.233   6.752 -0.5268 -1.5020  0.9541
    7SAPS    HB  818   5.475   0.182   6.744 -0.6920  1.0319 -2.0416
    7SAPS    C2  819   5.524   0.332   6.584  0.1954 -0.0624 -0.1137
    7SAPS    HS  820   5.418   0.346   6.555 -0.0895 -1.5675  0.0854
    7SAPS   O21  821   5.580   0.229   6.496  0.1799 -0.6542  0.4417
    7SAPS   C21  822   5.498   0.127   6.472 -0.0730  0.4193 -1.0139
    7SAPS   O22  823   5.383   0.109   6.519 -0.8272  0.3512 -0.1284
    7SAPS   C22  824   5.574   0.037   6.369  0.5682 -0.1004 -0.2345
    7SAPS   H2R  825   5.610   0.109   6.293  1.8989  2.6726  2.7439
    7SAPS   H2S  826   5.672   0.013   6.416  2.8054  3.7347 -2.4895
    7SAPS    C3  827   5.596   0.466   6.570 -0.2547  0.5597  0.2140
    7SAPS    HX  828   5.703   0.453   6.597 -0.1101  2.9555  1.0807
    7SAPS    HY  829   5.553   0.543   6.638 -2.1361  0.7802 -1.1430
    7SAPS   O31  830   5.572   0.521   6.433  0.0801 -0.1520  0.3951
    7SAPS   C31  831   5.658   0.624   6.409 -0.3117  0.2143  0.2060
    7SAPS   O32  832   5.741   0.661   6.492  0.3275 -0.1356 -0.3327
    7SAPS   C32  833   5.613   0.703   6.285 -0.4955  0.2568 -0.2574
    7SAPS   H2X  834   5.537   0.775   6.323 -0.8493 -0.3248  0.1636
    7SAPS   H2Y  835   5.563   0.634   6.212 -0.1744 -0.1212 -0.1214
    7SAPS   C23  836   5.496  -0.083   6.302 -0.2706 -0.6313 -0.5536
    7SAPS   H3R  837   5.389  -0.061   6.279 -0.4672 -1.4650 -0.4629
    7SAPS   H3S  838   5.492  -0.158   6.384 -0.8245 -0.4336 -0.3954
    7SAPS   C24  839   5.571  -0.137   6.185  0.5930 -0.0105  0.3895
    7SAPS   H4R  840   5.517  -0.229   6.153  0.7021  0.4026 -1.0743
    7SAPS   H4S  841   5.678  -0.152   6.208  0.3710 -1.1044  0.7626
    7SAPS   C25  842   5.545  -0.032   6.079  0.1847  0.2596 -0.7564
    7SAPS   H5R  843   5.444   0.012   6.073 -0.7952 -1.5354  1.0911
    7SAPS   C26  844   5.639  -0.008   5.986 -0.1642  0.2012 -0.0204
    7SAPS   H6R  845   5.612   0.062   5.906 -0.1448  0.1483 -0.0733
    7SAPS   C27  846   5.780  -0.064   5.975  0.0239  0.0150  0.5387
    7SAPS   H7R  847   5.775  -0.169   5.938 -0.2411  0.0662  0.4211
    7SAPS   H7S  848   5.825  -0.066   6.076 -0.2691  4.1629  0.9116
    7SAPS   C28  849   5.876   0.007   5.887  0.6738 -0.1489 -0.7101
    7SAPS   H8R  850   5.949   0.056   5.953  0.3527 -1.4785  0.7103
    7SAPS   C29  851   5.876   0.022   5.756 -0.8782 -0.4106  0.1268
    7SAPS   H9R  852   5.965   0.071   5.714 -1.6915 -0.9845 -2.4786
    7SAPS  C210  853   5.774  -0.037   5.654 -0.7200  0.4608 -0.7394
    7SAPS  H10R  854   5.684  -0.081   5.701  0.3739  0.1886  1.1898
    7SAPS  H10S  855   5.819  -0.113   5.586  1.5762  0.9399  0.1560
    7SAPS  C211  856   5.714   0.076   5.574  0.2331 -0.2148 -0.5560
    7SAPS  H11R  857   5.633   0.139   5.614 -0.0778 -0.2084 -1.1945
    7SAPS  C212  858   5.736   0.109   5.440  0.2854  0.0860 -0.3606
    7SAPS  H12R  859   5.691   0.201   5.401 -1.0265  0.0504  0.9681
    7SAPS  C213  860   5.853   0.058   5.362  0.0923 -0.4634 -0.2811
    7SAPS  H13R  861   5.814  -0.022   5.295  1.1193 -1.3729  0.1867
    7SAPS  H13S  862   5.921   0.010   5.434  2.7204  0.4185 -2.0252
    7SAPS  C214  863   5.938   0.174   5.298  0.2360  0.1515 -0.3147
    7SAPS  H14R  864   6.037   0.200   5.337 -0.5346  3.0195 -0.0776
    7SAPS  C215  865   5.907   0.228   5.184  0.1391  0.3853 -0.1886
    7SAPS  H15R  866   5.976   0.300   5.139  0.7608 -0.4924 -0.6875
    7SAPS  C216  867   5.793   0.195   5.092  0.1813 -0.2976  0.1967
    7SAPS  H16R  868   5.711   0.269   5.103 -0.4419 -1.1939  2.0091
    7SAPS  H16S  869   5.755   0.097   5.127 -2.4553  0.1458 -1.1997
    7SAPS  C217  870   5.828   0.188   4.947  0.5135 -0.1478 -0.3396
    7SAPS  H17R  871   5.907   0.113   4.925 -0.3839 -0.3626 -3.1446
    7SAPS  H17S  872   5.879   0.277   4.905 -0.2907  0.3143 -0.3565
    7SAPS  C218  873   5.710   0.137   4.872 -0.7105 -0.0026  0.6143
    7SAPS  H18R  874   5.631   0.215   4.875 -1.0091 -0.1007 -2.1700
    7SAPS  H18S  875   5.675   0.043   4.918 -0.6299 -0.2912  0.0975
    7SAPS  C219  876   5.726   0.118   4.722 -0.3934  0.5592 -0.4776
    7SAPS  H19R  877   5.630   0.072   4.690 -0.1611 -0.2350 -0.0742
    7SAPS  H19S  878   5.805   0.043   4.700 -0.0759  0.5523  0.6350
    7SAPS  C220  879   5.774   0.239   4.642  0.7981  0.1416 -0.5136
    7SAPS  H20R  880   5.880   0.263   4.667  0.0668  2.0566  0.9657
    7SAPS  H20S  881   5.707   0.321   4.676 -1.1956 -1.2975 -0.8005
    7SAPS  H20T  882   5.764   0.227   4.532  0.3628 -0.0334 -0.4545
    7SAPS   C33  883   5.736   0.779   6.238 -0.4949  0.1065 -0.1971
    7SAPS   H3X  884   5.813   0.711   6.197 -0.3122  0.8073 -1.0530
    7SAPS   H3Y  885   5.775   0.836   6.324 -0.6023  0.2569 -0.2466
    7SAPS   C34  886   5.716   0.878   6.122 -0.0776 -0.1130 -0.3021
    7SAPS   H4X  887   5.816   0.924   6.105 -0.0494  0.1798  0.6196
    7SAPS   H4Y  888   5.633   0.945   6.151 -0.0847 -0.4647  0.4960
    7SAPS   C35  889   5.686   0.794   5.999  0.0193 -0.6990  0.4268
    7SAPS   H5X  890   5.595   0.738   6.029  1.0661 -1.5301  2.2523
    7SAPS   H5Y  891   5.761   0.714   5.978  0.9838  0.0663  0.8406
    7SAPS   C36  892   5.663   0.873   5.870  0.2879  0.2198 -0.0551
    7SAPS   H6X  893   5.598   0.963   5.880 -3.8144 -2.0907 -2.8228
    7SAPS   H6Y  894   5.612   0.814   5.791  1.7132 -0.0651 -0.8026
    7SAPS   C37  895   5.793   0.909   5.803  0.5956  1.2837 -0.5350
    7SAPS   H7X  896   5.846   0.813   5.783  0.1183  1.2714 -1.7971
    7SAPS   H7Y  897   5.862   0.965   5.870  0.8538  2.5919 -1.8595
    7SAPS   C38  898   5.763   0.992   5.681  0.2660 -0.0656  0.1454
    7SAPS   H8X  899   5.716   1.088   5.709  1.8011  0.6058  0.5412
    7SAPS   H8Y  900   5.697   0.934   5.613 -0.0701 -1.2881  1.4663
    7SAPS   C39  901   5.891   1.027   5.598  0.1209 -0.0599  0.6319
    7SAPS   H9X  902   5.942   0.938   5.555 -0.8726 -0.2114 -0.3068
    7SAPS   H9Y  903   5.956   1.078   5.671  0.6111  1.9072 -1.0941
    7SAPS  C310  904   5.868   1.129   5.486  0.2305  0.3485 -0.2035
    7SAPS  H10X  905   5.963   1.177   5.454 -0.2685  2.1003  0.7975
    7SAPS  H10Y  906   5.806   1.218   5.511 -1.2438 -0.7423  0.1808
    7SAPS  C311  907   5.795   1.065   5.368  0.3129  0.8351  0.4192
    7SAPS  H11X  908   5.702   1.009   5.388  0.7448  0.0236  0.1864
    7SAPS  H11Y  909   5.863   0.989   5.324 -1.4191  0.0887 -1.0571
    7SAPS  C312  910   5.766   1.165   5.258  0.0643  0.1673  0.3569
    7SAPS  H12X  911   5.852   1.232   5.237  1.4226 -1.1600  1.5104
    7SAPS  H12Y  912   5.680   1.226   5.294 -0.4264 -0.6050  0.5112
    7SAPS  C313  913   5.742   1.099   5.115 -0.3506 -0.8514 -0.2631
    7SAPS  H13X  914   5.649   1.039   5.122 -0.1665 -1.0315  0.8072
    7SAPS  H13Y  915   5.824   1.027   5.097 -1.1851 -2.2963  1.3937
    7SAPS  C314  916   5.727   1.202   5.005  0.0235 -0.6101  1.0475
    7SAPS  H14X  917   5.806   1.279   5.011 -2.8619  2.6091  0.9730
    7SAPS  H14Y  918   5.637   1.267   5.013  2.4470  3.3356 -0.7537
    7SAPS  C315  919   5.718   1.148   4.856  0.6115 -0.9145 -0.7055
    7SAPS  H15X  920   5.638   1.072   4.869 -1.5490  1.2813 -0.3364
    7SAPS  H15Y  921   5.812   1.103   4.818  1.1164  0.7197 -1.4969
    7SAPS  C316  922   5.673   1.268   4.764  0.2489  0.7619  0.5767
    7SAPS  H16X  923   5.738   1.357   4.772 -1.0372  2.2001 -2.8783
    7SAPS  H16Y  924   5.568   1.297   4.787 -0.0342  2.5401 -2.4240
    7SAPS  C317  925   5.678   1.223   4.620  0.2398  0.4336 -0.0678
    7SAPS  H17X  926   5.637   1.120   4.616  1.1142  0.0874 -0.6258
    7SAPS  H17Y  927   5.781   1.218   4.578  0.2409 -2.3804  0.0338
    7SAPS  C318  928   5.603   1.308   4.521 -1.0601 -0.5914  0.4405
    7SAPS  H18X  929   5.635   1.289   4.417 -0.5425  0.5321  0.3711
    7SAPS  H18Y  930   5.643   1.409   4.544  0.2316 -0.7870 -0.8343
    7SAPS  H18Z  931   5.492   1.311   4.529 -1.1372  1.9725 -0.6902
    8SAPS     N  932   3.812   0.961   7.094 -0.1146 -0.7294  0.2425
    8SAPS   HN1  933   3.877   0.943   7.173 -1.0876 -0.4699  1.1167
    8SAPS   HN2  934   3.838   0.900   7.014  1.7332 -2.8098  2.2877
    8SAPS   HN3  935   3.817   1.063   7.073 -0.8147 -0.9384 -1.0367
    8SAPS   C12  936   3.671   0.942   7.144  0.0538  0.6165 -0.2205
    8SAPS  H12A  937   3.659   0.839   7.172  0.8262  0.2640 -1.1411
    8SAPS   C13  938   3.649   1.025   7.275 -0.0486 -0.3290  0.3565
    8SAPS  O13A  939   3.751   1.062   7.338 -0.0642 -0.2433 -0.1702
    8SAPS  O13B  940   3.534   1.035   7.324 -0.0076 -0.2918 -0.1872
    8SAPS   C11  941   3.582   0.998   7.024  0.8330  0.0660  0.6826
    8SAPS  H11A  942   3.593   1.108   7.019  1.1659  0.0993  1.8015
    8SAPS  H11B  943   3.476   1.000   7.054  0.6175  2.0603 -0.0693
    8SAPS     P  944   3.514   0.802   6.862 -0.2873 -0.3386  0.0950
    8SAPS   O13  945   3.602   0.685   6.874 -0.0466 -0.0616  0.3632
    8SAPS   O14  946   3.391   0.806   6.946  0.1736  0.4493  0.7297
    8SAPS   O12  947   3.606   0.930   6.899  0.0867  0.6114 -0.1780
    8SAPS   O11  948   3.475   0.815   6.713 -0.2497  0.3228  0.1685
    8SAPS    C1  949   3.558   0.808   6.599 -0.0210 -0.0181 -0.1860
    8SAPS    HA  950   3.612   0.902   6.573  1.5572 -0.5723  0.9430
    8SAPS    HB  951   3.641   0.735   6.612 -0.3305 -0.2694  0.3847
    8SAPS    C2  952   3.476   0.770   6.470  0.3009  0.3645 -0.2575
    8SAPS    HS  953   3.534   0.742   6.379 -1.3342 -1.1656 -0.8933
    8SAPS   O21  954   3.386   0.881   6.444 -0.1105 -0.0909  0.1489
    8SAPS   C21  955   3.443   0.979   6.368 -0.4473  0.4033 -0.3411
    8SAPS   O22  956   3.555   0.962   6.322  0.2178 -0.6865  1.0865
    8SAPS   C22  957   3.343   1.087   6.343 -0.0546  1.1176 -0.2204
    8SAPS   H2R  958   3.294   1.050   6.250  1.3003 -0.3565 -0.3943
    8SAPS   H2S  959   3.269   1.086   6.426  1.1074  1.6753  0.8502
    8SAPS    C3  960   3.388   0.647   6.493 -0.2946 -0.2205 -0.1659
    8SAPS    HX  961   3.291   0.675   6.540 -0.1407 -0.0787  0.0651
    8SAPS    HY  962   3.449   0.596   6.571  0.4985  0.6405 -0.2070
    8SAPS   O31  963   3.372   0.565   6.367 -0.1184  0.1340 -0.4853
    8SAPS   C31  964   3.275   0.472   6.386 -1.1491 -0.2865  0.4378
    8SAPS   O32  965   3.204   0.461   6.482 -0.2451  0.0369 -0.3910
    8SAPS   C32  966   3.270   0.389   6.257 -0.2684  0.4344 -0.2513
    8SAPS   H2X  967   3.216   0.294   6.274 -1.3422  1.1217  0.3440
    8SAPS   H2Y  968   3.374   0.356   6.241  0.2354  1.6175  0.4412
    8SAPS   C23  969   3.400   1.229   6.330 -0.1249 -0.6004 -0.0059
    8SAPS   H3R  970   3.465   1.254   6.417  0.4213  1.8729 -1.0623
    8SAPS   H3S  971   3.317   1.300   6.349 -0.1951 -0.0223 -2.2777
    8SAPS   C24  972   3.474   1.273   6.208 -0.3910  0.9795  0.0401
    8SAPS   H4R  973   3.559   1.204   6.191 -2.8158 -2.1334 -0.1522
    8SAPS   H4S  974   3.518   1.375   6.222 -0.1029  0.6462  1.8664
    8SAPS   C25  975   3.380   1.279   6.091 -0.0104  0.8872 -0.6235
    8SAPS   H5R  976   3.316   1.369   6.096  0.2691  1.1389 -1.3303
    8SAPS   C26  977   3.376   1.192   5.988 -0.7332  0.3034  0.4564
    8SAPS   H6R  978   3.309   1.207   5.902 -5.0069 -1.3124  3.1596
    8SAPS   C27  979   3.463   1.072   5.951 -0.2181  0.4608 -0.3078
    8SAPS   H7R  980   3.413   1.005   5.879 -0.0480 -1.6605  1.4370
    8SAPS   H7S  981   3.484   1.013   6.043  0.7921  1.2562 -0.0078
    8SAPS   C28  982   3.583   1.115   5.882  0.3116 -0.3628 -0.0562
    8SAPS   H8R  983   3.671   1.092   5.944  2.4315  0.4911 -2.5647
    8SAPS   C29  984   3.603   1.159   5.756  0.0864 -0.4088 -0.1220
    8SAPS   H9R  985   3.701   1.189   5.715 -0.1159  0.0646 -0.2566
    8SAPS  C210  986   3.488   1.174   5.662 -0.7572 -0.3833 -0.4001
    8SAPS  H10R  987   3.478   1.285   5.662  1.1671 -0.1650 -0.2491
    8SAPS  H10S  988   3.397   1.127   5.705 -1.1054 -0.8810 -1.6511
    8SAPS  C211  989   3.509   1.117   5.519  0.0306 -0.4774 -0.8141
    8SAPS  H11R  990   3.575   1.029   5.509 -0.0641 -0.5326 -0.9516
    8SAPS  C212  991   3.465   1.175   5.407 -0.3221  0.7525 -0.4335
    8SAPS  H12R  992   3.480   1.130   5.308 -3.1177  1.3213 -1.1878
    8SAPS  C213  993   3.377   1.300   5.404 -0.4890  0.9196 -1.3170
    8SAPS  H13R  994   3.434   1.394   5.418  0.2076  0.3205  0.0575
    8SAPS  H13S  995   3.301   1.294   5.485  1.0714  1.4407  0.2401
    8SAPS  C214  996   3.308   1.322   5.277  0.5012  0.4509  0.0407
    8SAPS  H14R  997   3.200   1.302   5.269  0.5562 -0.6272  1.4063
    8SAPS  C215  998   3.359   1.356   5.161  0.0537  0.2978 -0.6940
    8SAPS  H15R  999   3.288   1.368   5.078 -0.1681 -1.8248 -0.8685
    8SAPS  C216 1000   3.502   1.390   5.127 -0.1252 -0.2052  0.5819
    8SAPS  H16R 1001   3.567   1.382   5.217  0.3585 -2.3861  0.1145
    8SAPS  H16S 1002   3.499   1.499   5.105 -0.5310  0.1128  2.1314
    8SAPS  C217 1003   3.563   1.309   5.007 -0.0501 -0.3643  0.1018
    8SAPS  H17R 1004   3.582   1.202   5.033 -0.6802 -0.8868 -1.4167
    8SAPS  H17S 1005   3.657   1.366   4.995  2.0549 -3.2915  1.3417
    8SAPS  C218 1006   3.473   1.314   4.879 -0.4120  0.3213 -0.1937
    8SAPS  H18R 1007   3.433   1.414   4.852 -1.1306  0.6571  1.9640
    8SAPS  H18S 1008   3.385   1.248   4.900 -0.2446  0.8333  2.4643
    8SAPS  C219 1009   3.561   1.254   4.766 -0.1467 -0.2176 -0.1434
    8SAPS  H19R 1010   3.603   1.156   4.797 -0.8367 -0.2803  0.6019
    8SAPS  H19S 1011   3.653   1.314   4.745 -0.4775  0.2669 -0.2233
    8SAPS  C220 1012   3.494   1.242   4.632  0.2025  0.1001  0.0153
    8SAPS  H20R 1013   3.494   1.348   4.599 -1.2891  0.7067  1.8112
    8SAPS  H20S 1014   3.389   1.209   4.643 -0.6912  2.5190 -0.6690
    8SAPS  H20T 1015   3.556   1.178   4.565  1.0139 -0.8478  1.6038
    8SAPS   C33 1016   3.200   0.465   6.130  0.3920 -0.3017 -0.3105
    8SAPS   H3X 1017   3.108   0.517   6.163 -0.3106 -1.5287 -0.3033
    8SAPS   H3Y 1018   3.176   0.380   6.063 -0.2744 -2.4811  2.4673
    8SAPS   C34 1019   3.297   0.562   6.065  0.2277 -0.0697 -0.1944
    8SAPS   H4X 1020   3.377   0.497   6.023  0.0911 -1.8257  2.0637
    8SAPS   H4Y 1021   3.342   0.631   6.138 -1.0106  0.3866  0.1651
    8SAPS   C35 1022   3.238   0.643   5.948  0.7673  0.1179  0.1683
    8SAPS   H5X 1023   3.195   0.734   5.994  0.7916 -0.5048  1.4585
    8SAPS   H5Y 1024   3.165   0.583   5.888  0.6185  0.9029 -0.4556
    8SAPS   C36 1025   3.357   0.694   5.860 -0.0278  0.4745 -0.0918
    8SAPS   H6X 1026   3.438   0.748   5.912  0.5889 -1.5953  1.2309
    8SAPS   H6Y 1027   3.309   0.771   5.796  1.4260  0.8452 -0.7700
    8SAPS   C37 1028   3.436   0.601   5.770  0.3440 -0.6409  0.4596
    8SAPS   H7X 1029   3.359   0.538   5.721  0.0042 -1.1790  1.6534
    8SAPS   H7Y 1030   3.494   0.531   5.833  2.4452  1.3236  0.8266
    8SAPS   C38 1031   3.519   0.660   5.654  0.0768 -0.3412 -0.1509
    8SAPS   H8X 1032   3.580   0.578   5.611  1.0838 -0.1776  0.9322
    8SAPS   H8Y 1033   3.583   0.740   5.697  0.1687  0.5924 -1.9500
    8SAPS   C39 1034   3.438   0.730   5.540  0.2981  0.8199 -0.5095
    8SAPS   H9X 1035   3.391   0.822   5.578 -0.6974 -0.3784  1.2850
    8SAPS   H9Y 1036   3.347   0.670   5.520  1.9886 -2.2801  0.3307
    8SAPS  C310 1037   3.527   0.751   5.419 -1.0303  0.5047 -0.0932
    8SAPS  H10X 1038   3.562   0.650   5.389 -1.1506  0.1810  0.8095
    8SAPS  H10Y 1039   3.619   0.799   5.458 -0.7255 -0.3677  0.2866
    8SAPS  C311 1040   3.451   0.819   5.303  0.5238  0.2271  0.1515
    8SAPS  H11X 1041   3.423   0.923   5.328  2.2573  0.2527  2.2236
    8SAPS  H11Y 1042   3.350   0.775   5.288  0.3632  0.6331  0.0148
    8SAPS  C312 1043   3.536   0.811   5.176  0.7291  0.3101  0.4361
    8SAPS  H12X 1044   3.551   0.704   5.148  0.5102  0.2207  0.6652
    8SAPS  H12Y 1045   3.636   0.853   5.202  1.1948 -2.1252  2.9671
    8SAPS  C313 1046   3.478   0.900   5.060 -0.0496  0.5530 -0.0285
    8SAPS  H13X 1047   3.502   1.006   5.084  2.2892  0.1939 -0.5341
    8SAPS  H13Y 1048   3.369   0.897   5.041  0.1172  0.1476 -0.9877
    8SAPS  C314 1049   3.552   0.868   4.921  0.6181  0.4145  1.3604
    8SAPS  H14X 1050   3.659   0.848   4.943  0.9751  0.1896 -0.4291
    8SAPS  H14Y 1051   3.557   0.956   4.854 -1.0887 -0.0268  0.6231
    8SAPS  C315 1052   3.496   0.743   4.848  0.0649  0.3346 -0.5007
    8SAPS  H15X 1053   3.395   0.783   4.823 -0.4707  0.7017  1.9807
    8SAPS  H15Y 1054   3.492   0.661   4.923 -0.5887 -0.4275 -1.3489
    8SAPS  C316 1055   3.582   0.681   4.735  0.0226  0.4249  0.2051
    8SAPS  H16X 1056   3.544   0.578   4.716  0.0192  0.4663 -0.0111
    8SAPS  H16Y 1057   3.684   0.669   4.778  0.3211 -0.8540 -0.7948
    8SAPS  C317 1058   3.598   0.758   4.602  0.3970  0.4527  0.7531
    8SAPS  H17X 1059   3.656   0.852   4.618 -0.6772  1.2191  0.2799
    8SAPS  H17Y 1060   3.504   0.805   4.565 -0.2436 -0.9671  0.5228
    8SAPS  C318 1061   3.657   0.687   4.482 -0.5821 -0.2593  0.7861
    8SAPS  H18X 1062   3.616   0.587   4.455 -1.3920 -0.3347  2.1990
    8SAPS  H18Y 1063   3.768   0.687   4.488 -0.3577  2.4696 -1.2534
    8SAPS  H18Z 1064   3.633   0.744   4.389  1.2833 -0.6244  0.0244
    9SAPS     N 1065   1.241   5.587   6.955 -0.2497  0.2446  0.7326
    9SAPS   HN1 1066   1.253   5.616   6.856 -2.0600 -1.7588 -0.1544
    9SAPS   HN2 1067   1.180   5.504   6.966  0.3369 -0.0099  2.4293
    9SAPS   HN3 1068   1.198   5.671   6.999  1.4864  1.1364  0.8177
    9SAPS   C12 1069   1.369   5.567   7.029 -0.1551 -0.0867  0.7875
    9SAPS  H12A 1070   1.353   5.515   7.122  0.0342  0.5609  1.1973
    9SAPS   C13 1071   1.467   5.475   6.949 -0.0060 -0.0271 -0.2612
    9SAPS  O13A 1072   1.418   5.406   6.852 -0.8365 -0.2419  0.1570
    9SAPS  O13B 1073   1.585   5.460   6.981 -0.3206 -0.2319 -0.1541
    9SAPS   C11 1074   1.440   5.708   7.048  0.2617 -0.3789 -0.1508
    9SAPS  H11A 1075   1.477   5.733   6.946 -1.2786 -1.6429 -1.0558
    9SAPS  H11B 1076   1.527   5.692   7.116  0.7449  0.8729 -0.4492
    9SAPS     P 1077   1.354   5.960   7.046  0.0085  0.0121  0.0702
    9SAPS   O13 1078   1.292   6.044   7.157 -0.0198 -0.2261  0.1772
    9SAPS   O14 1079   1.490   5.996   7.008  0.2555 -0.4353 -0.9142
    9SAPS   O12 1080   1.351   5.801   7.094  0.8229  0.1362 -0.7580
    9SAPS   O11 1081   1.261   5.957   6.924  0.1499 -0.4048  0.3613
    9SAPS    C1 1082   1.128   6.004   6.936 -0.0470  0.1400 -0.1200
    9SAPS    HA 1083   1.077   6.000   7.034  0.4456 -1.4984  0.1015
    9SAPS    HB 1084   1.122   6.113   6.913 -1.6691  0.7290  2.6306
    9SAPS    C2 1085   1.024   5.926   6.844  0.4591 -0.5931 -0.2618
    9SAPS    HS 1086   1.015   5.823   6.885  0.2686  0.0930  1.5048
    9SAPS   O21 1087   1.058   5.928   6.698 -0.0707 -0.9519  0.5130
    9SAPS   C21 1088   1.159   5.857   6.678 -0.1511  0.2249 -0.5252
    9SAPS   O22 1089   1.201   5.767   6.749  0.1887 -0.5842 -0.3748
    9SAPS   C22 1090   1.217   5.901   6.540  0.7641 -0.4516  0.8504
    9SAPS   H2R 1091   1.278   5.990   6.569 -1.3662  0.4753  2.8239
    9SAPS   H2S 1092   1.285   5.823   6.500  0.2122  0.4075 -2.0478
    9SAPS    C3 1093   0.886   5.985   6.865  0.1270  0.4397  0.3648
    9SAPS    HX 1094   0.859   5.981   6.972 -0.1361 -1.5738  0.2650
    9SAPS    HY 1095   0.810   5.919   6.816  2.5280 -2.1855 -0.0991
    9SAPS   O31 1096   0.886   6.119   6.816 -0.5277  0.0819  0.4569
    9SAPS   C31 1097   0.767   6.161   6.774 -0.2660  0.2016  0.8501
    9SAPS   O32 1098   0.660   6.108   6.795  0.0980  0.1025 -0.0386
    9SAPS   C32 1099   0.796   6.273   6.674  0.1144  0.3604  0.2532
    9SAPS   H2X 1100   0.892   6.246   6.624  0.9218 -0.2567  2.0569
    9SAPS   H2Y 1101   0.817   6.367   6.730 -0.8009  1.5579 -1.3197
    9SAPS   C23 1102   1.111   5.936   6.429 -0.1445 -0.2826 -0.7915
    9SAPS   H3R 1103   1.071   6.039   6.436 -0.0541 -0.1350 -2.2005
    9SAPS   H3S 1104   1.023   5.870   6.442 -0.1145 -0.1278  0.2459
    9SAPS   C24 1105   1.168   5.923   6.286  0.1262 -0.6732  0.7827
    9SAPS   H4R 1106   1.088   5.946   6.212  0.3547  3.2088  1.5289
    9SAPS   H4S 1107   1.213   5.825   6.261 -0.2102 -0.8568  0.8879
    9SAPS   C25 1108   1.278   6.025   6.262 -1.3611 -0.7395  0.4022
    9SAPS   H5R 1109   1.334   6.048   6.353 -2.2365 -1.2076  1.0780
    9SAPS   C26 1110   1.299   6.092   6.142 -0.0877 -0.4480  0.8207
    9SAPS   H6R 1111   1.373   6.173   6.142 -0.4099 -0.1098  2.4785
    9SAPS   C27 1112   1.236   6.082   6.010  0.1605  0.9915 -0.0736
    9SAPS   H7R 1113   1.225   6.185   5.970 -0.8330  1.8642  2.2806
    9SAPS   H7S 1114   1.131   6.045   6.014  0.1177  0.6821 -2.4116
    9SAPS   C28 1115   1.324   5.991   5.927  0.3987  0.4682 -0.0674
    9SAPS   H8R 1116   1.370   5.909   5.983 -2.9920 -1.5138  0.1073
    9SAPS   C29 1117   1.342   6.000   5.798 -0.0002 -0.8815  0.0387
    9SAPS   H9R 1118   1.412   5.929   5.751  4.0975  0.4295  3.5599
    9SAPS  C210 1119   1.287   6.103   5.700 -0.8907 -0.1408  0.0085
    9SAPS  H10R 1120   1.223   6.185   5.738 -0.1620  0.7410 -0.6371
    9SAPS  H10S 1121   1.226   6.051   5.622  0.1892 -0.9665 -0.3151
    9SAPS  C211 1122   1.397   6.181   5.632 -0.3973  0.1026 -0.6784
    9SAPS  H11R 1123   1.467   6.225   5.705 -0.0008 -0.6837 -0.5815
    9SAPS  C212 1124   1.433   6.185   5.503 -0.1492 -0.0539 -0.1498
    9SAPS  H12R 1125   1.510   6.261   5.483  0.8433 -1.2548 -1.0455
    9SAPS  C213 1126   1.350   6.140   5.382  0.7303 -0.3849  0.1475
    9SAPS  H13R 1127   1.243   6.133   5.409  0.5025 -1.4308 -0.9633
    9SAPS  H13S 1128   1.378   6.036   5.357  1.4265 -0.0942 -0.3294
    9SAPS  C214 1129   1.384   6.210   5.248 -0.3413  0.3384  0.3781
    9SAPS  H14R 1130   1.326   6.301   5.228 -1.5773 -0.7737 -1.3847
    9SAPS  C215 1131   1.479   6.183   5.157 -0.3119  0.0664  0.0294
    9SAPS  H15R 1132   1.481   6.245   5.066 -0.0151 -0.7172 -0.5106
    9SAPS  C216 1133   1.581   6.073   5.167 -0.1018  0.6461 -0.1769
    9SAPS  H16R 1134   1.561   5.979   5.111  1.1531  0.3450 -0.1489
    9SAPS  H16S 1135   1.592   6.034   5.270  0.3035  1.5309  0.1285
    9SAPS  C217 1136   1.723   6.118   5.124  0.4431 -0.6181 -0.3055
    9SAPS  H17R 1137   1.803   6.053   5.165 -0.5851 -1.6619  0.1202
    9SAPS  H17S 1138   1.745   6.217   5.168  0.3403 -0.8848  0.3535
    9SAPS  C218 1139   1.749   6.116   4.974  0.3391  0.0052 -0.4934
    9SAPS  H18R 1140   1.856   6.140   4.954  0.0896  1.4939 -0.1431
    9SAPS  H18S 1141   1.695   6.203   4.930 -1.7917  0.6967  3.0847
    9SAPS  C219 1142   1.701   5.989   4.894  0.1996 -0.8408  0.7565
    9SAPS  H19R 1143   1.591   5.978   4.884  0.3371 -0.8164 -1.0862
    9SAPS  H19S 1144   1.730   5.893   4.941 -2.1008 -1.9151  0.1282
    9SAPS  C220 1145   1.760   5.998   4.757  0.4777 -0.2741  0.2979
    9SAPS  H20R 1146   1.737   5.904   4.703  0.4357 -0.0063 -0.1558
    9SAPS  H20S 1147   1.870   6.013   4.760  0.3363  0.9739  0.1506
    9SAPS  H20T 1148   1.725   6.076   4.686  1.6356  0.3028  0.3235
    9SAPS   C33 1149   0.696   6.284   6.562 -0.2348 -0.0722 -0.1228
    9SAPS   H3X 1150   0.711   6.387   6.522  3.6451 -0.3119  0.3682
    9SAPS   H3Y 1151   0.591   6.281   6.598  0.4526 -2.5214  1.8874
    9SAPS   C34 1152   0.708   6.172   6.452 -0.0484 -0.0373 -0.1324
    9SAPS   H4X 1153   0.607   6.161   6.408 -1.2226  1.8295  1.8745
    9SAPS   H4Y 1154   0.751   6.079   6.494  1.4583  1.2839  1.4054
    9SAPS   C35 1155   0.797   6.219   6.338 -0.0371 -0.4405 -0.6016
    9SAPS   H5X 1156   0.901   6.235   6.373  0.5611 -0.6622 -2.2087
    9SAPS   H5Y 1157   0.762   6.319   6.307 -3.0974 -1.6823 -1.5966
    9SAPS   C36 1158   0.789   6.120   6.222  0.3232 -0.5327  0.0652
    9SAPS   H6X 1159   0.681   6.095   6.207  0.1496  0.8679 -1.3443
    9SAPS   H6Y 1160   0.839   6.024   6.245  0.8633 -0.2977 -0.1114
    9SAPS   C37 1161   0.847   6.176   6.083  0.3874  0.3750  0.0914
    9SAPS   H7X 1162   0.958   6.186   6.085  0.4331 -0.1650  0.8569
    9SAPS   H7Y 1163   0.803   6.278   6.087 -0.7319 -0.1109  0.5295
    9SAPS   C38 1164   0.818   6.109   5.946 -0.4628 -0.5155 -0.5100
    9SAPS   H8X 1165   0.707   6.110   5.943 -0.5361 -2.4127 -3.6360
    9SAPS   H8Y 1166   0.861   6.006   5.945  1.0105  0.0499  0.3318
    9SAPS   C39 1167   0.878   6.198   5.834 -0.1479  0.0287 -0.2885
    9SAPS   H9X 1168   0.989   6.198   5.842 -0.2942 -0.9570  3.2173
    9SAPS   H9Y 1169   0.827   6.297   5.836 -0.5777 -0.1734 -0.8727
    9SAPS  C310 1170   0.845   6.135   5.700  0.8770 -0.2635  1.3810
    9SAPS  H10X 1171   0.735   6.129   5.690  0.9619  0.1148  0.0791
    9SAPS  H10Y 1172   0.898   6.037   5.693  0.5474 -0.5787  2.8250
    9SAPS  C311 1173   0.895   6.228   5.585 -0.2215 -0.3489  0.2441
    9SAPS  H11X 1174   1.004   6.250   5.586 -0.7851  3.0946  0.6973
    9SAPS  H11Y 1175   0.849   6.329   5.593  0.3649 -0.1189  0.8611
    9SAPS  C312 1176   0.885   6.145   5.452 -0.3572  0.5512 -0.0405
    9SAPS  H12X 1177   0.778   6.121   5.431  0.6343 -2.7873 -2.0180
    9SAPS  H12Y 1178   0.944   6.052   5.470  3.2234  2.4311 -1.1524
    9SAPS  C313 1179   0.951   6.212   5.327  0.4396 -0.3789 -0.0584
    9SAPS  H13X 1180   1.060   6.202   5.344  0.2600 -0.3553  1.1472
    9SAPS  H13Y 1181   0.930   6.321   5.315  2.2780 -0.0773 -0.7834
    9SAPS  C314 1182   0.913   6.142   5.191 -0.5576 -0.1726  0.2245
    9SAPS  H14X 1183   0.811   6.178   5.166 -1.2265 -0.3133  2.4733
    9SAPS  H14Y 1184   0.898   6.037   5.225  0.8300 -0.5151 -0.1481
    9SAPS  C315 1185   1.024   6.162   5.088 -0.1586  0.2667 -0.6307
    9SAPS  H15X 1186   1.119   6.109   5.110  0.2754  0.9615 -0.8151
    9SAPS  H15Y 1187   1.046   6.270   5.071  0.6747  0.1964 -0.0150
    9SAPS  C316 1188   0.973   6.105   4.958 -0.7151  0.3803  0.0209
    9SAPS  H16X 1189   0.870   6.140   4.935 -0.9719 -1.5492 -2.1459
    9SAPS  H16Y 1190   0.970   5.994   4.960 -0.0631  0.3255 -1.1417
    9SAPS  C317 1191   1.059   6.147   4.840  0.1877  0.2731 -0.1945
    9SAPS  H17X 1192   1.145   6.076   4.835  0.5625  0.8144 -2.7567
    9SAPS  H17Y 1193   1.087   6.253   4.856 -1.3013  0.6444  0.0968
    9SAPS  C318 1194   0.993   6.139   4.704 -0.6515  0.7495  0.3617
    9SAPS  H18X 1195   1.071   6.141   4.626  0.2074  2.3477  1.2191
    9SAPS  H18Y 1196   0.928   6.228   4.691  0.8762  1.8168 -0.2039
    9SAPS  H18Z 1197   0.929   6.050   4.685 -0.3304  0.5875  0.0346
   10SAPS     N 1198   0.684   5.659   7.488 -0.2131  0.4770  0.3558
   10SAPS   HN1 1199   0.644   5.621   7.400  2.4139  0.9913 -1.1804
   10SAPS   HN2 1200   0.620   5.636   7.567  0.1397 -0.9554  0.2446
   10SAPS   HN3 1201   0.692   5.762   7.475 -0.6549  0.5325  0.5054
   10SAPS   C12 1202   0.817   5.595   7.518  0.6355  0.1508 -0.2724
   10SAPS  H12A 1203   0.892   5.618   7.444  0.4087 -0.2316 -0.6230
   10SAPS   C13 1204   0.876   5.660   7.648  0.0004  0.1595 -0.3867
   10SAPS  O13A 1205   0.797   5.711   7.733  0.2026  0.2896 -0.3867
   10SAPS  O13B 1206   0.994   5.629   7.676  0.6440 -0.2735  0.0833
   10SAPS   C11 1207   0.803   5.441   7.542  0.2047  0.9317  0.5709
   10SAPS  H11A 1208   0.730   5.422   7.623 -0.4466  0.4746 -0.1111
   10SAPS  H11B 1209   0.901   5.407   7.584  1.2972  0.8640 -1.8654
   10SAPS     P 1210   0.889   5.334   7.326  0.0348  0.1026 -0.2354
   10SAPS   O13 1211   1.004   5.427   7.338 -0.2171  0.5358 -0.1984
   10SAPS   O14 1212   0.918   5.195   7.369 -0.0563 -0.0936  0.0512
   10SAPS   O12 1213   0.766   5.373   7.416  0.2288  0.1930  0.2254
   10SAPS   O11 1214   0.850   5.327   7.166  0.0530  0.0280 -0.5133
   10SAPS    C1 1215   0.742   5.408   7.128 -0.3598 -0.4121 -0.0354
   10SAPS    HA 1216   0.651   5.351   7.156 -0.4677  0.1181  0.7119
   10SAPS    HB 1217   0.725   5.502   7.184 -2.7249  0.4755 -2.0096
   10SAPS    C2 1218   0.737   5.446   6.972  0.9161 -0.1807  0.5795
   10SAPS    HS 1219   0.633   5.480   6.955  0.7619 -0.7391  0.3903
   10SAPS   O21 1220   0.776   5.342   6.883  0.6773  0.2048  0.2096
   10SAPS   C21 1221   0.685   5.244   6.867 -0.2883 -0.1841  0.5683
   10SAPS   O22 1222   0.576   5.241   6.915 -0.1180  0.5468 -0.0129
   10SAPS   C22 1223   0.732   5.134   6.773 -0.2258 -1.0093 -0.2806
   10SAPS   H2R 1224   0.796   5.072   6.841 -0.1024  0.2513  0.8019
   10SAPS   H2S 1225   0.637   5.083   6.748 -1.5036  1.4514 -0.7246
   10SAPS    C3 1226   0.831   5.567   6.944 -0.5916 -0.0268  0.0187
   10SAPS    HX 1227   0.934   5.530   6.963  0.1430  1.3459 -1.1202
   10SAPS    HY 1228   0.810   5.646   7.019 -0.6226 -1.4582  1.5866
   10SAPS   O31 1229   0.807   5.603   6.806 -0.5426  0.5713 -0.0300
   10SAPS   C31 1230   0.905   5.568   6.726  0.2223 -0.2172  0.4734
   10SAPS   O32 1231   1.018   5.533   6.757  0.8495 -0.1840  0.3711
   10SAPS   C32 1232   0.861   5.584   6.583 -0.1388  0.0318 -0.4146
   10SAPS   H2X 1233   0.819   5.685   6.568 -1.1236 -0.1501  0.9829
   10SAPS   H2Y 1234   0.775   5.514   6.574  0.4917 -0.9596  0.9462
   10SAPS   C23 1235   0.821   5.166   6.653  0.3531 -0.0514 -0.3273
   10SAPS   H3R 1236   0.871   5.075   6.616  1.3286  0.2464  0.2267
   10SAPS   H3S 1237   0.907   5.225   6.692  0.2629 -0.2051  0.1100
   10SAPS   C24 1238   0.752   5.239   6.534 -0.0847  0.1563 -0.2545
   10SAPS   H4R 1239   0.836   5.272   6.470  0.7044 -1.5500 -0.1587
   10SAPS   H4S 1240   0.709   5.331   6.579  1.0237  0.0909  0.9928
   10SAPS   C25 1241   0.648   5.170   6.452 -0.5187  0.6895  0.3898
   10SAPS   H5R 1242   0.578   5.122   6.523  1.8503 -0.3403  2.1760
   10SAPS   C26 1243   0.638   5.153   6.321 -0.9459  0.2827  0.0865
   10SAPS   H6R 1244   0.552   5.095   6.286 -0.0635 -0.8456 -0.2824
   10SAPS   C27 1245   0.731   5.214   6.217 -0.2873  0.6335  0.2895
   10SAPS   H7R 1246   0.837   5.227   6.247  0.9953 -0.1149 -3.3898
   10SAPS   H7S 1247   0.693   5.316   6.196  0.6609  0.5634 -2.0095
   10SAPS   C28 1248   0.726   5.115   6.101 -1.0255 -0.3061  0.6148
   10SAPS   H8R 1249   0.693   5.011   6.117  1.3889 -0.9183  2.1516
   10SAPS   C29 1250   0.770   5.144   5.980 -0.3813 -0.2114  0.6266
   10SAPS   H9R 1251   0.748   5.066   5.906 -1.6000  0.0663  0.6871
   10SAPS  C210 1252   0.846   5.275   5.937  0.2163  0.2366 -0.4117
   10SAPS  H10R 1253   0.926   5.249   5.864  1.3062  1.9753  0.1117
   10SAPS  H10S 1254   0.896   5.327   6.021  0.2197  0.8607 -0.7952
   10SAPS  C211 1255   0.762   5.386   5.881  1.3113  0.2346 -0.0098
   10SAPS  H11R 1256   0.717   5.456   5.953  0.0624  0.1819 -0.7145
   10SAPS  C212 1257   0.740   5.402   5.749 -0.1050  0.4497 -0.2763
   10SAPS  H12R 1258   0.697   5.496   5.713 -0.7552 -0.0415 -0.8179
   10SAPS  C213 1259   0.793   5.304   5.643 -0.0007 -0.3887  0.0832
   10SAPS  H13R 1260   0.885   5.252   5.678  0.1826 -1.5924 -2.0336
   10SAPS  H13S 1261   0.828   5.366   5.557 -1.4258  0.9203  0.4117
   10SAPS  C214 1262   0.681   5.210   5.612 -0.8685 -0.1377 -0.0955
   10SAPS  H14R 1263   0.609   5.207   5.695  2.5667  0.9555  3.2362
   10SAPS  C215 1264   0.677   5.131   5.506  0.2129 -0.0571 -0.4334
   10SAPS  H15R 1265   0.587   5.069   5.494 -2.7854  3.1105  3.1756
   10SAPS  C216 1266   0.771   5.121   5.390  0.2057 -0.5463  0.5455
   10SAPS  H16R 1267   0.762   5.022   5.342 -0.9050 -0.4777  0.5868
   10SAPS  H16S 1268   0.879   5.135   5.416  0.6267  0.3315 -1.4997
   10SAPS  C217 1269   0.746   5.232   5.284 -0.4707 -0.1317  0.3019
   10SAPS  H17R 1270   0.807   5.318   5.317 -0.3927 -0.2754  0.5364
   10SAPS  H17S 1271   0.638   5.259   5.282 -1.2625 -2.8154  1.6114
   10SAPS  C218 1272   0.778   5.190   5.145 -0.5748  0.2612 -0.1191
   10SAPS  H18R 1273   0.767   5.273   5.072  2.7792  1.9332  1.0432
   10SAPS  H18S 1274   0.711   5.109   5.109 -0.2167  0.4747 -1.3022
   10SAPS  C219 1275   0.927   5.141   5.130 -0.6701 -0.5080  0.1428
   10SAPS  H19R 1276   0.949   5.054   5.196  1.0848  0.2695  0.6282
   10SAPS  H19S 1277   0.995   5.222   5.164 -2.2159  0.1230  1.9096
   10SAPS  C220 1278   0.963   5.105   4.984  0.0608  0.6051 -0.0688
   10SAPS  H20R 1279   1.073   5.096   4.971 -0.2703 -1.5422 -2.2133
   10SAPS  H20S 1280   0.907   5.154   4.901  0.4466 -1.2760 -1.5112
   10SAPS  H20T 1281   0.938   5.000   4.954  1.8279  1.1305 -4.0642
   10SAPS   C33 1282   0.967   5.549   6.481  0.1773  0.2020 -0.3405
   10SAPS   H3X 1283   0.982   5.440   6.498 -0.6719 -0.1876 -1.8724
   10SAPS   H3Y 1284   1.066   5.599   6.485  0.7723 -1.0078  1.4944
   10SAPS   C34 1285   0.922   5.585   6.338  0.1229 -0.4515  0.0233
   10SAPS   H4X 1286   0.884   5.688   6.353  1.7330  0.0139  1.1828
   10SAPS   H4Y 1287   0.838   5.519   6.306 -0.0567  0.1373 -0.7275
   10SAPS   C35 1288   1.025   5.592   6.232 -0.3979  0.2217  0.0500
   10SAPS   H5X 1289   1.073   5.493   6.218  1.6978  1.2206 -0.2093
   10SAPS   H5Y 1290   1.096   5.666   6.275 -1.8577  1.2439  0.7920
   10SAPS   C36 1291   0.977   5.678   6.108  0.7398  0.4634  0.3666
   10SAPS   H6X 1292   0.970   5.787   6.127  0.4872  0.1684  2.0666
   10SAPS   H6Y 1293   0.874   5.643   6.084  1.2533  0.0978 -1.4838
   10SAPS   C37 1294   1.065   5.645   5.987 -0.1349 -0.3645  0.7504
   10SAPS   H7X 1295   1.070   5.535   5.972 -1.0012 -0.2675 -0.3999
   10SAPS   H7Y 1296   1.168   5.681   6.007  0.0396  0.7585 -1.7608
   10SAPS   C38 1297   1.006   5.708   5.862 -0.1231  0.5256 -0.5824
   10SAPS   H8X 1298   1.002   5.818   5.874  0.6111  0.3107  2.4687
   10SAPS   H8Y 1299   0.907   5.664   5.838  0.8106 -1.3165 -1.2866
   10SAPS   C39 1300   1.092   5.677   5.739  0.6066 -0.1281 -0.4605
   10SAPS   H9X 1301   1.077   5.569   5.719  1.9100 -0.1096 -1.7203
   10SAPS   H9Y 1302   1.200   5.696   5.752  0.7042  0.0221 -1.4273
   10SAPS  C310 1303   1.048   5.740   5.609  0.3155  0.8149 -0.5640
   10SAPS  H10X 1304   1.057   5.850   5.628 -1.9828  0.4644  3.8884
   10SAPS  H10Y 1305   0.942   5.715   5.587 -0.7420  2.8454  1.6781
   10SAPS  C311 1306   1.140   5.706   5.492 -0.6156  0.0600  0.1707
   10SAPS  H11X 1307   1.153   5.596   5.485 -2.1585 -0.0826 -0.8268
   10SAPS  H11Y 1308   1.240   5.749   5.512  0.2867 -1.6449 -0.5048
   10SAPS  C312 1309   1.097   5.753   5.355  0.3546 -0.1543  0.2049
   10SAPS  H12X 1310   1.087   5.863   5.362 -0.4744 -0.1741 -0.5957
   10SAPS  H12Y 1311   0.999   5.705   5.331 -0.6101  1.3432  1.0318
   10SAPS  C313 1312   1.197   5.697   5.261  0.2302 -0.3594  0.3181
   10SAPS  H13X 1313   1.148   5.609   5.215  2.1835 -1.0057 -0.6268
   10SAPS  H13Y 1314   1.275   5.638   5.314 -0.2990 -0.5284  0.9319
   10SAPS  C314 1315   1.250   5.814   5.181 -0.4506 -0.1228  0.3611
   10SAPS  H14X 1316   1.314   5.886   5.237 -2.5500  0.9808  1.4745
   10SAPS  H14Y 1317   1.170   5.880   5.140  0.8526 -0.6245 -3.3492
   10SAPS  C315 1318   1.333   5.754   5.063 -0.2466 -0.0144  0.2076
   10SAPS  H15X 1319   1.410   5.684   5.101  2.2808  1.0603 -2.6233
   10SAPS  H15Y 1320   1.382   5.837   5.009  1.9379 -1.1836  0.2867
   10SAPS  C316 1321   1.238   5.690   4.956 -0.4804 -0.3135  0.0938
   10SAPS  H16X 1322   1.141   5.743   4.947 -0.4445  0.0088  1.3896
   10SAPS  H16Y 1323   1.206   5.591   4.995 -0.3394 -0.2830  0.2890
   10SAPS  C317 1324   1.297   5.672   4.812 -0.1568  0.2694 -0.3161
   10SAPS  H17X 1325   1.250   5.585   4.761  0.7920  0.0171 -0.7792
   10SAPS  H17Y 1326   1.404   5.645   4.801 -0.0968  0.6852 -0.8110
   10SAPS  C318 1327   1.270   5.800   4.726 -0.3611  0.7344 -0.6800
   10SAPS  H18X 1328   1.323   5.777   4.631  2.3044 -0.3278  0.9413
   10SAPS  H18Y 1329   1.326   5.887   4.767  0.6005 -1.3666  2.9810
   10SAPS  H18Z 1330   1.161   5.812   4.713 -1.0773 -0.2764  3.1109
   11SAPS     N 1331   2.361   4.039   2.497  0.4773 -0.2478 -0.5566
   11SAPS   HN1 1332   2.369   4.018   2.396  2.6467 -1.1031 -0.2552
   11SAPS   HN2 1333   2.276   4.090   2.529 -0.2126 -2.1047  0.7634
   11SAPS   HN3 1334   2.434   4.112   2.507  0.0485  0.2241 -0.8177
   11SAPS   C12 1335   2.390   3.928   2.590 -0.7537 -0.2082  0.9060
   11SAPS  H12A 1336   2.314   3.855   2.566 -2.0269  1.6605 -1.0973
   11SAPS   C13 1337   2.537   3.872   2.598 -0.5976 -0.3048 -0.1328
   11SAPS  O13A 1338   2.623   3.902   2.512  0.6547 -0.0245  0.2926
   11SAPS  O13B 1339   2.562   3.773   2.674  0.4047 -0.4096 -0.6358
   11SAPS   C11 1340   2.369   3.980   2.737  0.2827 -0.4191  0.2765
   11SAPS  H11A 1341   2.442   4.062   2.757 -1.5916  1.0519  1.4852
   11SAPS  H11B 1342   2.381   3.900   2.813  0.6617 -0.6214  0.0026
   11SAPS     P 1343   2.111   3.963   2.801  0.1217 -0.1540 -0.1390
   11SAPS   O13 1344   1.990   4.048   2.789  0.6921 -0.2943  0.6752
   11SAPS   O14 1345   2.105   3.831   2.740  0.5357 -0.0105  0.0723
   11SAPS   O12 1346   2.237   4.044   2.757 -0.0571  0.5344  0.4914
   11SAPS   O11 1347   2.141   3.937   2.953 -0.1737 -0.4793  0.0444
   11SAPS    C1 1348   2.072   3.835   3.030 -0.1330  0.4932  0.2945
   11SAPS    HA 1349   1.975   3.876   3.066 -0.4827 -0.6400  0.7083
   11SAPS    HB 1350   2.045   3.739   2.980 -2.4093 -0.8373  3.6722
   11SAPS    C2 1351   2.168   3.794   3.145 -0.0624  0.4995 -0.2516
   11SAPS    HS 1352   2.146   3.693   3.186  4.3234 -0.6803 -0.3594
   11SAPS   O21 1353   2.157   3.905   3.238 -0.5921  0.5340  0.0272
   11SAPS   C21 1354   2.063   3.895   3.338 -0.9041  0.2254  0.0764
   11SAPS   O22 1355   1.987   3.799   3.344  0.1176  0.3274  0.4604
   11SAPS   C22 1356   2.062   4.025   3.419 -0.3755 -0.0744  0.3159
   11SAPS   H2R 1357   2.162   4.074   3.425  0.2740 -1.5227  2.1113
   11SAPS   H2S 1358   1.986   4.088   3.367 -2.3422 -1.7095  1.0712
   11SAPS    C3 1359   2.313   3.778   3.100  0.3457  0.5490 -1.3589
   11SAPS    HX 1360   2.343   3.883   3.080  0.1428  0.7225 -0.7921
   11SAPS    HY 1361   2.322   3.709   3.013 -2.2511 -2.2805  0.4021
   11SAPS   O31 1362   2.381   3.711   3.204  0.0716 -0.2479 -0.4647
   11SAPS   C31 1363   2.509   3.734   3.185 -0.6235 -0.0793 -0.4547
   11SAPS   O32 1364   2.549   3.803   3.090 -0.1093 -0.2155 -0.0435
   11SAPS   C32 1365   2.592   3.679   3.305  0.7018  0.5182  0.3254
   11SAPS   H2X 1366   2.566   3.573   3.325 -0.3748  0.9753  1.4754
   11SAPS   H2Y 1367   2.564   3.745   3.390  1.4888 -1.7605  2.4782
   11SAPS   C23 1368   2.018   4.009   3.565 -0.4038 -0.1934 -0.0624
   11SAPS   H3R 1369   2.102   3.964   3.622 -0.5420  0.1793  0.4389
   11SAPS   H3S 1370   1.927   3.946   3.570  1.5709 -3.6362 -2.9395
   11SAPS   C24 1371   1.991   4.148   3.637 -0.0101 -0.5986 -0.6261
   11SAPS   H4R 1372   2.063   4.217   3.589  0.8986 -0.7200  0.5134
   11SAPS   H4S 1373   2.013   4.145   3.746 -1.2728 -3.5571 -0.3427
   11SAPS   C25 1374   1.848   4.199   3.608  0.5130  0.2063  0.0714
   11SAPS   H5R 1375   1.816   4.219   3.505 -1.6194 -1.5124  0.3405
   11SAPS   C26 1376   1.751   4.230   3.693  0.0307 -0.3097 -1.2041
   11SAPS   H6R 1377   1.653   4.266   3.658 -0.5078 -0.0685  0.4390
   11SAPS   C27 1378   1.767   4.234   3.845  0.7180 -0.0439 -1.0434
   11SAPS   H7R 1379   1.876   4.225   3.866  0.7020  0.3832 -0.7618
   11SAPS   H7S 1380   1.709   4.151   3.889 -1.2225  1.9037  0.2872
   11SAPS   C28 1381   1.724   4.374   3.888 -0.1532 -0.1033 -0.3949
   11SAPS   H8R 1382   1.665   4.431   3.815 -1.5477 -0.4688  0.4200
   11SAPS   C29 1383   1.743   4.422   4.015  0.0449 -0.4280  0.8427
   11SAPS   H9R 1384   1.712   4.520   4.053  0.3989 -0.2670  0.7211
   11SAPS  C210 1385   1.801   4.344   4.129 -0.2105  0.6480  0.1076
   11SAPS  H10R 1386   1.833   4.240   4.102  1.4621  1.5621 -1.6776
   11SAPS  H10S 1387   1.728   4.319   4.208 -0.9805 -0.1733 -0.8318
   11SAPS  C211 1388   1.912   4.427   4.197 -0.4350 -0.1628 -0.1383
   11SAPS  H11R 1389   1.892   4.534   4.213 -1.8889 -0.4636  0.2025
   11SAPS  C212 1390   2.026   4.388   4.259 -0.8375 -0.6767  0.0159
   11SAPS  H12R 1391   2.095   4.465   4.298  0.1265 -1.9715  0.9854
   11SAPS  C213 1392   2.082   4.249   4.263 -0.1784  0.2488 -0.5262
   11SAPS  H13R 1393   2.145   4.245   4.172 -0.5357  0.7844 -0.8008
   11SAPS  H13S 1394   1.997   4.178   4.256  0.3668 -0.4603 -0.1683
   11SAPS  C214 1395   2.160   4.230   4.390 -0.2742  0.0747 -0.0880
   11SAPS  H14R 1396   2.094   4.234   4.478 -0.3653  0.8694 -0.1812
   11SAPS  C215 1397   2.282   4.177   4.425  0.7546 -0.1487  0.5796
   11SAPS  H15R 1398   2.316   4.165   4.529  0.8245 -0.6508  0.5001
   11SAPS  C216 1399   2.374   4.113   4.324  0.1138  0.3170  0.1767
   11SAPS  H16R 1400   2.365   4.156   4.222 -0.2404  3.3978  1.3806
   11SAPS  H16S 1401   2.355   4.004   4.321 -0.6903  0.4765 -0.8077
   11SAPS  C217 1402   2.518   4.114   4.364 -0.1519 -0.5025  0.0953
   11SAPS  H17R 1403   2.546   4.095   4.470  4.4532  0.8152 -0.6433
   11SAPS  H17S 1404   2.554   4.216   4.340 -1.6128  0.0703  0.2464
   11SAPS  C218 1405   2.607   4.019   4.285 -0.3275 -0.2325  0.0151
   11SAPS  H18R 1406   2.586   4.017   4.176  0.7168  0.0261 -0.1980
   11SAPS  H18S 1407   2.593   3.914   4.319  0.7068 -1.4038 -2.8647
   11SAPS  C219 1408   2.757   4.040   4.310  0.0142 -0.1104 -0.3441
   11SAPS  H19R 1409   2.804   3.941   4.292 -1.0071 -0.5034 -0.9732
   11SAPS  H19S 1410   2.775   4.063   4.417 -0.1064  1.9130 -0.7287
   11SAPS  C220 1411   2.816   4.145   4.220 -0.7398  0.0637 -0.1399
   11SAPS  H20R 1412   2.913   4.185   4.257  1.6786 -3.4921 -2.0153
   11SAPS  H20S 1413   2.740   4.222   4.194 -2.4010 -1.3441  0.3956
   11SAPS  H20T 1414   2.841   4.099   4.122  0.6595  0.6497 -0.0775
   11SAPS   C33 1415   2.748   3.694   3.277  0.1656 -0.8966  0.6630
   11SAPS   H3X 1416   2.769   3.800   3.249 -2.8626 -0.5701 -0.8577
   11SAPS   H3Y 1417   2.771   3.632   3.187 -2.3721 -4.0791  2.0044
   11SAPS   C34 1418   2.824   3.647   3.395 -0.6509  0.0894  0.1947
   11SAPS   H4X 1419   2.783   3.704   3.481  1.0089  1.1126  0.3557
   11SAPS   H4Y 1420   2.931   3.669   3.374 -1.2028  0.8546 -2.0693
   11SAPS   C35 1421   2.814   3.494   3.416 -0.6078  0.2462  0.1337
   11SAPS   H5X 1422   2.877   3.451   3.335  2.7358  0.8279  2.2410
   11SAPS   H5Y 1423   2.708   3.463   3.415 -0.8512  1.0583  0.2394
   11SAPS   C36 1424   2.883   3.462   3.547  0.1252  0.2371  0.6713
   11SAPS   H6X 1425   2.975   3.524   3.551  0.1102  0.1976  3.1339
   11SAPS   H6Y 1426   2.927   3.360   3.545 -0.9498 -0.2707  1.5472
   11SAPS   C37 1427   2.789   3.482   3.669 -0.6152  0.3835  0.4793
   11SAPS   H7X 1428   2.684   3.454   3.648 -0.3911  0.0164 -0.1948
   11SAPS   H7Y 1429   2.784   3.592   3.681  1.9159  0.5781  0.3904
   11SAPS   C38 1430   2.841   3.395   3.783 -0.7892  0.2166 -1.2843
   11SAPS   H8X 1431   2.849   3.293   3.740  0.1199 -0.2347 -0.0962
   11SAPS   H8Y 1432   2.776   3.394   3.874  0.7114 -1.2247 -0.1777
   11SAPS   C39 1433   2.979   3.425   3.833 -0.6146  0.4658 -0.6836
   11SAPS   H9X 1434   3.005   3.516   3.776 -1.4592 -0.4766 -2.6937
   11SAPS   H9Y 1435   3.063   3.358   3.805  0.0484 -0.4867  3.1325
   11SAPS  C310 1436   2.982   3.457   3.988 -0.0809  0.4852  0.7124
   11SAPS  H10X 1437   3.086   3.472   4.026  0.3693  1.0561 -0.6639
   11SAPS  H10Y 1438   2.942   3.366   4.036 -0.9219  0.6537  0.3385
   11SAPS  C311 1439   2.908   3.582   4.039  0.6593  0.9455  0.2419
   11SAPS  H11X 1440   2.799   3.581   4.021  0.3766 -0.8976  1.7343
   11SAPS  H11Y 1441   2.943   3.673   3.985 -0.4245  0.6240 -1.0558
   11SAPS  C312 1442   2.921   3.602   4.186 -0.0114 -0.1239 -0.7048
   11SAPS  H12X 1443   2.892   3.705   4.215  1.7540  0.1754  0.1744
   11SAPS  H12Y 1444   3.029   3.580   4.205 -0.1082 -0.7157 -0.8297
   11SAPS  C313 1445   2.834   3.508   4.265 -0.2132  0.6497 -0.3888
   11SAPS  H13X 1446   2.876   3.405   4.259  1.0304  1.1122  0.1523
   11SAPS  H13Y 1447   2.738   3.502   4.208  0.4153  0.3174 -1.4456
   11SAPS  C314 1448   2.827   3.545   4.413  0.2931 -0.0334  0.1845
   11SAPS  H14X 1449   2.773   3.639   4.439  1.8301  0.4191  1.9390
   11SAPS  H14Y 1450   2.929   3.566   4.452 -0.4736  2.4348  1.0452
   11SAPS  C315 1451   2.765   3.435   4.490 -0.2102  0.2581 -0.9859
   11SAPS  H15X 1452   2.757   3.450   4.599  2.9248 -1.4188 -0.3915
   11SAPS  H15Y 1453   2.834   3.349   4.474  0.8478  0.6600  1.0775
   11SAPS  C316 1454   2.614   3.400   4.448 -0.1972  0.5711  0.2651
   11SAPS  H16X 1455   2.561   3.330   4.517  0.9631 -0.5313  0.0757
   11SAPS  H16Y 1456   2.617   3.351   4.348 -0.6847 -0.0527  0.5478
   11SAPS  C317 1457   2.536   3.527   4.423  1.3448 -0.7081 -0.2603
   11SAPS  H17X 1458   2.585   3.601   4.356  0.1895  2.4949  2.1548
   11SAPS  H17Y 1459   2.523   3.574   4.523  0.2832 -0.2435 -0.6036
   11SAPS  C318 1460   2.394   3.501   4.371  0.1794 -0.2902  0.8234
   11SAPS  H18X 1461   2.337   3.447   4.450 -1.2930  1.1404  0.7968
   11SAPS  H18Y 1462   2.401   3.444   4.276  0.0811  1.7991 -0.5133
   11SAPS  H18Z 1463   2.338   3.594   4.345  1.4156  0.1066 -0.5873
   12SAPS     N 1464   2.727   3.636   2.491  0.0432 -0.2038  0.0370
   12SAPS   HN1 1465   2.671   3.722   2.475  0.1282 -0.0733  0.4292
   12SAPS   HN2 1466   2.745   3.637   2.593 -0.0687  2.4456  0.1099
   12SAPS   HN3 1467   2.819   3.659   2.448  0.5963  0.9277  1.7336
   12SAPS   C12 1468   2.677   3.510   2.424  0.2599 -0.0512 -0.3526
   12SAPS  H12A 1469   2.577   3.503   2.467 -0.1979  2.1272 -0.9674
   12SAPS   C13 1470   2.660   3.511   2.270 -0.2289  0.5540 -0.7967
   12SAPS  O13A 1471   2.700   3.610   2.209 -0.4465 -0.3132  0.1468
   12SAPS  O13B 1472   2.604   3.409   2.214 -0.1954 -0.2179 -0.5710
   12SAPS   C11 1473   2.774   3.396   2.478  0.4458  0.2311  0.6388
   12SAPS  H11A 1474   2.870   3.394   2.422 -0.0695 -2.9917 -0.3851
   12SAPS  H11B 1475   2.726   3.301   2.445  0.1798  0.4101  0.5100
   12SAPS     P 1476   2.687   3.356   2.721 -0.0451  0.0757 -0.4282
   12SAPS   O13 1477   2.690   3.457   2.830 -0.0548 -0.7330  0.4361
   12SAPS   O14 1478   2.560   3.343   2.648 -0.0597 -0.1160 -0.4428
   12SAPS   O12 1479   2.800   3.395   2.616 -0.0255  0.1391  0.1465
   12SAPS   O11 1480   2.745   3.218   2.773 -0.6942  0.9068 -0.6593
   12SAPS    C1 1481   2.719   3.099   2.693  0.4020 -0.2531 -0.3121
   12SAPS    HA 1482   2.692   3.124   2.589 -0.7490 -2.1533 -0.5089
   12SAPS    HB 1483   2.811   3.038   2.685  0.7042 -0.0943  1.4060
   12SAPS    C2 1484   2.596   3.016   2.743  0.7030 -1.2093 -0.4755
   12SAPS    HS 1485   2.506   3.079   2.725  2.7499  2.1538  0.1400
   12SAPS   O21 1486   2.618   2.973   2.885  1.3877 -0.1837  0.5762
   12SAPS   C21 1487   2.538   3.039   2.967 -0.1645 -0.2031 -0.3698
   12SAPS   O22 1488   2.466   3.133   2.945  0.4314 -0.2076 -0.0025
   12SAPS   C22 1489   2.560   2.983   3.109 -0.0224 -0.2637  0.0592
   12SAPS   H2R 1490   2.563   2.872   3.103 -1.8801 -0.2856 -1.2575
   12SAPS   H2S 1491   2.661   3.022   3.134 -0.2848 -1.0000  2.6455
   12SAPS    C3 1492   2.586   2.893   2.643  0.3241 -0.2784 -1.1546
   12SAPS    HX 1493   2.676   2.829   2.654  0.4278  0.2083  1.9247
   12SAPS    HY 1494   2.594   2.939   2.542  2.2073  2.7523  0.2137
   12SAPS   O31 1495   2.476   2.807   2.664 -0.1708 -0.1301 -1.0483
   12SAPS   C31 1496   2.359   2.861   2.630  0.1109  0.1908 -0.5117
   12SAPS   O32 1497   2.336   2.974   2.599  0.2390  0.4999  0.7288
   12SAPS   C32 1498   2.251   2.753   2.652  0.5270 -0.6390  0.2763
   12SAPS   H2X 1499   2.297   2.653   2.665 -1.7259 -1.7975 -0.1835
   12SAPS   H2Y 1500   2.187   2.748   2.562 -0.3697 -0.3551  0.8837
   12SAPS   C23 1501   2.446   3.033   3.209  0.0024  0.1056  0.3087
   12SAPS   H3R 1502   2.350   2.986   3.179  0.3904  0.8825 -2.4304
   12SAPS   H3S 1503   2.425   3.141   3.194 -1.8644 -0.5393 -2.5833
   12SAPS   C24 1504   2.476   3.014   3.355  0.6427  0.1913 -1.1200
   12SAPS   H4R 1505   2.565   3.073   3.383  0.7833  0.0596 -1.2835
   12SAPS   H4S 1506   2.500   2.907   3.372  0.4721  0.3940  0.4909
   12SAPS   C25 1507   2.359   3.038   3.439  0.4078 -0.4855 -1.1653
   12SAPS   H5R 1508   2.293   2.950   3.438 -0.2133 -0.0373 -0.4174
   12SAPS   C26 1509   2.324   3.149   3.515  0.4235 -0.1564  0.6439
   12SAPS   H6R 1510   2.240   3.149   3.585 -0.5927  1.5789 -0.5003
   12SAPS   C27 1511   2.407   3.275   3.507  0.1641 -0.5000  0.5275
   12SAPS   H7R 1512   2.504   3.246   3.462 -0.1541 -3.9932  1.7936
   12SAPS   H7S 1513   2.439   3.310   3.608  2.0558  3.1766 -1.1472
   12SAPS   C28 1514   2.361   3.390   3.426  0.7385 -0.0218  0.2735
   12SAPS   H8R 1515   2.332   3.380   3.321  4.1039  1.0776 -0.9065
   12SAPS   C29 1516   2.337   3.508   3.480 -0.6094  0.5369  0.0723
   12SAPS   H9R 1517   2.286   3.579   3.413 -0.1182 -0.6682 -1.6441
   12SAPS  C210 1518   2.355   3.560   3.628 -0.5717  0.2640  0.5519
   12SAPS  H10R 1519   2.441   3.630   3.624  0.3866 -0.9441 -1.5175
   12SAPS  H10S 1520   2.381   3.481   3.703  2.2455  0.6778  0.1479
   12SAPS  C211 1521   2.237   3.645   3.672 -0.2404 -0.4539 -0.3435
   12SAPS  H11R 1522   2.140   3.611   3.632  0.7870 -1.2828 -2.2490
   12SAPS  C212 1523   2.245   3.765   3.735  0.0830 -0.1937  0.5514
   12SAPS  H12R 1524   2.152   3.821   3.756  1.2723  2.4843 -0.8037
   12SAPS  C213 1525   2.371   3.833   3.780 -0.0364  0.1081 -0.6130
   12SAPS  H13R 1526   2.390   3.932   3.735 -0.0498  0.4203  0.0534
   12SAPS  H13S 1527   2.459   3.768   3.757 -1.5365 -2.3957  0.3287
   12SAPS  C214 1528   2.368   3.850   3.932 -0.5965  0.3514 -0.2283
   12SAPS  H14R 1529   2.328   3.765   3.989 -2.1417  0.8001 -0.6118
   12SAPS  C215 1530   2.400   3.961   4.000  0.0790  0.3047 -0.5915
   12SAPS  H15R 1531   2.366   3.964   4.105 -1.0072  1.3178 -0.9574
   12SAPS  C216 1532   2.444   4.094   3.938 -0.6755  0.4435  0.3549
   12SAPS  H16R 1533   2.498   4.076   3.842 -0.4321 -0.3458  0.6251
   12SAPS  H16S 1534   2.513   4.142   4.010 -1.2546  2.3930 -0.3418
   12SAPS  C217 1535   2.320   4.176   3.924  0.0530  0.3984 -0.1119
   12SAPS  H17R 1536   2.253   4.193   4.011 -0.0889 -2.3529  0.3819
   12SAPS  H17S 1537   2.257   4.118   3.854  0.5139  0.8391 -0.9166
   12SAPS  C218 1538   2.353   4.305   3.847 -0.0365 -0.8205  0.2508
   12SAPS  H18R 1539   2.260   4.363   3.828 -0.6111 -1.3331  1.3975
   12SAPS  H18S 1540   2.399   4.269   3.753  2.4296 -1.4206  1.6115
   12SAPS  C219 1541   2.456   4.402   3.906 -0.1667  0.6424  0.5837
   12SAPS  H19R 1542   2.483   4.482   3.835 -1.3410  0.6540  0.1358
   12SAPS  H19S 1543   2.548   4.341   3.924 -1.7655 -1.6957  1.3086
   12SAPS  C220 1544   2.413   4.464   4.036 -0.0827 -0.6645 -0.1193
   12SAPS  H20R 1545   2.464   4.561   4.056  2.2133 -1.9652  0.6985
   12SAPS  H20S 1546   2.421   4.390   4.118 -0.7774 -2.3333 -1.4891
   12SAPS  H20T 1547   2.307   4.494   4.021  0.7071  2.8203  0.3953
   12SAPS   C33 1548   2.173   2.791   2.778 -0.5536  0.1282 -0.0559
   12SAPS   H3X 1549   2.098   2.709   2.776  0.9733 -1.3258 -1.4336
   12SAPS   H3Y 1550   2.135   2.892   2.753 -0.1945 -0.0655 -1.4989
   12SAPS   C34 1551   2.241   2.788   2.914  0.1516  0.6862 -0.2808
   12SAPS   H4X 1552   2.304   2.880   2.923 -2.3306  2.4118  0.4225
   12SAPS   H4Y 1553   2.301   2.695   2.906 -0.6841  0.2799 -2.2430
   12SAPS   C35 1554   2.148   2.771   3.037 -0.3312  0.3175 -0.1329
   12SAPS   H5X 1555   2.048   2.731   3.008  0.6553 -3.8348  1.4488
   12SAPS   H5Y 1556   2.130   2.873   3.077  0.1175  0.0681  0.7397
   12SAPS   C36 1557   2.198   2.690   3.156  0.0604  0.8015  0.1992
   12SAPS   H6X 1558   2.292   2.741   3.186 -0.0213  1.9696 -1.3758
   12SAPS   H6Y 1559   2.239   2.594   3.118 -2.0713  0.4563 -1.4167
   12SAPS   C37 1560   2.097   2.680   3.267  0.3454 -0.1367 -0.3692
   12SAPS   H7X 1561   2.010   2.616   3.241  1.7946 -2.0747 -0.6270
   12SAPS   H7Y 1562   2.055   2.782   3.284 -1.2938 -0.5312 -1.7748
   12SAPS   C38 1563   2.159   2.621   3.390 -0.0287 -0.1397 -0.1608
   12SAPS   H8X 1564   2.250   2.683   3.407 -0.2453 -0.1545  1.0886
   12SAPS   H8Y 1565   2.189   2.515   3.372  0.0370 -0.1085 -0.2407
   12SAPS   C39 1566   2.058   2.634   3.512 -0.5943  0.3321 -0.7513
   12SAPS   H9X 1567   2.083   2.559   3.590 -1.2944  0.8034 -0.0479
   12SAPS   H9Y 1568   1.958   2.601   3.477 -0.1422  0.6106 -2.3599
   12SAPS  C310 1569   2.056   2.781   3.575  0.3597  0.8951  0.2728
   12SAPS  H10X 1570   2.051   2.866   3.504  0.8385  0.0245 -0.8520
   12SAPS  H10Y 1571   2.160   2.792   3.613  1.7581 -1.3365 -2.4985
   12SAPS  C311 1572   1.953   2.800   3.684  0.3535  0.1659 -0.4540
   12SAPS  H11X 1573   1.852   2.813   3.640  0.4761 -0.3204 -0.8827
   12SAPS  H11Y 1574   1.988   2.890   3.739  3.0646 -0.7469 -0.5411
   12SAPS  C312 1575   1.945   2.705   3.801 -0.3309 -0.2024 -0.5321
   12SAPS  H12X 1576   2.050   2.699   3.836  0.8283  2.2932 -3.2231
   12SAPS  H12Y 1577   1.917   2.604   3.763  1.9588 -0.6469 -1.1602
   12SAPS  C313 1578   1.850   2.747   3.915  0.7533 -1.2603  0.5484
   12SAPS  H13X 1579   1.848   2.664   3.989  3.1420 -0.0074  2.1572
   12SAPS  H13Y 1580   1.748   2.771   3.877  0.0758  0.0985  3.0258
   12SAPS  C314 1581   1.896   2.867   4.002 -0.3923 -0.1445 -0.3025
   12SAPS  H14X 1582   1.813   2.882   4.074 -0.3466 -0.3379 -0.2087
   12SAPS  H14Y 1583   1.908   2.963   3.947  2.0089  0.6185  1.3838
   12SAPS  C315 1584   2.032   2.832   4.076  0.5149 -0.0810  0.8699
   12SAPS  H15X 1585   2.106   2.839   3.994 -0.7780  1.7236 -0.2250
   12SAPS  H15Y 1586   2.018   2.730   4.118 -0.6461 -0.0136  0.6937
   12SAPS  C316 1587   2.068   2.922   4.193  0.4142 -0.0592  0.1638
   12SAPS  H16X 1588   2.078   3.023   4.148  0.1082  0.4941  1.2818
   12SAPS  H16Y 1589   2.166   2.884   4.230  0.1896 -0.2459  0.5790
   12SAPS  C317 1590   1.971   2.933   4.315  0.0711 -0.9205 -0.4039
   12SAPS  H17X 1591   1.939   2.832   4.348 -1.8445 -0.8459 -1.8635
   12SAPS  H17Y 1592   1.877   2.987   4.293  0.8755  1.6928  1.9203
   12SAPS  C318 1593   2.029   3.018   4.436 -0.1852 -1.5647 -0.2337
   12SAPS  H18X 1594   2.035   3.126   4.412 -0.9349 -1.1923  1.1389
   12SAPS  H18Y 1595   2.128   2.978   4.467 -0.2854 -1.9808 -0.4409
   12SAPS  H18Z 1596   1.965   3.007   4.526  0.5491  0.1076  0.5121
   13SAPS     N 1597   3.163   1.992   2.312 -0.7956  0.2661  0.4378
   13SAPS   HN1 1598   3.145   1.987   2.414  1.0200  0.1755  0.7839
   13SAPS   HN2 1599   3.204   1.902   2.280  0.4659  1.8559 -2.8784
   13SAPS   HN3 1600   3.220   2.072   2.277  1.4402 -0.7493  1.5302
   13SAPS   C12 1601   3.031   1.991   2.249  0.2996  0.3970 -0.6213
   13SAPS  H12A 1602   2.980   2.084   2.272 -0.7344  0.0554 -1.4334
   13SAPS   C13 1603   3.033   1.981   2.094 -0.3346 -0.2253  0.6850
   13SAPS  O13A 1604   3.144   1.968   2.034 -0.1379  0.1904 -0.2481
   13SAPS  O13B 1605   2.926   1.974   2.034  0.7103 -0.4779  0.3918
   13SAPS   C11 1606   2.947   1.875   2.304 -0.0655  0.1960 -0.6194
   13SAPS  H11A 1607   2.992   1.778   2.272  2.9547  1.0825  0.5808
   13SAPS  H11B 1608   2.845   1.887   2.261 -0.1937  1.6154  0.0235
   13SAPS     P 1609   2.818   1.794   2.525  0.0046  0.2413  0.5039
   13SAPS   O13 1610   2.780   1.683   2.440  0.0337  0.6230  0.0234
   13SAPS   O14 1611   2.853   1.761   2.658 -0.2139 -0.0086 -0.1262
   13SAPS   O12 1612   2.933   1.878   2.451  0.3472 -0.0585  0.5081
   13SAPS   O11 1613   2.699   1.895   2.546  0.3565  0.1818  0.4315
   13SAPS    C1 1614   2.693   2.034   2.531  0.4609  0.1961  0.4070
   13SAPS    HA 1615   2.796   2.077   2.533 -0.0771  1.5886 -0.4862
   13SAPS    HB 1616   2.640   2.058   2.436  1.4521  0.3054 -0.1365
   13SAPS    C2 1617   2.596   2.092   2.634  0.4972  0.6351  0.1164
   13SAPS    HS 1618   2.594   2.204   2.632  0.0335  0.6249 -1.0987
   13SAPS   O21 1619   2.623   2.041   2.765 -0.1585 -0.1548 -0.2740
   13SAPS   C21 1620   2.742   2.069   2.818 -0.1618  0.4508 -0.5877
   13SAPS   O22 1621   2.818   2.158   2.783  0.7203  0.4125 -0.1596
   13SAPS   C22 1622   2.769   1.958   2.929  0.2611 -0.2715  0.5460
   13SAPS   H2R 1623   2.686   1.885   2.940  0.6787 -1.1095 -1.3544
   13SAPS   H2S 1624   2.864   1.903   2.913 -0.3463 -1.1378 -0.2037
   13SAPS    C3 1625   2.455   2.038   2.612  0.1192  0.3990 -0.1113
   13SAPS    HX 1626   2.470   1.928   2.608  1.9235  0.6167  0.0393
   13SAPS    HY 1627   2.425   2.084   2.515 -1.9554 -2.1080 -0.7700
   13SAPS   O31 1628   2.365   2.070   2.721  0.5863  0.6740  0.4251
   13SAPS   C31 1629   2.320   2.198   2.726 -0.2913 -0.6305 -0.0449
   13SAPS   O32 1630   2.345   2.283   2.644 -0.3704 -0.2831 -0.3164
   13SAPS   C32 1631   2.255   2.222   2.860  0.9070 -0.3599 -0.2501
   13SAPS   H2X 1632   2.317   2.285   2.927 -0.7781 -1.6960  2.7436
   13SAPS   H2Y 1633   2.229   2.125   2.907 -0.4546  0.1603  0.1146
   13SAPS   C23 1634   2.773   2.034   3.065  0.1795  0.0765 -0.0895
   13SAPS   H3R 1635   2.822   2.133   3.053  1.6567 -0.4785  1.1033
   13SAPS   H3S 1636   2.835   1.975   3.135  3.3901  0.9751 -1.9715
   13SAPS   C24 1637   2.640   2.054   3.140 -0.7944 -0.1094 -0.1560
   13SAPS   H4R 1638   2.573   1.966   3.133 -0.6694 -0.3492  1.2833
   13SAPS   H4S 1639   2.601   2.136   3.075  2.4975  0.6851 -1.3185
   13SAPS   C25 1640   2.634   2.107   3.280 -0.9325 -0.2140 -0.4350
   13SAPS   H5R 1641   2.723   2.159   3.317 -1.2419 -0.0107  0.0168
   13SAPS   C26 1642   2.525   2.099   3.359 -0.1382 -0.7035  0.5842
   13SAPS   H6R 1643   2.545   2.138   3.460  2.3180 -0.2930  0.0208
   13SAPS   C27 1644   2.395   2.031   3.331 -0.0933 -0.7442 -0.0041
   13SAPS   H7R 1645   2.414   1.955   3.252  0.6928  1.3907 -1.9965
   13SAPS   H7S 1646   2.317   2.098   3.289  0.3979  0.4366  0.8905
   13SAPS   C28 1647   2.335   1.966   3.459 -0.3513  0.1822  0.4738
   13SAPS   H8R 1648   2.370   1.862   3.464 -0.9253 -0.0230  0.3799
   13SAPS   C29 1649   2.246   2.015   3.549  0.5662 -0.3425  0.3281
   13SAPS   H9R 1650   2.221   1.956   3.639 -1.6629 -0.5596 -0.3655
   13SAPS  C210 1651   2.198   2.153   3.553 -0.1771  0.0665  1.0453
   13SAPS  H10R 1652   2.116   2.161   3.629  1.5380  2.3932  2.8184
   13SAPS  H10S 1653   2.163   2.190   3.454  0.7428 -0.5784  0.4742
   13SAPS  C211 1654   2.303   2.262   3.581 -0.1299  0.8401 -0.6010
   13SAPS  H11R 1655   2.354   2.304   3.493 -0.6053  0.2044 -1.1854
   13SAPS  C212 1656   2.333   2.336   3.691  0.2051  0.0076 -0.1167
   13SAPS  H12R 1657   2.404   2.420   3.687  2.4187 -1.8150 -0.8260
   13SAPS  C213 1658   2.260   2.315   3.821  0.4342 -0.6037  0.3555
   13SAPS  H13R 1659   2.318   2.241   3.881  1.1632 -0.2281  0.1279
   13SAPS  H13S 1660   2.162   2.268   3.798  0.8329 -0.6509 -1.4188
   13SAPS  C214 1661   2.237   2.445   3.895 -0.0673 -0.0993  0.1693
   13SAPS  H14R 1662   2.264   2.537   3.839 -2.7743  1.1935  0.8167
   13SAPS  C215 1663   2.197   2.431   4.023 -0.2256  0.5787  0.4650
   13SAPS  H15R 1664   2.198   2.521   4.086  1.1105  0.5793  0.4774
   13SAPS  C216 1665   2.161   2.311   4.104  0.3145 -0.1240 -0.3666
   13SAPS  H16R 1666   2.178   2.216   4.049  2.0619  0.9980 -1.9272
   13SAPS  H16S 1667   2.055   2.321   4.135  0.8722  0.2808  1.5154
   13SAPS  C217 1668   2.254   2.302   4.226  0.1927 -0.5893  0.1585
   13SAPS  H17R 1669   2.273   2.404   4.266  0.1071 -0.6974  0.4782
   13SAPS  H17S 1670   2.353   2.261   4.194 -0.4460 -1.1291 -1.2132
   13SAPS  C218 1671   2.194   2.207   4.337  0.5006  0.1897  0.2851
   13SAPS  H18R 1672   2.208   2.102   4.303  0.3883  0.3698 -0.3400
   13SAPS  H18S 1673   2.086   2.231   4.347  0.3483 -0.8775  1.3714
   13SAPS  C219 1674   2.251   2.223   4.478  0.0541  0.8927 -0.5320
   13SAPS  H19R 1675   2.266   2.332   4.495  0.3722  0.8680 -0.6447
   13SAPS  H19S 1676   2.351   2.175   4.486 -0.5337 -0.1576  1.1943
   13SAPS  C220 1677   2.162   2.170   4.597 -0.2286  0.4027 -0.0518
   13SAPS  H20R 1678   2.218   2.160   4.692  1.8999 -0.0981 -1.2923
   13SAPS  H20S 1679   2.121   2.071   4.567 -1.1972  0.7796 -0.0230
   13SAPS  H20T 1680   2.073   2.236   4.611  0.9528  2.2809 -0.9485
   13SAPS   C33 1681   2.130   2.319   2.831  0.2495  1.0197 -0.3390
   13SAPS   H3X 1682   2.056   2.273   2.762  0.8585  0.4607 -0.6315
   13SAPS   H3Y 1683   2.172   2.398   2.765  0.3767  1.9057  0.7729
   13SAPS   C34 1684   2.075   2.362   2.960 -0.4343  0.4105 -0.2557
   13SAPS   H4X 1685   2.002   2.437   2.922  0.7813  2.1060  0.5621
   13SAPS   H4Y 1686   2.154   2.424   3.009 -1.5476  2.2034 -0.6206
   13SAPS   C35 1687   2.011   2.250   3.044  0.7868  0.4570 -0.1861
   13SAPS   H5X 1688   2.088   2.173   3.068  0.4533  0.1837  0.0136
   13SAPS   H5Y 1689   1.932   2.196   2.987 -0.7036 -0.1645  2.3275
   13SAPS   C36 1690   1.943   2.316   3.166  0.9756  0.7826 -0.4257
   13SAPS   H6X 1691   1.848   2.363   3.132  0.5183 -0.2379 -0.6097
   13SAPS   H6Y 1692   2.014   2.390   3.207  1.5756  0.6465 -1.1840
   13SAPS   C37 1693   1.904   2.220   3.285 -0.3545 -0.3349 -0.0170
   13SAPS   H7X 1694   1.983   2.153   3.326 -0.1141  1.0541  1.9323
   13SAPS   H7Y 1695   1.820   2.151   3.264 -0.6688 -1.2747  3.6741
   13SAPS   C38 1696   1.838   2.309   3.400 -0.7728 -0.0420  0.4887
   13SAPS   H8X 1697   1.751   2.361   3.356 -0.7794 -0.5331 -0.0876
   13SAPS   H8Y 1698   1.902   2.394   3.433  1.1798 -0.4707 -1.8623
   13SAPS   C39 1699   1.778   2.231   3.518  0.2381 -0.2370 -0.7827
   13SAPS   H9X 1700   1.856   2.172   3.571  1.0971  0.8287 -0.8283
   13SAPS   H9Y 1701   1.699   2.161   3.483 -0.1877  1.0188 -2.4319
   13SAPS  C310 1702   1.725   2.326   3.633 -0.2292 -0.0268  0.0693
   13SAPS  H10X 1703   1.625   2.365   3.607 -0.2720 -0.5891 -0.6234
   13SAPS  H10Y 1704   1.793   2.414   3.624 -1.3958  1.0077  1.0265
   13SAPS  C311 1705   1.724   2.272   3.772  0.8017  0.5379  0.1832
   13SAPS  H11X 1706   1.824   2.235   3.802 -0.9050 -3.3596  1.8306
   13SAPS  H11Y 1707   1.658   2.182   3.770  0.5084  0.7545  0.1044
   13SAPS  C312 1708   1.681   2.373   3.875 -1.0194 -0.5450  0.5296
   13SAPS  H12X 1709   1.575   2.405   3.858 -0.7809 -0.2003 -0.3935
   13SAPS  H12Y 1710   1.754   2.456   3.876 -2.3466  0.6978  2.7576
   13SAPS  C313 1711   1.678   2.327   4.015 -0.5975  1.1051  0.7604
   13SAPS  H13X 1712   1.784   2.317   4.046 -0.0975 -0.9585 -1.3151
   13SAPS  H13Y 1713   1.628   2.228   4.027 -0.0573  0.7072 -0.1961
   13SAPS  C314 1714   1.621   2.430   4.114 -0.2371  0.4842 -0.6720
   13SAPS  H14X 1715   1.515   2.454   4.088 -0.7564  0.0307  0.8808
   13SAPS  H14Y 1716   1.687   2.518   4.117 -0.2657  0.5361 -1.3338
   13SAPS  C315 1717   1.629   2.367   4.251  0.5178  0.0165 -0.1929
   13SAPS  H15X 1718   1.735   2.349   4.277  0.8517  1.1256 -0.7154
   13SAPS  H15Y 1719   1.579   2.268   4.247 -1.1126  0.8167 -0.2115
   13SAPS  C316 1720   1.540   2.454   4.342 -0.4633  0.2713 -0.5826
   13SAPS  H16X 1721   1.435   2.436   4.310 -0.7541 -1.2336  1.0502
   13SAPS  H16Y 1722   1.576   2.559   4.334 -0.2143  0.2825  0.4644
   13SAPS  C317 1723   1.542   2.413   4.488 -0.1411 -0.5019  0.5775
   13SAPS  H17X 1724   1.641   2.439   4.533  1.7550 -2.2882 -2.2370
   13SAPS  H17Y 1725   1.541   2.301   4.489 -2.4516 -0.5299  0.0191
   13SAPS  C318 1726   1.422   2.457   4.584 -0.4605  0.3339  0.7711
   13SAPS  H18X 1727   1.326   2.409   4.555 -0.0036  0.4316 -1.0376
   13SAPS  H18Y 1728   1.402   2.566   4.592 -1.6217  0.0847  1.5393
   13SAPS  H18Z 1729   1.437   2.430   4.690 -0.6881  0.4152  0.8241
   14SAPS     N 1730   2.786   3.492   1.991 -0.0945 -0.2720 -0.0841
   14SAPS   HN1 1731   2.694   3.444   1.978  1.3895 -3.3776 -0.0445
   14SAPS   HN2 1732   2.788   3.547   2.079  0.0565 -2.5356  1.3904
   14SAPS   HN3 1733   2.790   3.543   1.900 -1.4277 -0.8777 -0.5236
   14SAPS   C12 1734   2.897   3.389   2.000 -0.1268  0.9556 -0.5309
   14SAPS  H12A 1735   2.927   3.369   1.898  0.8146 -2.1371  0.2430
   14SAPS   C13 1736   3.012   3.420   2.095 -0.5927 -0.0936 -0.1586
   14SAPS  O13A 1737   3.030   3.538   2.133 -0.0844 -0.6267  0.5641
   14SAPS  O13B 1738   3.106   3.341   2.118  0.1595 -0.0193  0.1188
   14SAPS   C11 1739   2.832   3.249   2.046  0.1577  0.2655 -0.6166
   14SAPS  H11A 1740   2.799   3.263   2.151 -2.0023 -1.1988 -1.0370
   14SAPS  H11B 1741   2.914   3.174   2.045  0.7799  0.8795  1.0805
   14SAPS     P 1742   2.718   3.073   1.883  0.2865 -0.2633 -0.0635
   14SAPS   O13 1743   2.581   3.051   1.836 -0.1087 -0.1522  0.4368
   14SAPS   O14 1744   2.830   3.077   1.786 -0.4056  0.0561 -0.1924
   14SAPS   O12 1745   2.719   3.214   1.964 -0.8800  0.6177 -0.1322
   14SAPS   O11 1746   2.740   2.971   1.995 -0.1020  0.1630 -0.3911
   14SAPS    C1 1747   2.621   2.928   2.061  0.1372 -0.1423  0.2020
   14SAPS    HA 1748   2.562   3.016   2.093 -1.6337 -0.3629 -2.1888
   14SAPS    HB 1749   2.551   2.869   1.998 -1.0024 -0.5758  1.8078
   14SAPS    C2 1750   2.651   2.832   2.181 -0.3307  0.4179 -0.5180
   14SAPS    HS 1751   2.565   2.847   2.250  1.5763 -0.7515  2.3055
   14SAPS   O21 1752   2.769   2.877   2.245  0.0356  0.3211 -0.0432
   14SAPS   C21 1753   2.761   2.993   2.307 -0.4387  0.2832  0.4124
   14SAPS   O22 1754   2.660   3.063   2.316 -0.3195  0.3083 -0.1021
   14SAPS   C22 1755   2.900   3.033   2.362 -0.1493  0.0195 -0.1252
   14SAPS   H2R 1756   2.963   3.102   2.303  1.5629  0.2859  1.9230
   14SAPS   H2S 1757   2.885   3.086   2.458  0.5926  0.3289 -0.1716
   14SAPS    C3 1758   2.660   2.683   2.152 -0.5543  0.0567 -0.4257
   14SAPS    HX 1759   2.720   2.663   2.061  0.0747  1.2524 -0.2933
   14SAPS    HY 1760   2.554   2.657   2.130 -0.2195 -4.3778  1.9650
   14SAPS   O31 1761   2.702   2.601   2.259  0.6897 -0.0757 -0.8019
   14SAPS   C31 1762   2.612   2.572   2.354  0.2304  0.1223  0.3718
   14SAPS   O32 1763   2.496   2.608   2.361 -0.3905 -0.2832  0.4013
   14SAPS   C32 1764   2.694   2.508   2.470 -0.0353  0.6984  0.3418
   14SAPS   H2X 1765   2.769   2.584   2.498  0.9774 -0.8185  1.9411
   14SAPS   H2Y 1766   2.738   2.409   2.447  2.0646  0.7489  3.5944
   14SAPS   C23 1767   2.989   2.906   2.386 -0.8151  0.4473  0.5535
   14SAPS   H3R 1768   3.089   2.936   2.423 -1.2084  3.3945 -0.5337
   14SAPS   H3S 1769   3.004   2.853   2.290  0.5946  0.8663  0.5231
   14SAPS   C24 1770   2.936   2.811   2.497 -0.4713  0.2127  0.2470
   14SAPS   H4R 1771   2.829   2.779   2.491 -0.0156 -1.4881  0.6586
   14SAPS   H4S 1772   2.951   2.870   2.590 -1.1639 -0.8417  1.0585
   14SAPS   C25 1773   3.020   2.687   2.506  0.1997 -0.0233 -0.5123
   14SAPS   H5R 1774   3.010   2.632   2.411 -0.0255  0.9034 -1.0441
   14SAPS   C26 1775   3.064   2.627   2.614 -0.0353  0.5382 -0.2370
   14SAPS   H6R 1776   3.110   2.528   2.598 -3.5586 -1.0725 -1.3576
   14SAPS   C27 1777   3.045   2.667   2.757  0.7571 -0.3372  0.5332
   14SAPS   H7R 1778   3.043   2.576   2.821 -1.7938 -1.1309 -0.5194
   14SAPS   H7S 1779   2.947   2.720   2.765  1.8397  1.8132  0.4729
   14SAPS   C28 1780   3.159   2.762   2.796  0.9761  0.2857 -0.3172
   14SAPS   H8R 1781   3.257   2.755   2.746  1.6567  0.9220  0.8765
   14SAPS   C29 1782   3.148   2.857   2.893 -0.6396 -0.9221  0.6287
   14SAPS   H9R 1783   3.237   2.916   2.920 -1.4991  0.3011  0.8525
   14SAPS  C210 1784   3.030   2.890   2.971  0.5173  0.2831  0.0616
   14SAPS  H10R 1785   2.941   2.913   2.909 -1.1215 -1.0069  1.8090
   14SAPS  H10S 1786   3.048   2.984   3.028  1.1154 -0.4902  1.2057
   14SAPS  C211 1787   2.987   2.779   3.072 -0.2135 -0.5340 -0.1640
   14SAPS  H11R 1788   2.955   2.684   3.027  1.0238 -1.2131  0.3348
   14SAPS  C212 1789   2.982   2.799   3.204  0.0137  0.5127 -0.3108
   14SAPS  H12R 1790   2.968   2.711   3.269  1.4596 -0.3351 -1.0922
   14SAPS  C213 1791   3.015   2.920   3.289 -0.0989  0.7520 -0.5438
   14SAPS  H13R 1792   3.054   3.001   3.224 -1.9714  1.3938 -0.9458
   14SAPS  H13S 1793   3.099   2.907   3.361 -0.7581  3.7702  0.9404
   14SAPS  C214 1794   2.898   2.980   3.371 -0.2320 -0.5550  0.0764
   14SAPS  H14R 1795   2.830   3.039   3.307 -1.0352  0.6967  2.0021
   14SAPS  C215 1796   2.883   2.996   3.504 -0.6509  0.1631 -0.0991
   14SAPS  H15R 1797   2.791   3.049   3.532 -1.0872 -0.1301 -0.9365
   14SAPS  C216 1798   2.980   2.954   3.617 -0.5869 -0.1340 -0.1490
   14SAPS  H16R 1799   3.069   2.903   3.574 -0.4054 -0.8968  1.0837
   14SAPS  H16S 1800   2.924   2.872   3.668  0.5776 -0.3840  0.7809
   14SAPS  C217 1801   3.004   3.055   3.738  0.3284  0.3129 -0.1635
   14SAPS  H17R 1802   2.903   3.096   3.761 -0.2779 -0.5389 -1.1978
   14SAPS  H17S 1803   3.079   3.129   3.704  2.0898 -0.0721  2.6148
   14SAPS  C218 1804   3.073   2.993   3.858  0.2514 -0.3014  0.2021
   14SAPS  H18R 1805   3.166   2.948   3.818  1.0171 -1.0687  2.6223
   14SAPS  H18S 1806   3.003   2.922   3.907 -3.0684  0.8332 -2.5381
   14SAPS  C219 1807   3.113   3.088   3.972 -0.6597  0.5634 -0.1625
   14SAPS  H19R 1808   3.127   3.194   3.942 -0.6320  0.6560  0.1802
   14SAPS  H19S 1809   3.205   3.050   4.020 -0.1310  2.3001  0.2382
   14SAPS  C220 1810   2.998   3.100   4.077  0.0690 -0.3477 -0.2620
   14SAPS  H20R 1811   2.896   3.117   4.038 -0.0236  1.3633  0.6118
   14SAPS  H20S 1812   3.023   3.185   4.145  0.9602 -1.5005  0.9038
   14SAPS  H20T 1813   2.990   3.009   4.140 -1.1599 -0.0284  0.0703
   14SAPS   C33 1814   2.609   2.474   2.592  0.8346 -0.5494 -0.3427
   14SAPS   H3X 1815   2.554   2.379   2.578 -0.0182  0.1433 -1.9255
   14SAPS   H3Y 1816   2.527   2.546   2.614  1.7534  0.0481  1.3117
   14SAPS   C34 1817   2.696   2.480   2.714 -0.3330  0.0320  0.2008
   14SAPS   H4X 1818   2.748   2.578   2.713  2.6045 -1.4284 -0.8082
   14SAPS   H4Y 1819   2.775   2.402   2.717 -2.3000 -2.0485  1.3265
   14SAPS   C35 1820   2.602   2.478   2.837 -0.5291  0.5125 -0.1373
   14SAPS   H5X 1821   2.563   2.374   2.849  1.5915 -0.5394 -1.5583
   14SAPS   H5Y 1822   2.520   2.551   2.828  0.7841  2.1350  0.5220
   14SAPS   C36 1823   2.682   2.521   2.967  0.1855  0.1505 -0.3808
   14SAPS   H6X 1824   2.712   2.623   2.936 -0.5081  0.7940  0.9618
   14SAPS   H6Y 1825   2.776   2.469   2.994  0.7083  0.7992 -0.9233
   14SAPS   C37 1826   2.597   2.523   3.096 -0.4158  0.3774 -0.3890
   14SAPS   H7X 1827   2.597   2.414   3.121  2.6581  0.5833  1.0193
   14SAPS   H7Y 1828   2.498   2.562   3.065 -0.1458 -0.2982 -2.2535
   14SAPS   C38 1829   2.665   2.594   3.208 -1.0085  0.0544 -0.2079
   14SAPS   H8X 1830   2.687   2.698   3.173  0.3361 -0.8637 -2.2758
   14SAPS   H8Y 1831   2.763   2.545   3.226 -1.6634 -1.6481 -1.0946
   14SAPS   C39 1832   2.583   2.592   3.336 -0.3292 -0.0161  0.0584
   14SAPS   H9X 1833   2.566   2.484   3.355 -1.7056  0.3774  1.2075
   14SAPS   H9Y 1834   2.486   2.641   3.313 -0.3247  0.1899  0.4706
   14SAPS  C310 1835   2.655   2.647   3.455 -0.1468  0.0027  0.1919
   14SAPS  H10X 1836   2.682   2.753   3.436 -1.2451  0.2991  0.1898
   14SAPS  H10Y 1837   2.753   2.602   3.481 -0.4288 -0.6464  0.1439
   14SAPS  C311 1838   2.563   2.648   3.580 -0.3642  1.1415 -0.5748
   14SAPS  H11X 1839   2.563   2.546   3.625  1.7232  0.8624 -1.0877
   14SAPS  H11Y 1840   2.460   2.669   3.542 -0.0455  0.4719 -1.8473
   14SAPS  C312 1841   2.611   2.745   3.688  0.2557  0.9424  0.4985
   14SAPS  H12X 1842   2.644   2.840   3.639  1.4948 -0.0022 -0.5557
   14SAPS  H12Y 1843   2.709   2.708   3.725  0.1804  0.5136  0.2700
   14SAPS  C313 1844   2.500   2.782   3.796 -0.0153  0.2846  0.1287
   14SAPS  H13X 1845   2.525   2.734   3.893 -0.0996  1.8485  0.9608
   14SAPS  H13Y 1846   2.400   2.741   3.771 -0.4158  1.3525 -0.0832
   14SAPS  C314 1847   2.490   2.934   3.817  0.9015  0.5182 -0.4449
   14SAPS  H14X 1848   2.448   2.975   3.722  0.8105  3.2783  0.6961
   14SAPS  H14Y 1849   2.592   2.978   3.814  2.2028 -1.8758  3.1192
   14SAPS  C315 1850   2.392   2.980   3.927 -0.1200 -0.4320  0.1437
   14SAPS  H15X 1851   2.434   2.971   4.029 -1.5134  1.3778  0.9070
   14SAPS  H15Y 1852   2.299   2.919   3.933 -0.0537 -0.4558  0.9408
   14SAPS  C316 1853   2.347   3.130   3.901 -0.2467 -0.2823 -0.3348
   14SAPS  H16X 1854   2.271   3.126   3.820  0.4861  1.1958 -1.1286
   14SAPS  H16Y 1855   2.429   3.197   3.868 -1.4448  1.7192  0.5324
   14SAPS  C317 1856   2.286   3.207   4.017 -0.0825 -0.1902  0.3727
   14SAPS  H17X 1857   2.350   3.207   4.108  0.4012 -1.4410  0.0475
   14SAPS  H17Y 1858   2.190   3.157   4.040 -0.0350 -0.4811 -0.0569
   14SAPS  C318 1859   2.249   3.352   3.990 -0.1270 -0.0101 -0.1020
   14SAPS  H18X 1860   2.336   3.421   3.996 -0.0418 -0.2187  1.7093
   14SAPS  H18Y 1861   2.169   3.390   4.057  0.3768 -1.1213  1.1774
   14SAPS  H18Z 1862   2.200   3.355   3.890 -0.6114  2.7575  0.1398
   15SAPS     N 1863   1.903   4.257   2.624 -0.3236  0.3775 -0.1874
   15SAPS   HN1 1864   1.840   4.319   2.679 -1.3436  1.2039 -2.1900
   15SAPS   HN2 1865   1.849   4.216   2.546  0.6303  2.6284 -2.1524
   15SAPS   HN3 1866   1.935   4.182   2.688  0.8385 -0.6181 -1.8710
   15SAPS   C12 1867   2.026   4.324   2.591  0.0788 -0.4859 -0.2140
   15SAPS  H12A 1868   2.074   4.340   2.686 -0.0376 -1.2439 -0.0189
   15SAPS   C13 1869   2.131   4.256   2.499 -0.3787  0.3015 -0.7535
   15SAPS  O13A 1870   2.119   4.129   2.484  0.2803 -0.2033  0.2279
   15SAPS  O13B 1871   2.249   4.310   2.487 -0.1752  0.7630  0.5498
   15SAPS   C11 1872   1.996   4.464   2.526 -0.1049  0.4797  0.1390
   15SAPS  H11A 1873   1.932   4.451   2.436  0.4650  0.8305 -0.3293
   15SAPS  H11B 1874   2.089   4.517   2.495  0.5223 -1.1280 -0.8961
   15SAPS     P 1875   1.962   4.666   2.701 -0.2471  0.1151 -0.3224
   15SAPS   O13 1876   2.021   4.762   2.609 -0.5898  0.4169  0.1542
   15SAPS   O14 1877   1.858   4.710   2.795  0.6504 -0.2697  0.3403
   15SAPS   O12 1878   1.915   4.549   2.613  0.3692 -0.4910  0.1599
   15SAPS   O11 1879   2.070   4.595   2.789  0.1970  0.1066 -0.8144
   15SAPS    C1 1880   2.191   4.661   2.819 -0.3811  0.5631 -0.0519
   15SAPS    HA 1881   2.228   4.736   2.746 -0.2221  1.5903  1.0600
   15SAPS    HB 1882   2.188   4.699   2.923 -1.2444 -1.6217  0.7739
   15SAPS    C2 1883   2.313   4.559   2.824  0.3129  0.4916 -0.1838
   15SAPS    HS 1884   2.348   4.542   2.720 -0.3511  1.6837 -0.6143
   15SAPS   O21 1885   2.271   4.444   2.897 -0.0408  0.2440  0.1684
   15SAPS   C21 1886   2.353   4.341   2.894  0.0026  0.4613  0.7550
   15SAPS   O22 1887   2.454   4.325   2.824  0.1430 -0.6894  0.2481
   15SAPS   C22 1888   2.313   4.250   3.003 -0.6357 -0.4109 -0.5513
   15SAPS   H2R 1889   2.205   4.235   2.981 -0.8625  2.3251 -1.7016
   15SAPS   H2S 1890   2.359   4.150   2.987 -0.1878 -0.2660 -0.2016
   15SAPS    C3 1891   2.429   4.634   2.885  0.7633  0.2046 -0.8073
   15SAPS    HX 1892   2.437   4.732   2.833  1.5396 -0.9249 -2.8850
   15SAPS    HY 1893   2.528   4.584   2.879  0.9578  0.6257 -1.1503
   15SAPS   O31 1894   2.404   4.655   3.023  0.2188  0.6342  0.0491
   15SAPS   C31 1895   2.512   4.703   3.087 -0.2847  0.3461 -0.3713
   15SAPS   O32 1896   2.622   4.719   3.043 -0.3476  0.3897  0.3447
   15SAPS   C32 1897   2.476   4.705   3.235 -0.1067  0.6040 -0.0520
   15SAPS   H2X 1898   2.406   4.622   3.261  1.4785 -0.3133  1.5249
   15SAPS   H2Y 1899   2.423   4.799   3.262 -0.2311  0.5771 -0.2036
   15SAPS   C23 1900   2.327   4.310   3.137 -0.0678  0.1347  0.0390
   15SAPS   H3R 1901   2.257   4.269   3.213  0.7184 -1.2267  0.0777
   15SAPS   H3S 1902   2.309   4.419   3.131  1.0214  0.3198 -0.0269
   15SAPS   C24 1903   2.470   4.303   3.203 -0.2945  0.0907  0.4172
   15SAPS   H4R 1904   2.468   4.378   3.285  0.7174 -0.6539  1.1565
   15SAPS   H4S 1905   2.539   4.346   3.127  0.0751  0.4638  0.9576
   15SAPS   C25 1906   2.502   4.159   3.243  0.4875 -0.3166  0.1393
   15SAPS   H5R 1907   2.517   4.096   3.154  1.8641 -0.8558  0.7151
   15SAPS   C26 1908   2.517   4.101   3.363  0.0737  0.4245 -0.3518
   15SAPS   H6R 1909   2.541   3.994   3.369 -2.1634 -0.0237  2.2722
   15SAPS   C27 1910   2.511   4.177   3.493 -0.0803 -0.4844  0.2050
   15SAPS   H7R 1911   2.452   4.113   3.562  1.6140  1.4946  3.7636
   15SAPS   H7S 1912   2.451   4.270   3.477 -0.3040 -0.7006 -0.2127
   15SAPS   C28 1913   2.643   4.206   3.553  0.3438  0.0184 -0.5503
   15SAPS   H8R 1914   2.649   4.308   3.594 -2.6569 -0.6846  2.0086
   15SAPS   C29 1915   2.728   4.115   3.600  0.4475  0.5128 -0.5638
   15SAPS   H9R 1916   2.830   4.148   3.627  1.6529 -1.8388 -1.9395
   15SAPS  C210 1917   2.706   3.961   3.599  0.0602 -0.1377  0.5001
   15SAPS  H10R 1918   2.770   3.907   3.526  0.8318 -0.9249  1.7325
   15SAPS  H10S 1919   2.602   3.937   3.568  0.4089 -0.4222 -0.4725
   15SAPS  C211 1920   2.742   3.923   3.746  0.0322 -0.6382 -0.1278
   15SAPS  H11R 1921   2.672   3.960   3.823 -0.8168 -0.4731 -0.9643
   15SAPS  C212 1922   2.853   3.873   3.788 -0.4573 -0.5668 -0.2562
   15SAPS  H12R 1923   2.860   3.865   3.898 -1.1444 -0.1702 -0.1816
   15SAPS  C213 1924   2.972   3.813   3.717  0.3098 -0.8587 -0.0210
   15SAPS  H13R 1925   2.934   3.755   3.630  0.0641  1.4962 -1.5977
   15SAPS  H13S 1926   3.022   3.739   3.782 -1.3718 -1.2052  0.9250
   15SAPS  C214 1927   3.066   3.915   3.650 -0.0674 -0.4703 -0.1096
   15SAPS  H14R 1928   3.029   4.014   3.620  0.6542 -0.2511 -0.3039
   15SAPS  C215 1929   3.193   3.888   3.620  0.3243 -0.1977  0.2918
   15SAPS  H15R 1930   3.251   3.974   3.583 -1.1919  0.6200 -0.2697
   15SAPS  C216 1931   3.263   3.755   3.634 -0.2199 -0.1232  0.1529
   15SAPS  H16R 1932   3.326   3.734   3.545  0.2099  2.9187 -0.3891
   15SAPS  H16S 1933   3.189   3.673   3.637 -2.3912  1.4347 -3.9379
   15SAPS  C217 1934   3.341   3.756   3.774  0.1850  0.6700  0.1906
   15SAPS  H17R 1935   3.268   3.803   3.843 -1.4669  3.2051 -3.0483
   15SAPS  H17S 1936   3.435   3.815   3.768 -0.0772  1.0275 -0.4769
   15SAPS  C218 1937   3.372   3.609   3.825  0.1677 -0.0328 -0.3890
   15SAPS  H18R 1938   3.471   3.582   3.781  0.1061  1.9276 -1.9149
   15SAPS  H18S 1939   3.292   3.541   3.790  1.1640 -1.8667  0.7713
   15SAPS  C219 1940   3.406   3.587   3.979  0.8250 -0.2125  0.4195
   15SAPS  H19R 1941   3.384   3.481   4.004  1.3703 -0.1551  1.1882
   15SAPS  H19S 1942   3.334   3.638   4.046  0.4869 -0.2217  0.0656
   15SAPS  C220 1943   3.553   3.618   4.017 -0.1151 -0.3947  0.7217
   15SAPS  H20R 1944   3.583   3.725   4.004  0.6766 -0.4739  1.8080
   15SAPS  H20S 1945   3.620   3.558   3.953 -0.1184  1.3236 -0.9846
   15SAPS  H20T 1946   3.565   3.589   4.124 -1.7176  0.8350  1.2833
   15SAPS   C33 1947   2.606   4.705   3.321  0.1019  0.2868 -0.0743
   15SAPS   H3X 1948   2.634   4.813   3.324  1.0881  0.1037  4.5142
   15SAPS   H3Y 1949   2.690   4.647   3.279  1.5723  2.2952 -0.0810
   15SAPS   C34 1950   2.563   4.660   3.462 -0.8209  0.1837  0.2176
   15SAPS   H4X 1951   2.532   4.554   3.454 -1.3053  0.4336 -1.5949
   15SAPS   H4Y 1952   2.468   4.716   3.474 -1.3797 -0.4734 -1.0033
   15SAPS   C35 1953   2.681   4.699   3.552 -0.4248 -0.4803  1.1239
   15SAPS   H5X 1954   2.707   4.807   3.549 -0.5146 -0.4826 -0.1593
   15SAPS   H5Y 1955   2.769   4.636   3.525 -0.8274 -0.7838  0.5085
   15SAPS   C36 1956   2.656   4.674   3.697 -0.1632  0.0311 -1.4211
   15SAPS   H6X 1957   2.628   4.568   3.716 -2.2295  0.3361 -2.4367
   15SAPS   H6Y 1958   2.559   4.712   3.735 -0.4560 -1.2423 -0.8480
   15SAPS   C37 1959   2.778   4.715   3.786  0.0605 -0.6770  0.0786
   15SAPS   H7X 1960   2.781   4.826   3.785 -2.2609 -0.5485  0.5315
   15SAPS   H7Y 1961   2.870   4.668   3.746 -0.3459 -0.0628 -1.6573
   15SAPS   C38 1962   2.751   4.666   3.925  0.7218 -0.2095  0.2910
   15SAPS   H8X 1963   2.758   4.557   3.940 -0.4201 -0.8287 -2.8603
   15SAPS   H8Y 1964   2.644   4.690   3.943  0.3652 -0.6285 -1.1310
   15SAPS   C39 1965   2.836   4.743   4.027 -0.1342 -0.2674  0.4522
   15SAPS   H9X 1966   2.790   4.843   4.044 -3.0365 -0.8480 -2.7488
   15SAPS   H9Y 1967   2.938   4.757   3.985  0.3470 -0.5361  1.5004
   15SAPS  C310 1968   2.842   4.670   4.158  0.7554 -0.8981 -0.1928
   15SAPS  H10X 1969   2.874   4.565   4.139  4.5849 -0.8112  3.9937
   15SAPS  H10Y 1970   2.745   4.656   4.211 -0.1583 -0.1332 -1.5896
   15SAPS  C311 1971   2.943   4.727   4.255 -0.0746  1.1524  0.3829
   15SAPS  H11X 1972   2.945   4.837   4.272  0.5697  1.3653 -0.9957
   15SAPS  H11Y 1973   3.047   4.714   4.220 -0.5846 -0.0826 -0.7571
   15SAPS  C312 1974   2.916   4.664   4.396 -0.5901 -0.3641 -0.2150
   15SAPS  H12X 1975   2.814   4.703   4.415 -0.2439  0.1281  0.6624
   15SAPS  H12Y 1976   2.983   4.708   4.472 -1.7981  1.5202 -0.1821
   15SAPS  C313 1977   2.921   4.505   4.401 -0.0062  0.3513 -0.2039
   15SAPS  H13X 1978   3.016   4.463   4.362  1.0718  1.7682  0.7722
   15SAPS  H13Y 1979   2.846   4.461   4.332  0.2358 -1.6753  0.7509
   15SAPS  C314 1980   2.874   4.461   4.542 -0.0548 -0.0377  0.4257
   15SAPS  H14X 1981   2.801   4.537   4.576 -1.2999 -1.2645  0.5532
   15SAPS  H14Y 1982   2.960   4.460   4.613 -0.6724  1.0817  1.2195
   15SAPS  C315 1983   2.802   4.323   4.559 -0.0094 -0.1719  0.1513
   15SAPS  H15X 1984   2.884   4.250   4.543  0.6692  0.6759 -0.3443
   15SAPS  H15Y 1985   2.733   4.310   4.473  1.0325  0.5569 -0.8319
   15SAPS  C316 1986   2.731   4.296   4.696 -0.0523 -0.6371  0.2209
   15SAPS  H16X 1987   2.663   4.208   4.685 -1.5557  0.6137 -0.9132
   15SAPS  H16Y 1988   2.664   4.378   4.731 -2.9381 -2.8660  0.3301
   15SAPS  C317 1989   2.825   4.275   4.816  0.0972  0.2514 -0.7781
   15SAPS  H17X 1990   2.837   4.368   4.875  0.3989  1.1968 -2.2923
   15SAPS  H17Y 1991   2.930   4.246   4.795  0.7118  0.2781  1.9116
   15SAPS  C318 1992   2.763   4.159   4.895  0.2760 -0.0215 -0.2093
   15SAPS  H18X 1993   2.758   4.065   4.837 -0.8961  0.7366 -1.3877
   15SAPS  H18Y 1994   2.658   4.185   4.920  0.4916 -0.9666  1.8834
   15SAPS  H18Z 1995   2.807   4.137   4.994  0.7987 -1.7103 -0.7835
   16SAPS     N 1996   3.651   4.559   2.594 -0.0231 -0.0559 -0.1902
   16SAPS   HN1 1997   3.711   4.641   2.575  0.3265 -0.0565  0.8321
   16SAPS   HN2 1998   3.576   4.602   2.652 -0.6636 -0.2550 -0.8603
   16SAPS   HN3 1999   3.704   4.494   2.656 -2.2354 -1.8966 -0.0737
   16SAPS   C12 2000   3.598   4.506   2.468  0.7331  0.1524  0.0309
   16SAPS  H12A 2001   3.535   4.584   2.430 -2.0733 -1.0332  1.9016
   16SAPS   C13 2002   3.704   4.466   2.361 -0.2780 -0.6563  0.1988
   16SAPS  O13A 2003   3.828   4.482   2.386  0.2855 -0.2135 -0.1469
   16SAPS  O13B 2004   3.665   4.441   2.246 -0.2870  0.1969 -0.1714
   16SAPS   C11 2005   3.509   4.386   2.501  0.9820  0.1489  0.1174
   16SAPS  H11A 2006   3.579   4.307   2.535 -0.9061 -2.1496 -1.0151
   16SAPS  H11B 2007   3.452   4.338   2.418  0.0262 -2.8867  2.3566
   16SAPS     P 2008   3.289   4.350   2.642 -0.3211  0.3850 -0.1059
   16SAPS   O13 2009   3.175   4.424   2.583  0.2575 -0.1941 -0.1115
   16SAPS   O14 2010   3.311   4.209   2.603 -0.0464  0.1462  0.4395
   16SAPS   O12 2011   3.426   4.432   2.615 -0.0207 -0.2599  0.1774
   16SAPS   O11 2012   3.265   4.349   2.808  0.1681  0.1011  0.3425
   16SAPS    C1 2013   3.351   4.263   2.881  0.5756  1.1426  0.1864
   16SAPS    HA 2014   3.314   4.158   2.881  0.1371  1.2908  1.0947
   16SAPS    HB 2015   3.459   4.253   2.854  0.7161  0.9047  0.8100
   16SAPS    C2 2016   3.339   4.309   3.030  0.7692 -0.3052 -0.7259
   16SAPS    HS 2017   3.411   4.251   3.092  1.5570  1.6354  0.2691
   16SAPS   O21 2018   3.199   4.303   3.072 -0.0282 -0.1030 -0.0103
   16SAPS   C21 2019   3.162   4.176   3.095  0.6583 -0.0831  0.3738
   16SAPS   O22 2020   3.231   4.076   3.097  0.1658 -0.1874 -0.1284
   16SAPS   C22 2021   3.009   4.170   3.085 -0.4841  0.0972 -0.6042
   16SAPS   H2R 2022   2.963   4.271   3.092 -1.7171 -0.5521  1.6065
   16SAPS   H2S 2023   2.984   4.117   2.990 -2.5594 -0.8549  0.4160
   16SAPS    C3 2024   3.388   4.463   3.042 -0.0484  0.2183  0.1403
   16SAPS    HX 2025   3.300   4.529   3.026 -0.7648 -0.4131  1.3058
   16SAPS    HY 2026   3.461   4.487   2.962  2.6611  3.4002  3.1976
   16SAPS   O31 2027   3.446   4.485   3.167 -0.6391  0.0717  0.3048
   16SAPS   C31 2028   3.557   4.427   3.205 -0.4081  0.3615  0.0802
   16SAPS   O32 2029   3.629   4.357   3.135  0.4982 -0.1834  0.1073
   16SAPS   C32 2030   3.568   4.447   3.358  0.3893  0.2997 -0.1538
   16SAPS   H2X 2031   3.481   4.399   3.408  0.4277  2.2452  1.9175
   16SAPS   H2Y 2032   3.586   4.554   3.381 -0.3072  0.3320  0.2750
   16SAPS   C23 2033   2.949   4.091   3.209 -0.1282 -0.0910 -0.1711
   16SAPS   H3R 2034   3.014   4.002   3.225  1.1845  1.0089  0.9273
   16SAPS   H3S 2035   2.848   4.057   3.180 -1.5355  1.3754  2.6353
   16SAPS   C24 2036   2.948   4.170   3.336 -0.4091 -0.2505  0.5764
   16SAPS   H4R 2037   3.057   4.181   3.355  0.0214 -1.7531 -0.8576
   16SAPS   H4S 2038   2.913   4.110   3.422 -0.3476  0.4632  1.1149
   16SAPS   C25 2039   2.867   4.298   3.324  0.6665  0.5153  0.1603
   16SAPS   H5R 2040   2.766   4.283   3.284  0.9279  2.2440 -1.2907
   16SAPS   C26 2041   2.915   4.415   3.355  0.4636 -0.3801  0.8430
   16SAPS   H6R 2042   2.844   4.492   3.322 -1.1807 -3.2517 -3.1416
   16SAPS   C27 2043   3.047   4.458   3.413 -0.0644 -0.2509 -0.4705
   16SAPS   H7R 2044   3.090   4.378   3.477 -0.9344  1.7639  2.8798
   16SAPS   H7S 2045   3.031   4.543   3.483 -1.8004 -0.1148 -1.0059
   16SAPS   C28 2046   3.149   4.517   3.323 -1.2775 -0.9701  0.5648
   16SAPS   H8R 2047   3.162   4.462   3.229  6.1098  0.4960  0.1370
   16SAPS   C29 2048   3.224   4.635   3.331  0.6602  0.7742  0.0874
   16SAPS   H9R 2049   3.303   4.665   3.260  0.4060  1.2023 -0.0193
   16SAPS  C210 2050   3.230   4.711   3.456 -0.0194 -1.1343  0.0865
   16SAPS  H10R 2051   3.132   4.725   3.505 -0.5855  2.6583 -1.7185
   16SAPS  H10S 2052   3.248   4.818   3.428 -3.4864 -0.7611 -1.2709
   16SAPS  C211 2053   3.333   4.657   3.550 -0.0168  0.2463  0.6269
   16SAPS  H11R 2054   3.422   4.614   3.502  0.8132  1.1282  1.3452
   16SAPS  C212 2055   3.312   4.638   3.679 -0.1764  0.0726  0.1175
   16SAPS  H12R 2056   3.400   4.613   3.740 -1.9378 -3.7721  1.4579
   16SAPS  C213 2057   3.188   4.687   3.757 -0.2448  0.4091 -0.1957
   16SAPS  H13R 2058   3.091   4.652   3.716 -0.1342  1.1124 -1.0943
   16SAPS  H13S 2059   3.186   4.798   3.757  0.3529  0.4537  1.5008
   16SAPS  C214 2060   3.195   4.655   3.902 -0.1037 -0.2814 -0.2620
   16SAPS  H14R 2061   3.250   4.728   3.963 -1.2574  1.8046 -1.5921
   16SAPS  C215 2062   3.151   4.549   3.968  0.1359  0.0121 -0.2514
   16SAPS  H15R 2063   3.145   4.543   4.078 -2.7887  0.3052 -0.3150
   16SAPS  C216 2064   3.072   4.439   3.890  0.4066  0.0790  0.1382
   16SAPS  H16R 2065   3.118   4.413   3.792 -0.1392 -3.0495  0.6061
   16SAPS  H16S 2066   2.969   4.476   3.876  0.9248  1.1787 -0.9240
   16SAPS  C217 2067   3.071   4.316   3.973 -0.1228  0.1152 -0.6087
   16SAPS  H17R 2068   3.012   4.237   3.921  1.7309 -0.1724 -2.3697
   16SAPS  H17S 2069   3.015   4.325   4.069  1.6490  0.3919  0.4450
   16SAPS  C218 2070   3.203   4.244   4.009 -0.0142  0.0217  0.0898
   16SAPS  H18R 2071   3.256   4.304   4.086 -1.3274  1.0293  0.2575
   16SAPS  H18S 2072   3.273   4.223   3.926 -1.0345  1.7692 -1.2752
   16SAPS  C219 2073   3.174   4.116   4.081 -0.5060  0.1307  0.4868
   16SAPS  H19R 2074   3.136   4.044   4.006 -0.5179 -0.7367  1.3056
   16SAPS  H19S 2075   3.104   4.134   4.165  0.8376 -1.5476  2.0810
   16SAPS  C220 2076   3.300   4.053   4.138 -0.9628  0.1883 -0.8402
   16SAPS  H20R 2077   3.367   4.026   4.054 -0.1616 -0.9306  0.1222
   16SAPS  H20S 2078   3.279   3.954   4.186  2.4263 -0.2593 -0.0025
   16SAPS  H20T 2079   3.359   4.121   4.203  3.0067 -2.8361 -0.8859
   16SAPS   C33 2080   3.695   4.376   3.413 -0.4032 -0.4289 -0.6241
   16SAPS   H3X 2081   3.783   4.404   3.352 -1.3267  3.5283 -0.4241
   16SAPS   H3Y 2082   3.687   4.265   3.409 -1.0603 -0.4245  0.3829
   16SAPS   C34 2083   3.719   4.405   3.560 -0.0280  0.1621  0.5199
   16SAPS   H4X 2084   3.753   4.510   3.572  1.4930 -0.1610 -0.6234
   16SAPS   H4Y 2085   3.803   4.339   3.589 -0.6269 -0.5449  0.6823
   16SAPS   C35 2086   3.601   4.374   3.660 -0.0876 -0.1686  0.5814
   16SAPS   H5X 2087   3.572   4.267   3.647 -2.3597  0.6110 -1.6027
   16SAPS   H5Y 2088   3.506   4.424   3.631 -0.2241 -1.9881 -2.6179
   16SAPS   C36 2089   3.625   4.404   3.801 -0.8168 -0.4198 -0.1037
   16SAPS   H6X 2090   3.648   4.511   3.817 -0.7475 -0.5771  0.8723
   16SAPS   H6Y 2091   3.710   4.344   3.842 -1.4574 -1.4022 -0.1823
   16SAPS   C37 2092   3.508   4.366   3.893  0.1041 -0.2227  0.5640
   16SAPS   H7X 2093   3.507   4.267   3.944  1.3565  0.8918  2.8870
   16SAPS   H7Y 2094   3.415   4.362   3.832  0.3360  0.7412  0.1362
   16SAPS   C38 2095   3.490   4.473   4.004 -0.5164  0.3089  0.1105
   16SAPS   H8X 2096   3.401   4.447   4.064 -1.8826  3.6348 -0.2546
   16SAPS   H8Y 2097   3.466   4.575   3.967  0.7739 -0.0529 -1.9076
   16SAPS   C39 2098   3.610   4.469   4.091 -0.1004 -0.2233  0.1561
   16SAPS   H9X 2099   3.700   4.487   4.028 -1.9441  0.9116 -2.3181
   16SAPS   H9Y 2100   3.605   4.361   4.118 -2.6605 -0.0545  0.6142
   16SAPS  C310 2101   3.628   4.563   4.206  0.1116  0.2638 -0.1713
   16SAPS  H10X 2102   3.534   4.546   4.263  1.3802 -1.8602  1.4425
   16SAPS  H10Y 2103   3.638   4.667   4.169  0.5554 -0.1288 -1.1901
   16SAPS  C311 2104   3.740   4.511   4.297  0.5358  0.1765  0.5271
   16SAPS  H11X 2105   3.828   4.511   4.230  0.2084 -2.4611  0.0014
   16SAPS  H11Y 2106   3.734   4.402   4.318  2.2565 -0.2103 -0.7323
   16SAPS  C312 2107   3.773   4.596   4.416 -0.0309 -0.2221 -0.1339
   16SAPS  H12X 2108   3.707   4.565   4.500 -1.0715  1.5729 -0.2296
   16SAPS  H12Y 2109   3.740   4.691   4.369  0.4031 -1.2329 -2.6217
   16SAPS  C313 2110   3.921   4.603   4.451 -0.0212 -0.1232 -0.7146
   16SAPS  H13X 2111   3.962   4.651   4.360 -0.0571 -1.0535 -1.2365
   16SAPS  H13Y 2112   3.962   4.501   4.472  1.7589  0.8215  0.7231
   16SAPS  C314 2113   3.945   4.678   4.586 -0.0156  0.5598 -0.1297
   16SAPS  H14X 2114   3.932   4.607   4.671  0.7915  1.2587  0.5982
   16SAPS  H14Y 2115   3.869   4.759   4.588 -0.7151  0.0868 -3.3047
   16SAPS  C315 2116   4.094   4.737   4.589  0.0273  0.8345  0.2362
   16SAPS  H15X 2117   4.106   4.791   4.685  0.2710  1.5228 -0.1759
   16SAPS  H15Y 2118   4.115   4.818   4.516 -0.7886  1.4041  0.6132
   16SAPS  C316 2119   4.203   4.631   4.585 -0.1036 -0.5102  0.3875
   16SAPS  H16X 2120   4.300   4.680   4.564 -1.6717  2.0731 -1.4170
   16SAPS  H16Y 2121   4.191   4.559   4.501 -2.1665  1.1815 -0.8867
   16SAPS  C317 2122   4.223   4.547   4.709 -0.1981  0.2253 -0.7273
   16SAPS  H17X 2123   4.140   4.475   4.729  0.0546 -0.0964 -0.8282
   16SAPS  H17Y 2124   4.229   4.606   4.803  0.2129 -1.0701  0.1010
   16SAPS  C318 2125   4.354   4.463   4.693 -0.2573 -0.2550  0.1485
   16SAPS  H18X 2126   4.439   4.527   4.729 -0.3343 -0.2664  0.3529
   16SAPS  H18Y 2127   4.376   4.445   4.586  2.3302 -0.8582  0.7079
   16SAPS  H18Z 2128   4.353   4.370   4.753  0.3050 -0.9646 -0.9117
   17SAPS     N 2129   6.120   5.108   2.120 -0.2839 -0.2739  0.3327
   17SAPS   HN1 2130   6.115   5.202   2.164  1.1208  1.3485 -2.6345
   17SAPS   HN2 2131   6.207   5.107   2.063 -0.6448  0.7173 -0.2576
   17SAPS   HN3 2132   6.047   5.085   2.049  0.3369 -3.0046  0.4746
   17SAPS   C12 2133   6.097   4.994   2.206  0.1906  0.0175  0.0887
   17SAPS  H12A 2134   6.011   5.019   2.267 -0.1504  0.7211 -0.6611
   17SAPS   C13 2135   6.082   4.864   2.128 -0.6297  0.0122  0.1653
   17SAPS  O13A 2136   6.045   4.868   2.008  0.2208 -0.1946  0.0987
   17SAPS  O13B 2137   6.062   4.760   2.199 -0.2592 -0.1097 -0.0823
   17SAPS   C11 2138   6.218   4.981   2.295 -0.8451 -0.1610 -0.5950
   17SAPS  H11A 2139   6.308   4.960   2.233 -0.8742  0.2244 -0.7688
   17SAPS  H11B 2140   6.201   4.885   2.348  1.6771 -2.3041 -3.2919
   17SAPS     P 2141   6.365   5.154   2.437 -0.1949  0.3962 -0.2419
   17SAPS   O13 2142   6.449   5.047   2.491 -0.2262 -0.8741 -0.2174
   17SAPS   O14 2143   6.437   5.251   2.344  0.5400 -0.3086 -0.3466
   17SAPS   O12 2144   6.235   5.099   2.381 -0.2000  0.3297 -0.0432
   17SAPS   O11 2145   6.302   5.228   2.560  0.2315 -0.0675 -0.5748
   17SAPS    C1 2146   6.233   5.348   2.529 -0.4515 -0.9786 -0.5067
   17SAPS    HA 2147   6.234   5.375   2.421  0.1303  1.3454  0.0302
   17SAPS    HB 2148   6.126   5.342   2.560 -0.6420  1.0338 -0.6597
   17SAPS    C2 2149   6.300   5.465   2.603  0.5648 -0.0012 -0.3925
   17SAPS    HS 2150   6.409   5.443   2.609  0.8731  1.7071  0.8979
   17SAPS   O21 2151   6.247   5.476   2.737 -0.3099 -0.4737  0.2116
   17SAPS   C21 2152   6.324   5.538   2.830  0.1680  0.3215 -1.1146
   17SAPS   O22 2153   6.434   5.574   2.812 -0.1089 -1.1699 -0.0077
   17SAPS   C22 2154   6.248   5.546   2.967  0.0372 -0.0448 -0.0853
   17SAPS   H2R 2155   6.189   5.640   2.968  1.6030  0.9876  1.6764
   17SAPS   H2S 2156   6.180   5.458   2.974 -0.4823  0.3876  0.4713
   17SAPS    C3 2157   6.276   5.595   2.517 -0.9530 -0.3408  1.0698
   17SAPS    HX 2158   6.168   5.618   2.509 -0.2626  2.4663 -2.9285
   17SAPS    HY 2159   6.303   5.581   2.411 -0.9397 -0.4011  1.0808
   17SAPS   O31 2160   6.345   5.718   2.559  0.8656 -0.3266  0.1275
   17SAPS   C31 2161   6.470   5.732   2.528 -0.2748  0.1743 -0.2245
   17SAPS   O32 2162   6.535   5.645   2.480 -0.0092  0.3209 -0.1349
   17SAPS   C32 2163   6.511   5.877   2.552 -0.4984 -0.7723  0.2800
   17SAPS   H2X 2164   6.428   5.945   2.525 -0.3027  0.5734  2.7901
   17SAPS   H2Y 2165   6.601   5.884   2.487 -0.5459  0.3991  0.3302
   17SAPS   C23 2166   6.331   5.546   3.093 -0.1624  0.3892 -0.0842
   17SAPS   H3R 2167   6.377   5.644   3.115  0.8239  1.1452 -4.5016
   17SAPS   H3S 2168   6.420   5.482   3.078  1.3411  1.5716  2.9732
   17SAPS   C24 2169   6.258   5.489   3.220 -0.5640 -0.5424 -0.2094
   17SAPS   H4R 2170   6.346   5.461   3.282  1.7790  1.2420 -2.5320
   17SAPS   H4S 2171   6.209   5.391   3.200  0.4144 -1.0339 -0.2251
   17SAPS   C25 2172   6.161   5.582   3.282 -0.0580 -1.0322  0.1203
   17SAPS   H5R 2173   6.059   5.595   3.244 -1.0942 -1.2807  2.6185
   17SAPS   C26 2174   6.192   5.663   3.391  0.0343  0.3342 -0.1482
   17SAPS   H6R 2175   6.114   5.730   3.430  0.6477  2.0287 -1.7339
   17SAPS   C27 2176   6.324   5.654   3.474  0.0562 -0.2834  0.3413
   17SAPS   H7R 2177   6.357   5.748   3.523  1.4028  0.0693 -1.1626
   17SAPS   H7S 2178   6.408   5.625   3.407 -1.1313  0.4053 -1.5169
   17SAPS   C28 2179   6.318   5.545   3.579  0.8992  0.6176  0.5843
   17SAPS   H8R 2180   6.342   5.446   3.537  0.8800  1.0267 -0.4161
   17SAPS   C29 2181   6.274   5.544   3.704  0.7771 -0.0415 -0.6565
   17SAPS   H9R 2182   6.284   5.451   3.761  0.1783 -0.7657 -1.6853
   17SAPS  C210 2183   6.213   5.661   3.783 -0.1673  0.4081  0.2279
   17SAPS  H10R 2184   6.168   5.741   3.720 -2.8370 -2.0783 -1.2158
   17SAPS  H10S 2185   6.297   5.713   3.834  0.3659  0.3284 -0.5444
   17SAPS  C211 2186   6.101   5.621   3.872  0.3947 -0.0469  0.5251
   17SAPS  H11R 2187   6.002   5.602   3.829 -0.2879  1.3433  1.4004
   17SAPS  C212 2188   6.121   5.599   4.003  0.6797  0.1390 -0.4711
   17SAPS  H12R 2189   6.043   5.552   4.064  1.3181 -0.0650  0.2029
   17SAPS  C213 2190   6.254   5.610   4.073  0.4907  0.0320  0.4336
   17SAPS  H13R 2191   6.286   5.716   4.088  0.5834  0.2323 -1.0290
   17SAPS  H13S 2192   6.339   5.583   4.006  2.8905  1.0873  2.8684
   17SAPS  C214 2193   6.267   5.536   4.204 -0.3933 -0.1672  0.0899
   17SAPS  H14R 2194   6.348   5.462   4.200 -0.3817 -0.1535  0.0703
   17SAPS  C215 2195   6.202   5.565   4.320 -0.2433  0.2896  0.5442
   17SAPS  H15R 2196   6.230   5.515   4.413  4.2527 -0.4993 -0.9643
   17SAPS  C216 2197   6.091   5.669   4.336 -0.0376 -0.9130  0.0422
   17SAPS  H16R 2198   5.998   5.628   4.382 -0.0761  0.1936  0.9918
   17SAPS  H16S 2199   6.065   5.714   4.238  2.5944 -0.8069 -0.6790
   17SAPS  C217 2200   6.134   5.769   4.446 -0.3032 -0.3460 -0.1923
   17SAPS  H17R 2201   6.194   5.854   4.404 -2.3434  1.5599  0.5584
   17SAPS  H17S 2202   6.185   5.724   4.534 -2.1957 -2.6039 -0.1630
   17SAPS  C218 2203   6.008   5.839   4.502  0.4684 -0.1691 -0.3306
   17SAPS  H18R 2204   5.926   5.776   4.544 -0.4709  0.4918 -1.1152
   17SAPS  H18S 2205   5.955   5.884   4.415 -1.5552  1.3262  1.5518
   17SAPS  C219 2206   6.025   5.961   4.592 -0.2637  0.4243 -0.1890
   17SAPS  H19R 2207   5.932   6.020   4.590  0.1501  1.1347  0.6559
   17SAPS  H19S 2208   6.105   6.027   4.552 -0.9906  2.3146  1.3018
   17SAPS  C220 2209   6.056   5.946   4.743  0.7151 -0.4591 -0.0821
   17SAPS  H20R 2210   5.967   5.907   4.797  0.8127  0.5220  0.8171
   17SAPS  H20S 2211   6.070   6.049   4.782 -0.9495 -0.3688  0.3489
   17SAPS  H20T 2212   6.152   5.891   4.747  1.4582  0.5173 -2.5658
   17SAPS   C33 2213   6.551   5.903   2.697 -0.1374 -0.3470 -0.4311
   17SAPS   H3X 2214   6.487   5.854   2.772  0.5844 -0.3453  0.1971
   17SAPS   H3Y 2215   6.554   6.011   2.724  0.2221 -1.1448  3.1669
   17SAPS   C34 2216   6.697   5.868   2.728  0.3069  0.7148  0.1197
   17SAPS   H4X 2217   6.765   5.895   2.645 -0.7141 -0.7917 -1.2535
   17SAPS   H4Y 2218   6.704   5.757   2.727  1.2640  0.7289  1.4253
   17SAPS   C35 2219   6.759   5.924   2.859  0.0955  0.2092  0.9256
   17SAPS   H5X 2220   6.754   6.035   2.858  1.4437  0.2792  0.4434
   17SAPS   H5Y 2221   6.864   5.887   2.865  0.4389  1.0463  0.3111
   17SAPS   C36 2222   6.686   5.859   2.975  0.0287  0.4270  0.4186
   17SAPS   H6X 2223   6.663   5.752   2.955 -0.7641  0.4924  0.9410
   17SAPS   H6Y 2224   6.590   5.915   2.982  1.9599  3.8058  2.1868
   17SAPS   C37 2225   6.758   5.882   3.104 -0.8224 -0.2175  0.6381
   17SAPS   H7X 2226   6.756   5.988   3.139  0.3829  0.0525 -0.0777
   17SAPS   H7Y 2227   6.864   5.850   3.107 -0.9118 -0.4688  1.5773
   17SAPS   C38 2228   6.685   5.809   3.215 -0.1671  0.6266  0.0735
   17SAPS   H8X 2229   6.694   5.700   3.197  0.7699  0.5746  0.7467
   17SAPS   H8Y 2230   6.578   5.838   3.204 -0.3907 -0.1618  0.1341
   17SAPS   C39 2231   6.743   5.833   3.357  0.0022  0.0727  0.1507
   17SAPS   H9X 2232   6.776   5.939   3.367  1.8273 -0.3869 -0.6501
   17SAPS   H9Y 2233   6.839   5.776   3.355 -0.3315 -0.4753 -0.5956
   17SAPS  C310 2234   6.649   5.791   3.469 -0.1676 -0.3563 -0.8076
   17SAPS  H10X 2235   6.609   5.688   3.475 -1.5618  0.2340  1.8933
   17SAPS  H10Y 2236   6.558   5.855   3.464  0.7207  0.9113 -1.2299
   17SAPS  C311 2237   6.712   5.832   3.601  0.0397 -0.4706 -0.0579
   17SAPS  H11X 2238   6.719   5.942   3.613  0.7441 -0.3623 -1.2957
   17SAPS  H11Y 2239   6.818   5.800   3.612 -0.1206 -1.8545 -2.0563
   17SAPS  C312 2240   6.633   5.784   3.728 -0.6021  0.0696  0.0114
   17SAPS  H12X 2241   6.624   5.674   3.716  1.6761 -0.1688  0.1043
   17SAPS  H12Y 2242   6.531   5.827   3.724 -0.4820  0.3094 -0.5774
   17SAPS  C313 2243   6.700   5.834   3.853  0.7044 -0.4503 -0.1961
   17SAPS  H13X 2244   6.708   5.944   3.836  0.8526 -0.5154 -0.5812
   17SAPS  H13Y 2245   6.802   5.790   3.857 -0.0912 -2.2971  0.4869
   17SAPS  C314 2246   6.616   5.797   3.973 -0.4061  0.4480 -0.0252
   17SAPS  H14X 2247   6.576   5.694   3.974 -0.7418  0.5481  2.4882
   17SAPS  H14Y 2248   6.529   5.866   3.981 -0.2716  0.7557 -0.9676
   17SAPS  C315 2249   6.692   5.806   4.098 -0.1708  0.1026  0.4743
   17SAPS  H15X 2250   6.739   5.906   4.109  1.3173 -0.7806  3.0102
   17SAPS  H15Y 2251   6.771   5.728   4.094  0.1215  0.4163 -0.0161
   17SAPS  C316 2252   6.606   5.792   4.224 -0.1128  0.2102 -0.2119
   17SAPS  H16X 2253   6.549   5.699   4.205  3.1005 -1.6662 -1.4131
   17SAPS  H16Y 2254   6.530   5.872   4.237  0.1312  0.2565  1.1453
   17SAPS  C317 2255   6.672   5.773   4.361  0.3850 -0.0446 -0.2874
   17SAPS  H17X 2256   6.688   5.876   4.400 -1.0419  0.5827 -1.3047
   17SAPS  H17Y 2257   6.766   5.713   4.352  0.1925 -0.5889  1.0459
   17SAPS  C318 2258   6.588   5.699   4.472  0.1597  0.0127  1.0418
   17SAPS  H18X 2259   6.484   5.734   4.489 -0.3224 -0.8424 -0.0458
   17SAPS  H18Y 2260   6.644   5.711   4.568  3.0619  0.3396 -0.5858
   17SAPS  H18Z 2261   6.584   5.590   4.453 -0.9957  0.1310  0.5658
   18SAPS     N 2262   3.410   2.062   1.998  0.0411  0.6233 -0.9181
   18SAPS   HN1 2263   3.398   2.132   1.922 -1.3690  0.3466 -0.9811
   18SAPS   HN2 2264   3.316   2.027   2.026  0.3749  0.9713  0.6946
   18SAPS   HN3 2265   3.432   2.110   2.087 -2.4796 -1.2347  0.8795
   18SAPS   C12 2266   3.503   1.955   1.963 -0.3365  0.7781 -0.2242
   18SAPS  H12A 2267   3.458   1.892   1.887 -1.5099 -1.0149  1.8553
   18SAPS   C13 2268   3.641   2.005   1.913 -0.0396 -0.0938 -0.1932
   18SAPS  O13A 2269   3.674   2.127   1.891 -0.2441  0.2948 -0.2979
   18SAPS  O13B 2270   3.716   1.912   1.880  0.0996 -0.5297  0.3161
   18SAPS   C11 2271   3.523   1.882   2.100 -1.2579 -0.5115  1.0102
   18SAPS  H11A 2272   3.586   1.943   2.167  0.2580  0.3665 -1.0920
   18SAPS  H11B 2273   3.582   1.791   2.073 -0.7380  0.0806  0.1217
   18SAPS     P 2274   3.379   1.710   2.238 -0.1710  0.0937  0.2882
   18SAPS   O13 2275   3.242   1.714   2.299 -0.1196  0.0923 -0.1225
   18SAPS   O14 2276   3.406   1.597   2.148 -0.1583 -0.1414  0.3083
   18SAPS   O12 2277   3.400   1.846   2.161 -0.0311  0.2336 -0.1927
   18SAPS   O11 2278   3.487   1.713   2.352 -0.3408 -0.2690  0.1038
   18SAPS    C1 2279   3.520   1.830   2.429 -0.8544  0.2312  0.0638
   18SAPS    HA 2280   3.540   1.925   2.374  0.5111 -1.2291 -2.1678
   18SAPS    HB 2281   3.444   1.844   2.508  0.1845 -1.9782  1.5395
   18SAPS    C2 2282   3.648   1.813   2.508 -0.8787 -0.1568 -0.5481
   18SAPS    HS 2283   3.737   1.823   2.441  1.4986 -1.7161  2.1488
   18SAPS   O21 2284   3.643   1.677   2.571 -0.0043 -0.0163 -0.3733
   18SAPS   C21 2285   3.767   1.644   2.622  0.5904 -0.3973  0.1462
   18SAPS   O22 2286   3.861   1.720   2.615  0.0963  0.6326  1.1496
   18SAPS   C22 2287   3.761   1.512   2.693  0.7389  0.3698 -0.2061
   18SAPS   H2R 2288   3.661   1.467   2.679  1.4672 -1.9052  1.4047
   18SAPS   H2S 2289   3.841   1.446   2.654 -0.9334 -0.5407 -2.2992
   18SAPS    C3 2290   3.657   1.930   2.609 -0.0448 -0.0688 -0.4375
   18SAPS    HX 2291   3.682   2.019   2.547 -1.8307  1.8749  1.4520
   18SAPS    HY 2292   3.751   1.928   2.669 -1.5243 -0.5191  1.9980
   18SAPS   O31 2293   3.544   1.960   2.689  0.6887 -0.1645  0.5555
   18SAPS   C31 2294   3.539   1.920   2.811 -0.3146  0.2492 -0.7599
   18SAPS   O32 2295   3.629   1.853   2.865  0.2952  0.5034  0.0569
   18SAPS   C32 2296   3.415   1.972   2.870  0.7271  0.0567 -0.0319
   18SAPS   H2X 2297   3.333   1.938   2.803  1.6547  0.3201 -1.3458
   18SAPS   H2Y 2298   3.428   2.082   2.872  1.5975 -0.0317 -0.3443
   18SAPS   C23 2299   3.782   1.529   2.844  0.1815  0.0671  0.5800
   18SAPS   H3R 2300   3.708   1.592   2.899 -0.4484 -0.8022  0.7552
   18SAPS   H3S 2301   3.883   1.565   2.873 -0.3131 -0.0677  2.5894
   18SAPS   C24 2302   3.773   1.390   2.919  0.3228 -0.3380 -0.1997
   18SAPS   H4R 2303   3.821   1.309   2.861  1.1360  1.0614 -1.5683
   18SAPS   H4S 2304   3.666   1.362   2.924  0.3703 -0.3361  1.6073
   18SAPS   C25 2305   3.839   1.401   3.055  0.2579  0.2902  0.5211
   18SAPS   H5R 2306   3.946   1.378   3.041  0.1221 -0.0673  0.0382
   18SAPS   C26 2307   3.778   1.435   3.166 -0.2141  0.1454 -0.1509
   18SAPS   H6R 2308   3.836   1.436   3.259  1.4322  2.0297 -1.1372
   18SAPS   C27 2309   3.637   1.472   3.179 -0.2408  0.1286 -0.0374
   18SAPS   H7R 2310   3.579   1.386   3.220  0.6509 -1.0056 -1.0876
   18SAPS   H7S 2311   3.595   1.487   3.077  0.9733  0.8363 -0.4542
   18SAPS   C28 2312   3.607   1.592   3.267  0.0146  0.1276  0.4760
   18SAPS   H8R 2313   3.621   1.694   3.227 -2.2959  0.8857  1.4208
   18SAPS   C29 2314   3.583   1.598   3.402 -0.8286  0.1885  0.4099
   18SAPS   H9R 2315   3.568   1.698   3.445  0.5674  0.8582 -0.5675
   18SAPS  C210 2316   3.580   1.480   3.503 -0.2666 -0.1146 -0.1201
   18SAPS  H10R 2317   3.606   1.383   3.455 -0.3033 -0.6313  0.8715
   18SAPS  H10S 2318   3.476   1.468   3.539 -0.9400  2.7298 -0.8861
   18SAPS  C211 2319   3.683   1.489   3.610  0.5707  0.0449  0.2824
   18SAPS  H11R 2320   3.776   1.542   3.586  0.7226 -1.0225 -1.6301
   18SAPS  C212 2321   3.675   1.453   3.742 -0.1063  0.2672  0.6198
   18SAPS  H12R 2322   3.770   1.465   3.797  2.5094  3.7736 -3.9101
   18SAPS  C213 2323   3.563   1.382   3.819  0.3488 -0.6179  0.5783
   18SAPS  H13R 2324   3.489   1.331   3.754  1.4147  0.8548 -1.9872
   18SAPS  H13S 2325   3.500   1.463   3.861  1.0792 -0.3631  1.2025
   18SAPS  C214 2326   3.618   1.301   3.926  0.4726  0.1540 -1.0419
   18SAPS  H14R 2327   3.604   1.192   3.914 -3.1582  0.0884  1.6997
   18SAPS  C215 2328   3.654   1.341   4.056  0.7021  1.2064  0.8991
   18SAPS  H15R 2329   3.682   1.261   4.126  0.9193 -0.1644 -0.6871
   18SAPS  C216 2330   3.659   1.484   4.103 -0.3183 -0.6017 -0.4912
   18SAPS  H16R 2331   3.640   1.562   4.026 -2.8388 -0.4671  0.1925
   18SAPS  H16S 2332   3.769   1.494   4.120 -0.7642  2.3549  1.4439
   18SAPS  C217 2333   3.563   1.503   4.220 -0.0365  0.8051 -0.4014
   18SAPS  H17R 2334   3.600   1.582   4.289 -0.0870  0.8767 -0.4564
   18SAPS  H17S 2335   3.559   1.407   4.276  1.4232  0.8302 -0.2301
   18SAPS  C218 2336   3.416   1.524   4.176  0.3584 -0.8844  0.8499
   18SAPS  H18R 2337   3.389   1.446   4.103  0.5423 -2.5896  2.5324
   18SAPS  H18S 2338   3.402   1.612   4.109  1.2834 -1.8188 -0.6046
   18SAPS  C219 2339   3.321   1.507   4.295 -0.1617 -0.2724 -0.1317
   18SAPS  H19R 2340   3.338   1.589   4.368  0.0157  0.0392 -0.5156
   18SAPS  H19S 2341   3.332   1.412   4.350 -0.1071  1.2794  2.7378
   18SAPS  C220 2342   3.168   1.516   4.251 -0.0609 -0.2584  0.5575
   18SAPS  H20R 2343   3.095   1.494   4.332  1.7962 -2.3084  1.7769
   18SAPS  H20S 2344   3.163   1.443   4.167  1.8791 -0.2934  0.4326
   18SAPS  H20T 2345   3.148   1.621   4.221 -2.6132  0.2375  3.5455
   18SAPS   C33 2346   3.408   1.907   3.003 -0.6510  0.4098  0.0348
   18SAPS   H3X 2347   3.490   1.938   3.072 -1.4077 -0.2304  1.2489
   18SAPS   H3Y 2348   3.403   1.797   2.989  3.0554  0.2602 -1.1043
   18SAPS   C34 2349   3.279   1.949   3.081  0.0813  0.2647  0.4746
   18SAPS   H4X 2350   3.179   1.934   3.034  0.3854  1.8415 -0.7769
   18SAPS   H4Y 2351   3.286   2.060   3.081 -0.5554  0.3352  2.0777
   18SAPS   C35 2352   3.276   1.892   3.229  0.2196  0.5068  0.1157
   18SAPS   H5X 2353   3.380   1.889   3.265  0.8031 -0.0764 -1.5194
   18SAPS   H5Y 2354   3.254   1.784   3.215  0.2996  0.7197 -1.9490
   18SAPS   C36 2355   3.184   1.966   3.327 -0.0389 -0.0247  0.0917
   18SAPS   H6X 2356   3.089   1.960   3.270  0.5278 -0.3602 -0.8234
   18SAPS   H6Y 2357   3.223   2.069   3.329 -0.5590  0.2819 -2.6405
   18SAPS   C37 2358   3.179   1.894   3.458 -0.4316  0.1094  0.1511
   18SAPS   H7X 2359   3.158   1.786   3.445  0.5664 -0.5289  2.9919
   18SAPS   H7Y 2360   3.096   1.935   3.520  1.7187 -0.0516  3.4221
   18SAPS   C38 2361   3.306   1.889   3.551 -0.2212  0.1489  0.4212
   18SAPS   H8X 2362   3.322   1.989   3.596 -1.9127  0.9562 -0.6825
   18SAPS   H8Y 2363   3.400   1.851   3.506 -0.9892 -1.5189  0.1472
   18SAPS   C39 2364   3.273   1.801   3.676 -0.4212 -0.1211  0.1012
   18SAPS   H9X 2365   3.250   1.701   3.635 -0.5320 -0.1610  0.2593
   18SAPS   H9Y 2366   3.177   1.828   3.724  0.5946  0.2585  2.0416
   18SAPS  C310 2367   3.389   1.784   3.778  0.1048 -0.6133  0.7309
   18SAPS  H10X 2368   3.463   1.720   3.725  1.1178  1.4604 -0.4683
   18SAPS  H10Y 2369   3.357   1.721   3.864  0.6773 -4.1487 -1.4366
   18SAPS  C311 2370   3.438   1.913   3.842 -0.0090  0.2261  0.0802
   18SAPS  H11X 2371   3.349   1.963   3.886 -2.7040 -4.4151  0.5288
   18SAPS  H11Y 2372   3.491   1.977   3.768 -0.1998 -1.8048 -1.9223
   18SAPS  C312 2373   3.531   1.887   3.958 -0.1077 -0.0600 -0.1057
   18SAPS  H12X 2374   3.627   1.836   3.933 -0.6964 -0.1925 -2.3154
   18SAPS  H12Y 2375   3.492   1.813   4.032 -0.6160  1.0358  0.7427
   18SAPS  C313 2376   3.563   2.015   4.041  0.7375 -0.5245 -0.4004
   18SAPS  H13X 2377   3.462   2.041   4.079  0.2237  0.2854 -2.1909
   18SAPS  H13Y 2378   3.583   2.095   3.967 -0.9105  1.5274  1.2468
   18SAPS  C314 2379   3.675   1.994   4.147  0.2687  0.1024  0.5302
   18SAPS  H14X 2380   3.761   1.987   4.077 -1.8884  0.8145 -2.4072
   18SAPS  H14Y 2381   3.668   1.896   4.199  1.6985 -0.5990 -0.5350
   18SAPS  C315 2382   3.689   2.118   4.243 -0.2446  0.4036 -0.2605
   18SAPS  H15X 2383   3.721   2.198   4.173  0.6885  0.2182 -0.0666
   18SAPS  H15Y 2384   3.773   2.107   4.315  1.7396  2.4085 -2.0970
   18SAPS  C316 2385   3.558   2.162   4.302  0.4277 -0.1587 -0.1791
   18SAPS  H16X 2386   3.474   2.170   4.228 -0.9058  2.1620  1.4575
   18SAPS  H16Y 2387   3.567   2.256   4.361 -0.4214  0.1456 -0.5102
   18SAPS  C317 2388   3.511   2.053   4.409 -0.3441 -0.7508  0.0881
   18SAPS  H17X 2389   3.515   1.958   4.352  2.1406 -0.0717 -1.0363
   18SAPS  H17Y 2390   3.406   2.081   4.432  0.1932  2.7941 -1.0399
   18SAPS  C318 2391   3.603   2.033   4.527 -0.2793 -0.1312  0.0676
   18SAPS  H18X 2392   3.597   1.932   4.572  1.0445  0.1821  0.9910
   18SAPS  H18Y 2393   3.573   2.104   4.607  0.2793 -0.1244  0.2746
   18SAPS  H18Z 2394   3.709   2.054   4.504  0.2321 -0.5733  1.8542
   19SAPS     N 2395   3.130   6.236   2.212 -0.5137  1.0942  0.1834
   19SAPS   HN1 2396   3.052   6.296   2.177  0.5647  1.6629 -1.3536
   19SAPS   HN2 2397   3.177   6.274   2.296  0.0739 -2.0150  1.3950
   19SAPS   HN3 2398   3.208   6.233   2.143 -1.3102  0.1685 -0.7104
   19SAPS   C12 2399   3.103   6.096   2.249  0.1975  0.6481 -0.4166
   19SAPS  H12A 2400   3.045   6.051   2.169 -0.6596  0.6754  0.1760
   19SAPS   C13 2401   3.243   6.025   2.258 -0.4311 -0.4400  0.2231
   19SAPS  O13A 2402   3.344   6.093   2.228  0.1548 -0.2179 -0.2302
   19SAPS  O13B 2403   3.245   5.909   2.301  0.2760 -0.1321  0.2534
   19SAPS   C11 2404   3.013   6.089   2.374  0.1846  0.2291  0.0570
   19SAPS  H11A 2405   3.088   6.109   2.454  0.3648  0.0940 -0.0773
   19SAPS  H11B 2406   2.972   5.987   2.390 -0.3740  0.5068  0.4130
   19SAPS     P 2407   2.765   6.153   2.326  0.2209  0.1159  0.0416
   19SAPS   O13 2408   2.719   6.255   2.230 -0.1724 -0.4102 -0.3290
   19SAPS   O14 2409   2.757   6.009   2.281  0.6319 -0.6760 -0.3686
   19SAPS   O12 2410   2.911   6.190   2.373 -0.0738  0.2992  0.2566
   19SAPS   O11 2411   2.684   6.167   2.456  0.5512 -0.1770  0.3343
   19SAPS    C1 2412   2.715   6.253   2.565  0.3126  0.6902 -0.7278
   19SAPS    HA 2413   2.820   6.233   2.597  0.7147 -0.5118 -2.6293
   19SAPS    HB 2414   2.706   6.356   2.525 -2.5728  0.4481 -0.8568
   19SAPS    C2 2415   2.609   6.227   2.677 -0.0519 -0.0012 -0.2598
   19SAPS    HS 2416   2.528   6.293   2.640  0.3906  0.3528 -0.6063
   19SAPS   O21 2417   2.663   6.260   2.806 -0.7148 -0.1657 -0.4873
   19SAPS   C21 2418   2.675   6.388   2.838  0.6908 -0.0477  0.4835
   19SAPS   O22 2419   2.656   6.482   2.761  0.6362  0.0168  0.1452
   19SAPS   C22 2420   2.706   6.398   2.982 -0.2606  0.9771  0.5019
   19SAPS   H2R 2421   2.645   6.322   3.035  0.5341  2.0714  3.1702
   19SAPS   H2S 2422   2.813   6.372   2.995 -0.1965 -0.2922 -2.0002
   19SAPS    C3 2423   2.563   6.078   2.685 -0.5519 -0.3322  0.0141
   19SAPS    HX 2424   2.644   6.013   2.724 -1.9221 -1.8406  0.4948
   19SAPS    HY 2425   2.536   6.047   2.582 -0.4051  0.4086 -0.2530
   19SAPS   O31 2426   2.443   6.061   2.765 -0.0989 -0.5128 -0.3889
   19SAPS   C31 2427   2.446   5.985   2.880 -0.1791 -0.1242 -0.1100
   19SAPS   O32 2428   2.544   5.918   2.914  0.0296 -0.2564 -0.1136
   19SAPS   C32 2429   2.320   5.988   2.956  0.1512 -0.6544 -0.6642
   19SAPS   H2X 2430   2.256   5.905   2.919 -0.9809 -0.8725  1.5820
   19SAPS   H2Y 2431   2.276   6.085   2.926  0.8936 -0.5251 -1.3763
   19SAPS   C23 2432   2.688   6.538   3.040  0.6943 -0.0816  0.4675
   19SAPS   H3R 2433   2.587   6.579   3.018  1.1321  0.3595 -0.8547
   19SAPS   H3S 2434   2.745   6.618   2.987 -2.8128  2.0810 -0.3269
   19SAPS   C24 2435   2.718   6.542   3.193 -0.2380  0.1747 -0.9460
   19SAPS   H4R 2436   2.808   6.478   3.206 -1.6103 -1.4833  0.8915
   19SAPS   H4S 2437   2.644   6.484   3.252  2.8220 -1.6637  1.3577
   19SAPS   C25 2438   2.730   6.684   3.250 -0.2624  0.0186 -0.3126
   19SAPS   H5R 2439   2.664   6.749   3.191 -0.2560 -0.7409 -1.1873
   19SAPS   C26 2440   2.829   6.737   3.322  0.6006 -0.2633 -0.0557
   19SAPS   H6R 2441   2.831   6.844   3.346 -1.5596 -0.2901  0.4039
   19SAPS   C27 2442   2.926   6.655   3.402 -0.7562 -0.5252  0.0094
   19SAPS   H7R 2443   3.009   6.620   3.337 -1.8254 -1.2545 -0.9782
   19SAPS   H7S 2444   2.873   6.563   3.431 -1.5589  0.4793  1.8789
   19SAPS   C28 2445   2.990   6.731   3.526 -0.0878 -0.1642  0.4933
   19SAPS   H8R 2446   3.066   6.805   3.495  0.0352 -0.7405 -0.6329
   19SAPS   C29 2447   2.956   6.724   3.656  0.4189 -1.1295  0.4580
   19SAPS   H9R 2448   3.014   6.787   3.726  0.3190  2.8061 -2.6295
   19SAPS  C210 2449   2.847   6.641   3.716  0.3492 -0.2373  0.0564
   19SAPS  H10R 2450   2.871   6.532   3.723 -0.6056 -0.7256 -2.8661
   19SAPS  H10S 2451   2.764   6.637   3.642 -0.1540  0.7589  0.5535
   19SAPS  C211 2452   2.789   6.709   3.835  0.0427 -0.1692 -0.1384
   19SAPS  H11R 2453   2.829   6.810   3.854  2.6243 -0.3758 -3.5230
   19SAPS  C212 2454   2.700   6.661   3.923  0.3002  0.0826 -1.0452
   19SAPS  H12R 2455   2.677   6.724   4.010  0.3138  1.1515 -1.8089
   19SAPS  C213 2456   2.644   6.527   3.923 -0.6944  0.1509  0.4375
   19SAPS  H13R 2457   2.724   6.450   3.920  1.4609  2.2844 -0.1981
   19SAPS  H13S 2458   2.597   6.505   3.825 -0.1273  0.1228  0.1722
   19SAPS  C214 2459   2.543   6.487   4.033  0.5556 -0.4935  0.0743
   19SAPS  H14R 2460   2.436   6.504   4.014  0.9304  1.8617 -0.3370
   19SAPS  C215 2461   2.575   6.452   4.157  0.1274 -0.1404  0.8232
   19SAPS  H15R 2462   2.498   6.435   4.233 -1.1455  1.7293  0.0262
   19SAPS  C216 2463   2.721   6.456   4.207  0.0819 -0.4973 -0.4443
   19SAPS  H16R 2464   2.800   6.447   4.129  1.2144  2.1645  0.2740
   19SAPS  H16S 2465   2.739   6.375   4.281 -1.6662  0.9853  1.7587
   19SAPS  C217 2466   2.746   6.589   4.286 -0.7870 -0.0808 -0.2889
   19SAPS  H17R 2467   2.690   6.679   4.253 -0.7735  0.1627  0.3476
   19SAPS  H17S 2468   2.854   6.610   4.271 -0.4069  0.0606  2.2291
   19SAPS  C218 2469   2.714   6.586   4.436  0.5034  0.0357 -0.2217
   19SAPS  H18R 2470   2.755   6.496   4.486 -2.1085 -1.2886 -0.2940
   19SAPS  H18S 2471   2.606   6.562   4.435 -0.0471  2.2915  0.1107
   19SAPS  C219 2472   2.744   6.724   4.505  0.2378  0.0000 -0.8218
   19SAPS  H19R 2473   2.686   6.801   4.450  0.3916  0.9152  0.2630
   19SAPS  H19S 2474   2.851   6.750   4.494  0.0934  2.4546  2.2147
   19SAPS  C220 2475   2.699   6.746   4.644 -0.3680  0.4412 -0.2069
   19SAPS  H20R 2476   2.595   6.716   4.667  0.3134 -1.7432  0.3058
   19SAPS  H20S 2477   2.704   6.856   4.658  3.3351  0.3796  0.1032
   19SAPS  H20T 2478   2.768   6.697   4.716 -1.6417  0.0881  0.8074
   19SAPS   C33 2479   2.351   5.999   3.107 -0.4329  0.1918 -0.0337
   19SAPS   H3X 2480   2.408   5.910   3.140  1.6371  0.3990 -2.7136
   19SAPS   H3Y 2481   2.263   6.002   3.175  0.1624 -1.9403  0.9057
   19SAPS   C34 2482   2.444   6.120   3.142  0.4646 -0.5701 -0.1444
   19SAPS   H4X 2483   2.420   6.192   3.062  0.4500 -0.4008  0.0108
   19SAPS   H4Y 2484   2.550   6.085   3.146 -0.2072 -2.8360 -0.5421
   19SAPS   C35 2485   2.408   6.178   3.279 -0.4778  0.8411 -0.6436
   19SAPS   H5X 2486   2.303   6.215   3.286 -0.4947  0.7593 -0.4534
   19SAPS   H5Y 2487   2.477   6.265   3.288 -0.3159  0.6816 -0.3348
   19SAPS   C36 2488   2.417   6.074   3.396 -0.5263 -0.3596 -0.5604
   19SAPS   H6X 2489   2.508   6.011   3.391  0.1279  0.6531 -3.7834
   19SAPS   H6Y 2490   2.328   6.012   3.373 -0.6661  0.0930 -1.2604
   19SAPS   C37 2491   2.428   6.144   3.535  0.1653 -0.8863  0.1203
   19SAPS   H7X 2492   2.527   6.188   3.558  0.1369 -1.3948  1.3335
   19SAPS   H7Y 2493   2.411   6.069   3.615 -1.9884  0.4483  1.0094
   19SAPS   C38 2494   2.320   6.257   3.554  0.2750  0.7453  0.0143
   19SAPS   H8X 2495   2.226   6.213   3.517 -0.5665  1.0697  1.6646
   19SAPS   H8Y 2496   2.344   6.347   3.494 -1.1887  0.8210 -0.4929
   19SAPS   C39 2497   2.289   6.294   3.698 -0.5038  0.0776 -0.4939
   19SAPS   H9X 2498   2.363   6.371   3.731  1.0046 -2.1163  1.5942
   19SAPS   H9Y 2499   2.299   6.212   3.772  0.0250  0.5518 -0.0269
   19SAPS  C310 2500   2.147   6.348   3.716 -0.4463 -0.4543  0.1106
   19SAPS  H10X 2501   2.077   6.262   3.719  0.5234 -1.2402  1.2872
   19SAPS  H10Y 2502   2.117   6.413   3.631 -0.5309 -1.4066 -0.5995
   19SAPS  C311 2503   2.132   6.424   3.853 -0.1737  0.5952 -0.0374
   19SAPS  H11X 2504   2.184   6.520   3.834  1.7809 -0.2083  0.8990
   19SAPS  H11Y 2505   2.176   6.365   3.936  0.5581  0.2783 -0.6398
   19SAPS  C312 2506   1.981   6.453   3.888  0.0880  0.3829  0.0356
   19SAPS  H12X 2507   1.922   6.359   3.892 -0.6036  0.7924 -0.3858
   19SAPS  H12Y 2508   1.941   6.505   3.799 -1.0169 -1.1355 -0.3978
   19SAPS  C313 2509   1.957   6.537   4.010 -0.2398  0.4198 -1.0515
   19SAPS  H13X 2510   2.009   6.634   4.005 -2.6666  1.7847 -1.5531
   19SAPS  H13Y 2511   2.010   6.483   4.091 -1.2352  0.6034 -0.2522
   19SAPS  C314 2512   1.817   6.560   4.042 -0.2446 -0.4620 -0.0728
   19SAPS  H14X 2513   1.765   6.464   4.063  2.2658 -1.5930  1.4750
   19SAPS  H14Y 2514   1.773   6.618   3.958  1.4434 -0.3392 -0.9068
   19SAPS  C315 2515   1.805   6.644   4.166  0.0451 -0.4090  0.0037
   19SAPS  H15X 2516   1.875   6.730   4.162 -0.4045 -0.0547 -0.3958
   19SAPS  H15Y 2517   1.833   6.584   4.256 -1.1201  0.2759  0.8592
   19SAPS  C316 2518   1.663   6.700   4.179  0.6907  0.1077  0.7830
   19SAPS  H16X 2519   1.586   6.621   4.166  0.9013  0.2025 -1.4213
   19SAPS  H16Y 2520   1.644   6.766   4.091 -0.3458 -1.2002 -0.0027
   19SAPS  C317 2521   1.647   6.782   4.308 -0.1922  0.3385 -0.1609
   19SAPS  H17X 2522   1.544   6.822   4.318  0.6155  2.2233  1.2030
   19SAPS  H17Y 2523   1.711   6.873   4.311 -0.2570  0.3669  1.3539
   19SAPS  C318 2524   1.684   6.699   4.436 -0.1348 -0.4402 -0.1141
   19SAPS  H18X 2525   1.638   6.751   4.523  1.2817  1.3397 -0.3571
   19SAPS  H18Y 2526   1.794   6.705   4.453 -0.0894  2.2603 -0.9108
   19SAPS  H18Z 2527   1.670   6.589   4.439  2.1868 -0.8052 -0.3880
   20SAPS     N 2528   4.339   6.428   1.960  0.2089  0.3807 -0.0181
   20SAPS   HN1 2529   4.390   6.501   1.907  1.1970  2.4503  3.4494
   20SAPS   HN2 2530   4.254   6.385   1.918 -0.1994 -0.9963  2.0391
   20SAPS   HN3 2531   4.309   6.485   2.042  0.8693  0.3653  0.2373
   20SAPS   C12 2532   4.430   6.329   2.012 -1.1535  0.9220  0.1275
   20SAPS  H12A 2533   4.385   6.288   2.101 -2.2457 -1.1551 -1.2711
   20SAPS   C13 2534   4.455   6.207   1.916  0.2315 -0.2713 -0.4373
   20SAPS  O13A 2535   4.401   6.215   1.795 -0.0782  0.4637 -0.2186
   20SAPS  O13B 2536   4.558   6.134   1.939 -0.5601  0.1768  0.0067
   20SAPS   C11 2537   4.562   6.393   2.048 -0.3025  0.9918  0.0758
   20SAPS  H11A 2538   4.609   6.430   1.954  1.6787 -0.1032  0.5856
   20SAPS  H11B 2539   4.622   6.311   2.092  0.1064  1.0728 -0.3118
   20SAPS     P 2540   4.656   6.590   2.200  0.6752 -0.1290  0.3410
   20SAPS   O13 2541   4.789   6.529   2.173  0.4340 -0.2464 -0.0250
   20SAPS   O14 2542   4.627   6.720   2.130  0.1189  0.4889  0.2048
   20SAPS   O12 2543   4.549   6.482   2.154 -0.1367 -0.3314  0.1419
   20SAPS   O11 2544   4.637   6.610   2.355  0.2483 -0.1003  0.2655
   20SAPS    C1 2545   4.602   6.500   2.443  0.1719  0.3041 -0.1121
   20SAPS    HA 2546   4.619   6.399   2.401  0.2623 -0.8424  2.5100
   20SAPS    HB 2547   4.671   6.504   2.530 -0.4096  0.5472  0.3501
   20SAPS    C2 2548   4.451   6.515   2.488 -0.5734  0.1214  0.3834
   20SAPS    HS 2549   4.383   6.535   2.402 -1.8514  1.0675  1.5673
   20SAPS   O21 2550   4.446   6.617   2.586  0.3852 -0.4039 -0.3917
   20SAPS   C21 2551   4.329   6.647   2.633 -0.0405 -0.8171 -0.3233
   20SAPS   O22 2552   4.223   6.597   2.602  0.0523 -0.3012  0.1153
   20SAPS   C22 2553   4.344   6.757   2.737  0.9847 -0.1916 -0.9636
   20SAPS   H2R 2554   4.440   6.738   2.791  0.1918  1.6099  1.2771
   20SAPS   H2S 2555   4.343   6.856   2.686 -2.6387 -1.1619 -3.1011
   20SAPS    C3 2556   4.396   6.375   2.531  0.6834  0.3102 -0.6491
   20SAPS    HX 2557   4.426   6.295   2.460 -1.0472 -0.2122 -0.8222
   20SAPS    HY 2558   4.287   6.390   2.516  0.8828  1.1725 -1.3326
   20SAPS   O31 2559   4.433   6.341   2.664  0.3673 -0.4343  0.5109
   20SAPS   C31 2560   4.533   6.259   2.685 -0.4765 -0.0467  0.3462
   20SAPS   O32 2561   4.609   6.217   2.596  0.2655 -0.1038 -0.3978
   20SAPS   C32 2562   4.569   6.251   2.830  0.2532 -0.7053  0.4477
   20SAPS   H2X 2563   4.487   6.208   2.892 -1.4932  1.6873 -0.0581
   20SAPS   H2Y 2564   4.586   6.352   2.873 -0.0114 -1.3536  2.1908
   20SAPS   C23 2565   4.225   6.774   2.839  0.8435  0.2669 -0.5561
   20SAPS   H3R 2566   4.133   6.807   2.786  0.8744  0.6514 -0.3782
   20SAPS   H3S 2567   4.250   6.864   2.900  0.2649 -1.0429  1.7578
   20SAPS   C24 2568   4.181   6.660   2.935  0.4585  0.2946  0.9623
   20SAPS   H4R 2569   4.167   6.565   2.878  1.5019 -0.1323  1.3780
   20SAPS   H4S 2570   4.084   6.693   2.978  0.8820  1.2484  1.2093
   20SAPS   C25 2571   4.290   6.642   3.041  0.3127  0.4463 -0.5798
   20SAPS   H5R 2572   4.382   6.587   3.015  0.3184  0.0940  0.1338
   20SAPS   C26 2573   4.272   6.648   3.176 -0.5150 -0.5061 -0.6066
   20SAPS   H6R 2574   4.349   6.616   3.248  1.8538  0.5477 -2.5301
   20SAPS   C27 2575   4.146   6.696   3.247 -0.0881 -0.0458 -0.0309
   20SAPS   H7R 2576   4.114   6.785   3.189  0.3520  0.2481  0.1740
   20SAPS   H7S 2577   4.164   6.734   3.350 -0.8815 -0.6804  0.3585
   20SAPS   C28 2578   4.034   6.593   3.246  0.7728  0.5070  0.5724
   20SAPS   H8R 2579   3.977   6.563   3.156 -2.4990 -0.6456  2.8292
   20SAPS   C29 2580   3.993   6.514   3.344  0.2879  0.1656 -0.2017
   20SAPS   H9R 2581   3.901   6.457   3.321 -0.8854  2.1185 -0.6547
   20SAPS  C210 2582   4.041   6.503   3.491 -0.0368 -0.0921 -0.2730
   20SAPS  H10R 2583   4.021   6.399   3.524  0.4709 -0.5197 -1.2603
   20SAPS  H10S 2584   3.976   6.572   3.550 -0.2709  1.1715 -1.9278
   20SAPS  C211 2585   4.185   6.522   3.530 -0.2148  0.6660  0.2013
   20SAPS  H11R 2586   4.250   6.529   3.442  1.3118 -0.3382  1.2015
   20SAPS  C212 2587   4.244   6.533   3.653 -0.6822 -0.0215  0.1860
   20SAPS  H12R 2588   4.354   6.538   3.653 -0.5013 -1.5879 -2.9071
   20SAPS  C213 2589   4.180   6.509   3.784 -0.5642 -0.1924 -0.5313
   20SAPS  H13R 2590   4.070   6.500   3.777 -0.6240  0.7829 -1.0476
   20SAPS  H13S 2591   4.201   6.590   3.857  0.7297 -1.9237  1.1025
   20SAPS  C214 2592   4.241   6.375   3.830  0.1634  0.6006 -0.3078
   20SAPS  H14R 2593   4.203   6.294   3.765 -0.7594  2.1877 -1.8580
   20SAPS  C215 2594   4.332   6.353   3.924 -0.0361  0.1984  0.6033
   20SAPS  H15R 2595   4.360   6.249   3.949  0.5217  0.4345  0.9621
   20SAPS  C216 2596   4.381   6.452   4.027  0.0318 -0.3565  0.8433
   20SAPS  H16R 2597   4.373   6.556   3.989 -1.0042 -0.0094  1.9269
   20SAPS  H16S 2598   4.490   6.449   4.047 -0.2417  1.0203  2.8943
   20SAPS  C217 2599   4.296   6.453   4.152  0.1310 -0.3142 -0.5843
   20SAPS  H17R 2600   4.190   6.421   4.141  0.2768 -1.4266  0.8501
   20SAPS  H17S 2601   4.294   6.553   4.199 -1.4574 -0.6367  0.1237
   20SAPS  C218 2602   4.345   6.357   4.264 -0.5216  0.3337 -0.6236
   20SAPS  H18R 2603   4.444   6.391   4.303 -1.1781  2.0367 -0.3442
   20SAPS  H18S 2604   4.360   6.261   4.211  1.1652  0.6184 -0.7295
   20SAPS  C219 2605   4.248   6.323   4.379  0.2460 -0.4415  0.8297
   20SAPS  H19R 2606   4.305   6.262   4.453  1.4097  0.3102  0.5857
   20SAPS  H19S 2607   4.164   6.267   4.334  0.8459  1.0852 -2.4769
   20SAPS  C220 2608   4.208   6.441   4.469 -0.5277 -0.2747  0.2491
   20SAPS  H20R 2609   4.295   6.470   4.533 -2.2165  0.2781  2.4024
   20SAPS  H20S 2610   4.128   6.405   4.536 -0.3369 -1.2269 -0.0270
   20SAPS  H20T 2611   4.166   6.523   4.407 -0.9264 -1.8152 -1.6031
   20SAPS   C33 2612   4.702   6.180   2.853  0.1533 -1.1132  0.0082
   20SAPS   H3X 2613   4.787   6.215   2.792  0.8118 -0.3823  1.3191
   20SAPS   H3Y 2614   4.670   6.076   2.826 -0.0066 -1.4275  1.3547
   20SAPS   C34 2615   4.739   6.187   3.000  0.1685 -0.1123 -0.4441
   20SAPS   H4X 2616   4.674   6.125   3.066  1.5665 -0.3149  0.7851
   20SAPS   H4Y 2617   4.730   6.292   3.034  0.1333 -0.6119  1.1877
   20SAPS   C35 2618   4.875   6.119   3.008 -0.1754  0.2090  0.4746
   20SAPS   H5X 2619   4.948   6.178   2.948  0.7219 -0.7348  0.5984
   20SAPS   H5Y 2620   4.891   6.017   2.966  3.3450 -0.0768  2.1387
   20SAPS   C36 2621   4.941   6.137   3.149 -0.3582 -0.3528  0.5124
   20SAPS   H6X 2622   4.869   6.090   3.220  1.4328 -1.4154  1.6954
   20SAPS   H6Y 2623   4.927   6.246   3.169  1.9163 -0.2058  1.5875
   20SAPS   C37 2624   5.087   6.097   3.169 -0.3497  0.4059  0.2192
   20SAPS   H7X 2625   5.148   6.133   3.084 -0.2777  1.9840  0.9088
   20SAPS   H7Y 2626   5.089   5.986   3.167 -0.3915  0.4149 -0.5394
   20SAPS   C38 2627   5.144   6.152   3.303 -0.2570  0.2299  0.0525
   20SAPS   H8X 2628   5.149   6.263   3.292  1.5573  0.2185  0.4302
   20SAPS   H8Y 2629   5.243   6.103   3.311 -0.0527  0.6476  0.1027
   20SAPS   C39 2630   5.072   6.124   3.439 -0.1281 -0.1227 -0.3429
   20SAPS   H9X 2631   5.103   6.020   3.464 -3.2053 -1.1155 -0.2531
   20SAPS   H9Y 2632   4.961   6.126   3.434 -0.1776 -1.2844 -0.1498
   20SAPS  C310 2633   5.116   6.223   3.546  0.5833 -0.1924 -0.7292
   20SAPS  H10X 2634   5.075   6.325   3.534  2.4348  1.2118  3.0146
   20SAPS  H10Y 2635   5.224   6.231   3.524  0.3893 -0.3899 -1.7700
   20SAPS  C311 2636   5.081   6.186   3.698 -0.2688 -0.4719 -0.5141
   20SAPS  H11X 2637   5.160   6.111   3.719 -2.7612 -2.7160  1.4532
   20SAPS  H11Y 2638   4.984   6.135   3.712  1.0985 -2.8501  0.8828
   20SAPS  C312 2639   5.105   6.308   3.789  0.3373 -0.6457 -0.4129
   20SAPS  H12X 2640   5.019   6.377   3.776 -1.6000 -2.9807 -0.7116
   20SAPS  H12Y 2641   5.198   6.355   3.749  0.5371 -1.5407 -1.0324
   20SAPS  C313 2642   5.114   6.273   3.939 -0.4573 -0.0104 -0.0800
   20SAPS  H13X 2643   5.197   6.201   3.957 -1.3697 -1.1962 -0.5569
   20SAPS  H13Y 2644   5.030   6.211   3.976 -0.0027 -0.1653  0.7322
   20SAPS  C314 2645   5.139   6.396   4.029  0.6764 -0.2108  0.6754
   20SAPS  H14X 2646   5.054   6.466   4.012  0.2290 -1.0188 -0.5420
   20SAPS  H14Y 2647   5.236   6.443   4.004  0.3564  0.3677  0.4979
   20SAPS  C315 2648   5.139   6.351   4.174  0.4742  0.3916 -1.1125
   20SAPS  H15X 2649   5.236   6.298   4.189  0.0435 -0.2081 -0.3736
   20SAPS  H15Y 2650   5.059   6.277   4.189  1.2034 -0.4637 -1.3444
   20SAPS  C316 2651   5.149   6.463   4.276 -0.2571  0.2489  0.0389
   20SAPS  H16X 2652   5.057   6.526   4.272 -1.3556 -1.3524 -2.9560
   20SAPS  H16Y 2653   5.239   6.517   4.241  0.4990 -2.0736 -1.8239
   20SAPS  C317 2654   5.181   6.418   4.419 -0.0941  0.0961 -0.0271
   20SAPS  H17X 2655   5.271   6.354   4.430  0.0389  0.2310 -0.3280
   20SAPS  H17Y 2656   5.085   6.371   4.449 -1.2342  2.6125  0.4499
   20SAPS  C318 2657   5.187   6.531   4.526 -0.1522 -0.0188 -0.3070
   20SAPS  H18X 2658   5.102   6.601   4.506  0.0622 -0.4066 -2.9229
   20SAPS  H18Y 2659   5.285   6.583   4.518  0.1640 -0.0317  2.4472
   20SAPS  H18Z 2660   5.182   6.486   4.627  0.2668  0.8474  0.1115
   21CHL1    C3 2661   1.914   5.666   6.620  0.0162  0.1527  0.1948
   21CHL1    H3 2662   1.875   5.572   6.575  0.1656 -0.4681  1.3232
   21CHL1    O3 2663   1.847   5.677   6.748 -0.5668 -0.3736  0.2159
   21CHL1   H3' 2664   1.861   5.770   6.768 -0.1409 -0.0381 -1.4882
   21CHL1    C4 2665   2.071   5.660   6.629  0.1732  0.3223 -0.0431
   21CHL1   H4A 2666   2.100   5.748   6.690  2.6110 -1.6200  1.7886
   21CHL1   H4B 2667   2.092   5.574   6.696  0.1626  0.7478  0.5101
   21CHL1    C5 2668   2.141   5.660   6.487  0.1190 -0.2908  0.2588
   21CHL1    C6 2669   2.229   5.564   6.456 -0.4240  0.0014  0.5871
   21CHL1    H6 2670   2.247   5.484   6.528 -1.7598 -1.3611 -0.5316
   21CHL1    C7 2671   2.309   5.574   6.338 -0.1080  0.0395 -0.9128
   21CHL1   H7A 2672   2.414   5.552   6.368 -1.2235 -0.0184  3.5975
   21CHL1   H7B 2673   2.288   5.493   6.264 -1.3047  0.2553 -0.8184
   21CHL1    C8 2674   2.300   5.708   6.258 -0.1475 -0.7121  0.5967
   21CHL1    H8 2675   2.362   5.783   6.312 -0.2707  0.9747 -1.4714
   21CHL1   C14 2676   2.352   5.684   6.119  0.6631 -0.0809  0.3819
   21CHL1   H14 2677   2.300   5.596   6.075  0.1875  0.8441 -0.9469
   21CHL1   C15 2678   2.497   5.634   6.113 -0.3621  0.3513  0.3955
   21CHL1  H15A 2679   2.563   5.691   6.182  2.9964 -1.3317 -1.2047
   21CHL1  H15B 2680   2.509   5.525   6.128  0.3306  0.4444  0.5687
   21CHL1   C16 2681   2.537   5.673   5.967 -0.0558  0.5732 -0.6289
   21CHL1  H16A 2682   2.611   5.755   5.979  0.2457  0.5131 -1.9504
   21CHL1  H16B 2683   2.574   5.580   5.919  0.2744 -0.0110  0.7301
   21CHL1   C17 2684   2.405   5.727   5.899 -0.9532 -0.6451 -0.8092
   21CHL1   H17 2685   2.350   5.641   5.855 -2.1443 -0.5508  0.4465
   21CHL1   C13 2686   2.330   5.793   6.017 -0.0814 -0.1054 -0.1945
   21CHL1   C18 2687   2.403   5.925   6.065 -0.4738  0.4547 -0.1878
   21CHL1  H18A 2688   2.362   5.943   6.167  0.2951  1.1567  0.0027
   21CHL1  H18B 2689   2.514   5.916   6.072 -0.5440  0.0567  0.4730
   21CHL1  H18C 2690   2.366   6.007   5.999 -0.2093  1.3965  0.8113
   21CHL1   C12 2691   2.186   5.828   6.011  0.0627 -0.1161 -0.1125
   21CHL1  H12A 2692   2.174   5.928   5.964 -1.8053 -0.5853 -0.7150
   21CHL1  H12B 2693   2.127   5.752   5.955 -0.7365  0.0071  0.5501
   21CHL1   C11 2694   2.120   5.860   6.151 -0.3293 -0.1880 -0.5298
   21CHL1  H11A 2695   2.156   5.958   6.189 -1.0858 -0.1558  0.1484
   21CHL1  H11B 2696   2.011   5.864   6.129 -0.8787 -2.4912  1.3336
   21CHL1    C9 2697   2.149   5.752   6.250  0.1512 -0.2366 -0.5366
   21CHL1    H9 2698   2.112   5.655   6.209 -0.0844 -0.2750 -0.2316
   21CHL1   C10 2699   2.093   5.773   6.394 -0.0169  0.4818  0.3928
   21CHL1   C19 2700   2.150   5.904   6.450 -0.5244 -0.0250 -0.2291
   21CHL1  H19A 2701   2.122   5.931   6.554  0.2862 -0.5107  0.1232
   21CHL1  H19B 2702   2.261   5.893   6.452 -0.7066 -3.4906 -1.7445
   21CHL1  H19C 2703   2.125   5.991   6.386  0.3957  0.6064  0.2323
   21CHL1    C1 2704   1.942   5.780   6.390  0.0769 -0.1520 -0.5882
   21CHL1   H1A 2705   1.919   5.867   6.326  0.5736 -2.2277 -3.8471
   21CHL1   H1B 2706   1.902   5.689   6.340 -1.6815  1.1936 -1.7350
   21CHL1    C2 2707   1.871   5.788   6.529 -0.4664 -0.1457 -0.1112
   21CHL1   H2A 2708   1.760   5.792   6.525 -0.7085 -2.9240  1.1787
   21CHL1   H2B 2709   1.891   5.887   6.575  0.3994 -1.0271  1.4937
   21CHL1   C20 2710   2.431   5.828   5.780 -0.1511  0.2252 -0.0976
   21CHL1   H20 2711   2.455   5.928   5.821 -0.7565  0.8149 -1.1338
   21CHL1   C21 2712   2.297   5.823   5.711 -0.0118 -0.3234  0.6599
   21CHL1  H21A 2713   2.278   5.926   5.672  1.8460 -0.2162 -0.0631
   21CHL1  H21B 2714   2.211   5.789   5.771  0.8758  0.4109  2.4150
   21CHL1  H21C 2715   2.310   5.762   5.619 -0.0021  1.5088 -0.6095
   21CHL1   C22 2716   2.550   5.784   5.686 -0.1849  0.2981  0.3409
   21CHL1  H22A 2717   2.646   5.770   5.742 -0.7486 -1.0643  1.0253
   21CHL1  H22B 2718   2.528   5.681   5.651 -0.4944  0.0142  1.3331
   21CHL1   C23 2719   2.576   5.885   5.566 -0.5649  0.1072  0.3642
   21CHL1  H23A 2720   2.476   5.889   5.517 -0.6775  0.4189  0.6253
   21CHL1  H23B 2721   2.589   5.987   5.607  0.5769 -0.5001  1.5570
   21CHL1   C24 2722   2.691   5.843   5.466 -0.2785 -0.1244 -1.2644
   21CHL1  H24A 2723   2.788   5.866   5.516  0.2522 -0.1074 -2.2676
   21CHL1  H24B 2724   2.699   5.733   5.454 -1.2045 -0.2593 -0.7069
   21CHL1   C25 2725   2.686   5.903   5.331  0.4276  0.1054 -0.3632
   21CHL1   H25 2726   2.766   5.856   5.269  0.7922  1.7163 -1.1762
   21CHL1   C26 2727   2.550   5.876   5.258  0.6202 -0.2286 -0.0937
   21CHL1  H26A 2728   2.468   5.942   5.290  1.1708  0.2000  0.4445
   21CHL1  H26B 2729   2.554   5.890   5.148  1.5224 -0.3326 -0.0860
   21CHL1  H26C 2730   2.522   5.773   5.291 -0.4527  0.0815 -0.0326
   21CHL1   C27 2731   2.715   6.055   5.337  0.3373 -0.2132  0.6555
   21CHL1  H27A 2732   2.651   6.101   5.415  1.4337 -0.5604  1.7884
   21CHL1  H27B 2733   2.821   6.068   5.369  0.6301 -1.1438  0.1137
   21CHL1  H27C 2734   2.691   6.083   5.232 -1.1048 -2.0810  0.4235
   22CHL1    C3 2735   3.144   3.961   5.977  0.2808 -1.0055 -0.7991
   22CHL1    H3 2736   3.080   3.871   5.967 -3.8529  1.4768  0.6057
   22CHL1    O3 2737   3.133   4.016   6.110 -0.5529 -0.2094  0.4381
   22CHL1   H3' 2738   3.195   3.966   6.163 -0.6716 -0.4173  0.3869
   22CHL1    C4 2739   3.293   3.935   5.942  0.2144 -0.2195 -0.1289
   22CHL1   H4A 2740   3.359   4.011   5.986  1.3074 -0.6156 -1.0170
   22CHL1   H4B 2741   3.323   3.851   6.009  2.4346  2.2724  2.1936
   22CHL1    C5 2742   3.335   3.909   5.798 -0.1989 -0.4376  0.4738
   22CHL1    C6 2743   3.422   3.819   5.759 -0.7345  0.1482 -0.0068
   22CHL1    H6 2744   3.468   3.747   5.827  0.1101 -0.0139 -0.7334
   22CHL1    C7 2745   3.460   3.797   5.610 -0.3260  0.4487  0.0316
   22CHL1   H7A 2746   3.568   3.771   5.606 -0.0986  0.9151  1.9321
   22CHL1   H7B 2747   3.411   3.701   5.584  0.5746 -0.2175  0.7212
   22CHL1    C8 2748   3.417   3.905   5.515  0.2981 -0.2908  0.6842
   22CHL1    H8 2749   3.496   3.983   5.529  0.8824 -0.9852  1.3205
   22CHL1   C14 2750   3.426   3.867   5.370  0.5924 -0.1666 -0.0647
   22CHL1   H14 2751   3.370   3.773   5.354  1.3261 -0.4700 -0.9296
   22CHL1   C15 2752   3.569   3.820   5.326  0.2213 -0.0919 -0.2121
   22CHL1  H15A 2753   3.650   3.873   5.380  0.0674 -0.6068  0.5452
   22CHL1  H15B 2754   3.582   3.713   5.354  3.2528  0.1552 -0.3878
   22CHL1   C16 2755   3.562   3.837   5.175  0.5394 -0.1038 -0.6693
   22CHL1  H16A 2756   3.633   3.919   5.148 -0.7446  1.7408  1.2257
   22CHL1  H16B 2757   3.590   3.744   5.122  3.2060 -0.4517  1.1497
   22CHL1   C17 2758   3.408   3.883   5.149  0.6175 -0.5748  0.1614
   22CHL1   H17 2759   3.349   3.790   5.137  0.7532 -0.5599 -0.6841
   22CHL1   C13 2760   3.370   3.963   5.272  0.7936 -0.7042 -0.2026
   22CHL1   C18 2761   3.447   4.097   5.282 -0.4092  0.3635 -0.0263
   22CHL1  H18A 2762   3.406   4.161   5.201 -1.4535  0.0940  0.2696
   22CHL1  H18B 2763   3.427   4.136   5.384 -0.5654  0.7374 -0.1972
   22CHL1  H18C 2764   3.557   4.086   5.271 -0.1697 -1.6685  3.1866
   22CHL1   C12 2765   3.219   3.975   5.305 -0.4828  0.0482  0.0057
   22CHL1  H12A 2766   3.168   4.045   5.235  1.5582  0.1007 -1.5031
   22CHL1  H12B 2767   3.168   3.877   5.295 -0.3240  0.0185 -0.5374
   22CHL1   C11 2768   3.200   4.036   5.442 -0.0859 -0.0198  0.1931
   22CHL1  H11A 2769   3.214   4.146   5.444 -2.7037  0.4537 -2.1711
   22CHL1  H11B 2770   3.090   4.026   5.451  0.1347 -1.2099  2.0846
   22CHL1    C9 2771   3.271   3.953   5.555  0.4524  0.7209  0.0156
   22CHL1    H9 2772   3.213   3.858   5.547  0.2461  1.0005 -3.0259
   22CHL1   C10 2773   3.263   4.004   5.698 -0.0417 -0.3971  0.7063
   22CHL1   C19 2774   3.313   4.151   5.691  0.4733  0.3499 -0.9114
   22CHL1  H19A 2775   3.229   4.213   5.655  1.9892  3.5036  0.5579
   22CHL1  H19B 2776   3.333   4.192   5.792  1.3975 -0.4573 -0.7468
   22CHL1  H19C 2777   3.403   4.154   5.626  1.3960  0.9561  0.3491
   22CHL1    C1 2778   3.115   4.010   5.735 -0.3936  0.3139 -0.7368
   22CHL1   H1A 2779   3.062   4.077   5.664  0.2509  1.1504 -0.4469
   22CHL1   H1B 2780   3.061   3.916   5.713  0.4822  0.3088 -3.1508
   22CHL1    C2 2781   3.084   4.059   5.873  0.2642 -0.6448 -0.8116
   22CHL1   H2A 2782   2.974   4.072   5.883  0.0851 -0.6128 -2.5648
   22CHL1   H2B 2783   3.132   4.155   5.903 -0.0902 -0.8278  0.3815
   22CHL1   C20 2784   3.394   3.951   5.015  0.2116  0.3386  0.2689
   22CHL1   H20 2785   3.421   4.057   5.033 -1.6492  0.8359  0.4031
   22CHL1   C21 2786   3.243   3.942   4.959  0.2412  0.3863  0.2816
   22CHL1  H21A 2787   3.202   3.842   4.935 -2.3231  1.0427  1.6184
   22CHL1  H21B 2788   3.237   4.004   4.868  0.5684  1.7641  1.1682
   22CHL1  H21C 2789   3.179   3.994   5.034 -0.4139  0.4832 -0.3429
   22CHL1   C22 2790   3.488   3.904   4.902  0.5705  0.0427 -0.0659
   22CHL1  H22A 2791   3.586   3.867   4.939  1.1324  0.4673 -1.0673
   22CHL1  H22B 2792   3.439   3.814   4.858  0.4087 -0.3949  0.9964
   22CHL1   C23 2793   3.522   4.023   4.798 -0.0044  0.6589 -0.5880
   22CHL1  H23A 2794   3.427   4.056   4.751  0.2152  2.0279 -0.1134
   22CHL1  H23B 2795   3.576   4.100   4.857 -0.5353  0.7729 -0.2384
   22CHL1   C24 2796   3.620   3.994   4.686 -0.0720 -0.0040  0.5867
   22CHL1  H24A 2797   3.660   4.080   4.628 -0.2128 -1.4561 -1.8128
   22CHL1  H24B 2798   3.705   3.944   4.738  2.4063  1.8199 -1.4691
   22CHL1   C25 2799   3.568   3.882   4.592 -0.1013  0.1599  0.8874
   22CHL1   H25 2800   3.523   3.794   4.642 -0.0017 -1.0855 -1.0718
   22CHL1   C26 2801   3.462   3.948   4.499  0.2020 -0.7206 -0.3674
   22CHL1  H26A 2802   3.436   3.885   4.412  0.2291  3.1733 -3.5162
   22CHL1  H26B 2803   3.373   3.972   4.561  0.4353  1.3984 -0.7558
   22CHL1  H26C 2804   3.499   4.040   4.449 -2.0947  0.4687 -0.0413
   22CHL1   C27 2805   3.682   3.820   4.505 -1.0480  0.0813  0.3411
   22CHL1  H27A 2806   3.754   3.887   4.454 -1.5555 -0.2535 -0.8531
   22CHL1  H27B 2807   3.747   3.756   4.567  0.2420 -0.2047 -1.2361
   22CHL1  H27C 2808   3.632   3.764   4.423  1.3626 -2.4557  0.4809
   23CHL1    C3 2809   1.154   4.746   5.910 -0.6522  0.4672 -0.1393
   23CHL1    H3 2810   1.219   4.834   5.929  0.8113 -0.8367  1.1400
   23CHL1    O3 2811   1.076   4.710   6.025 -0.2142  0.1154  0.3336
   23CHL1   H3' 2812   1.136   4.654   6.074  0.9861  1.2577  0.2110
   23CHL1    C4 2813   1.058   4.787   5.796  0.3895  0.0651  0.8421
   23CHL1   H4A 2814   0.975   4.714   5.794 -0.8628  1.3964  1.8470
   23CHL1   H4B 2815   1.019   4.885   5.832  3.9109  1.0493  2.3629
   23CHL1    C5 2816   1.121   4.804   5.653 -0.0025  0.1908  0.0414
   23CHL1    C6 2817   1.114   4.916   5.580 -0.5653  0.8697 -0.1453
   23CHL1    H6 2818   1.032   4.981   5.613  0.6324  1.9773  0.7151
   23CHL1    C7 2819   1.180   4.932   5.444  0.0202 -0.3675 -0.0218
   23CHL1   H7A 2820   1.102   4.981   5.382  0.4268  0.2209 -0.0795
   23CHL1   H7B 2821   1.273   4.993   5.440 -0.9227  1.0374 -1.8589
   23CHL1    C8 2822   1.215   4.795   5.384  0.1431  0.7777  0.5646
   23CHL1    H8 2823   1.122   4.737   5.362  0.6712 -0.1363  0.6801
   23CHL1   C14 2824   1.302   4.818   5.256  0.0974 -0.0297  0.2565
   23CHL1   H14 2825   1.403   4.855   5.286  1.3490 -1.5020 -1.8854
   23CHL1   C15 2826   1.255   4.919   5.152 -0.3043  0.0134 -0.5902
   23CHL1  H15A 2827   1.149   4.914   5.119 -0.0412  1.0808 -1.6749
   23CHL1  H15B 2828   1.269   5.021   5.194 -1.1214  0.7066 -1.9283
   23CHL1   C16 2829   1.343   4.880   5.033 -0.5000  0.1956  0.1139
   23CHL1  H16A 2830   1.274   4.862   4.949 -0.2968 -0.2974  0.0521
   23CHL1  H16B 2831   1.412   4.965   5.010 -1.1949  0.7283 -0.0376
   23CHL1   C17 2832   1.411   4.747   5.066 -0.2952 -0.5442 -0.8939
   23CHL1   H17 2833   1.508   4.777   5.113 -0.6676  0.7045 -0.8714
   23CHL1   C13 2834   1.340   4.689   5.186  0.6419  0.0408  0.5377
   23CHL1   C18 2835   1.208   4.625   5.137 -0.1939 -0.5666 -0.7520
   23CHL1  H18A 2836   1.145   4.700   5.086  0.7248  0.7997  0.0528
   23CHL1  H18B 2837   1.227   4.537   5.072  0.0132 -1.8096  0.9083
   23CHL1  H18C 2838   1.145   4.590   5.222 -2.1349 -1.4561 -2.4746
   23CHL1   C12 2839   1.423   4.605   5.283 -0.5847 -1.1162  0.4678
   23CHL1  H12A 2840   1.445   4.505   5.241  1.2405  0.2876 -2.2122
   23CHL1  H12B 2841   1.512   4.661   5.319 -0.3697 -1.2820  0.2017
   23CHL1   C11 2842   1.357   4.578   5.422 -0.1660  0.5888 -0.4815
   23CHL1  H11A 2843   1.281   4.509   5.380 -0.6004  0.6023  0.2610
   23CHL1  H11B 2844   1.419   4.527   5.499 -1.8595  0.8777  1.1636
   23CHL1    C9 2845   1.294   4.709   5.488 -0.2715 -0.5205 -0.5314
   23CHL1    H9 2846   1.379   4.766   5.531 -1.7504 -1.5621  4.3332
   23CHL1   C10 2847   1.207   4.680   5.610 -0.2356 -0.5975 -0.0649
   23CHL1   C19 2848   1.106   4.569   5.580 -0.5972  0.2703 -0.3621
   23CHL1  H19A 2849   1.062   4.542   5.678 -1.3484  0.4218 -0.6538
   23CHL1  H19B 2850   1.039   4.592   5.494 -0.0835  0.3434 -0.7483
   23CHL1  H19C 2851   1.160   4.477   5.547 -1.0066  0.3602 -1.3114
   23CHL1    C1 2852   1.296   4.633   5.732 -0.3903 -0.6143  0.3163
   23CHL1   H1A 2853   1.355   4.543   5.708 -1.7030 -2.0752  2.2554
   23CHL1   H1B 2854   1.369   4.716   5.735  0.6823 -1.4397 -1.4556
   23CHL1    C2 2855   1.236   4.621   5.872  0.2360  0.1468  0.2824
   23CHL1   H2A 2856   1.325   4.612   5.937  0.5657  0.6486 -0.0878
   23CHL1   H2B 2857   1.181   4.524   5.866 -0.0800  0.4037 -2.4186
   23CHL1   C20 2858   1.455   4.666   4.950 -0.7939  0.3132  1.0337
   23CHL1   H20 2859   1.470   4.563   4.989 -3.3699 -1.1719 -1.5388
   23CHL1   C21 2860   1.586   4.726   4.889 -0.4102  0.3929 -0.2938
   23CHL1  H21A 2861   1.568   4.827   4.848  2.8407 -0.0618 -3.3504
   23CHL1  H21B 2862   1.628   4.663   4.808  0.1290 -0.4501  0.6119
   23CHL1  H21C 2863   1.662   4.733   4.970  1.5615  0.8374 -2.0901
   23CHL1   C22 2864   1.352   4.645   4.830 -0.3082  0.3317  0.2236
   23CHL1  H22A 2865   1.258   4.616   4.882  0.1421  0.4195  1.1000
   23CHL1  H22B 2866   1.346   4.738   4.770  2.6789 -1.6399 -3.6431
   23CHL1   C23 2867   1.381   4.529   4.734 -0.2350 -0.6326  0.6438
   23CHL1  H23A 2868   1.461   4.551   4.661 -1.1689 -4.0199 -1.6213
   23CHL1  H23B 2869   1.416   4.447   4.800  0.7379  1.1353  2.4283
   23CHL1   C24 2870   1.263   4.496   4.640  0.4442  0.0625  0.3372
   23CHL1  H24A 2871   1.187   4.459   4.712  0.7496 -0.2195  0.5186
   23CHL1  H24B 2872   1.217   4.581   4.585 -1.9675 -2.0036 -1.0937
   23CHL1   C25 2873   1.276   4.386   4.528 -0.2643  0.1268 -0.6921
   23CHL1   H25 2874   1.326   4.295   4.567  1.4002  0.4310 -2.0427
   23CHL1   C26 2875   1.139   4.329   4.474 -0.5541 -0.4884  0.8517
   23CHL1  H26A 2876   1.083   4.416   4.433  2.8167  1.2368 -0.4987
   23CHL1  H26B 2877   1.156   4.255   4.393  2.6759 -0.0681  1.0061
   23CHL1  H26C 2878   1.082   4.274   4.552 -0.2548 -1.1579  0.6055
   23CHL1   C27 2879   1.371   4.426   4.416  0.0180 -0.0616 -0.6339
   23CHL1  H27A 2880   1.469   4.458   4.458 -0.8419 -2.0533  3.3744
   23CHL1  H27B 2881   1.394   4.342   4.348 -0.9878  0.0640 -1.1329
   23CHL1  H27C 2882   1.325   4.514   4.367  0.1520 -0.1869 -0.9826
   24CHL1    C3 2883   3.384   4.610   6.376  0.0975  0.6673 -0.3297
   24CHL1    H3 2884   3.313   4.525   6.377  0.9809 -0.2413  3.4864
   24CHL1    O3 2885   3.388   4.654   6.510  0.5647  0.0930 -0.3790
   24CHL1   H3' 2886   3.416   4.583   6.568  0.6611 -0.2573 -0.8436
   24CHL1    C4 2887   3.528   4.558   6.332 -0.4604  0.1138 -0.0117
   24CHL1   H4A 2888   3.586   4.648   6.361 -0.6991  0.5473 -0.8440
   24CHL1   H4B 2889   3.558   4.472   6.396  1.7519 -0.9649 -2.3524
   24CHL1    C5 2890   3.531   4.526   6.185 -0.3943 -0.1469 -0.4353
   24CHL1    C6 2891   3.566   4.404   6.147  0.2451  0.9569  0.7734
   24CHL1    H6 2892   3.591   4.324   6.218  0.9390  2.1222  1.8828
   24CHL1    C7 2893   3.575   4.354   6.001  0.0458 -0.4532 -0.0675
   24CHL1   H7A 2894   3.667   4.292   5.990 -0.6055 -1.2419 -1.3275
   24CHL1   H7B 2895   3.484   4.298   5.973 -2.0055  2.3285  0.6679
   24CHL1    C8 2896   3.580   4.482   5.909 -0.2217  0.0714  0.8620
   24CHL1    H8 2897   3.676   4.534   5.930  0.2664 -0.0626 -0.8507
   24CHL1   C14 2898   3.573   4.451   5.757 -1.1138  0.2553 -0.1808
   24CHL1   H14 2899   3.472   4.410   5.741 -0.8742 -1.1641  1.6897
   24CHL1   C15 2900   3.677   4.349   5.709  0.5588  0.0556  0.6183
   24CHL1  H15A 2901   3.781   4.368   5.744  1.5468 -1.2915 -1.3836
   24CHL1  H15B 2902   3.644   4.249   5.746  0.5904 -0.1199  0.1828
   24CHL1   C16 2903   3.682   4.364   5.560  0.8492  0.0239 -0.4245
   24CHL1  H16A 2904   3.783   4.378   5.514  0.5560 -0.3726 -1.1895
   24CHL1  H16B 2905   3.627   4.281   5.511 -0.9408  0.6305  0.4760
   24CHL1   C17 2906   3.603   4.491   5.530  0.4860  0.2731  0.4603
   24CHL1   H17 2907   3.498   4.465   5.506  0.4560  0.9269 -0.1636
   24CHL1   C13 2908   3.582   4.574   5.661 -0.9703  0.4281  0.3188
   24CHL1   C18 2909   3.714   4.648   5.682 -0.6144 -0.2973  1.0393
   24CHL1  H18A 2910   3.806   4.586   5.672 -0.3295  0.3464 -0.5099
   24CHL1  H18B 2911   3.718   4.735   5.614 -0.4980  0.8512  2.4653
   24CHL1  H18C 2912   3.716   4.700   5.781  2.8180 -0.8218  1.3625
   24CHL1   C12 2913   3.461   4.655   5.688 -0.9655  0.3614  0.5124
   24CHL1  H12A 2914   3.450   4.739   5.615 -0.3202  1.0135  1.1348
   24CHL1  H12B 2915   3.366   4.599   5.681 -0.2277 -1.0537  1.4135
   24CHL1   C11 2916   3.453   4.704   5.833 -0.3056 -0.1879  0.5002
   24CHL1  H11A 2917   3.529   4.784   5.850  3.0738 -3.0410 -0.0623
   24CHL1  H11B 2918   3.354   4.752   5.852 -0.9803 -0.5542 -1.8168
   24CHL1    C9 2919   3.474   4.590   5.941 -0.1332  0.0755  0.3044
   24CHL1    H9 2920   3.378   4.534   5.938 -1.0723  1.3861  2.8870
   24CHL1   C10 2921   3.491   4.636   6.090  0.2600 -0.2061  0.6328
   24CHL1   C19 2922   3.601   4.751   6.096  0.4031 -0.5701 -0.0908
   24CHL1  H19A 2923   3.689   4.732   6.031 -0.1251 -0.1104 -0.9672
   24CHL1  H19B 2924   3.559   4.854   6.091  0.4454 -0.5940 -1.1526
   24CHL1  H19C 2925   3.653   4.756   6.194  1.2025  2.9684 -0.5520
   24CHL1    C1 2926   3.358   4.682   6.148  0.0803 -0.4201 -0.9597
   24CHL1   H1A 2927   3.322   4.766   6.085  1.2516 -0.0784 -1.1948
   24CHL1   H1B 2928   3.282   4.602   6.140  0.0749 -0.6499  0.9042
   24CHL1    C2 2929   3.352   4.731   6.295  0.0477 -0.0281 -0.5455
   24CHL1   H2A 2930   3.254   4.766   6.336  0.4477  2.2575 -1.3773
   24CHL1   H2B 2931   3.427   4.811   6.311 -0.7767  0.8346 -0.8834
   24CHL1   C20 2932   3.644   4.555   5.400  0.3223 -0.3586 -0.1943
   24CHL1   H20 2933   3.744   4.593   5.432 -0.9896  1.0717  2.5204
   24CHL1   C21 2934   3.557   4.673   5.360  0.5051 -0.7260 -0.2081
   24CHL1  H21A 2935   3.448   4.648   5.358  0.6962 -1.6045 -2.2146
   24CHL1  H21B 2936   3.561   4.707   5.255 -1.9712  0.8939  0.1407
   24CHL1  H21C 2937   3.579   4.761   5.424 -2.9563  0.3569 -0.2951
   24CHL1   C22 2938   3.653   4.449   5.279 -0.0890 -0.0430 -0.8263
   24CHL1  H22A 2939   3.751   4.398   5.298  0.4535  1.3332  0.2122
   24CHL1  H22B 2940   3.566   4.380   5.289 -0.6364  0.9830  3.3231
   24CHL1   C23 2941   3.667   4.516   5.139  0.6491  0.7969 -0.1401
   24CHL1  H23A 2942   3.567   4.550   5.105  0.8841  0.1258 -1.5706
   24CHL1  H23B 2943   3.743   4.596   5.145  0.7224  0.6815  0.5201
   24CHL1   C24 2944   3.728   4.416   5.034  0.5686  0.2562 -0.2831
   24CHL1  H24A 2945   3.826   4.383   5.074 -0.4898 -0.1823  2.1622
   24CHL1  H24B 2946   3.671   4.320   5.033 -0.3237  0.7703 -0.0398
   24CHL1   C25 2947   3.758   4.469   4.891 -0.2668  0.6521 -0.5286
   24CHL1   H25 2948   3.856   4.522   4.899  0.2101 -0.2350 -0.3524
   24CHL1   C26 2949   3.766   4.365   4.780 -0.0513  0.1443 -0.7865
   24CHL1  H26A 2950   3.679   4.298   4.791 -0.0031  0.5028  2.9037
   24CHL1  H26B 2951   3.778   4.415   4.682  0.5912  0.3481 -0.6126
   24CHL1  H26C 2952   3.863   4.311   4.794 -0.4321  0.2013  3.0371
   24CHL1   C27 2953   3.674   4.578   4.839 -0.1024 -0.3241 -0.2445
   24CHL1  H27A 2954   3.568   4.552   4.820 -0.6231  1.0031  0.7084
   24CHL1  H27B 2955   3.667   4.657   4.917 -0.7962 -1.9199  1.4029
   24CHL1  H27C 2956   3.706   4.626   4.745  0.5376 -0.7312 -0.2465
   25CHL1    C3 2957   6.875   1.202   6.135  0.0949  0.3589 -0.4157
   25CHL1    H3 2958   6.793   1.271   6.106 -2.3804 -1.0687  2.5856
   25CHL1    O3 2959   6.879   1.213   6.276  0.0480  0.2213 -0.2365
   25CHL1   H3' 2960   6.969   1.186   6.298 -1.0809 -1.2340  3.3689
   25CHL1    C4 2961   6.843   1.054   6.099 -0.3144  0.3250 -0.0016
   25CHL1   H4A 2962   6.928   0.990   6.130  0.5589  1.6807  0.5140
   25CHL1   H4B 2963   6.754   1.023   6.160 -0.2490  1.2120  0.5637
   25CHL1    C5 2964   6.825   1.033   5.950 -1.0890  0.0794 -0.1517
   25CHL1    C6 2965   6.710   0.984   5.902  0.1219 -0.0872  0.0653
   25CHL1    H6 2966   6.626   0.952   5.965 -1.0846 -0.3628 -1.6080
   25CHL1    C7 2967   6.684   0.969   5.748 -0.2928  0.4060 -0.2164
   25CHL1   H7A 2968   6.640   0.871   5.720  0.2724  0.4971 -1.4829
   25CHL1   H7B 2969   6.610   1.049   5.728 -1.4873 -0.3967  0.8293
   25CHL1    C8 2970   6.812   0.999   5.664 -0.9366  0.2033 -0.1570
   25CHL1    H8 2971   6.879   0.911   5.667  0.7043  1.0804 -4.4711
   25CHL1   C14 2972   6.775   1.028   5.520 -0.1565 -0.0134  0.0341
   25CHL1   H14 2973   6.718   1.122   5.507  0.2150 -0.0044 -1.7859
   25CHL1   C15 2974   6.684   0.926   5.448 -0.3316 -0.5908 -0.7126
   25CHL1  H15A 2975   6.728   0.825   5.454 -0.5269 -0.9202 -3.4333
   25CHL1  H15B 2976   6.580   0.931   5.487 -1.5193  0.4600 -3.7148
   25CHL1   C16 2977   6.698   0.969   5.295  0.0423 -0.2109 -0.6453
   25CHL1  H16A 2978   6.718   0.881   5.230  1.5786 -0.8890  0.6957
   25CHL1  H16B 2979   6.609   1.024   5.257  0.3945  0.3209 -0.7177
   25CHL1   C17 2980   6.819   1.066   5.287  0.0444 -0.1864  0.7374
   25CHL1   H17 2981   6.788   1.173   5.288 -0.3010 -0.2027 -1.6246
   25CHL1   C13 2982   6.891   1.054   5.429  0.2051  0.4912  0.8855
   25CHL1   C18 2983   6.991   0.933   5.418 -0.1300  0.4131 -0.7077
   25CHL1  H18A 2984   7.077   0.942   5.348 -1.0441  2.3645 -1.6465
   25CHL1  H18B 2985   7.030   0.893   5.514 -0.7445 -2.0456 -1.4068
   25CHL1  H18C 2986   6.937   0.846   5.374 -0.4797  0.0320  0.4566
   25CHL1   C12 2987   6.959   1.181   5.472  0.4708 -0.2876  0.5354
   25CHL1  H12A 2988   7.044   1.208   5.405  0.2002 -1.2267 -0.2236
   25CHL1  H12B 2989   6.873   1.250   5.471  0.6351 -0.0500 -1.4696
   25CHL1   C11 2990   7.000   1.168   5.622  0.8495 -0.2933 -0.2674
   25CHL1  H11A 2991   7.090   1.103   5.626  1.0844  0.0576  0.3872
   25CHL1  H11B 2992   7.027   1.272   5.654  0.0190 -0.4374  0.9461
   25CHL1    C9 2993   6.897   1.112   5.724 -0.0524  0.0882 -0.2772
   25CHL1    H9 2994   6.818   1.190   5.728 -1.9014 -1.7033  0.6039
   25CHL1   C10 2995   6.940   1.091   5.866  0.1283  0.1021  0.4494
   25CHL1   C19 2996   7.056   0.994   5.875  0.0487 -0.2818 -0.0783
   25CHL1  H19A 2997   7.151   1.032   5.833  0.8649 -2.8594 -0.7013
   25CHL1  H19B 2998   7.081   0.969   5.980 -0.0392  0.4863  0.1320
   25CHL1  H19C 2999   7.043   0.895   5.826  1.6285 -0.0370 -1.0626
   25CHL1    C1 3000   6.984   1.228   5.924  0.3219  0.3440 -0.2823
   25CHL1   H1A 3001   7.085   1.257   5.888  1.7841 -1.6374  1.9434
   25CHL1   H1B 3002   6.917   1.303   5.877  0.5463 -0.3945 -1.8440
   25CHL1    C2 3003   7.003   1.238   6.074 -0.3331 -0.6002  0.3169
   25CHL1   H2A 3004   7.026   1.341   6.108 -1.0127  0.2656 -1.6626
   25CHL1   H2B 3005   7.085   1.172   6.109 -1.0356 -1.0778  1.0794
   25CHL1   C20 3006   6.898   1.060   5.148  0.3479  0.2450 -0.9526
   25CHL1   H20 3007   6.946   0.961   5.135  1.1486  0.7463 -1.8659
   25CHL1   C21 3008   7.009   1.167   5.154  0.3741  0.5551  0.5181
   25CHL1  H21A 3009   6.976   1.272   5.167 -0.2198  0.3950  0.3448
   25CHL1  H21B 3010   7.062   1.171   5.056 -1.8789 -1.0054 -0.8431
   25CHL1  H21C 3011   7.077   1.133   5.235 -0.2002 -0.9925  0.3849
   25CHL1   C22 3012   6.808   1.084   5.024 -0.2465  0.4485 -1.2879
   25CHL1  H22A 3013   6.871   1.073   4.933  1.0677 -0.2781 -0.3275
   25CHL1  H22B 3014   6.753   0.988   5.013  1.0496 -0.6565  1.1360
   25CHL1   C23 3015   6.719   1.205   5.029  0.6628  0.0057 -0.0667
   25CHL1  H23A 3016   6.642   1.195   5.108 -0.7061 -1.3467 -1.4860
   25CHL1  H23B 3017   6.778   1.297   5.049 -0.0610  0.1208  1.7682
   25CHL1   C24 3018   6.636   1.224   4.902 -0.1322  0.2520  0.2372
   25CHL1  H24A 3019   6.694   1.208   4.809 -0.3119  0.6208  0.0596
   25CHL1  H24B 3020   6.551   1.154   4.889  0.6799 -0.1260 -5.3017
   25CHL1   C25 3021   6.562   1.356   4.891  0.0158 -0.3935 -0.1195
   25CHL1   H25 3022   6.498   1.348   4.800  1.3177  1.9233 -1.3434
   25CHL1   C26 3023   6.466   1.384   5.016  0.1378  0.1813 -0.2673
   25CHL1  H26A 3024   6.528   1.388   5.108  1.6782 -3.3642 -0.9844
   25CHL1  H26B 3025   6.403   1.475   5.009 -0.0094  0.0729 -0.3649
   25CHL1  H26C 3026   6.389   1.306   5.035 -1.4376  2.0209  1.3023
   25CHL1   C27 3027   6.648   1.475   4.855 -0.4504  0.2725 -0.8172
   25CHL1  H27A 3028   6.582   1.561   4.832 -0.6331  0.6751  1.0219
   25CHL1  H27B 3029   6.734   1.493   4.923 -0.9170 -1.6015  0.3376
   25CHL1  H27C 3030   6.707   1.444   4.767  1.0307  1.4008 -0.2617
   26CHL1    C3 3031   3.199   5.285   6.319  0.2344  0.1959 -0.1513
   26CHL1    H3 3032   3.088   5.280   6.311  0.3469 -1.8375 -1.1680
   26CHL1    O3 3033   3.226   5.308   6.457 -0.0042 -0.0178 -0.1641
   26CHL1   H3' 3034   3.294   5.375   6.454 -0.2662  0.2366 -0.4932
   26CHL1    C4 3035   3.270   5.158   6.283  0.5180 -0.1731  0.4013
   26CHL1   H4A 3036   3.380   5.175   6.286  0.4635  1.0380 -2.0511
   26CHL1   H4B 3037   3.245   5.079   6.358  0.3877 -1.3795 -0.8854
   26CHL1    C5 3038   3.224   5.110   6.145 -0.0610 -0.5433 -0.4128
   26CHL1    C6 3039   3.154   4.998   6.124 -0.3298  0.1241 -0.4358
   26CHL1    H6 3040   3.127   4.931   6.207 -0.2849 -0.4535 -0.8812
   26CHL1    C7 3041   3.102   4.940   5.997  0.2415 -0.1277  0.2906
   26CHL1   H7A 3042   3.121   4.831   5.996  0.8063 -0.0425  0.7345
   26CHL1   H7B 3043   2.994   4.961   6.012  1.1460  4.6290  1.8698
   26CHL1    C8 3044   3.182   5.014   5.881  0.3266  0.2981  0.0512
   26CHL1    H8 3045   3.286   4.974   5.879  1.0202  2.0195  0.5094
   26CHL1   C14 3046   3.114   4.982   5.748  0.4052  0.5906  0.3402
   26CHL1   H14 3047   3.011   5.024   5.747 -0.8825 -2.0599 -3.9240
   26CHL1   C15 3048   3.091   4.836   5.708 -0.0721  0.5120  0.5282
   26CHL1  H15A 3049   3.182   4.773   5.715 -0.0438  0.3765 -0.7674
   26CHL1  H15B 3050   3.006   4.797   5.768 -0.4973 -1.0846 -1.0270
   26CHL1   C16 3051   3.056   4.850   5.558 -0.2981 -0.4171 -0.1062
   26CHL1  H16A 3052   3.118   4.771   5.512 -1.4374 -1.7849  0.6281
   26CHL1  H16B 3053   2.950   4.825   5.538  0.2825 -2.8594 -0.4089
   26CHL1   C17 3054   3.103   4.992   5.511  0.6097  0.3770  0.1224
   26CHL1   H17 3055   3.005   5.044   5.507  0.2555 -0.1823  1.0986
   26CHL1   C13 3056   3.182   5.051   5.626 -0.2168  0.0961  0.2366
   26CHL1   C18 3057   3.330   4.996   5.613  0.4592  0.5829 -0.3280
   26CHL1  H18A 3058   3.386   5.006   5.708  1.3458  0.2796 -0.8164
   26CHL1  H18B 3059   3.347   4.895   5.570  0.9509 -0.1821  1.5477
   26CHL1  H18C 3060   3.383   5.063   5.543  0.2352  0.4065 -0.6688
   26CHL1   C12 3061   3.175   5.205   5.639 -0.3139  0.0815 -0.1525
   26CHL1  H12A 3062   3.214   5.256   5.549 -0.7367  0.9739  0.1573
   26CHL1  H12B 3063   3.065   5.223   5.635 -0.1771  0.6547 -1.7632
   26CHL1   C11 3064   3.243   5.255   5.771  0.5684 -0.6113 -0.0861
   26CHL1  H11A 3065   3.353   5.249   5.755  0.5815 -1.5626  0.2886
   26CHL1  H11B 3066   3.220   5.363   5.776  1.2451 -0.1699 -3.7263
   26CHL1    C9 3067   3.193   5.170   5.894 -0.1289 -0.7164  0.1872
   26CHL1    H9 3068   3.086   5.198   5.905  0.0044  0.0029 -0.2849
   26CHL1   C10 3069   3.254   5.211   6.031  0.0325 -0.1930 -0.6036
   26CHL1   C19 3070   3.407   5.212   6.010 -0.6045 -0.1636  1.4073
   26CHL1  H19A 3071   3.450   5.123   5.960  1.0236 -0.3628  3.0630
   26CHL1  H19B 3072   3.444   5.303   5.957  0.5706 -0.0026  2.4617
   26CHL1  H19C 3073   3.464   5.208   6.105  1.8437  1.0723  0.0753
   26CHL1    C1 3074   3.209   5.354   6.075 -0.4202  0.3746  0.4456
   26CHL1   H1A 3075   3.255   5.422   6.000  0.1778 -0.5001  0.0081
   26CHL1   H1B 3076   3.097   5.354   6.076 -0.4344  1.4441  2.0408
   26CHL1    C2 3077   3.249   5.396   6.220 -0.0817  0.8983  0.7681
   26CHL1   H2A 3078   3.202   5.492   6.250 -0.4523  0.3672  1.9455
   26CHL1   H2B 3079   3.360   5.401   6.227 -0.0168  1.3186 -0.3760
   26CHL1   C20 3080   3.159   4.979   5.371  0.0865  0.2392  0.2360
   26CHL1   H20 3081   3.239   4.903   5.361 -2.4864 -2.7683  0.9439
   26CHL1   C21 3082   3.216   5.111   5.312 -0.0097 -0.7716 -0.0649
   26CHL1  H21A 3083   3.289   5.160   5.378  0.4343  1.5637 -2.1528
   26CHL1  H21B 3084   3.129   5.180   5.302  1.0194  0.3844 -1.3806
   26CHL1  H21C 3085   3.262   5.101   5.211 -1.3469 -1.7148 -0.6223
   26CHL1   C22 3086   3.042   4.935   5.278 -0.6118 -1.4126 -0.5757
   26CHL1  H22A 3087   3.001   4.835   5.307 -1.4856 -1.7967 -2.9419
   26CHL1  H22B 3088   2.958   5.003   5.302  0.5196 -0.6967  1.6290
   26CHL1   C23 3089   3.093   4.912   5.132 -0.3712 -0.5715  0.3245
   26CHL1  H23A 3090   3.125   5.008   5.085  1.7215  0.1034  2.8992
   26CHL1  H23B 3091   3.185   4.850   5.125 -1.3902 -2.2079  0.7823
   26CHL1   C24 3092   2.989   4.834   5.046 -0.1085 -0.5472 -0.0910
   26CHL1  H24A 3093   2.969   4.740   5.102  0.0058 -1.7120 -1.9075
   26CHL1  H24B 3094   2.893   4.887   5.033 -0.1527 -0.7221 -0.4943
   26CHL1   C25 3095   3.040   4.799   4.900 -0.0693  0.7506 -0.0853
   26CHL1   H25 3096   3.138   4.750   4.920 -1.7958 -1.3745  4.3254
   26CHL1   C26 3097   2.951   4.690   4.833  0.0021 -0.1020 -1.1694
   26CHL1  H26A 3098   2.983   4.669   4.728  2.1404  1.4003 -0.8834
   26CHL1  H26B 3099   2.949   4.597   4.893  1.8986  0.7981  0.4070
   26CHL1  H26C 3100   2.849   4.732   4.818  0.8169  1.2987 -3.2743
   26CHL1   C27 3101   3.041   4.923   4.814  0.5588  0.6985  0.7055
   26CHL1  H27A 3102   3.099   5.011   4.849  0.0692  1.0941  0.5287
   26CHL1  H27B 3103   3.088   4.904   4.715 -1.8462  0.7634 -0.5219
   26CHL1  H27C 3104   2.935   4.951   4.800  0.4078  0.1900  0.8176
   27CHL1    C3 3105   1.870   4.354   6.319 -0.3184  0.5273  0.2707
   27CHL1    H3 3106   1.967   4.301   6.314 -0.3860 -0.4585  4.9358
   27CHL1    O3 3107   1.830   4.368   6.453  0.1065 -0.0745 -0.0391
   27CHL1   H3' 3108   1.913   4.387   6.498 -1.1657 -2.4127  3.7226
   27CHL1    C4 3109   1.883   4.496   6.257 -0.1746  0.0933  0.1578
   27CHL1   H4A 3110   1.790   4.553   6.276  0.2128  0.7584  0.0827
   27CHL1   H4B 3111   1.968   4.536   6.317  0.2966 -1.4675  0.5796
   27CHL1    C5 3112   1.898   4.489   6.106 -0.7732  0.8565 -0.1245
   27CHL1    C6 3113   2.002   4.554   6.056 -0.3820 -0.8311 -0.5007
   27CHL1    H6 3114   2.077   4.600   6.122 -0.2850 -1.8896  0.1349
   27CHL1    C7 3115   2.026   4.542   5.907 -0.7087 -0.6747 -0.0445
   27CHL1   H7A 3116   2.068   4.640   5.877  0.9283 -0.5403  2.4514
   27CHL1   H7B 3117   2.103   4.467   5.879 -0.8663 -0.3125 -1.5761
   27CHL1    C8 3118   1.906   4.507   5.825 -0.2524  0.1858  0.0308
   27CHL1    H8 3119   1.842   4.598   5.820  3.0037  2.6139 -1.7096
   27CHL1   C14 3120   1.958   4.468   5.683 -0.4492  0.1798  0.1258
   27CHL1   H14 3121   2.024   4.380   5.697 -0.0516  0.6130  1.0964
   27CHL1   C15 3122   2.058   4.573   5.621  0.1765  0.3071 -0.5045
   27CHL1  H15A 3123   2.026   4.677   5.643  0.4786  0.6400 -1.5944
   27CHL1  H15B 3124   2.158   4.557   5.668 -0.5062  2.0723  1.7618
   27CHL1   C16 3125   2.042   4.535   5.473  0.3116 -0.1791 -1.1609
   27CHL1  H16A 3126   2.021   4.632   5.424  0.2792  0.9574  0.9672
   27CHL1  H16B 3127   2.132   4.479   5.439  1.2155 -0.4150  1.3997
   27CHL1   C17 3128   1.922   4.438   5.453 -0.5754 -0.5049 -0.3784
   27CHL1   H17 3129   1.968   4.337   5.444  2.4805  0.5939  1.0728
   27CHL1   C13 3130   1.851   4.434   5.588 -0.4677 -0.2188  0.3235
   27CHL1   C18 3131   1.752   4.553   5.580  0.0247  0.3302 -0.2725
   27CHL1  H18A 3132   1.700   4.581   5.674 -0.8082  0.6223 -0.8059
   27CHL1  H18B 3133   1.815   4.637   5.542  0.2832  1.0302  1.5904
   27CHL1  H18C 3134   1.666   4.528   5.514  0.0818  0.9573 -0.5964
   27CHL1   C12 3135   1.779   4.308   5.637 -0.2419  0.9857  0.5974
   27CHL1  H12A 3136   1.691   4.276   5.578  1.1091  2.4544 -2.3888
   27CHL1  H12B 3137   1.848   4.221   5.629 -1.6272 -0.2707  1.7636
   27CHL1   C11 3138   1.737   4.320   5.784 -0.0247 -0.7909 -0.3477
   27CHL1  H11A 3139   1.638   4.370   5.791  0.5357  0.3764 -0.5059
   27CHL1  H11B 3140   1.722   4.217   5.822 -0.3750  0.1005  2.1230
   27CHL1    C9 3141   1.839   4.380   5.880 -1.0632  0.2344  0.7205
   27CHL1    H9 3142   1.926   4.314   5.864 -1.8843 -0.8356  0.5589
   27CHL1   C10 3143   1.799   4.391   6.026  0.1009  0.1463 -0.3954
   27CHL1   C19 3144   1.653   4.467   6.034 -0.9019 -0.7704  0.4863
   27CHL1  H19A 3145   1.574   4.410   5.981 -1.3147  0.0017  0.2589
   27CHL1  H19B 3146   1.626   4.491   6.138  1.6472 -1.1073  1.3104
   27CHL1  H19C 3147   1.659   4.564   5.980 -1.5356 -1.8683 -1.6876
   27CHL1    C1 3148   1.788   4.253   6.095  0.7424 -0.6678  0.1627
   27CHL1   H1A 3149   1.715   4.186   6.046 -0.1803 -0.5908  1.3872
   27CHL1   H1B 3150   1.887   4.202   6.085 -0.1413 -2.0980 -1.8319
   27CHL1    C2 3151   1.764   4.268   6.252  0.0848  0.0503  0.2887
   27CHL1   H2A 3152   1.749   4.174   6.310  1.4421 -2.2497 -2.8260
   27CHL1   H2B 3153   1.674   4.333   6.256  0.4005  0.5611 -0.5895
   27CHL1   C20 3154   1.835   4.461   5.324 -0.0469  0.0582 -0.0063
   27CHL1   H20 3155   1.771   4.552   5.330  0.3617  0.2741  1.3008
   27CHL1   C21 3156   1.734   4.341   5.309  0.4875 -0.3991  0.1972
   27CHL1  H21A 3157   1.660   4.331   5.391  0.8956 -1.1264  0.4839
   27CHL1  H21B 3158   1.797   4.253   5.287  3.6094  2.1999 -2.1613
   27CHL1  H21C 3159   1.668   4.349   5.220  2.6058 -1.5430 -1.5642
   27CHL1   C22 3160   1.923   4.475   5.193  0.0878  1.2531  0.1909
   27CHL1  H22A 3161   1.987   4.566   5.196  0.7361  0.8416 -0.7253
   27CHL1  H22B 3162   2.000   4.395   5.196 -0.1849  0.9026 -1.3587
   27CHL1   C23 3163   1.855   4.466   5.053  0.5521 -0.2042  0.2509
   27CHL1  H23A 3164   1.782   4.383   5.037 -1.6619  1.7368 -0.2483
   27CHL1  H23B 3165   1.789   4.555   5.054  1.2496  0.3268 -0.2285
   27CHL1   C24 3166   1.950   4.484   4.927 -0.0908  0.3524 -0.3697
   27CHL1  H24A 3167   2.031   4.557   4.949  0.7511 -0.9652  1.0194
   27CHL1  H24B 3168   1.994   4.383   4.926  0.4971  0.5693 -2.4941
   27CHL1   C25 3169   1.881   4.517   4.793 -0.2302 -0.3360 -0.0855
   27CHL1   H25 3170   1.815   4.601   4.822  2.3644  1.5439  0.6767
   27CHL1   C26 3171   1.986   4.566   4.693 -0.1328 -0.7309  0.2682
   27CHL1  H26A 3172   2.068   4.492   4.703  0.4907 -0.2876 -1.2794
   27CHL1  H26B 3173   1.945   4.569   4.590 -0.0454 -1.2426  0.2151
   27CHL1  H26C 3174   2.028   4.666   4.716 -2.5224  1.0871 -2.6100
   27CHL1   C27 3175   1.812   4.395   4.734  0.7292 -0.1034 -0.5453
   27CHL1  H27A 3176   1.891   4.322   4.706  2.3738  0.9428  1.2221
   27CHL1  H27B 3177   1.748   4.420   4.646 -2.0589  1.9650  1.8928
   27CHL1  H27C 3178   1.745   4.356   4.813  0.8445  4.4655  2.1181
   28CHL1    C3 3179   6.768   2.099   6.424  0.0208  0.2464 -0.4966
   28CHL1    H3 3180   6.852   2.170   6.442 -0.3852  0.6514 -0.1644
   28CHL1    O3 3181   6.729   2.050   6.549 -0.1789  0.3236 -0.3654
   28CHL1   H3' 3182   6.747   2.120   6.611 -0.2744 -1.2887  1.5781
   28CHL1    C4 3183   6.647   2.163   6.350 -0.5576 -0.2452  0.2368
   28CHL1   H4A 3184   6.564   2.091   6.333 -1.3866  0.5648  0.7678
   28CHL1   H4B 3185   6.614   2.253   6.407 -1.8688 -2.0181  2.4104
   28CHL1    C5 3186   6.695   2.205   6.205  0.3198  0.6826 -0.6908
   28CHL1    C6 3187   6.695   2.332   6.164 -0.3974 -0.0218  0.1254
   28CHL1    H6 3188   6.687   2.410   6.241  1.6785  0.0229  0.3629
   28CHL1    C7 3189   6.725   2.381   6.025  0.2008  0.2653  0.7421
   28CHL1   H7A 3190   6.638   2.447   6.006 -0.0768 -0.2024  0.3793
   28CHL1   H7B 3191   6.813   2.450   6.026  0.1583  0.3349  2.7519
   28CHL1    C8 3192   6.724   2.269   5.921 -0.5852 -0.0748  0.1295
   28CHL1    H8 3193   6.620   2.233   5.906 -0.6684 -0.2884  1.1625
   28CHL1   C14 3194   6.780   2.320   5.788 -0.3334  0.8635  0.6978
   28CHL1   H14 3195   6.886   2.342   5.810  0.4962  0.3961 -2.4462
   28CHL1   C15 3196   6.727   2.450   5.731 -0.3614  0.4646 -0.1148
   28CHL1  H15A 3197   6.616   2.450   5.738 -0.4380 -2.5367 -0.3980
   28CHL1  H15B 3198   6.754   2.540   5.792 -0.8568 -0.3318  1.3245
   28CHL1   C16 3199   6.781   2.449   5.589 -0.1993  0.4188 -0.5947
   28CHL1  H16A 3200   6.693   2.451   5.520 -1.4802 -1.1190  0.9066
   28CHL1  H16B 3201   6.854   2.529   5.567 -0.5265  1.1179  0.7603
   28CHL1   C17 3202   6.844   2.304   5.562 -0.1159  0.4782  0.2534
   28CHL1   H17 3203   6.951   2.309   5.594  0.1801  0.5570 -0.7358
   28CHL1   C13 3204   6.792   2.210   5.674 -0.5091  0.0432 -0.3884
   28CHL1   C18 3205   6.650   2.165   5.643 -0.5676  0.3076 -0.2608
   28CHL1  H18A 3206   6.598   2.120   5.729  0.2174 -0.0169  0.0510
   28CHL1  H18B 3207   6.578   2.242   5.606 -4.4427 -2.3882  1.0568
   28CHL1  H18C 3208   6.660   2.089   5.563 -2.4629 -0.0855 -0.1662
   28CHL1   C12 3209   6.877   2.097   5.730  0.9635  0.7693 -0.1254
   28CHL1  H12A 3210   6.867   2.004   5.669  0.0634 -0.3347  1.6253
   28CHL1  H12B 3211   6.983   2.130   5.734  0.6954  1.4847  2.8070
   28CHL1   C11 3212   6.824   2.037   5.865 -0.3364  0.1785 -0.2033
   28CHL1  H11A 3213   6.730   1.980   5.849 -0.0343 -0.8438  1.4734
   28CHL1  H11B 3214   6.909   1.973   5.895 -0.5896 -0.7716 -1.4443
   28CHL1    C9 3215   6.794   2.144   5.975 -0.1196  0.1131 -0.7541
   28CHL1    H9 3216   6.894   2.188   5.998  1.6519 -2.0031 -3.6719
   28CHL1   C10 3217   6.741   2.089   6.115  0.4229  0.7377  0.2731
   28CHL1   C19 3218   6.624   1.994   6.079 -0.4744 -0.3478 -0.4086
   28CHL1  H19A 3219   6.571   1.954   6.168 -0.6887 -0.4951 -0.6019
   28CHL1  H19B 3220   6.554   2.058   6.022  0.5353 -0.8254 -2.2858
   28CHL1  H19C 3221   6.656   1.910   6.013  0.8046  0.6177 -1.0687
   28CHL1    C1 3222   6.845   2.014   6.189 -0.2158  0.3573 -0.3938
   28CHL1   H1A 3223   6.856   1.912   6.146 -0.4491  0.2693 -0.2464
   28CHL1   H1B 3224   6.941   2.070   6.184 -0.5888  1.1342  0.6895
   28CHL1    C2 3225   6.810   1.982   6.338 -0.5963 -0.5095 -0.2368
   28CHL1   H2A 3226   6.905   1.940   6.377  0.8443 -0.0921 -3.0460
   28CHL1   H2B 3227   6.736   1.900   6.350  1.2866 -2.2756 -0.2419
   28CHL1   C20 3228   6.831   2.269   5.412  0.6144 -0.1519 -0.2586
   28CHL1   H20 3229   6.721   2.274   5.394 -0.1003  0.8947  3.5771
   28CHL1   C21 3230   6.891   2.131   5.401 -0.2990  0.0935  0.2420
   28CHL1  H21A 3231   6.998   2.130   5.429  0.4119  0.0821 -2.2808
   28CHL1  H21B 3232   6.891   2.098   5.295  0.1802 -0.6213  0.4544
   28CHL1  H21C 3233   6.826   2.058   5.454 -0.4488  1.1152  1.5315
   28CHL1   C22 3234   6.904   2.379   5.319 -0.2384  0.6321  0.3373
   28CHL1  H22A 3235   6.857   2.479   5.334 -1.5660  0.0977 -0.1243
   28CHL1  H22B 3236   7.006   2.390   5.360  0.4029 -2.2208 -0.2968
   28CHL1   C23 3237   6.926   2.331   5.173  0.1661 -0.5796  0.4682
   28CHL1  H23A 3238   7.002   2.251   5.167  1.0280  0.2855 -0.4551
   28CHL1  H23B 3239   6.823   2.305   5.140 -0.2962  0.3957  1.0995
   28CHL1   C24 3240   6.978   2.450   5.082  0.2698  0.9323 -0.1503
   28CHL1  H24A 3241   6.906   2.531   5.105 -1.1187 -1.1765  3.9814
   28CHL1  H24B 3242   7.081   2.481   5.110  0.6947 -0.2231 -0.3741
   28CHL1   C25 3243   6.956   2.418   4.935  0.0190  0.5504 -0.2250
   28CHL1   H25 3244   6.990   2.509   4.882  0.0815  1.6372  1.6087
   28CHL1   C26 3245   7.055   2.311   4.879 -0.4188  0.2886  0.2322
   28CHL1  H26A 3246   7.035   2.300   4.770  1.3686  0.7780 -0.1773
   28CHL1  H26B 3247   7.160   2.334   4.905  0.3895 -2.0945 -0.6664
   28CHL1  H26C 3248   7.028   2.215   4.928  0.1393  0.9302  1.8777
   28CHL1   C27 3249   6.813   2.382   4.903 -0.1354 -1.0902  0.3770
   28CHL1  H27A 3250   6.779   2.289   4.953 -1.7143 -0.2550  0.9546
   28CHL1  H27B 3251   6.744   2.459   4.945  0.3583 -0.7234  0.5182
   28CHL1  H27C 3252   6.799   2.374   4.793  0.5035  1.5648  0.0344
   29CHL1    C3 3253   1.528   5.404   6.314 -0.0173 -0.1939  0.1502
   29CHL1    H3 3254   1.527   5.314   6.249 -0.0724  0.8158 -1.3081
   29CHL1    O3 3255   1.500   5.383   6.453 -0.0549  0.1440 -0.1232
   29CHL1   H3' 3256   1.524   5.467   6.493 -1.5302  0.6601 -0.2613
   29CHL1    C4 3257   1.661   5.476   6.316  0.3204 -0.9211 -0.3588
   29CHL1   H4A 3258   1.642   5.572   6.369  0.7077 -0.6071 -0.7786
   29CHL1   H4B 3259   1.736   5.418   6.372  2.0821  1.6542  0.1290
   29CHL1    C5 3260   1.709   5.499   6.172  0.1952  0.2913 -0.7968
   29CHL1    C6 3261   1.817   5.445   6.114  0.5258  0.6217 -0.4207
   29CHL1    H6 3262   1.880   5.374   6.169  2.3682  1.4337 -1.4056
   29CHL1    C7 3263   1.877   5.470   5.977 -0.4546  0.0862  0.4806
   29CHL1   H7A 3264   1.982   5.504   5.976  0.1700 -1.6201  2.2673
   29CHL1   H7B 3265   1.869   5.375   5.919  2.4307  1.4134 -2.3835
   29CHL1    C8 3266   1.802   5.575   5.905  0.0979 -0.1271 -0.1329
   29CHL1    H8 3267   1.840   5.679   5.915 -2.3045  1.0704 -2.2643
   29CHL1   C14 3268   1.803   5.558   5.752 -0.1976 -0.2958  0.2554
   29CHL1   H14 3269   1.750   5.461   5.742 -0.9259 -0.1870  2.4661
   29CHL1   C15 3270   1.943   5.532   5.685  0.8824  0.5103  0.2430
   29CHL1  H15A 3271   2.020   5.603   5.721  0.6328  0.7020  0.4012
   29CHL1  H15B 3272   1.984   5.429   5.700 -0.7933 -0.4470 -1.3970
   29CHL1   C16 3273   1.918   5.558   5.533 -0.2935 -0.7615 -0.0663
   29CHL1  H16A 3274   1.983   5.641   5.498 -0.8579  0.6868  2.0970
   29CHL1  H16B 3275   1.924   5.467   5.470 -1.9743 -1.5314  0.8145
   29CHL1   C17 3276   1.769   5.612   5.518 -0.2979 -0.4147 -0.6310
   29CHL1   H17 3277   1.700   5.525   5.508 -0.0662 -0.7012  0.1793
   29CHL1   C13 3278   1.741   5.667   5.665  0.0728  0.4036 -0.2205
   29CHL1   C18 3279   1.813   5.802   5.688  0.5882 -0.3114  0.2054
   29CHL1  H18A 3280   1.918   5.808   5.654  0.0013 -0.6014 -1.7635
   29CHL1  H18B 3281   1.759   5.874   5.624  0.9995 -1.0734 -1.0416
   29CHL1  H18C 3282   1.804   5.832   5.795  1.3638  0.0899  0.1610
   29CHL1   C12 3283   1.593   5.675   5.702  0.0784  0.6347 -0.0235
   29CHL1  H12A 3284   1.541   5.759   5.650 -2.2721 -0.4924  0.4032
   29CHL1  H12B 3285   1.545   5.581   5.666  0.4178  0.8870 -1.1728
   29CHL1   C11 3286   1.573   5.696   5.856 -0.3521  0.8465 -0.3655
   29CHL1  H11A 3287   1.625   5.793   5.867  1.0801  0.1204 -0.5465
   29CHL1  H11B 3288   1.466   5.710   5.881 -0.0994  0.9516  0.7200
   29CHL1    C9 3289   1.644   5.586   5.942 -1.0734 -0.5052 -0.6709
   29CHL1    H9 3290   1.602   5.487   5.915 -0.7701 -0.9307  0.3799
   29CHL1   C10 3291   1.617   5.598   6.094  0.1012  0.0450 -0.0596
   29CHL1   C19 3292   1.636   5.748   6.141 -0.2002 -0.0059  0.3880
   29CHL1  H19A 3293   1.670   5.758   6.246  1.7324  1.2608 -0.3114
   29CHL1  H19B 3294   1.704   5.796   6.068 -0.4292 -1.1603 -0.6256
   29CHL1  H19C 3295   1.540   5.801   6.125 -0.0514 -0.1650 -1.2752
   29CHL1    C1 3296   1.469   5.544   6.117  0.3485  0.1550 -0.7048
   29CHL1   H1A 3297   1.404   5.622   6.071  0.8251  0.6477 -0.5539
   29CHL1   H1B 3298   1.452   5.453   6.056  0.9138  0.2428 -1.0003
   29CHL1    C2 3299   1.429   5.509   6.256  0.3246 -1.0527  0.5158
   29CHL1   H2A 3300   1.326   5.468   6.266 -0.5659  0.6367 -1.1824
   29CHL1   H2B 3301   1.440   5.605   6.310 -2.2045  0.5872 -1.6472
   29CHL1   C20 3302   1.749   5.712   5.400  0.0657 -0.0518 -0.6271
   29CHL1   H20 3303   1.805   5.806   5.413 -0.4010  0.4149 -1.8556
   29CHL1   C21 3304   1.601   5.750   5.381 -0.1398 -0.6091 -0.3798
   29CHL1  H21A 3305   1.584   5.836   5.450 -1.9236 -1.1591 -0.0974
   29CHL1  H21B 3306   1.526   5.675   5.412 -2.5462  2.3069  1.4366
   29CHL1  H21C 3307   1.578   5.785   5.278 -0.9652 -0.3347 -0.1133
   29CHL1   C22 3308   1.812   5.654   5.272 -0.6170 -0.3699 -0.5837
   29CHL1  H22A 3309   1.811   5.736   5.197 -3.5446 -1.3898 -1.8182
   29CHL1  H22B 3310   1.914   5.615   5.289 -1.7401 -2.8832  0.9942
   29CHL1   C23 3311   1.755   5.523   5.212 -0.4541 -0.0616 -0.0828
   29CHL1  H23A 3312   1.771   5.453   5.297 -0.6298 -3.4270 -2.6296
   29CHL1  H23B 3313   1.648   5.551   5.199 -0.0470  1.4911 -0.2557
   29CHL1   C24 3314   1.825   5.467   5.091  0.4941 -0.7295  0.0729
   29CHL1  H24A 3315   1.929   5.436   5.117 -0.0976 -2.0722  0.9137
   29CHL1  H24B 3316   1.777   5.372   5.059 -0.9878 -0.9937  2.8067
   29CHL1   C25 3317   1.831   5.551   4.960 -0.0812  0.2629 -0.2332
   29CHL1   H25 3318   1.873   5.652   4.975  0.5996 -0.2914  1.8324
   29CHL1   C26 3319   1.898   5.482   4.842  0.1741 -0.0633 -0.4567
   29CHL1  H26A 3320   2.009   5.477   4.850  0.1867 -0.9152 -0.9903
   29CHL1  H26B 3321   1.862   5.379   4.819  0.4101 -0.1586 -0.4058
   29CHL1  H26C 3322   1.869   5.546   4.756 -0.0665  0.4301 -0.0156
   29CHL1   C27 3323   1.686   5.568   4.917  0.3942 -0.3491  0.2684
   29CHL1  H27A 3324   1.647   5.470   4.882  1.2586  0.1857 -2.3997
   29CHL1  H27B 3325   1.621   5.611   4.996  0.7789  0.0867  0.3439
   29CHL1  H27C 3326   1.677   5.621   4.820 -3.7514 -2.3835 -0.6930
   30CHL1    C3 3327   3.002   5.656   5.991 -0.7694 -0.0404 -0.6773
   30CHL1    H3 3328   3.019   5.553   6.032  1.3395  0.3444 -0.4326
   30CHL1    O3 3329   2.942   5.729   6.099  0.5314  0.1230  0.7613
   30CHL1   H3' 3330   2.934   5.819   6.068  0.8004 -0.2760 -0.5172
   30CHL1    C4 3331   3.143   5.722   5.960 -0.7042  0.2421 -0.2525
   30CHL1   H4A 3332   3.137   5.833   5.953  0.9280  0.2693 -2.0390
   30CHL1   H4B 3333   3.213   5.714   6.046  1.0500  0.7668 -1.5833
   30CHL1    C5 3334   3.203   5.682   5.828 -0.7212  0.0039 -0.2119
   30CHL1    C6 3335   3.333   5.644   5.821 -1.3722 -1.1598  0.5620
   30CHL1    H6 3336   3.405   5.638   5.904  0.2802 -0.7066 -0.7827
   30CHL1    C7 3337   3.400   5.592   5.691 -0.1924  0.0955 -0.8023
   30CHL1   H7A 3338   3.502   5.634   5.678  1.0453 -1.8790  1.7126
   30CHL1   H7B 3339   3.411   5.482   5.690  1.9353  0.2603 -0.2055
   30CHL1    C8 3340   3.322   5.636   5.561 -0.2133  0.9953 -0.5052
   30CHL1    H8 3341   3.326   5.746   5.547 -3.0325  1.0318 -1.7247
   30CHL1   C14 3342   3.369   5.550   5.444 -0.4094 -0.0357  0.0224
   30CHL1   H14 3343   3.356   5.442   5.467 -1.7504  0.0863 -0.0951
   30CHL1   C15 3344   3.516   5.553   5.414  0.4425 -0.3303  0.1286
   30CHL1  H15A 3345   3.550   5.656   5.391 -0.4206 -0.3529 -1.4232
   30CHL1  H15B 3346   3.573   5.501   5.494  0.1613 -1.2044 -0.2366
   30CHL1   C16 3347   3.517   5.469   5.280  0.4621  1.1754 -1.0245
   30CHL1  H16A 3348   3.586   5.525   5.213  1.4109  1.1672 -0.0736
   30CHL1  H16B 3349   3.543   5.363   5.301  1.2998  1.2707 -1.5267
   30CHL1   C17 3350   3.371   5.468   5.221 -0.8383  0.3722 -0.2918
   30CHL1   H17 3351   3.330   5.370   5.255 -0.3527 -0.0667 -0.9579
   30CHL1   C13 3352   3.296   5.571   5.308  0.2602  0.6278 -0.6515
   30CHL1   C18 3353   3.321   5.716   5.262 -0.0107  0.0158  0.2441
   30CHL1  H18A 3354   3.266   5.731   5.166 -1.5213  0.3811  1.1417
   30CHL1  H18B 3355   3.272   5.785   5.334 -2.5198  0.4783 -1.7546
   30CHL1  H18C 3356   3.426   5.747   5.244 -0.1961  0.2610 -0.4565
   30CHL1   C12 3357   3.143   5.546   5.329 -0.2281  0.1932  0.1249
   30CHL1  H12A 3358   3.090   5.578   5.237  0.8231  0.5216 -0.3874
   30CHL1  H12B 3359   3.129   5.438   5.353 -2.6508  0.3448 -0.4106
   30CHL1   C11 3360   3.087   5.619   5.451 -0.7632  0.2703 -0.5587
   30CHL1  H11A 3361   3.093   5.727   5.426 -0.1134  0.2976 -0.3058
   30CHL1  H11B 3362   2.980   5.590   5.460 -0.3689 -1.8258 -2.0370
   30CHL1    C9 3363   3.168   5.602   5.586 -0.2737 -0.0788  0.6960
   30CHL1    H9 3364   3.155   5.493   5.605 -2.3844  0.0769  0.3694
   30CHL1   C10 3365   3.103   5.674   5.709 -0.4768  0.1551 -0.3061
   30CHL1   C19 3366   3.075   5.827   5.665 -0.4117  0.4989  1.0152
   30CHL1  H19A 3367   3.039   5.887   5.751 -0.6772  0.3171  1.0313
   30CHL1  H19B 3368   3.164   5.878   5.621 -1.2010  1.5239  0.5775
   30CHL1  H19C 3369   2.995   5.813   5.589 -0.6230 -1.7785  1.5852
   30CHL1    C1 3370   2.963   5.609   5.743  0.0237  0.1929 -0.5709
   30CHL1   H1A 3371   2.889   5.608   5.660 -4.1559  2.0879  2.7457
   30CHL1   H1B 3372   2.984   5.501   5.763 -0.8724  0.0215 -0.5015
   30CHL1    C2 3373   2.910   5.664   5.873  0.4470 -0.2063  0.3245
   30CHL1   H2A 3374   2.815   5.615   5.904  0.2211 -0.1431 -0.2639
   30CHL1   H2B 3375   2.877   5.768   5.848 -3.3287 -0.9328  1.5671
   30CHL1   C20 3376   3.357   5.474   5.066  0.4391  0.3482 -0.1527
   30CHL1   H20 3377   3.389   5.576   5.036  0.4368  0.3912 -0.0097
   30CHL1   C21 3378   3.211   5.456   5.026  0.4141 -0.1010  0.4242
   30CHL1  H21A 3379   3.202   5.439   4.917  2.3002 -2.8804  0.5974
   30CHL1  H21B 3380   3.164   5.554   5.050 -0.3390 -0.5376  0.7543
   30CHL1  H21C 3381   3.172   5.367   5.080  1.7192 -0.8766  0.1251
   30CHL1   C22 3382   3.451   5.372   4.987  0.3644 -0.9352 -0.9541
   30CHL1  H22A 3383   3.444   5.397   4.879  1.7452  2.5375 -0.3564
   30CHL1  H22B 3384   3.555   5.389   5.023  0.1018 -0.9643 -0.1605
   30CHL1   C23 3385   3.408   5.230   5.011  0.3803 -0.3358 -0.3723
   30CHL1  H23A 3386   3.422   5.198   5.116 -1.9807  1.3923  0.5750
   30CHL1  H23B 3387   3.300   5.208   4.993 -0.2934  0.8215  1.9455
   30CHL1   C24 3388   3.496   5.141   4.926 -0.0986  0.3139 -0.1876
   30CHL1  H24A 3389   3.511   5.189   4.827 -0.9881 -1.1615 -1.0744
   30CHL1  H24B 3390   3.598   5.137   4.971 -0.5056 -0.9388  0.6930
   30CHL1   C25 3391   3.445   4.993   4.904  0.1423  0.4414 -0.6022
   30CHL1   H25 3392   3.337   4.992   4.877 -0.5790  2.6453  1.8100
   30CHL1   C26 3393   3.534   4.926   4.796  0.0860 -0.3628 -0.4468
   30CHL1  H26A 3394   3.644   4.928   4.813 -0.0286 -1.1685  0.4731
   30CHL1  H26B 3395   3.494   4.826   4.770 -0.3495 -0.4027  0.3594
   30CHL1  H26C 3396   3.519   4.999   4.714  2.4708  1.1990  0.3935
   30CHL1   C27 3397   3.458   4.922   5.045 -0.2751 -0.1451  0.0003
   30CHL1  H27A 3398   3.395   4.960   5.129  0.1511 -0.7457  0.5964
   30CHL1  H27B 3399   3.443   4.813   5.035 -1.1153 -0.0506  0.1421
   30CHL1  H27C 3400   3.561   4.941   5.082  0.6316 -1.0190 -1.9817
   31CHL1    C3 3401   1.579   4.825   6.241 -0.5565 -0.0548  0.1896
   31CHL1    H3 3402   1.624   4.724   6.228  0.1737  0.1293  1.1438
   31CHL1    O3 3403   1.521   4.820   6.370 -0.4915 -0.1559  0.7792
   31CHL1   H3' 3404   1.481   4.906   6.384  1.4500  0.9796 -0.1453
   31CHL1    C4 3405   1.688   4.931   6.230  0.6723  0.1171  0.6994
   31CHL1   H4A 3406   1.667   5.035   6.262  1.7508  0.3807  0.6179
   31CHL1   H4B 3407   1.760   4.880   6.297  0.5034 -1.5876 -0.3509
   31CHL1    C5 3408   1.739   4.940   6.090  0.1315  0.0945  0.3143
   31CHL1    C6 3409   1.870   4.932   6.057  0.7536  0.5507 -0.9114
   31CHL1    H6 3410   1.953   4.914   6.127  0.3817  0.4571 -0.4926
   31CHL1    C7 3411   1.926   4.951   5.923  0.3247 -0.6279  0.6192
   31CHL1   H7A 3412   2.016   5.016   5.930 -0.7627  1.2381 -1.3895
   31CHL1   H7B 3413   1.962   4.855   5.881 -0.8109 -0.7536 -0.1172
   31CHL1    C8 3414   1.832   5.014   5.813  0.4072  0.3503 -0.1891
   31CHL1    H8 3415   1.838   5.125   5.813 -2.5628  0.6906 -2.9284
   31CHL1   C14 3416   1.883   4.966   5.675 -0.2923 -0.6082 -0.2944
   31CHL1   H14 3417   1.878   4.855   5.679  0.3213 -0.6187  0.4785
   31CHL1   C15 3418   2.025   4.992   5.634  0.4542  0.7092  0.1453
   31CHL1  H15A 3419   2.052   5.098   5.652  1.4762  0.2638  1.3480
   31CHL1  H15B 3420   2.087   4.918   5.689 -1.1715 -1.2695 -0.5411
   31CHL1   C16 3421   2.027   4.954   5.476 -0.1421 -0.2084  0.2432
   31CHL1  H16A 3422   2.066   5.045   5.426 -1.5008  0.9665  1.2300
   31CHL1  H16B 3423   2.093   4.866   5.459 -0.8137 -0.6252 -0.2755
   31CHL1   C17 3424   1.879   4.948   5.439 -0.4832  0.2526  0.2947
   31CHL1   H17 3425   1.845   4.842   5.433  1.3806 -0.3035 -1.9601
   31CHL1   C13 3426   1.803   5.016   5.564  0.2568  0.4803 -0.8742
   31CHL1   C18 3427   1.800   5.170   5.550  0.2583 -0.0719  0.6491
   31CHL1  H18A 3428   1.770   5.217   5.646 -0.1179 -3.2875  2.2507
   31CHL1  H18B 3429   1.898   5.214   5.522 -0.1801  1.2517  1.1237
   31CHL1  H18C 3430   1.728   5.197   5.470  0.5922  1.1126  0.7343
   31CHL1   C12 3431   1.658   4.958   5.578 -0.0871 -0.5737  1.1152
   31CHL1  H12A 3432   1.604   4.997   5.490 -0.4011 -4.0003 -0.3803
   31CHL1  H12B 3433   1.654   4.848   5.563 -2.7283 -0.3768 -0.1549
   31CHL1   C11 3434   1.594   5.000   5.716 -0.0962 -0.7714  0.3901
   31CHL1  H11A 3435   1.597   5.111   5.720  1.0175 -0.6851 -1.5001
   31CHL1  H11B 3436   1.491   4.961   5.730 -1.1421  1.4948 -0.4628
   31CHL1    C9 3437   1.686   4.955   5.831 -0.9268 -0.3394 -0.4127
   31CHL1    H9 3438   1.703   4.847   5.810  2.3816  0.0122  0.0005
   31CHL1   C10 3439   1.636   4.963   5.979 -0.1208  0.4643 -0.5335
   31CHL1   C19 3440   1.562   5.098   6.006  0.0959  0.0186  0.2460
   31CHL1  H19A 3441   1.629   5.187   5.996  0.0327  0.4976  3.3186
   31CHL1  H19B 3442   1.483   5.112   5.929  1.5597  0.1888 -1.3160
   31CHL1  H19C 3443   1.530   5.107   6.111 -0.2813  1.8882  0.0073
   31CHL1    C1 3444   1.527   4.857   5.988 -0.3151  0.4967 -0.0110
   31CHL1   H1A 3445   1.445   4.875   5.916  0.7292 -1.1469 -1.7148
   31CHL1   H1B 3446   1.559   4.756   5.955 -2.8277 -1.5353  3.1093
   31CHL1    C2 3447   1.470   4.833   6.134  0.0523 -0.3818  0.3165
   31CHL1   H2A 3448   1.404   4.746   6.152  1.5405 -1.1084  2.7483
   31CHL1   H2B 3449   1.422   4.930   6.161 -0.6125 -0.1339 -1.6097
   31CHL1   C20 3450   1.863   4.999   5.289  0.4012  0.4488  0.1505
   31CHL1   H20 3451   1.891   5.107   5.290 -0.6809  0.7992 -1.8516
   31CHL1   C21 3452   1.712   5.007   5.252  0.3844 -0.2528  0.2891
   31CHL1  H21A 3453   1.705   5.038   5.145  0.1219 -1.1714  0.0230
   31CHL1  H21B 3454   1.658   5.087   5.306 -0.3763 -1.3197  1.1621
   31CHL1  H21C 3455   1.651   4.915   5.264 -1.2605  0.5794 -1.1577
   31CHL1   C22 3456   1.947   4.916   5.185  0.2210 -0.1616  0.4589
   31CHL1  H22A 3457   2.049   4.949   5.214 -0.2469  2.3646 -0.4571
   31CHL1  H22B 3458   1.946   4.812   5.223  0.6230  0.1846  1.4367
   31CHL1   C23 3459   1.927   4.939   5.036  0.5467  0.1336 -0.4686
   31CHL1  H23A 3460   1.986   4.863   4.980  0.9467  0.4282 -0.4509
   31CHL1  H23B 3461   1.820   4.919   5.016  0.5539 -2.8681  1.8044
   31CHL1   C24 3462   1.980   5.078   4.995  0.4932  0.2767 -0.1897
   31CHL1  H24A 3463   1.907   5.149   5.038 -1.4214 -1.0769 -1.0252
   31CHL1  H24B 3464   2.076   5.080   5.050 -0.6263 -3.6064  2.3265
   31CHL1   C25 3465   1.980   5.097   4.845  0.5720 -0.6644  0.9866
   31CHL1   H25 3466   1.993   5.206   4.831 -0.1122 -0.8259 -1.3302
   31CHL1   C26 3467   2.095   5.022   4.787 -0.4960 -0.0185  0.2363
   31CHL1  H26A 3468   2.197   5.067   4.793  0.0819 -0.6389 -2.9156
   31CHL1  H26B 3469   2.113   4.914   4.807  1.6353 -0.3843 -2.8769
   31CHL1  H26C 3470   2.091   5.025   4.676  0.6141  1.4250  0.2039
   31CHL1   C27 3471   1.855   5.057   4.764  0.4687  0.1475 -0.3669
   31CHL1  H27A 3472   1.760   5.098   4.805  0.4461 -1.3053  1.1788
   31CHL1  H27B 3473   1.860   5.082   4.656 -1.0342  0.9564 -0.2723
   31CHL1  H27C 3474   1.837   4.947   4.763 -0.6207  0.2876  0.6012
   32CHL1    C3 3475   3.490   2.963   5.702 -0.2183  0.1561  0.3838
   32CHL1    H3 3476   3.586   2.959   5.645 -0.0972 -1.4097  0.6708
   32CHL1    O3 3477   3.509   2.916   5.837  0.8165  0.0379  0.2131
   32CHL1   H3' 3478   3.496   2.985   5.903  0.2753  2.5325 -2.3423
   32CHL1    C4 3479   3.451   3.114   5.711  0.4192  0.7039 -0.5248
   32CHL1   H4A 3480   3.355   3.131   5.765 -0.9155  0.7024 -2.7630
   32CHL1   H4B 3481   3.531   3.171   5.764 -0.6770  0.5697  1.3740
   32CHL1    C5 3482   3.424   3.166   5.570 -0.5614 -0.3614 -0.5230
   32CHL1    C6 3483   3.487   3.277   5.527 -0.1038  0.5295 -0.4668
   32CHL1    H6 3484   3.564   3.328   5.587 -0.5523  0.5369  0.1067
   32CHL1    C7 3485   3.456   3.356   5.406 -0.0277 -0.0429  0.5480
   32CHL1   H7A 3486   3.466   3.465   5.428  0.3531  0.5649 -2.2001
   32CHL1   H7B 3487   3.547   3.342   5.343  0.0646 -1.6208  0.9959
   32CHL1    C8 3488   3.319   3.306   5.342  0.6367  0.2617 -0.1924
   32CHL1    H8 3489   3.239   3.344   5.409 -0.3743 -0.7864 -0.7648
   32CHL1   C14 3490   3.299   3.355   5.202  0.5407  0.5026 -0.0947
   32CHL1   H14 3491   3.381   3.304   5.147  1.6480  2.1293 -0.0010
   32CHL1   C15 3492   3.319   3.505   5.176  0.4193 -0.8295  0.0176
   32CHL1  H15A 3493   3.253   3.559   5.248  0.8269 -2.1313  1.4247
   32CHL1  H15B 3494   3.427   3.525   5.187  0.5952 -0.8755 -1.4980
   32CHL1   C16 3495   3.264   3.531   5.034 -0.2966  0.0614 -0.1139
   32CHL1  H16A 3496   3.197   3.618   5.021 -1.4294 -0.8323 -0.3914
   32CHL1  H16B 3497   3.343   3.546   4.957 -2.3299 -0.1370 -2.3518
   32CHL1   C17 3498   3.191   3.396   4.995  0.8585 -0.3529 -0.3488
   32CHL1   H17 3499   3.264   3.333   4.940  0.1955 -3.3013  1.9129
   32CHL1   C13 3500   3.167   3.317   5.130  0.5275  0.0107 -0.0084
   32CHL1   C18 3501   3.047   3.385   5.197 -0.1937 -0.6697 -0.1619
   32CHL1  H18A 3502   3.035   3.354   5.303 -1.2224  3.4965  1.1364
   32CHL1  H18B 3503   3.044   3.496   5.187 -2.2914 -0.6529  0.2391
   32CHL1  H18C 3504   2.948   3.366   5.149  0.4368  2.4550 -3.1075
   32CHL1   C12 3505   3.153   3.163   5.127  0.3112 -0.0624 -0.7868
   32CHL1  H12A 3506   3.052   3.132   5.094 -1.3201  1.1846  2.6008
   32CHL1  H12B 3507   3.225   3.110   5.061 -2.2425 -4.5420 -0.3854
   32CHL1   C11 3508   3.176   3.100   5.272 -0.5381  0.8743 -0.2375
   32CHL1  H11A 3509   3.088   3.129   5.333  0.7126  0.2567  1.9495
   32CHL1  H11B 3510   3.185   2.991   5.254  1.4742  0.9723 -0.0493
   32CHL1    C9 3511   3.305   3.146   5.349  0.3855  0.1936 -0.3435
   32CHL1    H9 3512   3.394   3.115   5.292  0.8542  2.1658 -0.7370
   32CHL1   C10 3513   3.312   3.094   5.495 -0.2349 -0.2578  0.1456
   32CHL1   C19 3514   3.176   3.109   5.565  0.0924 -0.6518 -0.3397
   32CHL1  H19A 3515   3.093   3.054   5.515 -0.6631 -1.3651  1.5972
   32CHL1  H19B 3516   3.177   3.074   5.670 -0.5949  1.7160  0.5221
   32CHL1  H19C 3517   3.148   3.216   5.567 -0.8093 -0.7696 -2.7399
   32CHL1    C1 3518   3.344   2.944   5.494  0.1704  0.1999  0.0133
   32CHL1   H1A 3519   3.269   2.885   5.437  0.5545  1.0756 -1.4484
   32CHL1   H1B 3520   3.433   2.944   5.428  0.7628 -2.5031  0.7238
   32CHL1    C2 3521   3.379   2.881   5.627  0.4116 -0.1098  0.2215
   32CHL1   H2A 3522   3.422   2.778   5.622 -0.8312 -0.7053  1.0175
   32CHL1   H2B 3523   3.291   2.879   5.695  0.7527 -2.5553  0.7034
   32CHL1   C20 3524   3.078   3.423   4.892  0.3028  0.2217 -0.2073
   32CHL1   H20 3525   3.011   3.495   4.944  1.0654  0.0674  1.0393
   32CHL1   C21 3526   2.995   3.290   4.868 -0.4309  0.0743  0.8821
   32CHL1  H21A 3527   2.946   3.269   4.966  0.1852 -0.3995  1.0958
   32CHL1  H21B 3528   3.067   3.211   4.839 -1.2137 -0.1055 -0.6622
   32CHL1  H21C 3529   2.920   3.298   4.786 -0.0721 -0.7169  0.4739
   32CHL1   C22 3530   3.130   3.499   4.763 -0.2043 -0.3203  0.3485
   32CHL1  H22A 3531   3.039   3.524   4.705  0.1978  0.4022  0.0151
   32CHL1  H22B 3532   3.172   3.597   4.795 -0.0259 -0.6165  1.0564
   32CHL1   C23 3533   3.220   3.415   4.682  0.4661 -0.0048  0.6489
   32CHL1  H23A 3534   3.319   3.397   4.728  1.9722  2.1793 -1.4651
   32CHL1  H23B 3535   3.173   3.316   4.663  0.2687 -0.1917  2.0342
   32CHL1   C24 3536   3.255   3.489   4.550  0.4313  0.0089 -0.6870
   32CHL1  H24A 3537   3.165   3.535   4.504 -0.0205 -0.1920 -0.0213
   32CHL1  H24B 3538   3.320   3.578   4.565 -1.2134  1.5409 -2.1709
   32CHL1   C25 3539   3.327   3.401   4.450 -0.3969 -0.5855  0.2257
   32CHL1   H25 3540   3.382   3.315   4.495  0.2219 -0.2400  0.1302
   32CHL1   C26 3541   3.224   3.346   4.352  0.0487 -0.7539  0.0229
   32CHL1  H26A 3542   3.156   3.271   4.397  0.9489  0.2232  3.2656
   32CHL1  H26B 3543   3.164   3.415   4.290  1.6340 -0.0973 -0.8475
   32CHL1  H26C 3544   3.279   3.295   4.270 -1.8217 -1.2507 -0.9844
   32CHL1   C27 3545   3.431   3.491   4.375 -0.4126 -0.3711  0.0799
   32CHL1  H27A 3546   3.384   3.579   4.327  1.8330  0.8168 -0.0866
   32CHL1  H27B 3547   3.521   3.512   4.437  0.5450 -1.2175 -0.9958
   32CHL1  H27C 3548   3.470   3.434   4.288 -2.5808 -2.3807  0.3114
   33CHL1    C3 3549   1.319   3.993   6.111 -0.4945 -0.2807  0.4828
   33CHL1    H3 3550   1.413   4.051   6.103 -1.3485  0.9019 -3.1975
   33CHL1    O3 3551   1.272   3.985   6.244 -0.0397 -0.2327 -0.1344
   33CHL1   H3' 3552   1.348   4.006   6.300 -0.6126  1.1553  0.1800
   33CHL1    C4 3553   1.207   4.059   6.023 -0.4796 -0.0011 -0.8835
   33CHL1   H4A 3554   1.117   3.995   6.036 -0.7657 -0.3205 -3.7803
   33CHL1   H4B 3555   1.178   4.156   6.068 -3.3690 -1.0510 -0.2280
   33CHL1    C5 3556   1.239   4.054   5.874  0.2194 -0.2396 -0.3752
   33CHL1    C6 3557   1.243   4.169   5.801  0.3511 -0.8138  0.8467
   33CHL1    H6 3558   1.222   4.261   5.857  0.1775 -0.4272  0.1583
   33CHL1    C7 3559   1.273   4.173   5.653  0.3832 -0.1176 -0.0851
   33CHL1   H7A 3560   1.202   4.245   5.608 -0.5625 -0.4336  0.8681
   33CHL1   H7B 3561   1.376   4.214   5.639  1.4046 -0.0747  5.4007
   33CHL1    C8 3562   1.266   4.038   5.586 -0.6358  0.1468 -0.0763
   33CHL1    H8 3563   1.159   4.009   5.580 -0.5329 -0.0448 -1.0988
   33CHL1   C14 3564   1.321   4.028   5.446  0.7032 -0.0441  0.0668
   33CHL1   H14 3565   1.430   4.045   5.463  0.2035  2.1288  1.5950
   33CHL1   C15 3566   1.273   4.141   5.341 -0.4483 -0.1400 -0.7613
   33CHL1  H15A 3567   1.166   4.146   5.373 -0.0204 -0.8240  0.8961
   33CHL1  H15B 3568   1.330   4.234   5.362  1.7140 -1.4370 -0.5961
   33CHL1   C16 3569   1.318   4.076   5.210  0.0069  0.5851 -0.3049
   33CHL1  H16A 3570   1.234   4.052   5.141  1.2416 -2.5306 -0.9280
   33CHL1  H16B 3571   1.382   4.143   5.148  2.7710 -1.0408  0.5959
   33CHL1   C17 3572   1.384   3.932   5.244 -0.4458 -0.5070  0.3907
   33CHL1   H17 3573   1.489   3.955   5.274 -0.6724  0.6843  0.3018
   33CHL1   C13 3574   1.324   3.890   5.372  0.3027  0.4475  0.1058
   33CHL1   C18 3575   1.178   3.845   5.346  0.0020  0.4535  0.6105
   33CHL1  H18A 3576   1.128   3.933   5.300  1.3485  1.5811  1.2406
   33CHL1  H18B 3577   1.168   3.761   5.275 -0.5610 -1.1398  2.4908
   33CHL1  H18C 3578   1.113   3.824   5.434 -2.6027 -1.0102 -1.5355
   33CHL1   C12 3579   1.399   3.789   5.464  0.7863  0.1629 -0.1516
   33CHL1  H12A 3580   1.387   3.691   5.413  0.5241 -0.0964  0.3987
   33CHL1  H12B 3581   1.506   3.820   5.476  1.0123 -0.4476 -0.5507
   33CHL1   C11 3582   1.335   3.783   5.605 -0.4446  0.1109  0.1980
   33CHL1  H11A 3583   1.234   3.741   5.590 -0.3095  0.3835 -1.7459
   33CHL1  H11B 3584   1.398   3.714   5.666  2.6494  3.0442  0.6342
   33CHL1    C9 3585   1.337   3.927   5.673  0.3454 -0.1972  1.1503
   33CHL1    H9 3586   1.443   3.959   5.689  0.9533 -2.7111  2.6323
   33CHL1   C10 3587   1.281   3.925   5.820  0.0834  0.1335  0.3762
   33CHL1   C19 3588   1.153   3.829   5.829 -0.3896  0.2575 -0.8903
   33CHL1  H19A 3589   1.106   3.834   5.930 -0.1085  0.3182 -0.7598
   33CHL1  H19B 3590   1.077   3.874   5.762 -0.8495  0.7433 -0.0586
   33CHL1  H19C 3591   1.179   3.724   5.804  1.0113  0.6650 -1.2304
   33CHL1    C1 3592   1.396   3.867   5.909  0.0581 -0.8355  1.1330
   33CHL1   H1A 3593   1.427   3.769   5.867  1.1704  0.9564 -2.7154
   33CHL1   H1B 3594   1.490   3.926   5.906 -1.5230  1.7842 -0.1862
   33CHL1    C2 3595   1.349   3.855   6.049 -0.6647  0.4880 -0.0403
   33CHL1   H2A 3596   1.429   3.798   6.102 -0.0649  0.5817 -0.8260
   33CHL1   H2B 3597   1.258   3.792   6.058 -2.0856  1.7541 -3.5813
   33CHL1   C20 3598   1.395   3.843   5.119 -0.8065 -0.3980  0.2340
   33CHL1   H20 3599   1.293   3.816   5.082 -0.2604 -0.1318 -1.6042
   33CHL1   C21 3600   1.447   3.699   5.143  0.2355 -0.5739  0.0604
   33CHL1  H21A 3601   1.552   3.688   5.176 -0.2670 -0.4755  1.8444
   33CHL1  H21B 3602   1.428   3.644   5.048  1.6121  0.3719 -0.7872
   33CHL1  H21C 3603   1.381   3.644   5.214  0.2949  0.6176  1.0674
   33CHL1   C22 3604   1.482   3.899   5.009  0.0060  0.2661  1.2581
   33CHL1  H22A 3605   1.478   4.010   5.000  3.5225  0.4097 -0.2076
   33CHL1  H22B 3606   1.588   3.869   5.027  0.2214 -0.9353 -1.5867
   33CHL1   C23 3607   1.451   3.851   4.867 -0.2015  0.8833 -0.1147
   33CHL1  H23A 3608   1.543   3.868   4.807 -0.7914 -0.0229 -1.3100
   33CHL1  H23B 3609   1.436   3.741   4.856  0.1427  1.0128 -2.2061
   33CHL1   C24 3610   1.317   3.903   4.807  0.3223 -0.2581 -0.2042
   33CHL1  H24A 3611   1.231   3.841   4.840 -1.1097  0.3319 -2.5621
   33CHL1  H24B 3612   1.287   4.006   4.834  1.7202  0.3353 -0.8217
   33CHL1   C25 3613   1.296   3.873   4.653 -0.1221  0.7207  1.0060
   33CHL1   H25 3614   1.376   3.914   4.588 -0.3516  0.1045  0.3263
   33CHL1   C26 3615   1.295   3.728   4.621  0.0749  0.1920 -0.0051
   33CHL1  H26A 3616   1.216   3.682   4.684 -0.5968 -0.1790 -1.0903
   33CHL1  H26B 3617   1.251   3.713   4.520 -1.4825  1.7440  0.3949
   33CHL1  H26C 3618   1.393   3.678   4.636  0.0337  0.0807 -0.1144
   33CHL1   C27 3619   1.167   3.949   4.604 -0.0977  0.0700  0.0522
   33CHL1  H27A 3620   1.077   3.922   4.663  0.1738  2.4454  1.7122
   33CHL1  H27B 3621   1.179   4.057   4.626 -1.6770  0.4290 -0.6992
   33CHL1  H27C 3622   1.136   3.943   4.498 -1.3807  0.7078  0.3741
   34CHL1    C3 3623   2.380   4.701   5.948  0.0808  0.7352  0.3174
   34CHL1    H3 3624   2.275   4.679   5.920  0.1816  0.6326  0.0200
   34CHL1    O3 3625   2.403   4.685   6.085  0.6014 -0.6582 -0.3103
   34CHL1   H3' 3626   2.497   4.682   6.103  0.1132 -0.1633  2.9725
   34CHL1    C4 3627   2.458   4.593   5.867 -0.4515 -0.1383  0.2481
   34CHL1   H4A 3628   2.562   4.600   5.906 -1.2551 -0.6231  2.5939
   34CHL1   H4B 3629   2.422   4.498   5.910 -1.2266  0.0576  0.0606
   34CHL1    C5 3630   2.455   4.606   5.718  0.3693 -0.2419 -0.3281
   34CHL1    C6 3631   2.433   4.508   5.627  0.0819 -0.2031  0.7210
   34CHL1    H6 3632   2.425   4.406   5.667  1.7412 -0.1704  1.2211
   34CHL1    C7 3633   2.451   4.524   5.485  1.0124  0.7255  0.6863
   34CHL1   H7A 3634   2.525   4.447   5.456  0.6824  0.1500  1.3516
   34CHL1   H7B 3635   2.356   4.494   5.436  0.4248  0.7108  1.7960
   34CHL1    C8 3636   2.506   4.664   5.441 -0.9241  0.6051 -0.5760
   34CHL1    H8 3637   2.617   4.660   5.449 -0.9897 -1.3973 -0.1880
   34CHL1   C14 3638   2.477   4.681   5.291  0.2384 -0.8255  0.3329
   34CHL1   H14 3639   2.367   4.688   5.283  0.2054  0.9081  1.7415
   34CHL1   C15 3640   2.525   4.578   5.195 -0.5701 -1.1034  0.3007
   34CHL1  H15A 3641   2.622   4.525   5.208 -0.0642 -0.0635  0.9259
   34CHL1  H15B 3642   2.444   4.502   5.197  0.0004 -1.7728 -0.9114
   34CHL1   C16 3643   2.523   4.649   5.062 -1.1413  0.0223  0.5954
   34CHL1  H16A 3644   2.627   4.648   5.021 -1.0349  0.4792  0.8501
   34CHL1  H16B 3645   2.463   4.595   4.985  0.5206 -2.7130  1.0523
   34CHL1   C17 3646   2.470   4.792   5.085 -0.6377  0.3044 -0.4828
   34CHL1   H17 3647   2.359   4.785   5.091 -0.4964 -0.7638  2.1594
   34CHL1   C13 3648   2.520   4.815   5.230  0.0290  0.1097 -0.0066
   34CHL1   C18 3649   2.673   4.835   5.226 -0.0026 -0.2219 -0.6558
   34CHL1  H18A 3650   2.728   4.770   5.156  0.9422 -0.4566  0.2872
   34CHL1  H18B 3651   2.705   4.933   5.185 -0.4613  0.0385 -0.4053
   34CHL1  H18C 3652   2.726   4.816   5.322  0.7342 -3.2484 -1.5488
   34CHL1   C12 3653   2.441   4.924   5.309 -0.1454  0.5570 -0.3215
   34CHL1  H12A 3654   2.476   5.020   5.266  5.0655 -1.1233 -0.6429
   34CHL1  H12B 3655   2.332   4.920   5.290 -0.5033  0.1319  1.5852
   34CHL1   C11 3656   2.463   4.918   5.457  0.3035 -0.0571  0.0739
   34CHL1  H11A 3657   2.561   4.962   5.487 -0.4699  1.5716  0.3659
   34CHL1  H11B 3658   2.398   4.987   5.514  0.9764  0.0993  0.6694
   34CHL1    C9 3659   2.445   4.775   5.522  0.0020 -0.1045  0.6239
   34CHL1    H9 3660   2.336   4.756   5.520  0.0866 -0.5522  0.0159
   34CHL1   C10 3661   2.488   4.756   5.670 -0.0794  0.3541  0.0477
   34CHL1   C19 3662   2.640   4.785   5.690 -0.8116  1.0322  0.0263
   34CHL1  H19A 3663   2.657   4.891   5.662 -1.4324  2.3284  3.8569
   34CHL1  H19B 3664   2.658   4.774   5.799  0.1619 -2.8301 -0.3936
   34CHL1  H19C 3665   2.711   4.715   5.641 -1.4064 -0.0811  0.7051
   34CHL1    C1 3666   2.405   4.861   5.752 -1.0415 -0.3111 -1.0695
   34CHL1   H1A 3667   2.443   4.963   5.729  0.1433 -0.4409  0.1731
   34CHL1   H1B 3668   2.300   4.841   5.722 -0.6506 -1.1864 -1.8740
   34CHL1    C2 3669   2.413   4.837   5.906  0.2469 -0.3261  1.5151
   34CHL1   H2A 3670   2.345   4.918   5.940  1.2931  2.4483 -2.3019
   34CHL1   H2B 3671   2.511   4.866   5.950 -0.0812  0.0699  1.9950
   34CHL1   C20 3672   2.504   4.898   4.984 -0.1860 -1.2156  0.3640
   34CHL1   H20 3673   2.593   4.948   5.029 -0.6582  0.0178 -0.0417
   34CHL1   C21 3674   2.396   5.013   4.974  0.6988  0.7198 -0.5750
   34CHL1  H21A 3675   2.298   4.966   4.951  1.5837 -0.9651 -1.1062
   34CHL1  H21B 3676   2.420   5.079   4.888  0.8510  0.1408 -0.9833
   34CHL1  H21C 3677   2.390   5.063   5.073 -0.3827 -1.9337  0.8111
   34CHL1   C22 3678   2.544   4.849   4.843  0.0840 -0.0247  0.0595
   34CHL1  H22A 3679   2.577   4.933   4.779 -0.2791 -1.2214 -1.7726
   34CHL1  H22B 3680   2.619   4.767   4.843 -0.6446 -0.7272  1.1017
   34CHL1   C23 3681   2.427   4.796   4.766  0.3994  0.6071  0.1548
   34CHL1  H23A 3682   2.378   4.712   4.819 -0.8628  0.5576 -1.0278
   34CHL1  H23B 3683   2.347   4.873   4.769  0.1016  0.3082 -0.0243
   34CHL1   C24 3684   2.464   4.737   4.627 -0.2756  0.2397 -0.0407
   34CHL1  H24A 3685   2.508   4.814   4.560 -0.3045 -0.4633 -0.8833
   34CHL1  H24B 3686   2.537   4.656   4.649 -2.0846 -2.0529 -1.8623
   34CHL1   C25 3687   2.362   4.644   4.557  0.5514  0.1356 -0.3779
   34CHL1   H25 3688   2.321   4.579   4.638 -0.1160  1.0379  0.0202
   34CHL1   C26 3689   2.245   4.720   4.481 -0.0649  0.6003 -0.3801
   34CHL1  H26A 3690   2.193   4.778   4.560 -3.6722 -2.4903 -0.2005
   34CHL1  H26B 3691   2.277   4.784   4.396 -2.0649  1.2580 -0.6985
   34CHL1  H26C 3692   2.163   4.654   4.444 -1.0565  1.3033  0.4975
   34CHL1   C27 3693   2.436   4.544   4.461 -0.1286 -0.4967 -0.0877
   34CHL1  H27A 3694   2.485   4.599   4.377 -1.0657  2.5201  1.2042
   34CHL1  H27B 3695   2.513   4.478   4.507 -1.4185 -2.7587 -0.9870
   34CHL1  H27C 3696   2.363   4.477   4.411  2.2160 -1.2596 -2.7681
   35CHL1    C3 3697   4.440   0.555   5.979 -0.2851  0.3216 -0.3306
   35CHL1    H3 3698   4.351   0.622   5.982  1.6942  3.1627  2.3319
   35CHL1    O3 3699   4.477   0.509   6.106  0.4445  0.2364  0.2221
   35CHL1   H3' 3700   4.545   0.442   6.091  2.3476  1.5867  2.1083
   35CHL1    C4 3701   4.413   0.434   5.898 -0.0172 -0.1139  0.3641
   35CHL1   H4A 3702   4.498   0.363   5.906  1.0336  1.2885  3.1037
   35CHL1   H4B 3703   4.325   0.383   5.944 -1.4753  1.7003 -0.2884
   35CHL1    C5 3704   4.382   0.462   5.752  0.0502  0.2775 -0.2001
   35CHL1    C6 3705   4.277   0.421   5.682 -0.3309  0.0325  0.2897
   35CHL1    H6 3706   4.197   0.364   5.732 -0.0443 -0.9487 -0.3451
   35CHL1    C7 3707   4.254   0.446   5.538  0.6516 -0.0207 -0.7719
   35CHL1   H7A 3708   4.223   0.345   5.502 -0.5538 -0.5331  1.4824
   35CHL1   H7B 3709   4.161   0.506   5.530 -1.0022 -1.6174  3.4881
   35CHL1    C8 3710   4.369   0.510   5.461  0.2117  0.7068 -0.1866
   35CHL1    H8 3711   4.419   0.416   5.429 -1.9483 -0.5252 -0.1793
   35CHL1   C14 3712   4.314   0.583   5.331 -0.6877 -0.3132 -0.5912
   35CHL1   H14 3713   4.250   0.665   5.369  0.1630  0.0510  0.0939
   35CHL1   C15 3714   4.234   0.497   5.235 -0.3453  0.1318 -0.0099
   35CHL1  H15A 3715   4.295   0.404   5.237  0.0645  0.3959 -0.0031
   35CHL1  H15B 3716   4.128   0.481   5.263 -1.2928  2.4563 -1.9037
   35CHL1   C16 3717   4.242   0.583   5.112  0.4532  0.2402  0.1547
   35CHL1  H16A 3718   4.273   0.516   5.029  0.3602  0.2062  0.1480
   35CHL1  H16B 3719   4.143   0.630   5.099  1.1795  2.0168  0.7096
   35CHL1   C17 3720   4.357   0.692   5.121 -0.5273  0.2234 -0.2722
   35CHL1   H17 3721   4.318   0.793   5.145 -1.4355 -0.2266  0.1870
   35CHL1   C13 3722   4.431   0.648   5.254  0.2575 -0.4808  0.0574
   35CHL1   C18 3723   4.544   0.542   5.224 -0.0693  0.4162  0.2496
   35CHL1  H18A 3724   4.504   0.474   5.146 -1.8441 -0.3247  1.7294
   35CHL1  H18B 3725   4.627   0.594   5.170  2.0950 -1.6076  1.4527
   35CHL1  H18C 3726   4.587   0.485   5.309  2.5245  1.4947 -0.2287
   35CHL1   C12 3727   4.475   0.759   5.346 -0.2620  0.4488 -0.0673
   35CHL1  H12A 3728   4.554   0.818   5.294  1.8742 -0.8821  1.5170
   35CHL1  H12B 3729   4.385   0.815   5.378 -0.4708  0.5638 -0.8397
   35CHL1   C11 3730   4.551   0.696   5.474  0.2623 -0.6717 -0.5961
   35CHL1  H11A 3731   4.635   0.631   5.442 -0.7272 -1.5906 -1.3889
   35CHL1  H11B 3732   4.598   0.779   5.531  1.5481 -0.6523 -1.6082
   35CHL1    C9 3733   4.449   0.610   5.546  0.1592  0.2336 -0.5769
   35CHL1    H9 3734   4.365   0.680   5.564 -2.1843 -2.2285 -1.1777
   35CHL1   C10 3735   4.494   0.552   5.680 -0.1027 -0.1985  0.0691
   35CHL1   C19 3736   4.625   0.476   5.662 -1.2771 -0.0383 -0.4981
   35CHL1  H19A 3737   4.698   0.553   5.628 -1.9456  0.9616  0.2767
   35CHL1  H19B 3738   4.674   0.431   5.750  1.5135  2.8851 -0.3432
   35CHL1  H19C 3739   4.624   0.402   5.579 -0.4637  0.1427 -0.6794
   35CHL1    C1 3740   4.528   0.671   5.773 -0.3884  0.2024  0.1275
   35CHL1   H1A 3741   4.625   0.712   5.736  0.4368 -1.4884  0.3132
   35CHL1   H1B 3742   4.451   0.750   5.770 -0.2976  0.2640 -1.7391
   35CHL1    C2 3743   4.556   0.637   5.923  1.0332 -0.0934  0.5700
   35CHL1   H2A 3744   4.555   0.730   5.984 -1.6729  1.7507 -2.0375
   35CHL1   H2B 3745   4.653   0.582   5.922  1.2752  0.2791 -2.1471
   35CHL1   C20 3746   4.439   0.702   4.989 -0.1221  0.3337  0.1635
   35CHL1   H20 3747   4.492   0.606   4.971 -1.3684 -0.5926  1.2784
   35CHL1   C21 3748   4.549   0.807   5.007  0.3332  0.0469  0.2205
   35CHL1  H21A 3749   4.623   0.806   4.924 -0.2838 -1.3041 -0.3342
   35CHL1  H21B 3750   4.617   0.799   5.095 -0.5123 -0.4274  0.8446
   35CHL1  H21C 3751   4.488   0.899   5.019 -1.8505 -1.1952 -0.7540
   35CHL1   C22 3752   4.355   0.736   4.860 -0.4464 -0.3126 -0.1439
   35CHL1  H22A 3753   4.257   0.683   4.868 -1.0969  1.0475  1.7659
   35CHL1  H22B 3754   4.336   0.845   4.865  0.2363 -0.2166  0.6095
   35CHL1   C23 3755   4.417   0.693   4.726  0.0869 -0.2765  0.1727
   35CHL1  H23A 3756   4.521   0.731   4.737  0.2666 -1.3083  2.8583
   35CHL1  H23B 3757   4.422   0.582   4.721  0.9901 -0.2049 -0.5623
   35CHL1   C24 3758   4.337   0.749   4.599  0.0505  1.1119 -0.0606
   35CHL1  H24A 3759   4.232   0.719   4.582 -0.4102  1.5884  1.7100
   35CHL1  H24B 3760   4.315   0.855   4.626 -0.2539  0.9413  0.3730
   35CHL1   C25 3761   4.420   0.731   4.469 -0.1558  0.2329  0.5472
   35CHL1   H25 3762   4.521   0.772   4.491 -0.5317  1.3777  0.2376
   35CHL1   C26 3763   4.432   0.584   4.422 -0.4149  0.9794 -0.1567
   35CHL1  H26A 3764   4.473   0.527   4.509 -1.0618  0.2137 -0.3381
   35CHL1  H26B 3765   4.332   0.541   4.402  0.4849 -1.1300 -0.4278
   35CHL1  H26C 3766   4.497   0.584   4.332  1.0260  0.3382  0.8411
   35CHL1   C27 3767   4.356   0.802   4.349  0.0977 -0.2618 -0.5353
   35CHL1  H27A 3768   4.332   0.907   4.377 -1.3270 -0.4807 -0.8740
   35CHL1  H27B 3769   4.422   0.789   4.260  0.4475 -2.2429 -0.0318
   35CHL1  H27C 3770   4.257   0.753   4.339 -0.8172  1.2784  0.5515
   36CHL1    C3 3771   0.355   4.907   6.130 -0.1174 -0.7028  0.1344
   36CHL1    H3 3772   0.456   4.936   6.095 -1.4619  2.3946 -1.6638
   36CHL1    O3 3773   0.348   4.925   6.265 -0.1140  0.5396  0.4268
   36CHL1   H3' 3774   0.369   4.839   6.303  0.1971  0.0563 -0.8061
   36CHL1    C4 3775   0.249   4.997   6.057  0.5163 -0.1029 -0.3245
   36CHL1   H4A 3776   0.149   4.964   6.093  0.3707 -1.8270 -2.0977
   36CHL1   H4B 3777   0.270   5.099   6.094  1.6085 -0.6967  0.7973
   36CHL1    C5 3778   0.257   4.986   5.907 -0.2196  0.5343 -0.0186
   36CHL1    C6 3779   0.292   5.086   5.827  0.1382 -0.2971  0.5308
   36CHL1    H6 3780   0.311   5.181   5.879  0.7698 -1.2864  2.2023
   36CHL1    C7 3781   0.295   5.077   5.674 -0.1535 -0.3948 -0.8065
   36CHL1   H7A 3782   0.254   5.170   5.629 -1.4995 -0.9365 -0.7351
   36CHL1   H7B 3783   0.401   5.066   5.643  0.2712  0.8864  0.1148
   36CHL1    C8 3784   0.213   4.949   5.618  0.1282 -0.3440  0.4995
   36CHL1    H8 3785   0.104   4.967   5.616  0.1019 -0.5483 -0.0344
   36CHL1   C14 3786   0.253   4.926   5.475 -0.6025  0.1210  0.1701
   36CHL1   H14 3787   0.361   4.902   5.483 -0.3819  1.4969  2.0568
   36CHL1   C15 3788   0.249   5.040   5.369 -0.0507  0.5470  0.4725
   36CHL1  H15A 3789   0.150   5.088   5.384 -0.2482  1.2448 -2.4373
   36CHL1  H15B 3790   0.333   5.111   5.388  1.0532 -1.0657  1.9122
   36CHL1   C16 3791   0.267   4.969   5.239 -0.1452 -0.1261  0.2853
   36CHL1  H16A 3792   0.175   4.985   5.178 -0.0881  0.8101  0.4265
   36CHL1  H16B 3793   0.355   5.005   5.182 -0.6303  1.9684  0.7607
   36CHL1   C17 3794   0.267   4.816   5.266 -0.3289  0.0460  0.3507
   36CHL1   H17 3795   0.372   4.782   5.274 -0.6768 -1.0069  0.6065
   36CHL1   C13 3796   0.201   4.798   5.402  0.1881  0.3096 -0.3813
   36CHL1   C18 3797   0.046   4.817   5.390  0.6145 -0.3145  0.2790
   36CHL1  H18A 3798   0.012   4.907   5.335  0.2456  0.9547  2.4804
   36CHL1  H18B 3799   0.001   4.729   5.338 -0.2696 -0.2450  0.9056
   36CHL1  H18C 3800  -0.006   4.829   5.487 -0.3096  0.6482 -0.3120
   36CHL1   C12 3801   0.248   4.683   5.488  1.1290 -0.0518 -0.3297
   36CHL1  H12A 3802   0.208   4.584   5.457 -0.8985  0.4524  0.5212
   36CHL1  H12B 3803   0.359   4.677   5.482  1.1783  0.0172  0.3921
   36CHL1   C11 3804   0.190   4.694   5.640  0.6453 -0.3982  0.2783
   36CHL1  H11A 3805   0.079   4.683   5.639  0.7821 -1.9605 -0.3238
   36CHL1  H11B 3806   0.230   4.606   5.695  0.4238 -0.2742  0.6375
   36CHL1    C9 3807   0.246   4.827   5.701 -0.0029  0.2764  0.0653
   36CHL1    H9 3808   0.354   4.814   5.683 -0.3867 -0.6946 -1.7329
   36CHL1   C10 3809   0.224   4.845   5.857 -0.4433  0.1981  0.0271
   36CHL1   C19 3810   0.077   4.799   5.882  0.4181  0.3624  0.8757
   36CHL1  H19A 3811   0.006   4.857   5.819  1.5514 -0.3477 -1.1548
   36CHL1  H19B 3812   0.061   4.689   5.874 -3.1509  0.8243 -0.1382
   36CHL1  H19C 3813   0.054   4.815   5.990 -1.2932 -2.6072  1.0705
   36CHL1    C1 3814   0.319   4.745   5.932 -0.4836 -0.1776 -0.6538
   36CHL1   H1A 3815   0.282   4.643   5.910 -1.6797  0.6237 -2.7122
   36CHL1   H1B 3816   0.422   4.747   5.891  0.1173  0.3368  0.8377
   36CHL1    C2 3817   0.323   4.761   6.091 -0.7846  0.3603 -0.3539
   36CHL1   H2A 3818   0.400   4.691   6.131 -0.9652  0.5166  0.2827
   36CHL1   H2B 3819   0.224   4.729   6.128 -1.3769  1.7603 -0.6471
   36CHL1   C20 3820   0.219   4.744   5.137 -0.8234  0.2795 -0.3648
   36CHL1   H20 3821   0.112   4.769   5.119 -0.8100 -0.2482 -1.2215
   36CHL1   C21 3822   0.242   4.588   5.155 -0.0447  0.2550  0.1349
   36CHL1  H21A 3823   0.348   4.567   5.178 -0.0688  1.0479  1.0205
   36CHL1  H21B 3824   0.206   4.535   5.064 -0.8375  0.3053  0.4093
   36CHL1  H21C 3825   0.177   4.545   5.235  1.3731 -0.1350  1.1075
   36CHL1   C22 3826   0.288   4.795   5.011 -0.1146 -0.2297  0.2992
   36CHL1  H22A 3827   0.279   4.905   5.006  0.4330 -0.2220 -2.7033
   36CHL1  H22B 3828   0.395   4.764   5.004  0.0160 -0.5323  2.8063
   36CHL1   C23 3829   0.217   4.747   4.879  0.5992 -0.3049  0.2631
   36CHL1  H23A 3830   0.224   4.639   4.857  0.1067 -0.7255  1.9960
   36CHL1  H23B 3831   0.111   4.779   4.892  0.3376 -0.9682 -0.1805
   36CHL1   C24 3832   0.278   4.843   4.768 -1.0926  0.1908  0.6206
   36CHL1  H24A 3833   0.280   4.947   4.807  0.7917  0.1629  0.7171
   36CHL1  H24B 3834   0.380   4.807   4.741 -1.3131  1.4216 -2.1321
   36CHL1   C25 3835   0.184   4.827   4.642 -0.0569 -0.4414 -0.3099
   36CHL1   H25 3836   0.153   4.721   4.644  1.6013 -0.9395  0.5871
   36CHL1   C26 3837   0.050   4.913   4.650 -0.0257  0.4065 -0.5604
   36CHL1  H26A 3838  -0.008   4.885   4.741 -0.0079  0.1437 -0.6293
   36CHL1  H26B 3839   0.096   5.011   4.677  1.2622 -0.7191  1.5939
   36CHL1  H26C 3840  -0.005   4.911   4.554 -0.6844 -1.8943 -0.1961
   36CHL1   C27 3841   0.251   4.855   4.506 -0.9697 -0.0696 -0.1866
   36CHL1  H27A 3842   0.340   4.790   4.492 -0.0534  1.0725  0.2108
   36CHL1  H27B 3843   0.178   4.825   4.428 -2.4026 -0.2000  1.1618
   36CHL1  H27C 3844   0.286   4.958   4.485 -0.5780 -0.3460 -0.9114
   37CHL1    C3 3845   4.041   1.411   6.044 -0.1117  0.2017 -0.1883
   37CHL1    H3 3846   4.079   1.504   6.092  0.3349 -0.7446  1.3413
   37CHL1    O3 3847   4.016   1.330   6.163 -0.6725 -0.1523  0.0063
   37CHL1   H3' 3848   4.106   1.323   6.198 -0.4147 -1.9126 -0.9149
   37CHL1    C4 3849   3.900   1.432   5.982 -0.0208 -0.3391  0.4529
   37CHL1   H4A 3850   3.847   1.335   5.987  0.0603 -0.3388  1.4796
   37CHL1   H4B 3851   3.841   1.494   6.054 -0.5096  2.1342 -1.8873
   37CHL1    C5 3852   3.895   1.487   5.838 -0.3608 -0.1404  0.6336
   37CHL1    C6 3853   3.810   1.586   5.803  0.1169 -0.5228  0.1003
   37CHL1    H6 3854   3.736   1.619   5.877  1.2883 -0.2161  1.1539
   37CHL1    C7 3855   3.803   1.643   5.662  1.0070  0.2306 -0.8460
   37CHL1   H7A 3856   3.695   1.646   5.634  1.2937 -2.6510 -2.6829
   37CHL1   H7B 3857   3.847   1.745   5.658 -1.9334  1.6826  0.5229
   37CHL1    C8 3858   3.865   1.552   5.556 -0.2062 -0.1111  0.6517
   37CHL1    H8 3859   3.795   1.466   5.556 -1.7026  1.0559  1.6030
   37CHL1   C14 3860   3.878   1.615   5.425  0.0086 -0.0706 -0.1852
   37CHL1   H14 3861   3.940   1.706   5.440  1.8644 -1.0460 -1.5514
   37CHL1   C15 3862   3.751   1.672   5.367 -0.5056  0.7302  0.0745
   37CHL1  H15A 3863   3.674   1.591   5.368 -0.1615  0.3925 -0.2670
   37CHL1  H15B 3864   3.711   1.761   5.420  0.6638  1.2187  0.1764
   37CHL1   C16 3865   3.785   1.703   5.219  0.4815  0.9716  0.5902
   37CHL1  H16A 3866   3.707   1.661   5.152  2.0761 -0.2937 -0.5839
   37CHL1  H16B 3867   3.783   1.813   5.205 -0.9452  1.1518  1.9364
   37CHL1   C17 3868   3.925   1.636   5.196  0.7512  0.7762 -0.4052
   37CHL1   H17 3869   3.997   1.720   5.210  1.4376  0.2398 -0.6113
   37CHL1   C13 3870   3.944   1.532   5.317  0.3131  0.2377 -0.0888
   37CHL1   C18 3871   3.857   1.403   5.281 -1.0733 -0.5932  0.1780
   37CHL1  H18A 3872   3.786   1.386   5.365 -0.0934  2.2138  1.7205
   37CHL1  H18B 3873   3.808   1.415   5.182  1.3861  2.2404 -0.8595
   37CHL1  H18C 3874   3.935   1.325   5.265 -0.8993 -0.1550 -1.1901
   37CHL1   C12 3875   4.087   1.491   5.362 -0.1394  0.7198 -0.0046
   37CHL1  H12A 3876   4.142   1.430   5.287 -0.9634 -0.4443  0.3037
   37CHL1  H12B 3877   4.150   1.580   5.381  0.8042  0.3697 -1.3432
   37CHL1   C11 3878   4.072   1.417   5.496  0.3694  0.6295  0.1568
   37CHL1  H11A 3879   4.023   1.318   5.481  0.2256  0.2497  2.6980
   37CHL1  H11B 3880   4.175   1.403   5.535  0.2236  0.6021  0.5237
   37CHL1    C9 3881   4.000   1.499   5.603  0.0018  0.4506 -0.1377
   37CHL1    H9 3882   4.062   1.587   5.628 -0.9996  0.5091  2.5657
   37CHL1   C10 3883   3.994   1.422   5.742  0.4148 -0.4143 -0.1686
   37CHL1   C19 3884   3.954   1.271   5.718  0.6196 -0.2430  0.2915
   37CHL1  H19A 3885   3.929   1.222   5.814  0.3312 -0.1435  0.2671
   37CHL1  H19B 3886   3.880   1.251   5.638 -0.5527 -0.6244  1.4346
   37CHL1  H19C 3887   4.048   1.231   5.673  0.3108  0.4916 -1.0604
   37CHL1    C1 3888   4.133   1.419   5.814 -0.2491 -0.7667 -0.2638
   37CHL1   H1A 3889   4.209   1.372   5.749 -1.8272 -2.2716 -1.1188
   37CHL1   H1B 3890   4.153   1.527   5.833 -0.2446 -0.3435 -2.4321
   37CHL1    C2 3891   4.134   1.350   5.951 -0.0729 -0.4446 -0.2619
   37CHL1   H2A 3892   4.235   1.347   5.996  0.3244  0.5459 -1.0367
   37CHL1   H2B 3893   4.103   1.244   5.942 -1.3880 -0.0232 -1.0063
   37CHL1   C20 3894   3.960   1.588   5.051 -0.0291  0.0345 -1.0118
   37CHL1   H20 3895   3.918   1.485   5.037  1.1775 -0.3946 -1.5720
   37CHL1   C21 3896   4.117   1.599   5.037  0.2392 -0.1822 -0.5850
   37CHL1  H21A 3897   4.160   1.552   5.128 -0.8769  1.1347  0.6824
   37CHL1  H21B 3898   4.149   1.705   5.043  1.1842 -0.5078  0.5582
   37CHL1  H21C 3899   4.146   1.550   4.941 -0.3546 -0.6257 -0.5372
   37CHL1   C22 3900   3.897   1.673   4.936 -0.2873  0.2867  0.0283
   37CHL1  H22A 3901   3.794   1.706   4.961 -0.4991  0.2957 -0.8332
   37CHL1  H22B 3902   3.968   1.758   4.933 -0.3350  0.3121 -0.3642
   37CHL1   C23 3903   3.902   1.610   4.796 -0.2849 -0.0716  0.9010
   37CHL1  H23A 3904   4.009   1.594   4.772 -0.6763  0.2920 -1.3495
   37CHL1  H23B 3905   3.854   1.510   4.804 -0.0737 -0.4001 -1.2692
   37CHL1   C24 3906   3.842   1.702   4.681  0.3958  0.4099 -0.6358
   37CHL1  H24A 3907   3.734   1.712   4.704 -0.0110 -1.9449 -1.3518
   37CHL1  H24B 3908   3.885   1.804   4.690  1.1529 -0.0232  1.0304
   37CHL1   C25 3909   3.861   1.646   4.540 -0.7123  0.5403 -0.3072
   37CHL1   H25 3910   3.969   1.634   4.518 -0.8563 -2.3303  0.2124
   37CHL1   C26 3911   3.786   1.510   4.519 -0.3942  0.0199  0.2169
   37CHL1  H26A 3912   3.679   1.534   4.537 -0.9413  0.2439 -2.7157
   37CHL1  H26B 3913   3.815   1.461   4.423 -1.0604  1.3163 -0.6849
   37CHL1  H26C 3914   3.810   1.439   4.601 -1.6225  0.8028  1.2915
   37CHL1   C27 3915   3.810   1.744   4.446 -0.1554  0.0380  0.6196
   37CHL1  H27A 3916   3.873   1.835   4.460  1.4730 -0.9975  0.3302
   37CHL1  H27B 3917   3.824   1.703   4.344 -1.9327  0.0839  0.3211
   37CHL1  H27C 3918   3.700   1.760   4.455 -0.9563 -4.2279  0.2812
   38CHL1    C3 3919   3.374   1.722   6.154  0.2821 -0.0974  0.4643
   38CHL1    H3 3920   3.346   1.828   6.174 -1.6154 -0.7260  1.3916
   38CHL1    O3 3921   3.394   1.652   6.271 -0.0355  0.1544 -0.4059
   38CHL1   H3' 3922   3.306   1.631   6.303 -0.2552  1.2549 -0.2641
   38CHL1    C4 3923   3.251   1.656   6.080 -0.6057 -0.4466 -0.0024
   38CHL1   H4A 3924   3.259   1.546   6.069 -2.8045 -0.6214 -0.2166
   38CHL1   H4B 3925   3.159   1.655   6.142 -0.4116 -1.9359  0.2952
   38CHL1    C5 3926   3.234   1.715   5.945  0.4702 -0.3726  0.5746
   38CHL1    C6 3927   3.114   1.772   5.906 -0.1916  0.1819  0.0665
   38CHL1    H6 3928   3.027   1.767   5.973 -0.6523  1.9204 -0.3593
   38CHL1    C7 3929   3.085   1.834   5.771  0.7902 -0.3839  0.1718
   38CHL1   H7A 3930   2.983   1.808   5.736  0.5654 -2.9372  2.3859
   38CHL1   H7B 3931   3.072   1.943   5.786 -0.7754 -0.7720  2.0385
   38CHL1    C8 3932   3.197   1.802   5.663 -0.7136 -0.3120  0.1821
   38CHL1    H8 3933   3.174   1.696   5.639  0.2540 -0.5177  0.1404
   38CHL1   C14 3934   3.193   1.897   5.541  0.2439 -0.4090 -0.5810
   38CHL1   H14 3935   3.217   2.000   5.577  1.2151 -1.1033  0.8550
   38CHL1   C15 3936   3.054   1.904   5.475  0.5719  0.0219  0.2792
   38CHL1  H15A 3937   3.007   1.804   5.464 -0.9344  0.7756 -0.4018
   38CHL1  H15B 3938   2.980   1.962   5.534 -1.3275 -0.9697 -1.0229
   38CHL1   C16 3939   3.083   1.960   5.337 -0.1398 -0.3205  0.3183
   38CHL1  H16A 3940   3.036   1.921   5.244  2.2516  0.3870 -1.2844
   38CHL1  H16B 3941   3.041   2.062   5.352  1.7438  0.0796  3.8165
   38CHL1   C17 3942   3.242   1.973   5.325  0.9299 -0.1112  0.9540
   38CHL1   H17 3943   3.264   2.074   5.366  0.8313  2.2321 -4.0729
   38CHL1   C13 3944   3.290   1.869   5.427 -0.7180  0.3327  0.5751
   38CHL1   C18 3945   3.268   1.719   5.371  0.1379  0.5215 -0.3383
   38CHL1  H18A 3946   3.340   1.703   5.288  1.0854  0.9642  0.3702
   38CHL1  H18B 3947   3.275   1.639   5.448 -1.4347  0.2034 -0.4918
   38CHL1  H18C 3948   3.174   1.715   5.312  0.3964 -1.2687 -0.6836
   38CHL1   C12 3949   3.430   1.884   5.495 -0.2655  0.1037 -0.6156
   38CHL1  H12A 3950   3.504   1.857   5.416 -0.8757  0.8255 -1.4635
   38CHL1  H12B 3951   3.462   1.988   5.519  2.3194 -0.6875 -0.3489
   38CHL1   C11 3952   3.452   1.801   5.620  0.9116  0.1558 -0.7746
   38CHL1  H11A 3953   3.455   1.694   5.592 -3.6279 -0.9416  1.8409
   38CHL1  H11B 3954   3.553   1.829   5.658  0.6150  2.8143 -1.7373
   38CHL1    C9 3955   3.340   1.812   5.735  0.1539 -0.2572  0.4851
   38CHL1    H9 3956   3.345   1.918   5.769  2.2982  0.1971 -0.9790
   38CHL1   C10 3957   3.365   1.724   5.860  0.4359  0.5046 -0.5900
   38CHL1   C19 3958   3.404   1.582   5.824 -0.1182  0.1031  0.0041
   38CHL1  H19A 3959   3.506   1.565   5.783  0.4290  0.8491  1.0097
   38CHL1  H19B 3960   3.399   1.513   5.912 -1.3254 -0.9743 -0.8631
   38CHL1  H19C 3961   3.332   1.547   5.747  0.2838 -0.4448 -0.1272
   38CHL1    C1 3962   3.486   1.785   5.938 -0.8334 -0.1471  0.0267
   38CHL1   H1A 3963   3.582   1.790   5.882 -1.0591  0.9426 -0.2864
   38CHL1   H1B 3964   3.462   1.891   5.961 -3.1055 -0.0684 -2.2612
   38CHL1    C2 3965   3.506   1.710   6.073 -0.1976  0.0232  0.2759
   38CHL1   H2A 3966   3.591   1.762   6.121  0.2373 -0.2704 -0.1668
   38CHL1   H2B 3967   3.532   1.603   6.058 -1.4367 -0.2834  0.1939
   38CHL1   C20 3968   3.309   1.994   5.183 -0.3246 -0.9161 -0.1971
   38CHL1   H20 3969   3.261   1.917   5.119 -3.5191  0.0061  0.9317
   38CHL1   C21 3970   3.460   1.975   5.179 -0.3474  0.1951  0.1315
   38CHL1  H21A 3971   3.502   1.983   5.077 -0.7445 -1.4723 -0.1912
   38CHL1  H21B 3972   3.486   1.874   5.219 -2.5389 -0.7794 -0.7143
   38CHL1  H21C 3973   3.509   2.052   5.242 -0.4670  0.3569  0.0242
   38CHL1   C22 3974   3.282   2.133   5.118 -0.4446  0.0399  0.0516
   38CHL1  H22A 3975   3.339   2.216   5.166 -1.8214  1.1470 -0.1686
   38CHL1  H22B 3976   3.328   2.123   5.017 -1.1485 -0.0521 -0.2678
   38CHL1   C23 3977   3.139   2.188   5.103  0.4463  0.1134 -0.6033
   38CHL1  H23A 3978   3.064   2.113   5.070 -0.1815  0.6987 -0.5398
   38CHL1  H23B 3979   3.118   2.208   5.211  1.3001  2.1556 -0.7785
   38CHL1   C24 3980   3.114   2.317   5.023 -1.1379  0.0884 -0.7790
   38CHL1  H24A 3981   3.197   2.382   5.057 -0.4755 -1.1478  0.0328
   38CHL1  H24B 3982   3.132   2.288   4.917  2.3538  2.1078 -0.8607
   38CHL1   C25 3983   2.972   2.392   5.009  0.2821  0.2084 -0.0995
   38CHL1   H25 3984   2.935   2.413   5.112 -1.4120 -0.0491 -0.6255
   38CHL1   C26 3985   2.992   2.519   4.922  0.3949 -0.3464 -0.4054
   38CHL1  H26A 3986   3.034   2.489   4.823  3.2161 -0.0760  0.5998
   38CHL1  H26B 3987   2.896   2.572   4.906  1.3336  1.6446  0.2357
   38CHL1  H26C 3988   3.067   2.584   4.972  1.9522 -1.0460 -1.7247
   38CHL1   C27 3989   2.874   2.297   4.949  0.3407  0.3172 -0.0901
   38CHL1  H27A 3990   2.877   2.202   5.005  0.7784  0.5416  0.2754
   38CHL1  H27B 3991   2.768   2.331   4.950 -0.3999 -1.8380 -0.7501
   38CHL1  H27C 3992   2.896   2.276   4.842 -0.8906  1.1054 -0.5183
   39CHL1    C3 3993   4.067   1.932   5.895 -0.0619 -0.4752 -0.6057
   39CHL1    H3 3994   3.974   1.923   5.834  1.8917 -0.9239 -3.7730
   39CHL1    O3 3995   4.070   1.856   6.013 -0.5708  0.4500  0.0211
   39CHL1   H3' 3996   4.156   1.873   6.052 -1.4191 -0.8756  2.7517
   39CHL1    C4 3997   4.176   1.886   5.801 -0.4815 -0.0306  0.0401
   39CHL1   H4A 3998   4.268   1.891   5.862  0.2232 -0.6377 -0.9526
   39CHL1   H4B 3999   4.170   1.778   5.774  2.4860  0.3841 -2.9171
   39CHL1    C5 4000   4.181   1.969   5.678 -0.5458 -0.3442  0.5292
   39CHL1    C6 4001   4.149   1.916   5.558 -0.4275 -0.0961  0.4216
   39CHL1    H6 4002   4.127   1.808   5.556  0.1332 -0.3684  3.5145
   39CHL1    C7 4003   4.160   1.989   5.423 -0.3761  0.0160 -0.0533
   39CHL1   H7A 4004   4.193   1.912   5.349 -1.7757 -1.1588  0.4788
   39CHL1   H7B 4005   4.057   2.015   5.390 -0.0239  0.5749 -0.7580
   39CHL1    C8 4006   4.227   2.128   5.439  1.2890  0.5698  0.2557
   39CHL1    H8 4007   4.336   2.114   5.451  1.2052  1.7537  3.4000
   39CHL1   C14 4008   4.196   2.217   5.317  0.1932 -0.2743 -0.2770
   39CHL1   H14 4009   4.086   2.236   5.325 -0.0167 -0.5177 -2.2546
   39CHL1   C15 4010   4.213   2.172   5.171 -0.2495 -0.0704  0.7559
   39CHL1  H15A 4011   4.316   2.132   5.157  0.1445  1.7082 -2.1059
   39CHL1  H15B 4012   4.147   2.085   5.149  0.1794 -1.0936  3.1290
   39CHL1   C16 4013   4.207   2.296   5.092  0.1597 -0.0819  0.6880
   39CHL1  H16A 4014   4.298   2.315   5.032 -0.6450 -0.3738 -0.6870
   39CHL1  H16B 4015   4.113   2.304   5.033 -0.1925  1.6543  1.4089
   39CHL1   C17 4016   4.193   2.413   5.188 -0.4324  0.0380 -0.0732
   39CHL1   H17 4017   4.089   2.429   5.225 -0.8722 -1.7439 -0.4798
   39CHL1   C13 4018   4.254   2.360   5.321  0.2980  0.9074 -0.2722
   39CHL1   C18 4019   4.409   2.357   5.316 -0.3480  0.5914  0.6850
   39CHL1  H18A 4020   4.438   2.464   5.325  0.9167  0.2784  0.4074
   39CHL1  H18B 4021   4.457   2.293   5.393  0.6069  0.5378  0.0625
   39CHL1  H18C 4022   4.452   2.323   5.219 -1.0048  0.0238  0.5817
   39CHL1   C12 4023   4.185   2.420   5.444 -0.6114 -1.0485 -0.5920
   39CHL1  H12A 4024   4.214   2.526   5.461 -1.2808 -0.8332 -0.7786
   39CHL1  H12B 4025   4.075   2.429   5.433 -0.8291 -1.3447  1.1081
   39CHL1   C11 4026   4.231   2.353   5.572  0.1856 -0.5780  0.4291
   39CHL1  H11A 4027   4.341   2.363   5.564 -0.0177  0.8229 -1.4431
   39CHL1  H11B 4028   4.188   2.399   5.664 -2.7422 -0.3058 -0.9393
   39CHL1    C9 4029   4.187   2.200   5.562  0.7074  1.1782 -0.7299
   39CHL1    H9 4030   4.078   2.216   5.548  0.0699 -0.9583  1.2233
   39CHL1   C10 4031   4.206   2.119   5.698 -0.8980 -0.3417 -0.6751
   39CHL1   C19 4032   4.358   2.143   5.750  0.5053  0.1290 -0.5417
   39CHL1  H19A 4033   4.362   2.243   5.799  2.3712  0.6342 -1.6163
   39CHL1  H19B 4034   4.394   2.068   5.823 -0.2500  0.1002 -0.1861
   39CHL1  H19C 4035   4.416   2.131   5.656 -0.3509  0.8356 -1.1713
   39CHL1    C1 4036   4.109   2.173   5.808 -0.4747  0.6207 -0.6770
   39CHL1   H1A 4037   4.132   2.278   5.833 -0.4238  0.3183  0.6237
   39CHL1   H1B 4038   4.005   2.175   5.767  0.0767 -1.5499 -2.3693
   39CHL1    C2 4039   4.103   2.074   5.932 -0.5975 -0.9880 -0.1498
   39CHL1   H2A 4040   4.037   2.110   6.014 -1.5235 -3.1232  0.1003
   39CHL1   H2B 4041   4.200   2.078   5.986 -0.9393  0.8180  0.4107
   39CHL1   C20 4042   4.232   2.555   5.126  0.2930 -0.1488 -0.6559
   39CHL1   H20 4043   4.341   2.549   5.108  0.6332  0.1643  1.0968
   39CHL1   C21 4044   4.206   2.670   5.227 -0.6286  0.3880 -0.4700
   39CHL1  H21A 4045   4.098   2.682   5.252 -0.5661 -1.2684  0.7566
   39CHL1  H21B 4046   4.238   2.768   5.187  2.5956  0.0422  0.9929
   39CHL1  H21C 4047   4.261   2.654   5.322 -1.0731  1.3965 -0.0273
   39CHL1   C22 4048   4.168   2.592   4.993  0.9230  0.3807  0.6063
   39CHL1  H22A 4049   4.219   2.686   4.965  2.4585 -0.2483  1.1826
   39CHL1  H22B 4050   4.203   2.511   4.926  1.9977 -0.0796  1.6752
   39CHL1   C23 4051   4.018   2.610   4.992 -0.8623  0.1756 -0.1488
   39CHL1  H23A 4052   3.975   2.507   4.996  4.8637 -2.5487  0.8363
   39CHL1  H23B 4053   3.990   2.669   5.081 -2.1388 -0.3865 -0.1426
   39CHL1   C24 4054   3.970   2.686   4.868 -0.1775 -0.0370  0.7011
   39CHL1  H24A 4055   4.031   2.775   4.842 -1.5837  0.2320 -2.0159
   39CHL1  H24B 4056   3.965   2.622   4.778  0.9035 -0.2344  0.7664
   39CHL1   C25 4057   3.828   2.756   4.882 -0.3868  0.4518 -0.1663
   39CHL1   H25 4058   3.840   2.821   4.971 -0.6035  0.8163 -0.3965
   39CHL1   C26 4059   3.798   2.842   4.765  0.1258  0.2005 -0.8286
   39CHL1  H26A 4060   3.782   2.780   4.674  0.7168 -0.3369 -0.5766
   39CHL1  H26B 4061   3.717   2.917   4.780 -0.5433 -0.9122  1.8104
   39CHL1  H26C 4062   3.883   2.910   4.748 -0.9170  1.4009 -1.4127
   39CHL1   C27 4063   3.715   2.655   4.909  0.1603 -0.2930  0.5107
   39CHL1  H27A 4064   3.697   2.599   4.815  0.4344  1.7398 -0.8186
   39CHL1  H27B 4065   3.755   2.593   4.992  0.4511 -0.8344 -0.0278
   39CHL1  H27C 4066   3.623   2.711   4.934  1.4488  0.8094  3.2621
   40CHL1    C3 4067   3.485   5.969   6.081  0.7168  0.2488 -0.5080
   40CHL1    H3 4068   3.482   5.864   6.043  0.9062  0.2532 -0.5373
   40CHL1    O3 4069   3.506   5.973   6.221 -0.7325  0.3755 -0.0780
   40CHL1   H3' 4070   3.505   6.068   6.234 -0.0909  0.4393 -0.4420
   40CHL1    C4 4071   3.589   6.046   6.003  0.2947  0.7151  0.7309
   40CHL1   H4A 4072   3.603   6.150   6.038 -1.0380  1.1986 -0.1011
   40CHL1   H4B 4073   3.677   5.984   6.031 -0.2395 -0.3522  0.1268
   40CHL1    C5 4074   3.558   6.043   5.857 -0.5418  0.4585  0.2590
   40CHL1    C6 4075   3.636   5.977   5.761  0.8021  0.7750 -0.0710
   40CHL1    H6 4076   3.731   5.926   5.785 -1.0965 -2.2052  1.7090
   40CHL1    C7 4077   3.604   5.980   5.615 -0.1537 -0.0425 -0.6300
   40CHL1   H7A 4078   3.698   5.997   5.557 -0.0706  0.6238 -0.3103
   40CHL1   H7B 4079   3.572   5.880   5.578 -0.1939  0.0092 -0.7350
   40CHL1    C8 4080   3.508   6.089   5.568 -0.1584 -0.3598 -0.0018
   40CHL1    H8 4081   3.556   6.190   5.573  0.0563 -0.2616 -2.4694
   40CHL1   C14 4082   3.468   6.070   5.424 -0.4662 -0.2388 -0.2490
   40CHL1   H14 4083   3.427   5.968   5.414 -0.3860 -0.6172  2.5988
   40CHL1   C15 4084   3.572   6.068   5.307  0.0868  0.0202 -0.5744
   40CHL1  H15A 4085   3.617   6.169   5.299 -0.9420  0.5655  0.1876
   40CHL1  H15B 4086   3.651   5.989   5.311 -1.2321 -1.2956  1.9635
   40CHL1   C16 4087   3.474   6.057   5.191  0.4210 -0.1141  0.6069
   40CHL1  H16A 4088   3.507   6.089   5.090 -1.7299  0.8582  0.1616
   40CHL1  H16B 4089   3.457   5.948   5.183 -0.2537 -0.1856  2.4505
   40CHL1   C17 4090   3.340   6.127   5.235 -0.1728  0.3401  0.1923
   40CHL1   H17 4091   3.265   6.044   5.232 -1.0033  1.0944 -0.8274
   40CHL1   C13 4092   3.357   6.164   5.380 -0.3042 -0.9278 -0.3226
   40CHL1   C18 4093   3.398   6.317   5.389 -0.0694  0.0901  0.5504
   40CHL1  H18A 4094   3.436   6.343   5.489  3.6626 -0.7235 -0.4968
   40CHL1  H18B 4095   3.473   6.341   5.311 -1.8214 -1.0620 -1.6202
   40CHL1  H18C 4096   3.315   6.387   5.365  0.6104 -0.0660 -2.7256
   40CHL1   C12 4097   3.233   6.121   5.466  0.6226 -0.1982  0.1811
   40CHL1  H12A 4098   3.145   6.179   5.430  0.8837 -0.2367 -0.5417
   40CHL1  H12B 4099   3.213   6.015   5.441  0.4213  0.3409 -2.2441
   40CHL1   C11 4100   3.259   6.157   5.621  0.0977  0.3966 -0.0543
   40CHL1  H11A 4101   3.249   6.267   5.633 -1.0494  0.4407 -1.1332
   40CHL1  H11B 4102   3.168   6.114   5.669  1.0963  0.1201  1.6427
   40CHL1    C9 4103   3.385   6.086   5.666  0.1852 -0.5494 -0.2787
   40CHL1    H9 4104   3.357   5.979   5.658 -0.1947 -0.7745  2.8779
   40CHL1   C10 4105   3.424   6.114   5.813 -0.2330 -0.7990 -0.6618
   40CHL1   C19 4106   3.430   6.265   5.837 -0.0757  0.0539 -0.3253
   40CHL1  H19A 4107   3.456   6.272   5.945 -2.1725 -0.6507  0.2740
   40CHL1  H19B 4108   3.504   6.311   5.768 -1.8516 -0.3430 -2.6132
   40CHL1  H19C 4109   3.343   6.324   5.801 -0.0814 -1.5828 -3.2397
   40CHL1    C1 4110   3.317   6.033   5.898  0.3692 -0.4163 -0.9118
   40CHL1   H1A 4111   3.218   6.078   5.877 -2.7188 -6.7084 -2.1830
   40CHL1   H1B 4112   3.319   5.928   5.861  0.4971 -0.8206  0.2027
   40CHL1    C2 4113   3.347   6.029   6.054 -0.0297  0.7342  0.3628
   40CHL1   H2A 4114   3.264   5.973   6.102  0.1099  0.6568  0.5169
   40CHL1   H2B 4115   3.343   6.134   6.089  0.8321  0.5383  1.0819
   40CHL1   C20 4116   3.277   6.225   5.133  0.1229  0.2735  0.8266
   40CHL1   H20 4117   3.349   6.309   5.124 -0.5872  0.6223 -3.4527
   40CHL1   C21 4118   3.137   6.277   5.165 -0.1144  0.6168 -0.3733
   40CHL1  H21A 4119   3.152   6.354   5.244  1.7367 -0.2318  0.1561
   40CHL1  H21B 4120   3.076   6.191   5.199  1.5804 -0.0553  1.1447
   40CHL1  H21C 4121   3.091   6.320   5.073 -2.5138  0.3803  0.6364
   40CHL1   C22 4122   3.276   6.163   4.994  0.4053 -0.4019  0.2769
   40CHL1  H22A 4123   3.220   6.226   4.923  1.1628 -0.1444 -0.1020
   40CHL1  H22B 4124   3.376   6.166   4.947 -0.1101 -1.0641 -0.9030
   40CHL1   C23 4125   3.209   6.025   4.977  1.1139  0.1447 -0.6001
   40CHL1  H23A 4126   3.257   5.942   5.034 -0.5926  0.7015  1.8583
   40CHL1  H23B 4127   3.106   6.036   5.019  1.4677  1.8145 -0.1169
   40CHL1   C24 4128   3.192   5.988   4.830 -0.2260 -0.4045 -0.5831
   40CHL1  H24A 4129   3.145   6.076   4.781  1.0282 -0.2173 -1.5086
   40CHL1  H24B 4130   3.291   5.972   4.782  0.0998 -1.3483  0.3394
   40CHL1   C25 4131   3.121   5.848   4.816 -0.6711 -0.3427 -0.3414
   40CHL1   H25 4132   3.188   5.777   4.867 -0.4195  0.2413  0.1549
   40CHL1   C26 4133   2.984   5.841   4.882  0.1065 -0.1279 -0.1343
   40CHL1  H26A 4134   2.973   5.842   4.992 -0.4793  0.6153 -0.1886
   40CHL1  H26B 4135   2.920   5.924   4.845 -0.2363  0.5250  1.7927
   40CHL1  H26C 4136   2.940   5.751   4.833 -2.4568  1.3930 -0.8575
   40CHL1   C27 4137   3.113   5.814   4.669 -0.3245 -0.5507 -0.0479
   40CHL1  H27A 4138   3.217   5.815   4.631  0.0450  2.1614  0.8041
   40CHL1  H27B 4139   3.074   5.711   4.660  0.7835 -1.1266  1.3399
   40CHL1  H27C 4140   3.052   5.891   4.616  1.0888  1.7069  1.3906
   41CHL1    C3 4141   0.234   0.582   6.272 -0.2963 -0.4009 -0.3465
   41CHL1    H3 4142   0.315   0.644   6.228 -1.6743  0.5675 -1.6431
   41CHL1    O3 4143   0.243   0.598   6.411  0.0007 -0.4884  0.4807
   41CHL1   H3' 4144   0.154   0.573   6.439 -0.5360 -0.0836 -0.7880
   41CHL1    C4 4145   0.095   0.616   6.220 -0.4058 -0.2618 -0.4720
   41CHL1   H4A 4146   0.012   0.574   6.281  0.0096  0.3138  0.5091
   41CHL1   H4B 4147   0.074   0.720   6.251  2.0788  0.1075  0.1741
   41CHL1    C5 4148   0.069   0.586   6.078 -0.3397  0.3710  0.3199
   41CHL1    C6 4149   0.003   0.673   5.986 -0.0172 -0.1700  0.1121
   41CHL1    H6 4150  -0.054   0.762   6.017  0.9455  1.2900 -2.0831
   41CHL1    C7 4151  -0.010   0.638   5.839 -0.0315  0.8702  0.1104
   41CHL1   H7A 4152  -0.120   0.645   5.821  0.2502  3.1332 -1.2268
   41CHL1   H7B 4153   0.049   0.699   5.767  0.0410 -1.2152 -1.6895
   41CHL1    C8 4154   0.010   0.491   5.809 -0.1713  0.0801  0.1093
   41CHL1    H8 4155  -0.080   0.432   5.835  0.4775 -2.2915 -2.6078
   41CHL1   C14 4156   0.012   0.478   5.659 -0.0276 -0.4761  0.0096
   41CHL1   H14 4157   0.110   0.517   5.625  0.5764 -0.2769  1.8801
   41CHL1   C15 4158  -0.096   0.540   5.566 -0.0168  0.4531 -0.2407
   41CHL1  H15A 4159  -0.190   0.500   5.609 -0.1206 -4.1520 -3.8873
   41CHL1  H15B 4160  -0.077   0.649   5.567 -0.3727  0.5102  0.3052
   41CHL1   C16 4161  -0.069   0.464   5.436  0.0338  0.8079 -0.0065
   41CHL1  H16A 4162  -0.170   0.434   5.400  0.8460 -2.4186  0.0498
   41CHL1  H16B 4163  -0.022   0.536   5.366  3.2304 -0.4597  0.6338
   41CHL1   C17 4164   0.023   0.343   5.466 -0.6245 -0.2450 -0.0959
   41CHL1   H17 4165   0.122   0.381   5.435 -0.0392 -2.6699 -1.4516
   41CHL1   C13 4166   0.034   0.332   5.620 -0.4867  0.1101 -0.5483
   41CHL1   C18 4167  -0.088   0.243   5.662 -0.1804 -0.0134 -0.7211
   41CHL1  H18A 4168  -0.077   0.134   5.641  1.3610 -0.1616  0.5739
   41CHL1  H18B 4169  -0.109   0.245   5.771 -0.6353 -1.0837 -0.7713
   41CHL1  H18C 4170  -0.182   0.273   5.612 -0.4649  0.4386  0.0805
   41CHL1   C12 4171   0.171   0.275   5.668  0.4456 -0.3906 -0.0611
   41CHL1  H12A 4172   0.179   0.165   5.650  1.7147 -0.1563 -1.0607
   41CHL1  H12B 4173   0.255   0.321   5.612  0.2864 -1.3779 -1.1626
   41CHL1   C11 4174   0.191   0.301   5.818 -0.3717  0.0717  0.2447
   41CHL1  H11A 4175   0.153   0.217   5.879  0.6352  0.4854  1.5018
   41CHL1  H11B 4176   0.300   0.299   5.840 -0.2948 -1.8815 -0.1295
   41CHL1    C9 4177   0.137   0.440   5.873 -0.3665 -0.4096 -0.0291
   41CHL1    H9 4178   0.215   0.515   5.848 -0.0873 -1.0173 -1.0560
   41CHL1   C10 4179   0.132   0.449   6.030  0.0548 -0.0272 -0.4396
   41CHL1   C19 4180   0.028   0.342   6.083  0.6059  0.1079 -0.2491
   41CHL1  H19A 4181  -0.075   0.368   6.049  0.9792  2.9441  0.4556
   41CHL1  H19B 4182   0.060   0.241   6.050 -0.8994 -0.7661  0.8711
   41CHL1  H19C 4183   0.035   0.352   6.194  1.4017 -1.8585 -0.0880
   41CHL1    C1 4184   0.271   0.412   6.088  0.5657 -0.3858  0.3710
   41CHL1   H1A 4185   0.287   0.304   6.069  0.1876 -0.4374  0.3352
   41CHL1   H1B 4186   0.349   0.465   6.028  0.2340 -3.4294 -3.1120
   41CHL1    C2 4187   0.275   0.444   6.240  0.3755  0.6866 -0.1126
   41CHL1   H2A 4188   0.378   0.426   6.277  0.6953  0.7319 -0.9602
   41CHL1   H2B 4189   0.205   0.378   6.296  1.1516 -1.7311 -1.7994
   41CHL1   C20 4190  -0.006   0.225   5.372  1.2160  0.1656  0.3634
   41CHL1   H20 4191  -0.105   0.184   5.403  0.8449  0.4134 -0.4662
   41CHL1   C21 4192   0.091   0.113   5.405 -0.6669  0.0599 -0.2414
   41CHL1  H21A 4193   0.068   0.076   5.507  1.0278 -1.8886 -0.4916
   41CHL1  H21B 4194   0.199   0.133   5.387 -0.7148 -0.6603 -1.4270
   41CHL1  H21C 4195   0.061   0.027   5.341  0.7864 -0.5787 -0.1202
   41CHL1   C22 4196  -0.021   0.268   5.228 -0.0549 -0.3195  0.2800
   41CHL1  H22A 4197  -0.073   0.365   5.212 -0.3371 -0.1078  2.3031
   41CHL1  H22B 4198   0.083   0.295   5.200  0.5330 -0.1081  2.5366
   41CHL1   C23 4199  -0.082   0.156   5.140 -0.3657 -0.8155  0.9480
   41CHL1  H23A 4200  -0.012   0.070   5.134  2.0866  1.1505 -0.5949
   41CHL1  H23B 4201  -0.181   0.126   5.179 -1.7883  0.5463 -1.3514
   41CHL1   C24 4202  -0.109   0.204   4.997 -0.1038  0.0960 -0.4004
   41CHL1  H24A 4203  -0.198   0.270   5.002 -0.4618 -0.1380 -2.5131
   41CHL1  H24B 4204  -0.022   0.259   4.957 -0.3803 -0.8767 -2.4642
   41CHL1   C25 4205  -0.146   0.091   4.901  0.5084 -0.1004 -0.2060
   41CHL1   H25 4206  -0.073   0.008   4.915 -0.8619 -1.3827 -0.2910
   41CHL1   C26 4207  -0.284   0.039   4.949 -0.1186 -0.2872  0.0448
   41CHL1  H26A 4208  -0.348   0.129   4.955  0.6555  0.2711  0.0643
   41CHL1  H26B 4209  -0.333  -0.026   4.873 -1.3859 -0.5446  1.0303
   41CHL1  H26C 4210  -0.293  -0.001   5.052 -5.1429 -0.0022 -0.0217
   41CHL1   C27 4211  -0.154   0.145   4.751 -0.2945  0.1566  0.5292
   41CHL1  H27A 4212  -0.214   0.239   4.751 -0.5054  0.0267  1.1377
   41CHL1  H27B 4213  -0.052   0.154   4.708 -0.1303  2.1152  1.2377
   41CHL1  H27C 4214  -0.209   0.069   4.692  1.6727 -0.2067 -0.9303
   42CHL1    C3 4215   0.808   0.864   6.285  0.4267  0.6276 -0.9126
   42CHL1    H3 4216   0.901   0.818   6.246 -2.0316 -5.8249 -0.4107
   42CHL1    O3 4217   0.848   0.895   6.422  0.0704 -0.1868  0.9462
   42CHL1   H3' 4218   0.772   0.930   6.470 -0.2236 -2.9333  2.6778
   42CHL1    C4 4219   0.766   0.988   6.205 -0.2817  0.9892 -0.1972
   42CHL1   H4A 4220   0.676   1.039   6.246  0.1635  2.1476 -0.6029
   42CHL1   H4B 4221   0.847   1.064   6.202 -0.3588  1.0464 -0.9537
   42CHL1    C5 4222   0.745   0.945   6.063  0.6504 -0.4754 -1.2253
   42CHL1    C6 4223   0.819   0.988   5.960  0.0681  0.7087  0.4180
   42CHL1    H6 4224   0.901   1.056   5.985  0.2497  0.3970  0.6813
   42CHL1    C7 4225   0.782   0.953   5.819 -0.2033 -0.2188  0.3109
   42CHL1   H7A 4226   0.781   1.041   5.751 -1.0149 -0.4893 -0.0356
   42CHL1   H7B 4227   0.867   0.888   5.787  0.2586  0.4996  0.0552
   42CHL1    C8 4228   0.644   0.880   5.796 -0.2604 -0.7135  0.6890
   42CHL1    H8 4229   0.571   0.964   5.790  0.6975  0.1512  0.8547
   42CHL1   C14 4230   0.646   0.807   5.658 -0.3461  0.3068 -0.0562
   42CHL1   H14 4231   0.733   0.738   5.662  1.4234  2.4138 -0.3066
   42CHL1   C15 4232   0.684   0.897   5.536  0.1268  0.8055 -0.2481
   42CHL1  H15A 4233   0.640   0.996   5.561  1.4384  0.8798  1.9938
   42CHL1  H15B 4234   0.794   0.891   5.525  0.1346 -2.1949  0.5240
   42CHL1   C16 4235   0.619   0.831   5.424 -0.1311  0.3457  0.2820
   42CHL1  H16A 4236   0.548   0.897   5.370 -1.2874 -1.9607 -1.1607
   42CHL1  H16B 4237   0.679   0.778   5.347 -2.1929  0.5163 -1.5496
   42CHL1   C17 4238   0.534   0.713   5.484 -0.0050  0.0785 -0.2484
   42CHL1   H17 4239   0.610   0.633   5.498 -0.4659 -0.8546 -2.7079
   42CHL1   C13 4240   0.509   0.751   5.632 -0.8335  0.1312 -0.1498
   42CHL1   C18 4241   0.401   0.860   5.637  0.3753 -0.1661  0.3096
   42CHL1  H18A 4242   0.422   0.953   5.580  0.0515  0.0955  0.6066
   42CHL1  H18B 4243   0.305   0.812   5.610  0.7713 -1.9953  1.9379
   42CHL1  H18C 4244   0.390   0.889   5.744 -1.7089 -0.3013  0.1651
   42CHL1   C12 4245   0.476   0.640   5.739 -0.4317 -0.0884 -0.3149
   42CHL1  H12A 4246   0.371   0.605   5.734 -1.0863  1.1792  2.4453
   42CHL1  H12B 4247   0.546   0.554   5.740 -1.8327 -1.2797 -1.2665
   42CHL1   C11 4248   0.488   0.692   5.881  0.1690  0.4683 -0.9982
   42CHL1  H11A 4249   0.402   0.747   5.924  0.8646  0.3408  0.6433
   42CHL1  H11B 4250   0.494   0.608   5.953 -0.4253  1.4420  0.2288
   42CHL1    C9 4251   0.613   0.781   5.908  0.1687 -0.5033  0.3322
   42CHL1    H9 4252   0.699   0.711   5.909 -0.9157 -1.8712  1.9769
   42CHL1   C10 4253   0.629   0.839   6.057 -0.4896 -0.0487  0.7650
   42CHL1   C19 4254   0.501   0.915   6.097 -0.3201  0.0465  0.3519
   42CHL1  H19A 4255   0.412   0.848   6.096 -1.4145  1.4637  0.5065
   42CHL1  H19B 4256   0.510   0.963   6.196 -1.0983 -1.0352  0.9628
   42CHL1  H19C 4257   0.473   1.000   6.031  2.8090 -0.3336 -1.6847
   42CHL1    C1 4258   0.667   0.720   6.146  0.1967 -0.0320  0.0060
   42CHL1   H1A 4259   0.581   0.650   6.147 -0.8346  1.1990 -0.1992
   42CHL1   H1B 4260   0.748   0.654   6.108  0.1808  0.8583 -1.6438
   42CHL1    C2 4261   0.700   0.757   6.286  0.5013 -0.5845 -0.0873
   42CHL1   H2A 4262   0.737   0.672   6.349 -1.2346 -0.1275  1.6779
   42CHL1   H2B 4263   0.608   0.797   6.335 -0.2752  0.9574 -2.6504
   42CHL1   C20 4264   0.427   0.645   5.399  0.0367 -0.2468 -0.4333
   42CHL1   H20 4265   0.330   0.656   5.452 -1.8641  1.9347 -3.9961
   42CHL1   C21 4266   0.453   0.493   5.401  0.2496  0.7481 -0.7351
   42CHL1  H21A 4267   0.411   0.449   5.494 -0.4041 -0.3562 -1.5237
   42CHL1  H21B 4268   0.559   0.464   5.390 -0.0173 -1.3335  1.4139
   42CHL1  H21C 4269   0.386   0.444   5.327  0.7783  0.4022 -0.9919
   42CHL1   C22 4270   0.396   0.698   5.250 -0.2059 -0.1084 -0.8211
   42CHL1  H22A 4271   0.410   0.808   5.256  1.0909 -0.2515 -1.0823
   42CHL1  H22B 4272   0.474   0.661   5.181  0.1812  0.8494 -0.9197
   42CHL1   C23 4273   0.263   0.653   5.186  0.5303  0.4442 -0.2968
   42CHL1  H23A 4274   0.274   0.543   5.170 -1.5562  0.1862 -0.2681
   42CHL1  H23B 4275   0.170   0.671   5.244 -1.1672  1.5950 -3.1429
   42CHL1   C24 4276   0.250   0.731   5.052  0.1708  0.6621 -0.8106
   42CHL1  H24A 4277   0.229   0.839   5.069 -0.5135  0.5761 -1.0794
   42CHL1  H24B 4278   0.347   0.733   4.996  0.4561 -0.2423 -0.3627
   42CHL1   C25 4279   0.147   0.666   4.951  0.4048 -0.1598  0.6395
   42CHL1   H25 4280   0.139   0.555   4.951 -1.1393 -0.0708  1.0640
   42CHL1   C26 4281   0.006   0.717   4.985 -0.7297 -0.1921 -0.4579
   42CHL1  H26A 4282  -0.006   0.822   4.950 -2.6663  0.3256  1.5653
   42CHL1  H26B 4283  -0.068   0.647   4.941 -2.6503  0.4828  1.5499
   42CHL1  H26C 4284  -0.015   0.717   5.094 -1.2108  4.1551 -0.3842
   42CHL1   C27 4285   0.188   0.702   4.806  0.0438 -0.5778 -0.3424
   42CHL1  H27A 4286   0.289   0.658   4.787 -1.2855 -3.1419 -2.1213
   42CHL1  H27B 4287   0.112   0.670   4.732  1.0121 -0.3686 -1.4697
   42CHL1  H27C 4288   0.183   0.813   4.803 -0.7152 -0.3670  3.5587
   43CHL1    C3 4289   0.587   3.831   6.265  0.3000 -0.3997 -0.1266
   43CHL1    H3 4290   0.476   3.834   6.266  0.3185  0.8968  0.4981
   43CHL1    O3 4291   0.639   3.843   6.400  0.0030 -0.3022 -0.1716
   43CHL1   H3' 4292   0.725   3.801   6.407  0.6390  0.9846  0.0345
   43CHL1    C4 4293   0.646   3.704   6.197 -0.0100  0.0096  0.7148
   43CHL1   H4A 4294   0.756   3.716   6.206  0.1289 -1.4011  1.0875
   43CHL1   H4B 4295   0.608   3.612   6.247 -0.6712  1.8736  3.9783
   43CHL1    C5 4296   0.627   3.692   6.047  0.6279 -0.4835  1.1905
   43CHL1    C6 4297   0.560   3.590   5.991  0.2957 -0.6822 -0.4259
   43CHL1    H6 4298   0.518   3.518   6.063 -1.2423 -0.9632 -1.5673
   43CHL1    C7 4299   0.523   3.566   5.848 -0.5037 -0.2577 -0.3393
   43CHL1   H7A 4300   0.539   3.463   5.809  1.0542  0.3681 -1.4406
   43CHL1   H7B 4301   0.424   3.610   5.822 -0.8698  0.2366  1.7250
   43CHL1    C8 4302   0.613   3.660   5.763 -0.5225  0.4395  0.2008
   43CHL1    H8 4303   0.719   3.625   5.759  0.0208  2.0040  0.0164
   43CHL1   C14 4304   0.567   3.659   5.622  0.6122  0.3489  0.5753
   43CHL1   H14 4305   0.458   3.680   5.620  0.3140 -1.1160  0.5437
   43CHL1   C15 4306   0.566   3.523   5.547  0.2116 -0.2109  0.0415
   43CHL1  H15A 4307   0.668   3.479   5.559  1.1425  1.9483  0.5770
   43CHL1  H15B 4308   0.494   3.451   5.591  1.2348 -0.7802  0.8383
   43CHL1   C16 4309   0.543   3.564   5.396  0.5475 -0.3714  0.1036
   43CHL1  H16A 4310   0.616   3.532   5.319 -1.2132  0.4818 -2.0284
   43CHL1  H16B 4311   0.440   3.544   5.359  0.4933 -0.3057  0.2195
   43CHL1   C17 4312   0.554   3.723   5.400  0.1173  0.3321  0.3645
   43CHL1   H17 4313   0.447   3.754   5.408 -0.7005 -1.5132 -2.1532
   43CHL1   C13 4314   0.634   3.755   5.529  0.0774 -0.6591  0.0174
   43CHL1   C18 4315   0.785   3.718   5.515  0.1997  0.0404 -0.4234
   43CHL1  H18A 4316   0.844   3.706   5.609  0.3059  0.0457 -0.4895
   43CHL1  H18B 4317   0.799   3.622   5.462 -1.0878 -1.7124  2.1962
   43CHL1  H18C 4318   0.834   3.797   5.454  1.1026 -0.7791 -0.7793
   43CHL1   C12 4319   0.615   3.906   5.580 -0.3976 -0.3869 -0.7323
   43CHL1  H12A 4320   0.670   3.975   5.513  1.5489 -1.0754  0.0859
   43CHL1  H12B 4321   0.509   3.937   5.569 -0.3442  0.6963  1.4152
   43CHL1   C11 4322   0.662   3.922   5.723 -0.2517 -0.8430 -0.3830
   43CHL1  H11A 4323   0.772   3.939   5.727 -0.4845  0.8410 -0.3674
   43CHL1  H11B 4324   0.623   4.021   5.757  3.0019  0.4758 -0.1344
   43CHL1    C9 4325   0.614   3.802   5.818 -0.5013  0.5603 -0.6003
   43CHL1    H9 4326   0.506   3.823   5.827 -0.2628  0.8704  3.9848
   43CHL1   C10 4327   0.669   3.820   5.965 -0.0381 -0.1338 -0.4024
   43CHL1   C19 4328   0.825   3.839   5.963  0.2898  0.6510 -0.1903
   43CHL1  H19A 4329   0.881   3.845   6.059 -0.1380 -0.3829  0.1372
   43CHL1  H19B 4330   0.868   3.748   5.915  0.3359  0.8914 -0.6121
   43CHL1  H19C 4331   0.849   3.933   5.908 -1.8238  2.0973  1.1881
   43CHL1    C1 4332   0.609   3.941   6.030 -0.1703  0.3129  0.3469
   43CHL1   H1A 4333   0.638   4.034   5.977 -0.4637  0.4075  0.3496
   43CHL1   H1B 4334   0.500   3.926   6.010 -0.0537 -1.5442  0.8654
   43CHL1    C2 4335   0.623   3.958   6.181 -0.0000 -0.0474 -0.0863
   43CHL1   H2A 4336   0.562   4.042   6.221 -0.5497 -0.0320 -0.9136
   43CHL1   H2B 4337   0.729   3.982   6.202 -0.5453  2.5308  0.0509
   43CHL1   C20 4338   0.604   3.792   5.272 -0.0645  0.4920 -0.1454
   43CHL1   H20 4339   0.641   3.893   5.301  0.5391  0.2476 -0.0369
   43CHL1   C21 4340   0.481   3.807   5.177 -0.4683 -0.2290 -0.1907
   43CHL1  H21A 4341   0.506   3.858   5.082 -0.3660 -1.3939 -0.8056
   43CHL1  H21B 4342   0.402   3.867   5.226  0.5281 -0.3463  1.6675
   43CHL1  H21C 4343   0.451   3.704   5.147  0.9612  0.0682 -2.9802
   43CHL1   C22 4344   0.721   3.728   5.199  0.6002  0.2117 -0.4638
   43CHL1  H22A 4345   0.782   3.661   5.263 -0.1845 -1.0961 -1.0293
   43CHL1  H22B 4346   0.668   3.661   5.127  0.7773  0.7765 -1.1356
   43CHL1   C23 4347   0.805   3.823   5.119 -0.1452 -0.3226 -0.1211
   43CHL1  H23A 4348   0.741   3.896   5.067 -1.1421  1.0286  2.8036
   43CHL1  H23B 4349   0.862   3.883   5.193 -0.5571 -1.0648  0.8097
   43CHL1   C24 4350   0.903   3.766   5.016  0.3664 -0.3136 -0.0796
   43CHL1  H24A 4351   0.978   3.838   4.975  1.2472 -1.3385 -0.3193
   43CHL1  H24B 4352   0.951   3.684   5.074 -1.0567 -0.6067  0.7288
   43CHL1   C25 4353   0.830   3.694   4.900  0.1191 -0.4014 -0.0169
   43CHL1   H25 4354   0.778   3.610   4.951  0.9635  0.1683  1.8648
   43CHL1   C26 4355   0.732   3.780   4.812  0.1169  0.6804 -0.2293
   43CHL1  H26A 4356   0.787   3.857   4.754  1.5012  0.9907  1.4069
   43CHL1  H26B 4357   0.674   3.722   4.738  1.5680 -0.3364 -0.6210
   43CHL1  H26C 4358   0.660   3.829   4.881  0.8472  0.0873  0.9949
   43CHL1   C27 4359   0.940   3.623   4.821  0.1204 -0.0555 -0.1689
   43CHL1  H27A 4360   1.003   3.700   4.773 -1.9265 -0.4627 -3.9350
   43CHL1  H27B 4361   0.995   3.556   4.890 -0.1718 -0.1287 -0.0021
   43CHL1  H27C 4362   0.897   3.566   4.736 -0.7181  0.6880 -0.2651
   44CHL1    C3 4363   6.296   4.755   6.331  0.1752 -0.1734 -0.3287
   44CHL1    H3 4364   6.190   4.767   6.300  0.4161 -2.6845 -2.4964
   44CHL1    O3 4365   6.289   4.754   6.474  0.3774 -0.2101 -0.1860
   44CHL1   H3' 4366   6.378   4.742   6.508  1.1097  2.7140 -0.7695
   44CHL1    C4 4367   6.344   4.617   6.277  0.2665  0.1253 -0.6635
   44CHL1   H4A 4368   6.446   4.601   6.318  0.8299 -0.5373 -2.2591
   44CHL1   H4B 4369   6.276   4.548   6.330  2.0829 -1.3924 -0.1714
   44CHL1    C5 4370   6.347   4.620   6.126  0.4557  0.0582 -0.7176
   44CHL1    C6 4371   6.288   4.520   6.055  0.3781  0.3246  0.2677
   44CHL1    H6 4372   6.218   4.446   6.097  0.0484  0.2373 -0.4084
   44CHL1    C7 4373   6.290   4.518   5.903 -0.5595 -1.2598 -0.5731
   44CHL1   H7A 4374   6.302   4.416   5.861  0.3427 -1.7049  0.7258
   44CHL1   H7B 4375   6.197   4.553   5.854  0.0525  1.3243 -0.0655
   44CHL1    C8 4376   6.408   4.598   5.844  0.2984 -0.2039 -0.3139
   44CHL1    H8 4377   6.497   4.535   5.866 -0.2873 -0.4957  1.3438
   44CHL1   C14 4378   6.389   4.617   5.695  0.4364 -0.3274  0.5418
   44CHL1   H14 4379   6.299   4.682   5.684  1.2328  0.5499 -1.0481
   44CHL1   C15 4380   6.366   4.488   5.612  0.7925  0.3226  0.0077
   44CHL1  H15A 4381   6.427   4.401   5.643  1.7453  0.1526 -2.1786
   44CHL1  H15B 4382   6.261   4.458   5.632  0.8490 -1.1114 -1.6556
   44CHL1   C16 4383   6.390   4.531   5.463  0.1297 -0.5935 -0.1344
   44CHL1  H16A 4384   6.448   4.451   5.413  1.1375 -1.3187  2.0716
   44CHL1  H16B 4385   6.296   4.541   5.405 -0.5109  1.3804  1.1304
   44CHL1   C17 4386   6.449   4.675   5.477 -0.3023  0.2842  1.0916
   44CHL1   H17 4387   6.359   4.739   5.471 -0.8982 -0.3158  2.8946
   44CHL1   C13 4388   6.504   4.695   5.620  0.1953 -0.2935 -0.5560
   44CHL1   C18 4389   6.630   4.612   5.639 -0.4523  0.3628 -0.2631
   44CHL1  H18A 4390   6.714   4.669   5.593 -0.1976 -0.5862 -1.0063
   44CHL1  H18B 4391   6.659   4.586   5.742  0.4394  1.2285 -0.2800
   44CHL1  H18C 4392   6.630   4.522   5.575  2.0018  0.8206 -1.0234
   44CHL1   C12 4393   6.509   4.840   5.682  0.2634  0.4721  0.1395
   44CHL1  H12A 4394   6.598   4.893   5.642 -0.5386  0.7473 -1.3589
   44CHL1  H12B 4395   6.413   4.885   5.648 -0.6712 -2.5743 -1.6972
   44CHL1   C11 4396   6.521   4.829   5.842 -0.0110 -0.0160  0.0785
   44CHL1  H11A 4397   6.625   4.792   5.852 -0.3577 -1.1204 -0.2708
   44CHL1  H11B 4398   6.516   4.932   5.884  0.6513  0.4325 -0.9238
   44CHL1    C9 4399   6.417   4.739   5.911  0.2312 -0.1342 -0.2083
   44CHL1    H9 4400   6.316   4.782   5.893 -0.1596 -1.1558 -0.5196
   44CHL1   C10 4401   6.435   4.727   6.063  0.4116 -0.3877  0.2499
   44CHL1   C19 4402   6.588   4.699   6.088  0.3106  0.1048 -0.1134
   44CHL1  H19A 4403   6.624   4.605   6.042 -1.2358 -1.0162  0.8788
   44CHL1  H19B 4404   6.652   4.787   6.065  0.0709  0.6783  1.2725
   44CHL1  H19C 4405   6.601   4.685   6.198  1.4745  0.1932 -0.2252
   44CHL1    C1 4406   6.404   4.864   6.127 -0.7979 -0.2206  0.2555
   44CHL1   H1A 4407   6.481   4.938   6.097 -2.7572  1.8798  0.2096
   44CHL1   H1B 4408   6.312   4.899   6.077  0.8500  2.0141 -1.4224
   44CHL1    C2 4409   6.386   4.866   6.277 -0.3880 -0.0441 -0.3466
   44CHL1   H2A 4410   6.345   4.960   6.320  1.7833  0.6254  0.4201
   44CHL1   H2B 4411   6.483   4.849   6.331 -1.3221  0.4259  1.5851
   44CHL1   C20 4412   6.541   4.706   5.354  0.0033 -0.1269  0.5693
   44CHL1   H20 4413   6.633   4.644   5.350  1.3170  1.5599  2.6148
   44CHL1   C21 4414   6.592   4.850   5.361 -0.1241 -0.4543 -0.6779
   44CHL1  H21A 4415   6.516   4.927   5.382  0.1068 -0.4381  0.1063
   44CHL1  H21B 4416   6.627   4.877   5.258 -0.0366  1.4152 -0.1923
   44CHL1  H21C 4417   6.678   4.864   5.430 -1.0291  1.3441  0.1324
   44CHL1   C22 4418   6.463   4.694   5.218  1.0927  0.2877  0.1933
   44CHL1  H22A 4419   6.397   4.605   5.215 -0.0632  1.1451 -0.8576
   44CHL1  H22B 4420   6.394   4.779   5.199  0.7959 -0.3358 -1.7704
   44CHL1   C23 4421   6.561   4.667   5.095  0.2939  0.3700 -0.8262
   44CHL1  H23A 4422   6.647   4.738   5.105  0.3187  0.2603 -0.2498
   44CHL1  H23B 4423   6.599   4.563   5.103  0.1132  0.2851 -1.0648
   44CHL1   C24 4424   6.499   4.693   4.955  0.0050 -0.3905  0.2118
   44CHL1  H24A 4425   6.442   4.607   4.912 -0.2616  1.3292 -3.2210
   44CHL1  H24B 4426   6.437   4.785   4.957 -1.2438 -1.1771 -0.7049
   44CHL1   C25 4427   6.611   4.728   4.846  0.1667 -0.2482 -0.5631
   44CHL1   H25 4428   6.669   4.821   4.862  1.0087 -0.4395 -2.3433
   44CHL1   C26 4429   6.711   4.610   4.825 -0.4640  0.5426  0.3465
   44CHL1  H26A 4430   6.663   4.512   4.805 -2.9897  1.8791 -0.6652
   44CHL1  H26B 4431   6.768   4.624   4.731 -0.8845  2.1217  0.2996
   44CHL1  H26C 4432   6.784   4.593   4.907 -0.2382 -0.6500 -0.0794
   44CHL1   C27 4433   6.546   4.761   4.704  0.0153  0.0241  0.7077
   44CHL1  H27A 4434   6.485   4.677   4.666  1.1168  0.7767 -3.0865
   44CHL1  H27B 4435   6.499   4.861   4.694 -0.3929 -0.2362 -0.0023
   44CHL1  H27C 4436   6.630   4.761   4.632  0.0307 -1.6610  0.6801
   45CHL1    C3 4437   6.508   5.561   6.119  0.0950  0.7125 -1.0863
   45CHL1    H3 4438   6.400   5.583   6.105  0.6392  4.0346 -0.8402
   45CHL1    O3 4439   6.540   5.514   6.245  0.0044 -0.2189  0.0933
   45CHL1   H3' 4440   6.498   5.584   6.297 -2.9985 -1.0441 -1.0147
   45CHL1    C4 4441   6.578   5.470   6.019 -0.1583 -0.3383  0.1178
   45CHL1   H4A 4442   6.686   5.474   6.044 -0.2902 -0.7785  0.7962
   45CHL1   H4B 4443   6.543   5.365   6.036 -0.2116 -0.3514 -0.0729
   45CHL1    C5 4444   6.558   5.521   5.875  0.4049 -0.6913 -0.1944
   45CHL1    C6 4445   6.491   5.446   5.784  0.4548 -0.3340 -0.1547
   45CHL1    H6 4446   6.464   5.342   5.808  0.0735 -0.6303 -1.7695
   45CHL1    C7 4447   6.482   5.491   5.636 -0.4356  0.8705  0.2689
   45CHL1   H7A 4448   6.495   5.410   5.561  1.1704 -0.3644  1.8200
   45CHL1   H7B 4449   6.380   5.534   5.622  0.4898  2.9214 -0.6870
   45CHL1    C8 4450   6.577   5.606   5.604  0.7345 -1.3256 -0.0073
   45CHL1    H8 4451   6.677   5.559   5.597  0.5054 -1.6382 -1.4687
   45CHL1   C14 4452   6.537   5.661   5.464  0.2931 -0.0339 -0.6184
   45CHL1   H14 4453   6.442   5.710   5.491  1.1307  0.0082  2.7022
   45CHL1   C15 4454   6.503   5.568   5.352 -0.2719  0.3168  0.3878
   45CHL1  H15A 4455   6.571   5.482   5.339 -0.6284 -0.1454  1.4485
   45CHL1  H15B 4456   6.401   5.526   5.358  0.1636 -0.6526  1.1931
   45CHL1   C16 4457   6.534   5.656   5.225  0.7838 -0.5032  0.5956
   45CHL1  H16A 4458   6.622   5.614   5.172  0.1094 -2.7454  1.1389
   45CHL1  H16B 4459   6.448   5.677   5.158  1.2321  3.6495  1.0406
   45CHL1   C17 4460   6.580   5.799   5.281 -0.2581  0.6583 -0.5601
   45CHL1   H17 4461   6.485   5.856   5.287 -0.5962  1.1248 -5.6565
   45CHL1   C13 4462   6.631   5.768   5.422 -0.3599  0.0792  0.6154
   45CHL1   C18 4463   6.773   5.712   5.403 -0.4562  0.2435 -0.5458
   45CHL1  H18A 4464   6.783   5.616   5.349  2.1809  0.9344 -1.4061
   45CHL1  H18B 4465   6.842   5.783   5.352 -0.9999  0.9294 -0.3422
   45CHL1  H18C 4466   6.824   5.702   5.502 -1.0112 -2.3794 -0.4489
   45CHL1   C12 4467   6.621   5.885   5.522 -0.4214 -0.0725 -0.4920
   45CHL1  H12A 4468   6.691   5.971   5.515  0.5269 -0.9133 -1.9363
   45CHL1  H12B 4469   6.517   5.923   5.532 -0.8264 -1.5824  1.6472
   45CHL1   C11 4470   6.659   5.837   5.663 -0.0800 -0.1001 -0.0365
   45CHL1  H11A 4471   6.768   5.816   5.674 -0.1096  0.8988  2.8903
   45CHL1  H11B 4472   6.629   5.916   5.735 -0.4269 -0.2423 -0.0251
   45CHL1    C9 4473   6.569   5.719   5.704 -0.1933  0.3949 -0.2296
   45CHL1    H9 4474   6.469   5.767   5.705  0.1710  1.2375  1.7683
   45CHL1   C10 4475   6.606   5.667   5.846 -0.8025  0.5446  0.3508
   45CHL1   C19 4476   6.763   5.659   5.859 -0.0774 -0.6381 -0.9281
   45CHL1  H19A 4477   6.796   5.758   5.896 -3.4792 -0.2755  1.7475
   45CHL1  H19B 4478   6.795   5.598   5.946  0.6669  0.3349 -0.4991
   45CHL1  H19C 4479   6.818   5.632   5.766  2.2188  3.4796 -1.0012
   45CHL1    C1 4480   6.551   5.764   5.952  0.2037  0.3319  0.1963
   45CHL1   H1A 4481   6.604   5.861   5.949 -0.4586  0.8230 -5.2580
   45CHL1   H1B 4482   6.445   5.789   5.930  0.4179 -0.0397 -1.3428
   45CHL1    C2 4483   6.568   5.707   6.097  0.0046  0.0377  0.4610
   45CHL1   H2A 4484   6.525   5.783   6.167  2.3782  1.6358  0.2950
   45CHL1   H2B 4485   6.676   5.692   6.119  0.3058  1.8652  0.4307
   45CHL1   C20 4486   6.658   5.883   5.173  0.4974  0.2898 -0.5551
   45CHL1   H20 4487   6.748   5.826   5.143  0.3399  0.1398 -0.7413
   45CHL1   C21 4488   6.698   6.018   5.234  0.3599 -0.1465 -0.0197
   45CHL1  H21A 4489   6.745   6.084   5.159 -1.0819  0.3885 -0.4905
   45CHL1  H21B 4490   6.778   6.004   5.309  0.1875  1.9530  0.6114
   45CHL1  H21C 4491   6.611   6.071   5.279  1.0804  0.6507  0.4518
   45CHL1   C22 4492   6.568   5.903   5.046  0.2008  0.1514 -0.7569
   45CHL1  H22A 4493   6.526   5.818   4.988 -1.7432 -0.2002  1.0336
   45CHL1  H22B 4494   6.481   5.959   5.088  1.4937  1.0565  0.8443
   45CHL1   C23 4495   6.631   5.968   4.923  0.0445 -0.2050 -0.3627
   45CHL1  H23A 4496   6.691   6.058   4.948 -0.3946 -0.3999  1.5262
   45CHL1  H23B 4497   6.709   5.905   4.875  1.8576  1.7659 -0.1751
   45CHL1   C24 4498   6.523   6.009   4.825 -0.2529 -0.2704  0.6131
   45CHL1  H24A 4499   6.444   5.932   4.833 -0.5482  0.1488  2.1931
   45CHL1  H24B 4500   6.478   6.106   4.856 -1.1711 -1.0782  1.9331
   45CHL1   C25 4501   6.573   6.029   4.681 -0.3538  0.0505  0.4565
   45CHL1   H25 4502   6.603   5.927   4.648  0.4938  0.6621 -0.7578
   45CHL1   C26 4503   6.460   6.068   4.582 -0.6697 -0.2292 -1.0174
   45CHL1  H26A 4504   6.490   6.094   4.478 -2.8589  0.2943 -1.5709
   45CHL1  H26B 4505   6.396   5.978   4.578  0.4587 -1.6014  4.2241
   45CHL1  H26C 4506   6.397   6.150   4.624  2.1794  0.1364  3.0561
   45CHL1   C27 4507   6.691   6.133   4.678  0.4516  0.4360 -0.0368
   45CHL1  H27A 4508   6.726   6.132   4.572  2.0028 -2.0525  0.4055
   45CHL1  H27B 4509   6.656   6.235   4.706  0.0446  0.0019  1.0799
   45CHL1  H27C 4510   6.772   6.106   4.749 -0.0597 -0.9543  0.0441
   46CHL1    C3 4511   1.706   6.171   6.504 -0.2600 -0.2245  0.3408
   46CHL1    H3 4512   1.765   6.078   6.520 -1.5222 -1.0702  0.2288
   46CHL1    O3 4513   1.651   6.214   6.633 -0.1647 -0.1364 -0.0436
   46CHL1   H3' 4514   1.661   6.309   6.639  1.2870 -0.3204  0.8965
   46CHL1    C4 4515   1.799   6.283   6.458  0.5864  0.6855  0.4539
   46CHL1   H4A 4516   1.738   6.376   6.455 -0.8466 -0.2282  0.4142
   46CHL1   H4B 4517   1.883   6.307   6.527  1.5961 -0.4909 -0.3225
   46CHL1    C5 4518   1.854   6.264   6.316 -0.5806 -0.3637  0.2485
   46CHL1    C6 4519   1.986   6.279   6.288 -0.1960  0.7141  0.1427
   46CHL1    H6 4520   2.044   6.308   6.377 -0.1415 -0.6250  0.5611
   46CHL1    C7 4521   2.053   6.259   6.150  0.1257  0.1055 -0.3003
   46CHL1   H7A 4522   2.122   6.345   6.135  0.3526 -0.1932 -0.9652
   46CHL1   H7B 4523   2.102   6.159   6.150 -2.0970 -1.1175  1.9067
   46CHL1    C8 4524   1.944   6.252   6.039 -0.0061 -0.0120  0.0922
   46CHL1    H8 4525   1.909   6.357   6.023 -1.2589 -0.4086  0.1173
   46CHL1   C14 4526   2.004   6.205   5.904  0.0027 -0.4599  0.1490
   46CHL1   H14 4527   2.041   6.102   5.926 -0.8512 -0.6372  0.8062
   46CHL1   C15 4528   2.128   6.273   5.845  0.4049 -0.0273  0.1275
   46CHL1  H15A 4529   2.121   6.382   5.863  2.3557  0.4651 -1.5903
   46CHL1  H15B 4530   2.224   6.242   5.891  1.1195 -0.5356 -1.6043
   46CHL1   C16 4531   2.115   6.245   5.690  0.0150  0.8342  0.0576
   46CHL1  H16A 4532   2.128   6.346   5.645  1.9189  0.7826  0.3871
   46CHL1  H16B 4533   2.196   6.181   5.649 -1.8720 -2.9964  1.8009
   46CHL1   C17 4534   1.978   6.175   5.663 -0.7934  0.6893  0.4554
   46CHL1   H17 4535   1.977   6.065   5.657  0.0675  0.7145 -0.3325
   46CHL1   C13 4536   1.893   6.206   5.793 -0.0592 -0.6380 -0.0012
   46CHL1   C18 4537   1.844   6.353   5.771  0.3177 -1.0873 -0.1621
   46CHL1  H18A 4538   1.778   6.375   5.858 -0.0117 -0.4539 -0.5652
   46CHL1  H18B 4539   1.937   6.413   5.772 -1.2369  1.4656 -0.8235
   46CHL1  H18C 4540   1.797   6.356   5.670  0.2319 -2.8812 -0.2139
   46CHL1   C12 4541   1.783   6.105   5.829  0.7313 -0.1192  0.3020
   46CHL1  H12A 4542   1.708   6.073   5.753  1.4975 -0.9934 -0.1140
   46CHL1  H12B 4543   1.847   6.014   5.840 -0.0544 -0.7377 -0.1589
   46CHL1   C11 4544   1.717   6.133   5.956  0.2928 -0.0488 -0.2166
   46CHL1  H11A 4545   1.645   6.217   5.946  0.9589  0.4427 -0.9523
   46CHL1  H11B 4546   1.653   6.047   5.986 -1.2186  1.4136  0.9206
   46CHL1    C9 4547   1.822   6.164   6.078  0.6808  0.6345 -0.4799
   46CHL1    H9 4548   1.863   6.066   6.111 -1.8547  0.2576  1.9280
   46CHL1   C10 4549   1.755   6.213   6.203  0.2790  0.6445 -0.3519
   46CHL1   C19 4550   1.663   6.327   6.167  0.2207 -0.0281 -0.0984
   46CHL1  H19A 4551   1.578   6.300   6.101  1.3552 -0.6439 -1.3606
   46CHL1  H19B 4552   1.608   6.382   6.247 -1.5670  0.6368 -1.7087
   46CHL1  H19C 4553   1.729   6.392   6.106 -0.7220 -0.0042 -1.1058
   46CHL1    C1 4554   1.668   6.097   6.264  0.2951  0.6213 -0.4298
   46CHL1   H1A 4555   1.580   6.075   6.199 -2.5486 -0.0211  3.2863
   46CHL1   H1B 4556   1.716   5.997   6.267  0.8381  0.8667 -0.8147
   46CHL1    C2 4557   1.599   6.126   6.398  0.0784  0.4647 -0.4001
   46CHL1   H2A 4558   1.544   6.039   6.437  0.4068  1.1147  1.6221
   46CHL1   H2B 4559   1.522   6.204   6.380  0.6346  1.4445  1.1793
   46CHL1   C20 4560   1.930   6.213   5.524  0.5866  0.1539  0.0866
   46CHL1   H20 4561   1.921   6.323   5.516  0.9762  0.2735  1.2071
   46CHL1   C21 4562   1.795   6.151   5.491 -0.3537  0.3081 -0.5346
   46CHL1  H21A 4563   1.780   6.052   5.538 -2.1031  1.8500  2.4298
   46CHL1  H21B 4564   1.775   6.140   5.382 -3.0105 -0.2996 -0.0540
   46CHL1  H21C 4565   1.717   6.216   5.535 -1.4034 -0.4696 -1.1899
   46CHL1   C22 4566   2.036   6.161   5.421  0.4189  0.7891 -0.1291
   46CHL1  H22A 4567   1.990   6.203   5.329  1.0687 -0.7577 -1.2137
   46CHL1  H22B 4568   2.133   6.214   5.435 -0.3340  2.0356  0.5105
   46CHL1   C23 4569   2.051   6.009   5.404 -0.2828 -0.1263 -0.7575
   46CHL1  H23A 4570   2.078   5.962   5.501  2.8389  0.0828 -1.3972
   46CHL1  H23B 4571   1.950   5.974   5.375 -0.6856  1.0874 -0.8667
   46CHL1   C24 4572   2.159   5.974   5.291 -0.4395 -0.4523 -0.5463
   46CHL1  H24A 4573   2.257   6.020   5.315 -0.5769 -1.1698  1.6160
   46CHL1  H24B 4574   2.177   5.864   5.295 -1.3052 -0.5538  1.6355
   46CHL1   C25 4575   2.130   6.014   5.141 -1.0554  0.2899  0.0171
   46CHL1   H25 4576   2.025   6.050   5.137 -1.7149 -1.6075 -0.6982
   46CHL1   C26 4577   2.218   6.135   5.100 -0.3528  0.1387  0.5042
   46CHL1  H26A 4578   2.312   6.082   5.073 -0.7733 -0.5322  0.3292
   46CHL1  H26B 4579   2.176   6.186   5.011 -1.0024 -0.6612  0.3370
   46CHL1  H26C 4580   2.236   6.220   5.170  2.5907 -0.3159  0.3907
   46CHL1   C27 4581   2.147   5.900   5.044  0.3899 -0.5551 -0.9545
   46CHL1  H27A 4582   2.086   5.816   5.085 -4.3176  2.9360  0.1022
   46CHL1  H27B 4583   2.117   5.922   4.939  1.2404  0.2470 -1.0396
   46CHL1  H27C 4584   2.255   5.878   5.035  0.4543 -0.5212 -0.2796
   47CHL1    C3 4585   3.876   6.534   6.015 -0.3465  0.8218  0.1026
   47CHL1    H3 4586   3.871   6.644   6.033  2.8431  1.1485 -0.4587
   47CHL1    O3 4587   3.900   6.473   6.140  0.2399 -0.5005  0.5219
   47CHL1   H3' 4588   3.871   6.383   6.122  1.5660 -0.6151 -1.2755
   47CHL1    C4 4589   3.748   6.473   5.954  1.2980  0.4468  0.6015
   47CHL1   H4A 4590   3.759   6.364   5.938  0.4734  0.4015  0.3117
   47CHL1   H4B 4591   3.659   6.497   6.016 -0.0004  0.2877 -1.1107
   47CHL1    C5 4592   3.720   6.533   5.815 -0.6283 -0.2372  0.2189
   47CHL1    C6 4593   3.601   6.590   5.779 -0.4095  0.1147 -0.8255
   47CHL1    H6 4594   3.527   6.598   5.859 -0.1825 -1.9617 -0.3472
   47CHL1    C7 4595   3.568   6.652   5.647 -0.1390 -0.4296 -0.4605
   47CHL1   H7A 4596   3.480   6.599   5.603  0.5541 -2.8992  0.9549
   47CHL1   H7B 4597   3.550   6.761   5.659  1.3188 -0.3744  1.7603
   47CHL1    C8 4598   3.678   6.622   5.542  0.2943  0.1015 -0.0747
   47CHL1    H8 4599   3.655   6.518   5.511  1.3848 -0.1505 -0.0754
   47CHL1   C14 4600   3.655   6.725   5.430  0.0375  0.3031  0.9872
   47CHL1   H14 4601   3.671   6.829   5.464  1.3987  0.0581  1.1264
   47CHL1   C15 4602   3.511   6.721   5.362 -0.2701  0.4186 -0.2681
   47CHL1  H15A 4603   3.477   6.616   5.348  0.0752  0.2448  0.1787
   47CHL1  H15B 4604   3.439   6.775   5.426 -0.6838 -0.3129 -0.1001
   47CHL1   C16 4605   3.543   6.790   5.231 -0.1797  0.3037  0.2199
   47CHL1  H16A 4606   3.482   6.744   5.150 -0.6816 -0.4868  1.0374
   47CHL1  H16B 4607   3.513   6.896   5.246 -1.0907 -0.2894  3.1081
   47CHL1   C17 4608   3.696   6.798   5.210 -0.3298  0.2733  0.1838
   47CHL1   H17 4609   3.724   6.900   5.244  0.1154 -0.0146  0.6949
   47CHL1   C13 4610   3.758   6.703   5.315  0.6697 -0.1790  0.7060
   47CHL1   C18 4611   3.746   6.555   5.270  0.1228 -0.5176  0.1924
   47CHL1  H18A 4612   3.821   6.526   5.194  0.0733  2.0346 -0.9652
   47CHL1  H18B 4613   3.762   6.474   5.344  1.7021 -0.7471 -0.3711
   47CHL1  H18C 4614   3.649   6.547   5.217 -0.6648  3.1862  0.7849
   47CHL1   C12 4615   3.897   6.726   5.377  0.1058 -0.8261  0.0521
   47CHL1  H12A 4616   3.975   6.705   5.300 -1.7196  0.0104 -2.1395
   47CHL1  H12B 4617   3.896   6.830   5.416 -2.0455 -0.7062 -0.1995
   47CHL1   C11 4618   3.917   6.631   5.490 -0.2555 -0.1028 -0.3807
   47CHL1  H11A 4619   3.921   6.526   5.455 -1.8809 -0.5690  0.6999
   47CHL1  H11B 4620   4.016   6.653   5.536 -1.3994  0.0015  2.2259
   47CHL1    C9 4621   3.810   6.634   5.598 -0.0555  0.4440  0.3671
   47CHL1    H9 4622   3.829   6.734   5.643 -0.7571 -0.0532  1.8467
   47CHL1   C10 4623   3.836   6.528   5.713  0.2417 -0.3836 -0.1115
   47CHL1   C19 4624   3.855   6.388   5.662 -0.0032  0.5086 -0.1014
   47CHL1  H19A 4625   3.779   6.347   5.592  0.7796 -0.2226 -0.5508
   47CHL1  H19B 4626   3.950   6.387   5.605  0.7492  0.8889  1.1085
   47CHL1  H19C 4627   3.862   6.319   5.748 -0.2958 -0.4639 -0.8369
   47CHL1    C1 4628   3.966   6.574   5.788 -0.0959  0.1036 -0.0840
   47CHL1   H1A 4629   4.048   6.550   5.717  0.2986 -1.5425  0.8736
   47CHL1   H1B 4630   3.955   6.683   5.806 -0.7813  0.2842 -1.4746
   47CHL1    C2 4631   3.996   6.508   5.919  0.4178 -0.3964 -0.0309
   47CHL1   H2A 4632   4.084   6.553   5.969 -1.1098  2.4858  0.2724
   47CHL1   H2B 4633   4.007   6.398   5.905  0.7033 -0.3814  0.0747
   47CHL1   C20 4634   3.744   6.806   5.065  0.7461  0.7878  0.3099
   47CHL1   H20 4635   3.709   6.707   5.030  0.5230  0.2381  1.9832
   47CHL1   C21 4636   3.889   6.819   5.049  0.0435  0.2270 -0.3069
   47CHL1  H21A 4637   3.929   6.813   4.946  1.0680  1.5893 -0.0282
   47CHL1  H21B 4638   3.937   6.739   5.109  0.6021  0.5301 -0.3450
   47CHL1  H21C 4639   3.925   6.906   5.109  0.0199 -0.4132  0.6574
   47CHL1   C22 4640   3.668   6.916   4.986 -0.1650 -0.0766  0.2510
   47CHL1  H22A 4641   3.559   6.924   5.002 -0.4933 -1.0693 -1.2322
   47CHL1  H22B 4642   3.706   7.014   5.022 -1.0090  0.9036 -1.4161
   47CHL1   C23 4643   3.693   6.897   4.834 -0.4799  0.2108 -0.0260
   47CHL1  H23A 4644   3.799   6.923   4.812  0.2366 -1.6573  1.0026
   47CHL1  H23B 4645   3.681   6.793   4.797 -1.9949  0.6421 -0.8220
   47CHL1   C24 4646   3.614   6.984   4.739  0.0518 -0.2776  0.4964
   47CHL1  H24A 4647   3.506   6.975   4.763 -0.8892 -0.3942 -3.1752
   47CHL1  H24B 4648   3.640   7.091   4.752  0.4781 -0.2485 -0.5127
   47CHL1   C25 4649   3.636   6.960   4.582  0.3765  0.1416 -0.0658
   47CHL1   H25 4650   3.745   6.962   4.564  0.2430  2.1183 -0.8308
   47CHL1   C26 4651   3.578   6.825   4.545 -0.3648  0.0218 -0.1952
   47CHL1  H26A 4652   3.476   6.813   4.589 -1.0664  1.5566 -1.3089
   47CHL1  H26B 4653   3.565   6.801   4.437  0.4071 -0.3022 -0.2181
   47CHL1  H26C 4654   3.648   6.747   4.581  0.9085  1.9868  1.8993
   47CHL1   C27 4655   3.577   7.070   4.488  0.0153 -0.1493  0.3790
   47CHL1  H27A 4656   3.467   7.063   4.501 -0.0055 -1.0225 -0.1641
   47CHL1  H27B 4657   3.601   7.172   4.525 -1.7744 -0.3912  2.3713
   47CHL1  H27C 4658   3.603   7.056   4.381 -0.2978 -0.3215  0.3238
   48CHL1    C3 4659   1.309   0.605   6.287  0.1964  1.0954 -0.2687
   48CHL1    H3 4660   1.376   0.516   6.284 -2.5095 -1.0251 -2.3117
   48CHL1    O3 4661   1.320   0.655   6.415  0.1629 -0.1547  0.1322
   48CHL1   H3' 4662   1.286   0.744   6.401  1.0415  0.3302  0.9232
   48CHL1    C4 4663   1.366   0.707   6.181  0.6102  0.2955  0.2831
   48CHL1   H4A 4664   1.332   0.811   6.197 -1.3292 -0.4549  1.5300
   48CHL1   H4B 4665   1.476   0.704   6.194  0.5898 -0.1692  0.4009
   48CHL1    C5 4666   1.332   0.658   6.041  0.2602  0.5629 -0.5720
   48CHL1    C6 4667   1.432   0.639   5.948 -0.2756  0.0469 -0.8632
   48CHL1    H6 4668   1.538   0.651   5.973 -0.8558 -0.0785  1.9925
   48CHL1    C7 4669   1.401   0.622   5.808  0.0056 -0.1448  0.4846
   48CHL1   H7A 4670   1.451   0.702   5.749 -1.8175  0.5875 -0.1466
   48CHL1   H7B 4671   1.446   0.527   5.773 -0.4605 -0.1421 -0.1432
   48CHL1    C8 4672   1.257   0.641   5.762 -0.5935 -0.7075  0.0525
   48CHL1    H8 4673   1.241   0.750   5.751  1.0783 -0.2078  1.9822
   48CHL1   C14 4674   1.224   0.567   5.631  0.1291  0.2871  0.4599
   48CHL1   H14 4675   1.249   0.460   5.648 -0.2674  0.4199  2.0219
   48CHL1   C15 4676   1.321   0.579   5.512 -0.0320  0.6281  0.3312
   48CHL1  H15A 4677   1.345   0.688   5.509 -0.8728  0.8533  1.2978
   48CHL1  H15B 4678   1.414   0.523   5.537  0.5945  1.2815 -0.4812
   48CHL1   C16 4679   1.244   0.528   5.391  0.3034  0.9956 -0.1079
   48CHL1  H16A 4680   1.241   0.603   5.308 -0.2390  1.6531  0.4931
   48CHL1  H16B 4681   1.284   0.437   5.342  1.6946  0.2717  2.2317
   48CHL1   C17 4682   1.101   0.493   5.437 -0.0761 -0.8050 -0.8390
   48CHL1   H17 4683   1.108   0.389   5.475 -0.0317  0.2323  2.3298
   48CHL1   C13 4684   1.088   0.573   5.574  0.1768  0.2120  0.3399
   48CHL1   C18 4685   1.050   0.720   5.544  0.6341  0.6938  0.1120
   48CHL1  H18A 4686   0.940   0.731   5.529  0.2181 -0.0895  2.2570
   48CHL1  H18B 4687   1.077   0.791   5.625 -0.3778  0.7356  0.4312
   48CHL1  H18C 4688   1.118   0.759   5.466  0.6583  1.0669  0.3178
   48CHL1   C12 4689   0.999   0.509   5.673 -0.3019 -0.0327  0.0058
   48CHL1  H12A 4690   0.891   0.501   5.649 -1.2075  0.4379  3.4694
   48CHL1  H12B 4691   1.039   0.406   5.688  0.3589  0.4119  1.4878
   48CHL1   C11 4692   1.014   0.579   5.811  0.5048 -0.0922 -0.1121
   48CHL1  H11A 4693   0.973   0.682   5.803 -2.5906 -1.2390 -0.3142
   48CHL1  H11B 4694   0.948   0.524   5.880 -1.2187 -2.4472 -3.3592
   48CHL1    C9 4695   1.165   0.581   5.859 -0.6212 -0.3941 -0.3503
   48CHL1    H9 4696   1.201   0.476   5.858  1.1315  0.1049  1.9377
   48CHL1   C10 4697   1.188   0.628   6.007  0.2836 -0.5622 -0.0427
   48CHL1   C19 4698   1.106   0.754   6.028  0.0071 -0.6698 -0.0718
   48CHL1  H19A 4699   1.123   0.795   6.130 -0.1910 -0.0298 -0.2919
   48CHL1  H19B 4700   1.125   0.828   5.947 -1.2111 -0.3945 -0.1253
   48CHL1  H19C 4701   0.996   0.740   6.027 -0.0867  0.0159 -0.4386
   48CHL1    C1 4702   1.136   0.525   6.114 -0.5375  0.2746 -0.8735
   48CHL1   H1A 4703   1.027   0.503   6.106 -0.7555 -0.9640  3.2392
   48CHL1   H1B 4704   1.189   0.429   6.099 -3.5858 -1.3333 -2.5957
   48CHL1    C2 4705   1.161   0.565   6.258 -0.8065 -0.3818  0.1540
   48CHL1   H2A 4706   1.111   0.496   6.329  0.5734 -1.9826 -0.3517
   48CHL1   H2B 4707   1.106   0.656   6.288  1.4609 -0.1969  4.6000
   48CHL1   C20 4708   0.997   0.513   5.329 -0.0301  0.1083 -0.3539
   48CHL1   H20 4709   0.995   0.623   5.308 -0.0602 -0.0853 -1.4621
   48CHL1   C21 4710   0.859   0.475   5.383 -0.0173 -0.1411  0.5058
   48CHL1  H21A 4711   0.863   0.377   5.435 -0.4739 -1.8122 -2.4124
   48CHL1  H21B 4712   0.829   0.562   5.445 -1.1947  0.5966 -1.0415
   48CHL1  H21C 4713   0.784   0.467   5.301  0.2158  1.4574  0.0985
   48CHL1   C22 4714   1.028   0.431   5.202 -0.2692  0.7754  0.1937
   48CHL1  H22A 4715   0.962   0.468   5.120 -2.6607 -0.8795  1.2325
   48CHL1  H22B 4716   1.131   0.460   5.173  0.3245 -0.0060  1.4734
   48CHL1   C23 4717   1.007   0.279   5.204  0.4602  0.5864  0.8248
   48CHL1  H23A 4718   1.074   0.228   5.276  0.5162 -2.7737 -1.3855
   48CHL1  H23B 4719   0.903   0.264   5.240 -0.4230  0.7434 -1.4978
   48CHL1   C24 4720   1.023   0.226   5.060 -0.3317  0.4375 -0.6599
   48CHL1  H24A 4721   0.988   0.121   5.061  0.6764  0.0954  0.1044
   48CHL1  H24B 4722   0.954   0.272   4.986 -1.6461  0.6382  0.6450
   48CHL1   C25 4723   1.175   0.220   5.009  0.5528 -0.2028 -0.2875
   48CHL1   H25 4724   1.219   0.320   5.029  1.3931 -0.8446  1.1811
   48CHL1   C26 4725   1.244   0.097   5.076  0.0178  0.2239  0.0222
   48CHL1  H26A 4726   1.352   0.100   5.050 -0.2664  0.6154 -1.1857
   48CHL1  H26B 4727   1.232   0.080   5.185  3.0963 -1.4686  0.2055
   48CHL1  H26C 4728   1.214   0.003   5.025  0.3742 -0.6854  1.4403
   48CHL1   C27 4729   1.178   0.194   4.851  0.1320 -0.4093  0.4418
   48CHL1  H27A 4730   1.120   0.281   4.812  1.3016  0.3482  0.3635
   48CHL1  H27B 4731   1.282   0.185   4.813  0.6864 -1.9198  2.1729
   48CHL1  H27C 4732   1.112   0.107   4.829 -1.6587  0.6970  1.1815
   49CHL1    C3 4733   3.119   5.467   3.209  0.3366  0.7166  1.1296
   49CHL1    H3 4734   3.104   5.367   3.256 -1.9121  0.6678  0.4169
   49CHL1    O3 4735   3.119   5.461   3.063  0.1853 -0.1321  0.5572
   49CHL1   H3' 4736   3.107   5.551   3.033 -0.7236 -0.4941 -0.2476
   49CHL1    C4 4737   3.014   5.567   3.249  0.5134 -0.0457  0.0013
   49CHL1   H4A 4738   3.041   5.664   3.201 -0.3366  0.7862  1.1224
   49CHL1   H4B 4739   2.917   5.527   3.215  0.8298 -0.0876 -0.8555
   49CHL1    C5 4740   3.012   5.592   3.398 -0.3050  0.2124  0.8994
   49CHL1    C6 4741   2.906   5.568   3.475  0.5873 -0.6612  0.8166
   49CHL1    H6 4742   2.811   5.535   3.430  0.4623  1.2557 -0.4476
   49CHL1    C7 4743   2.882   5.603   3.612 -0.5820  0.1297 -0.6978
   49CHL1   H7A 4744   2.797   5.673   3.628 -0.1373  0.5727 -0.2151
   49CHL1   H7B 4745   2.856   5.508   3.663 -0.5416  0.1249 -0.6867
   49CHL1    C8 4746   3.009   5.666   3.680  0.2189  0.8214  0.7252
   49CHL1    H8 4747   3.011   5.773   3.650 -1.1665  0.9624  1.0776
   49CHL1   C14 4748   3.003   5.648   3.820  0.1950  0.2688 -0.1142
   49CHL1   H14 4749   3.011   5.538   3.832 -0.8385 -0.1713 -2.6714
   49CHL1   C15 4750   2.874   5.679   3.895  0.3686  0.1623  0.6548
   49CHL1  H15A 4751   2.832   5.775   3.859 -0.7307 -0.3355  0.5482
   49CHL1  H15B 4752   2.795   5.603   3.878  1.7993 -1.5096  1.2277
   49CHL1   C16 4753   2.904   5.700   4.038 -0.2968 -0.0931  0.2966
   49CHL1  H16A 4754   2.863   5.798   4.072  0.2870  0.7050 -1.2102
   49CHL1  H16B 4755   2.853   5.623   4.100 -2.5297 -0.3307 -1.6849
   49CHL1   C17 4756   3.058   5.694   4.041 -0.3378  1.1284 -0.0515
   49CHL1   H17 4757   3.070   5.585   4.058 -0.4041  1.1702  0.2634
   49CHL1   C13 4758   3.118   5.714   3.905  0.1182 -0.9111 -0.9614
   49CHL1   C18 4759   3.129   5.869   3.888 -0.2270  0.3281 -0.3730
   49CHL1  H18A 4760   3.029   5.918   3.898 -0.1680  0.1794  1.1235
   49CHL1  H18B 4761   3.208   5.918   3.949  0.8815 -2.1279  0.2578
   49CHL1  H18C 4762   3.166   5.897   3.787 -1.9322  1.2436 -0.7924
   49CHL1   C12 4763   3.246   5.642   3.866  0.2610 -0.1349 -0.4312
   49CHL1  H12A 4764   3.334   5.681   3.923  0.4843  1.5070 -1.8188
   49CHL1  H12B 4765   3.236   5.534   3.890  0.5194 -0.5151 -1.9270
   49CHL1   C11 4766   3.264   5.648   3.717  0.0643  0.6466  0.1119
   49CHL1  H11A 4767   3.295   5.753   3.696  2.0031  0.8181  3.2076
   49CHL1  H11B 4768   3.341   5.576   3.683  0.0211  0.0127  1.3407
   49CHL1    C9 4769   3.138   5.608   3.631  0.3805  0.1223  0.4050
   49CHL1    H9 4770   3.130   5.497   3.636  1.3333 -0.0918 -1.6634
   49CHL1   C10 4771   3.147   5.625   3.470 -0.4192 -1.0784 -0.1842
   49CHL1   C19 4772   3.187   5.769   3.426  0.7786 -0.7035  0.1971
   49CHL1  H19A 4773   3.158   5.796   3.323 -0.1609 -1.8357  0.1530
   49CHL1  H19B 4774   3.150   5.848   3.495  0.5488 -2.3830  2.1146
   49CHL1  H19C 4775   3.298   5.782   3.429  0.6679  0.7872  3.6670
   49CHL1    C1 4776   3.248   5.524   3.418  0.3986 -0.0288 -0.1546
   49CHL1   H1A 4777   3.344   5.560   3.461  0.5065 -0.4403 -0.0453
   49CHL1   H1B 4778   3.213   5.425   3.457 -0.7171  0.4720  0.1729
   49CHL1    C2 4779   3.255   5.514   3.267  0.4398  0.1310 -0.3265
   49CHL1   H2A 4780   3.334   5.439   3.247  0.3706  0.0717 -0.3754
   49CHL1   H2B 4781   3.282   5.612   3.221  1.9209 -0.7039 -1.3035
   49CHL1   C20 4782   3.126   5.755   4.167 -0.6448  0.0062 -0.3775
   49CHL1   H20 4783   3.236   5.752   4.151 -0.4696  0.2706  0.6985
   49CHL1   C21 4784   3.098   5.654   4.285  0.0831 -1.2518 -0.6585
   49CHL1  H21A 4785   3.149   5.693   4.375 -2.3911  1.3097 -0.2478
   49CHL1  H21B 4786   3.151   5.558   4.267  1.5631 -0.9519  1.7767
   49CHL1  H21C 4787   2.991   5.635   4.309  0.4239  0.5088  2.8052
   49CHL1   C22 4788   3.084   5.900   4.202 -0.0220  0.6360  1.2877
   49CHL1  H22A 4789   3.092   5.962   4.111 -2.6733 -2.8825 -1.6387
   49CHL1  H22B 4790   2.975   5.902   4.221 -0.5179  1.5867 -1.3559
   49CHL1   C23 4791   3.172   5.961   4.317  0.4636  1.1315  0.5204
   49CHL1  H23A 4792   3.159   5.916   4.418  3.5495  2.0730  1.4596
   49CHL1  H23B 4793   3.280   5.946   4.297 -0.1272 -1.6391 -1.1622
   49CHL1   C24 4794   3.152   6.109   4.345  0.8162  0.3670  1.0803
   49CHL1  H24A 4795   3.167   6.168   4.253 -5.2341  0.9808  0.0696
   49CHL1  H24B 4796   3.043   6.129   4.357  0.4546 -0.7032 -0.1522
   49CHL1   C25 4797   3.233   6.183   4.448 -0.3516 -0.6084 -0.7425
   49CHL1   H25 4798   3.195   6.155   4.549  2.1511  0.7712  0.6725
   49CHL1   C26 4799   3.388   6.147   4.433  0.3042  0.2203  0.3976
   49CHL1  H26A 4800   3.446   6.199   4.513  0.2779  0.5409  0.2068
   49CHL1  H26B 4801   3.411   6.039   4.447  0.8109  0.6333  3.5940
   49CHL1  H26C 4802   3.421   6.175   4.331  1.4955  0.9433  0.9537
   49CHL1   C27 4803   3.218   6.335   4.436  0.2547 -0.0333 -0.4852
   49CHL1  H27A 4804   3.115   6.374   4.439 -0.0198 -0.7246 -0.6758
   49CHL1  H27B 4805   3.278   6.369   4.523  0.6897  0.7438 -1.0750
   49CHL1  H27C 4806   3.273   6.368   4.345 -0.7805 -0.3188 -1.2356
   50CHL1    C3 4807   1.763   1.141   3.046 -0.9236 -0.4698  0.0957
   50CHL1    H3 4808   1.715   1.041   3.041 -0.2091 -0.7601 -2.2908
   50CHL1    O3 4809   1.825   1.166   2.919  0.1877  0.3528 -0.0463
   50CHL1   H3' 4810   1.909   1.212   2.929 -0.0580  1.5457 -2.8421
   50CHL1    C4 4811   1.650   1.241   3.058  0.1665 -0.7601  0.0638
   50CHL1   H4A 4812   1.677   1.349   3.055  2.1413 -1.0044  3.5132
   50CHL1   H4B 4813   1.588   1.228   2.966 -1.3010  0.3368  0.8621
   50CHL1    C5 4814   1.570   1.210   3.186  0.3700 -0.5234 -0.5930
   50CHL1    C6 4815   1.431   1.203   3.179  0.1377  0.7920  0.4921
   50CHL1    H6 4816   1.377   1.221   3.085 -0.6233 -1.6667  0.3664
   50CHL1    C7 4817   1.353   1.168   3.306  0.2135 -0.1519 -0.3660
   50CHL1   H7A 4818   1.266   1.237   3.303 -0.9121 -1.3712  1.8347
   50CHL1   H7B 4819   1.294   1.074   3.303 -1.1694  0.4895  2.8141
   50CHL1    C8 4820   1.433   1.182   3.437 -0.0758 -0.1900 -0.4872
   50CHL1    H8 4821   1.432   1.291   3.460 -1.7723 -0.6152  1.8798
   50CHL1   C14 4822   1.364   1.101   3.554 -0.2997 -0.1448 -0.0900
   50CHL1   H14 4823   1.367   0.992   3.531  2.1513 -0.3688  0.9725
   50CHL1   C15 4824   1.218   1.133   3.584 -0.6597  0.0195  0.2407
   50CHL1  H15A 4825   1.190   1.240   3.591 -1.1803 -0.0683 -0.4248
   50CHL1  H15B 4826   1.147   1.078   3.517  1.1231  0.8341 -2.4857
   50CHL1   C16 4827   1.190   1.081   3.726 -0.2697  0.9778  0.0864
   50CHL1  H16A 4828   1.150   1.168   3.782 -0.7082  1.6617 -1.2647
   50CHL1  H16B 4829   1.113   1.001   3.728  2.1538 -1.5575  1.0744
   50CHL1   C17 4830   1.325   1.029   3.774 -0.4095  0.2705  0.3956
   50CHL1   H17 4831   1.331   0.922   3.742  0.9964 -0.8968  4.0716
   50CHL1   C13 4832   1.429   1.110   3.689  0.4750  0.3004  0.0914
   50CHL1   C18 4833   1.436   1.259   3.735  0.3968  0.2018  0.3095
   50CHL1  H18A 4834   1.498   1.315   3.662  2.5551 -0.8737  1.2123
   50CHL1  H18B 4835   1.336   1.305   3.746  1.2416  2.1055  0.5250
   50CHL1  H18C 4836   1.488   1.269   3.833  1.9634 -3.4112  0.0138
   50CHL1   C12 4837   1.569   1.048   3.675  0.0503 -0.1310 -0.1685
   50CHL1  H12A 4838   1.630   1.045   3.768  1.6571 -1.9784 -1.1969
   50CHL1  H12B 4839   1.563   0.940   3.650 -1.5396  0.0933 -0.9106
   50CHL1   C11 4840   1.646   1.121   3.564 -0.0804 -0.0407 -0.2443
   50CHL1  H11A 4841   1.661   1.227   3.592 -0.7611  1.3904 -4.5993
   50CHL1  H11B 4842   1.746   1.072   3.564 -0.3994 -0.7569  1.0684
   50CHL1    C9 4843   1.573   1.124   3.426  1.0077  0.5716 -0.3829
   50CHL1    H9 4844   1.562   1.015   3.406 -0.0742  0.2087  1.8282
   50CHL1   C10 4845   1.651   1.194   3.310 -0.3891 -0.1005  0.5520
   50CHL1   C19 4846   1.693   1.337   3.359 -0.7808 -0.4124 -0.3828
   50CHL1  H19A 4847   1.745   1.396   3.280 -1.1327 -1.9282 -1.8066
   50CHL1  H19B 4848   1.604   1.398   3.386 -0.2864 -0.2091  0.8868
   50CHL1  H19C 4849   1.757   1.326   3.449  0.7051  2.8126 -0.8915
   50CHL1    C1 4850   1.781   1.107   3.292  0.2322  0.2010 -0.4035
   50CHL1   H1A 4851   1.850   1.133   3.375 -0.6170  2.1503 -0.2496
   50CHL1   H1B 4852   1.757   0.999   3.295 -3.6533  0.8531 -1.7008
   50CHL1    C2 4853   1.856   1.142   3.164 -0.7093  0.1925  0.6526
   50CHL1   H2A 4854   1.933   1.062   3.153 -0.8678 -0.0748  1.4566
   50CHL1   H2B 4855   1.911   1.237   3.179  0.8110 -0.5612  0.0835
   50CHL1   C20 4856   1.343   1.017   3.930 -0.7755  0.0332 -0.0113
   50CHL1   H20 4857   1.380   1.115   3.968  1.6726 -0.6344 -0.5553
   50CHL1   C21 4858   1.446   0.904   3.963  0.1913  1.1379 -0.3175
   50CHL1  H21A 4859   1.447   0.879   4.071  2.1691  1.0349 -0.3170
   50CHL1  H21B 4860   1.546   0.952   3.949 -0.7210  3.1107 -0.4501
   50CHL1  H21C 4861   1.433   0.810   3.906  1.0304  0.2193  0.9521
   50CHL1   C22 4862   1.204   0.979   3.992  0.3119 -0.0555 -0.3682
   50CHL1  H22A 4863   1.143   1.071   3.981  0.5115  0.3513  1.6089
   50CHL1  H22B 4864   1.165   0.894   3.932 -1.4426  0.7387 -0.4230
   50CHL1   C23 4865   1.194   0.945   4.141 -0.2451 -0.0007  0.4278
   50CHL1  H23A 4866   1.086   0.918   4.152 -0.8408  1.9176 -0.4039
   50CHL1  H23B 4867   1.256   0.857   4.170 -0.1937 -0.2143 -0.3240
   50CHL1   C24 4868   1.234   1.063   4.229 -0.6479 -0.9963  0.1595
   50CHL1  H24A 4869   1.343   1.077   4.215 -0.4665 -1.2028  1.2726
   50CHL1  H24B 4870   1.177   1.148   4.185  0.8658  0.2574  0.5266
   50CHL1   C25 4871   1.208   1.055   4.381  0.4855 -0.2094 -0.0200
   50CHL1   H25 4872   1.237   0.951   4.409  1.0138 -0.5637 -1.7585
   50CHL1   C26 4873   1.301   1.151   4.459 -1.1554  1.4024  0.1774
   50CHL1  H26A 4874   1.304   1.130   4.568  0.0926 -0.4671 -0.1915
   50CHL1  H26B 4875   1.398   1.117   4.418 -1.5269  0.0477  0.3817
   50CHL1  H26C 4876   1.290   1.262   4.450  0.2657  1.6170  0.8191
   50CHL1   C27 4877   1.059   1.083   4.414  0.3405 -0.3893 -0.0441
   50CHL1  H27A 4878   1.034   1.190   4.401  1.8349  0.0018  0.1702
   50CHL1  H27B 4879   0.993   1.023   4.347  1.3830 -0.3677 -1.1127
   50CHL1  H27C 4880   1.054   1.060   4.522 -1.4597  0.7948  0.1679
   51CHL1    C3 4881   2.957   5.124   3.078 -0.3020 -0.3428  0.8158
   51CHL1    H3 4882   2.992   5.229   3.079  0.0766 -0.3542 -2.1488
   51CHL1    O3 4883   2.941   5.097   2.940 -0.1037  0.5649  0.0435
   51CHL1   H3' 4884   2.880   5.024   2.926  0.8757 -0.1992 -0.3707
   51CHL1    C4 4885   3.047   5.013   3.140 -0.0059 -0.8408 -0.2702
   51CHL1   H4A 4886   3.002   4.912   3.138 -0.7924 -0.4889 -1.3960
   51CHL1   H4B 4887   3.134   5.010   3.071  1.6723 -2.2485  1.7832
   51CHL1    C5 4888   3.086   5.061   3.279 -0.0673 -0.2156 -0.8910
   51CHL1    C6 4889   3.214   5.084   3.319 -0.7735 -0.3026  0.0501
   51CHL1    H6 4890   3.293   5.061   3.247 -0.2684  2.6418 -0.4689
   51CHL1    C7 4891   3.261   5.121   3.454 -0.3056  1.3854  0.2300
   51CHL1   H7A 4892   3.341   5.051   3.487 -1.0936  0.2318 -0.2355
   51CHL1   H7B 4893   3.310   5.220   3.445  0.3354  0.9878 -0.9495
   51CHL1    C8 4894   3.150   5.112   3.557  0.5916 -0.1702  0.9112
   51CHL1    H8 4895   3.135   5.007   3.590 -1.2886  0.5946  2.7348
   51CHL1   C14 4896   3.188   5.177   3.687  0.6206 -0.4197  0.1090
   51CHL1   H14 4897   3.207   5.285   3.669  3.0110 -0.2236  3.1358
   51CHL1   C15 4898   3.310   5.119   3.758 -0.0983 -0.4016  0.6080
   51CHL1  H15A 4899   3.305   5.008   3.749 -0.2967 -0.3708  0.3231
   51CHL1  H15B 4900   3.402   5.157   3.708 -1.2357 -0.1609 -1.4074
   51CHL1   C16 4901   3.297   5.172   3.903  0.4998 -0.4967 -0.2221
   51CHL1  H16A 4902   3.311   5.080   3.965  2.1902  0.5042  0.9790
   51CHL1  H16B 4903   3.382   5.239   3.931  0.6510 -1.2168  1.1599
   51CHL1   C17 4904   3.154   5.233   3.914 -0.3621 -0.4598  0.5101
   51CHL1   H17 4905   3.161   5.342   3.894  0.6211 -0.4813  0.6770
   51CHL1   C13 4906   3.078   5.173   3.793 -0.1935  0.3374  0.0522
   51CHL1   C18 4907   3.032   5.029   3.828 -0.1526 -0.2484  0.6939
   51CHL1  H18A 4908   2.997   4.979   3.735  1.2303 -1.2205  0.6600
   51CHL1  H18B 4909   3.106   4.959   3.873 -0.1687 -0.9158 -0.2819
   51CHL1  H18C 4910   2.947   5.056   3.894 -0.8596  1.5688 -0.8640
   51CHL1   C12 4911   2.960   5.254   3.733 -0.1162  0.7640 -0.1747
   51CHL1  H12A 4912   2.866   5.266   3.791 -0.6844 -2.4517 -0.2547
   51CHL1  H12B 4913   3.010   5.349   3.706  1.9144 -0.0828  0.4066
   51CHL1   C11 4914   2.907   5.200   3.599  0.0957  0.4527  0.7102
   51CHL1  H11A 4915   2.867   5.097   3.610  1.7918 -0.4275 -0.8215
   51CHL1  H11B 4916   2.823   5.262   3.562 -1.5978 -0.2570  3.1721
   51CHL1    C9 4917   3.019   5.174   3.496  0.2779 -0.6006 -0.4872
   51CHL1    H9 4918   3.052   5.275   3.462  0.2190  0.3926  2.1578
   51CHL1   C10 4919   2.968   5.098   3.371  0.7456 -0.5590 -0.1260
   51CHL1   C19 4920   2.924   4.952   3.412 -0.2113 -0.1238 -0.0023
   51CHL1  H19A 4921   2.980   4.890   3.484 -2.2080  1.1835  2.8793
   51CHL1  H19B 4922   2.826   4.948   3.465  1.1558  0.2440  2.7044
   51CHL1  H19C 4923   2.909   4.887   3.323  0.0824  0.3264 -0.3935
   51CHL1    C1 4924   2.858   5.183   3.304 -0.0901 -0.0971 -0.1878
   51CHL1   H1A 4925   2.761   5.180   3.359 -1.3928 -1.3488 -2.3731
   51CHL1   H1B 4926   2.892   5.288   3.299 -1.2975  0.4949  2.4053
   51CHL1    C2 4927   2.830   5.132   3.163  0.0850 -0.3037 -0.6103
   51CHL1   H2A 4928   2.754   5.196   3.115 -0.9876 -0.6648  0.5649
   51CHL1   H2B 4929   2.786   5.031   3.177 -0.7367  0.2741  1.3720
   51CHL1   C20 4930   3.098   5.223   4.057 -0.0426  0.5802  0.0379
   51CHL1   H20 4931   3.077   5.120   4.092  1.5541  0.2653  0.1080
   51CHL1   C21 4932   2.975   5.300   4.066  0.3074 -0.7965 -0.4954
   51CHL1  H21A 4933   2.890   5.244   4.021 -0.6679  0.6410 -0.4977
   51CHL1  H21B 4934   2.997   5.397   4.017  0.5174 -0.2183  0.7143
   51CHL1  H21C 4935   2.955   5.308   4.175  1.3353  0.3409 -0.3692
   51CHL1   C22 4936   3.205   5.276   4.164  0.9714  0.4798 -0.4135
   51CHL1  H22A 4937   3.289   5.203   4.159  1.5767  1.0675  0.7658
   51CHL1  H22B 4938   3.231   5.379   4.132  0.8283  0.2384 -1.3250
   51CHL1   C23 4939   3.152   5.260   4.309  0.6792 -0.0555  0.1862
   51CHL1  H23A 4940   3.065   5.325   4.330 -0.5464 -2.1929  2.1562
   51CHL1  H23B 4941   3.126   5.154   4.327  1.6535 -0.0270  2.0573
   51CHL1   C24 4942   3.253   5.303   4.410 -0.2215  0.3970 -0.6317
   51CHL1  H24A 4943   3.354   5.264   4.384 -0.1551 -0.0621  0.2770
   51CHL1  H24B 4944   3.261   5.414   4.410  0.2992  0.4155  2.1502
   51CHL1   C25 4945   3.215   5.263   4.552 -0.0691 -0.2031  0.1753
   51CHL1   H25 4946   3.186   5.156   4.549 -0.8441 -0.0318  1.0260
   51CHL1   C26 4947   3.331   5.275   4.649 -0.1483  0.3362 -0.3187
   51CHL1  H26A 4948   3.296   5.242   4.749 -0.1550  1.1816 -0.0308
   51CHL1  H26B 4949   3.417   5.212   4.618  0.1084  0.7392 -0.4416
   51CHL1  H26C 4950   3.359   5.382   4.661 -0.3930  0.1772  2.2147
   51CHL1   C27 4951   3.099   5.346   4.600 -0.1098  0.2836  0.4555
   51CHL1  H27A 4952   3.013   5.320   4.534  0.2536  2.2813 -0.9211
   51CHL1  H27B 4953   3.085   5.331   4.709 -0.8159  0.7732  0.4381
   51CHL1  H27C 4954   3.117   5.455   4.589  2.6135 -0.1761 -0.7128
   52CHL1    C3 4955   1.835   4.593   3.121  0.1904 -0.2085 -0.2151
   52CHL1    H3 4956   1.745   4.646   3.160  1.3435  0.3830  1.7639
   52CHL1    O3 4957   1.800   4.543   2.990  0.1698  0.4043  0.4899
   52CHL1   H3' 4958   1.809   4.619   2.932 -1.2559 -1.2690 -2.1306
   52CHL1    C4 4959   1.957   4.682   3.118 -0.2079  0.0906 -0.3379
   52CHL1   H4A 4960   2.047   4.623   3.088  1.2431  0.3263  3.0741
   52CHL1   H4B 4961   1.939   4.755   3.036 -3.3625 -0.9741 -0.7216
   52CHL1    C5 4962   1.978   4.745   3.253  0.0548  0.3090  0.9688
   52CHL1    C6 4963   1.979   4.880   3.262  0.3074 -0.0381 -0.1078
   52CHL1    H6 4964   1.969   4.949   3.177  0.7504 -0.3089 -0.3843
   52CHL1    C7 4965   1.992   4.943   3.400  0.2274 -0.4278  0.7224
   52CHL1   H7A 4966   2.067   5.026   3.404 -0.2323 -0.0029  0.5699
   52CHL1   H7B 4967   1.903   5.000   3.434  0.5171  0.9410 -0.6805
   52CHL1    C8 4968   2.038   4.844   3.514 -0.3190 -0.0061 -0.0153
   52CHL1    H8 4969   2.147   4.824   3.507 -0.6405 -1.5534 -1.0709
   52CHL1   C14 4970   2.020   4.899   3.653 -0.4797 -0.5708 -0.1894
   52CHL1   H14 4971   1.911   4.908   3.667 -0.1664 -0.9233  3.3568
   52CHL1   C15 4972   2.053   5.046   3.683 -0.2326  0.5474  0.1497
   52CHL1  H15A 4973   2.146   5.080   3.634 -0.1606 -1.5301 -1.3122
   52CHL1  H15B 4974   1.969   5.109   3.647  0.0740  1.6453  1.2849
   52CHL1   C16 4975   2.050   5.055   3.836  0.1189  0.2574 -0.1780
   52CHL1  H16A 4976   2.148   5.093   3.874 -0.9307  1.1395  1.7907
   52CHL1  H16B 4977   1.972   5.119   3.882  0.9500  0.5369  0.8802
   52CHL1   C17 4978   2.024   4.908   3.883  0.4205  0.1664 -0.5748
   52CHL1   H17 4979   1.913   4.908   3.879  0.3563  2.3925 -0.0466
   52CHL1   C13 4980   2.075   4.815   3.776 -0.0649 -0.3202  0.4627
   52CHL1   C18 4981   2.231   4.804   3.766 -0.5646  0.2775  1.2133
   52CHL1  H18A 4982   2.285   4.761   3.853 -0.6391 -2.2282  0.1099
   52CHL1  H18B 4983   2.261   4.753   3.671 -2.5133  1.1053  0.0874
   52CHL1  H18C 4984   2.264   4.910   3.763 -1.9690  0.7169 -0.4367
   52CHL1   C12 4985   2.001   4.679   3.770 -0.9898 -1.0394 -0.0746
   52CHL1  H12A 4986   2.047   4.603   3.837  2.4066  0.3378 -0.6232
   52CHL1  H12B 4987   1.891   4.693   3.777 -0.8661  1.2242 -1.5161
   52CHL1   C11 4988   2.025   4.615   3.627  0.5448 -0.0545 -0.1927
   52CHL1  H11A 4989   2.133   4.590   3.620  0.7997 -0.5785  3.4383
   52CHL1  H11B 4990   1.976   4.515   3.632  0.7343 -0.3673 -2.9466
   52CHL1    C9 4991   1.974   4.706   3.510  0.2570 -0.1181 -0.3712
   52CHL1    H9 4992   1.864   4.720   3.519  0.6107  3.2364  0.3729
   52CHL1   C10 4993   1.985   4.639   3.366 -0.8766 -0.8323  0.1401
   52CHL1   C19 4994   2.121   4.569   3.353 -0.2065 -0.3432  0.3937
   52CHL1  H19A 4995   2.198   4.644   3.379  0.3169 -0.5775 -0.4549
   52CHL1  H19B 4996   2.118   4.483   3.424  1.2117  0.4574  1.4900
   52CHL1  H19C 4997   2.152   4.530   3.253  2.7445  2.8065 -0.0958
   52CHL1    C1 4998   1.879   4.526   3.353 -0.2163 -0.4147 -0.6533
   52CHL1   H1A 4999   1.918   4.438   3.409 -0.8170 -0.2997 -0.0497
   52CHL1   H1B 5000   1.783   4.561   3.395  0.0488  0.5156 -0.8044
   52CHL1    C2 5001   1.850   4.476   3.212  0.1153 -0.0832  0.0595
   52CHL1   H2A 5002   1.771   4.397   3.214 -0.8493  0.8449  2.5866
   52CHL1   H2B 5003   1.947   4.429   3.181  0.8337  0.2717  1.6761
   52CHL1   C20 5004   2.079   4.896   4.031  0.0988  0.5091  0.6157
   52CHL1   H20 5005   2.188   4.914   4.024  0.5662 -2.4593 -1.5889
   52CHL1   C21 5006   2.055   4.755   4.079 -0.2823 -0.4666  0.3031
   52CHL1  H21A 5007   2.112   4.678   4.022  1.4537  0.1119  1.1538
   52CHL1  H21B 5008   1.949   4.729   4.061 -0.2550 -0.4877  0.1749
   52CHL1  H21C 5009   2.080   4.746   4.187  0.5247 -1.2802  0.0652
   52CHL1   C22 5010   2.015   4.991   4.132  0.2877  0.1126  0.5276
   52CHL1  H22A 5011   2.033   5.097   4.105 -4.2255  0.7475 -0.8139
   52CHL1  H22B 5012   1.905   4.976   4.132  0.1774  0.7058  2.1027
   52CHL1   C23 5013   2.056   4.975   4.284 -0.0973  0.9076  0.4820
   52CHL1  H23A 5014   2.014   4.879   4.323  1.3108  0.6351  1.4395
   52CHL1  H23B 5015   2.167   4.972   4.297  0.2622 -0.6763 -2.1478
   52CHL1   C24 5016   1.990   5.081   4.368 -0.1518 -0.3975  0.2886
   52CHL1  H24A 5017   1.880   5.072   4.359 -0.1779 -2.0276  1.6352
   52CHL1  H24B 5018   2.018   5.054   4.472  2.1430 -1.6364 -0.5818
   52CHL1   C25 5019   2.047   5.229   4.355 -0.0537  0.5897 -0.0347
   52CHL1   H25 5020   1.988   5.269   4.269  0.8412  1.1633 -0.3990
   52CHL1   C26 5021   2.028   5.309   4.483 -0.7995 -0.3442  0.4206
   52CHL1  H26A 5022   1.922   5.313   4.517 -0.3045  0.5212  1.9310
   52CHL1  H26B 5023   2.085   5.262   4.566  1.9236  2.4795  0.2868
   52CHL1  H26C 5024   2.069   5.411   4.469  0.9592 -1.0449  0.2543
   52CHL1   C27 5025   2.202   5.233   4.324 -0.0290 -0.2623 -1.2396
   52CHL1  H27A 5026   2.236   5.338   4.312  1.1974 -0.5707 -0.6242
   52CHL1  H27B 5027   2.247   5.188   4.415  2.4250 -2.4461 -3.3287
   52CHL1  H27C 5028   2.227   5.172   4.234 -2.9150  1.3565 -3.3030
   53CHL1    C3 5029   0.774   3.522   3.056  0.3109  0.1449 -0.0164
   53CHL1    H3 5030   0.885   3.520   3.060  0.4455 -1.9059 -2.1188
   53CHL1    O3 5031   0.752   3.545   2.915 -0.2205 -0.2251 -0.1467
   53CHL1   H3' 5032   0.656   3.545   2.904 -0.0340 -0.2190 -1.9717
   53CHL1    C4 5033   0.705   3.396   3.106 -0.3203  0.6181 -0.1257
   53CHL1   H4A 5034   0.595   3.408   3.090 -0.2449  0.1482 -1.0712
   53CHL1   H4B 5035   0.732   3.308   3.044 -0.4809 -0.5326  1.3831
   53CHL1    C5 5036   0.717   3.362   3.249 -0.0967 -0.5730  0.3018
   53CHL1    C6 5037   0.769   3.246   3.290  0.2493 -0.0585  0.4694
   53CHL1    H6 5038   0.788   3.170   3.213  0.9624 -0.0869  0.6602
   53CHL1    C7 5039   0.775   3.198   3.431 -0.0720 -0.4803  0.0452
   53CHL1   H7A 5040   0.745   3.092   3.444  0.9497 -0.8810 -0.7088
   53CHL1   H7B 5041   0.880   3.206   3.466 -0.0510 -0.2310 -0.0696
   53CHL1    C8 5042   0.694   3.295   3.530 -0.4830  0.9516  0.0565
   53CHL1    H8 5043   0.586   3.272   3.516 -0.1956 -0.9041  0.6151
   53CHL1   C14 5044   0.721   3.267   3.675 -1.0805  0.5703 -0.7319
   53CHL1   H14 5045   0.827   3.297   3.688 -1.2228  0.9996 -0.5625
   53CHL1   C15 5046   0.707   3.127   3.731 -0.4652  0.5017 -0.1878
   53CHL1  H15A 5047   0.611   3.087   3.693  1.3041 -2.0006 -2.4096
   53CHL1  H15B 5048   0.782   3.060   3.685 -1.4831 -0.0140 -1.1447
   53CHL1   C16 5049   0.714   3.135   3.882 -0.9391 -0.8713  0.0645
   53CHL1  H16A 5050   0.622   3.093   3.928 -1.5269 -0.8330 -1.0491
   53CHL1  H16B 5051   0.799   3.076   3.922 -1.7356 -2.0625  0.0360
   53CHL1   C17 5052   0.705   3.292   3.906 -0.0143 -0.6841 -0.2472
   53CHL1   H17 5053   0.810   3.326   3.917 -0.3991  0.6822 -0.5727
   53CHL1   C13 5054   0.655   3.360   3.776 -0.0772  0.0576  0.4829
   53CHL1   C18 5055   0.500   3.358   3.770  0.2088 -0.4351 -0.1384
   53CHL1  H18A 5056   0.460   3.256   3.787 -1.1880  0.2232  0.7771
   53CHL1  H18B 5057   0.444   3.429   3.834  1.5428  1.4514 -0.9548
   53CHL1  H18C 5058   0.464   3.389   3.670 -1.0985 -0.8206  0.1968
   53CHL1   C12 5059   0.710   3.498   3.736 -0.4878  0.2082  0.0513
   53CHL1  H12A 5060   0.673   3.581   3.800  1.9578  1.2311  0.2500
   53CHL1  H12B 5061   0.820   3.512   3.743 -0.1589  0.5191 -3.5924
   53CHL1   C11 5062   0.673   3.543   3.596 -0.1581  0.0418  0.3297
   53CHL1  H11A 5063   0.564   3.550   3.577 -0.0236 -0.1435 -0.5698
   53CHL1  H11B 5064   0.715   3.645   3.579 -0.9871  0.2980 -0.2278
   53CHL1    C9 5065   0.724   3.440   3.493  0.2211  0.5352  0.4859
   53CHL1    H9 5066   0.835   3.447   3.490  0.4021 -1.7325 -0.4298
   53CHL1   C10 5067   0.684   3.474   3.343 -0.2052  1.0700 -0.2729
   53CHL1   C19 5068   0.529   3.505   3.330 -0.9903  0.4969  0.5039
   53CHL1  H19A 5069   0.491   3.516   3.227 -0.6120 -0.6128  0.2309
   53CHL1  H19B 5070   0.459   3.432   3.376  0.2606 -0.5462  0.8103
   53CHL1  H19C 5071   0.508   3.604   3.375  1.2509  1.9160 -1.3882
   53CHL1    C1 5072   0.757   3.606   3.290  0.1456  0.4150  0.6109
   53CHL1   H1A 5073   0.729   3.697   3.347 -1.7582 -0.9453  2.0007
   53CHL1   H1B 5074   0.867   3.593   3.301  0.5570  2.5489 -0.4921
   53CHL1    C2 5075   0.731   3.635   3.142 -0.8531  0.2995 -0.4965
   53CHL1   H2A 5076   0.780   3.732   3.117 -0.1865  0.3155  0.8001
   53CHL1   H2B 5077   0.622   3.654   3.134 -0.7987  0.8094 -0.1057
   53CHL1   C20 5078   0.634   3.326   4.038 -0.0573  0.5341 -0.6152
   53CHL1   H20 5079   0.529   3.290   4.039 -0.4326  1.5959  0.1749
   53CHL1   C21 5080   0.636   3.474   4.054 -0.1173 -0.1054 -0.3923
   53CHL1  H21A 5081   0.602   3.498   4.157  1.1534  0.4260 -0.0820
   53CHL1  H21B 5082   0.574   3.533   3.983 -0.5890 -3.0847 -2.6425
   53CHL1  H21C 5083   0.741   3.505   4.036  0.9036 -2.5158  0.9480
   53CHL1   C22 5084   0.689   3.255   4.164 -0.6860  0.2233 -0.0003
   53CHL1  H22A 5085   0.669   3.146   4.147  0.7754 -0.0754  0.1090
   53CHL1  H22B 5086   0.798   3.267   4.180 -1.0495 -0.0453  3.3343
   53CHL1   C23 5087   0.628   3.293   4.302  0.3340  0.5436  0.0661
   53CHL1  H23A 5088   0.647   3.398   4.333 -0.3954  0.7299 -0.0976
   53CHL1  H23B 5089   0.517   3.291   4.289  0.5419 -0.0400 -1.7914
   53CHL1   C24 5090   0.652   3.196   4.417 -0.0416  0.2221  0.1986
   53CHL1  H24A 5091   0.629   3.091   4.388  0.2619 -0.2254  1.5151
   53CHL1  H24B 5092   0.762   3.198   4.435  0.5980 -3.2333 -2.2570
   53CHL1   C25 5093   0.579   3.242   4.549  0.1571 -0.2515  0.8225
   53CHL1   H25 5094   0.472   3.251   4.520  0.0177 -0.5503  1.2252
   53CHL1   C26 5095   0.579   3.144   4.672 -0.2971  0.4389 -0.3347
   53CHL1  H26A 5096   0.523   3.193   4.755  0.1761  3.0991 -1.5031
   53CHL1  H26B 5097   0.531   3.046   4.651 -0.4435  0.3944  0.1961
   53CHL1  H26C 5098   0.676   3.115   4.718 -0.7734 -2.3231 -0.8689
   53CHL1   C27 5099   0.631   3.374   4.603  0.9131 -0.0109 -0.3000
   53CHL1  H27A 5100   0.733   3.366   4.646  1.7220  2.6185 -1.5452
   53CHL1  H27B 5101   0.618   3.455   4.528 -0.0393 -0.3133 -0.4757
   53CHL1  H27C 5102   0.557   3.401   4.682  0.5659  0.8098 -0.8943
   54CHL1    C3 5103   1.122   4.877   3.020 -0.1208  0.1738 -0.0650
   54CHL1    H3 5104   1.223   4.853   3.059  0.7865  1.0769 -1.7356
   54CHL1    O3 5105   1.123   4.857   2.882  0.4925 -0.0934 -0.0238
   54CHL1   H3' 5106   1.207   4.893   2.851  0.7121 -0.7922 -0.2782
   54CHL1    C4 5107   1.015   4.792   3.089 -0.3561 -0.1036 -0.3399
   54CHL1   H4A 5108   0.912   4.808   3.051 -0.0993 -0.6000 -1.2939
   54CHL1   H4B 5109   1.039   4.685   3.067  0.0634  0.1285 -1.0408
   54CHL1    C5 5110   1.020   4.810   3.238  0.4379 -1.1578 -0.2891
   54CHL1    C6 5111   1.038   4.714   3.319 -0.4646  0.1743 -0.5832
   54CHL1    H6 5112   1.055   4.613   3.280  2.0540  0.1039  0.4845
   54CHL1    C7 5113   1.043   4.729   3.470 -0.1428  0.2609  0.0429
   54CHL1   H7A 5114   1.009   4.634   3.517 -0.6512 -0.8655 -2.3853
   54CHL1   H7B 5115   1.147   4.738   3.507  0.1900 -3.2628  0.3289
   54CHL1    C8 5116   0.985   4.859   3.527  0.5653 -0.1161  0.5298
   54CHL1    H8 5117   0.874   4.854   3.518  0.7684 -0.5329 -3.4926
   54CHL1   C14 5118   1.025   4.882   3.667  0.1596  0.8395  0.1206
   54CHL1   H14 5119   1.136   4.881   3.662  0.2527 -0.8653  1.5952
   54CHL1   C15 5120   0.994   4.781   3.782  0.6041 -0.3376 -0.2180
   54CHL1  H15A 5121   0.887   4.754   3.791  0.4293  0.0515 -0.9458
   54CHL1  H15B 5122   1.054   4.688   3.780  0.3092 -0.5629 -3.2044
   54CHL1   C16 5123   1.017   4.858   3.916  0.2438  0.7338 -0.0923
   54CHL1  H16A 5124   0.929   4.858   3.983 -0.2867  0.0845 -0.7632
   54CHL1  H16B 5125   1.100   4.822   3.980 -0.7340 -1.2319  0.1546
   54CHL1   C17 5126   1.033   5.005   3.870  0.3427  0.5595 -0.1867
   54CHL1   H17 5127   1.144   5.010   3.860  0.5596 -1.8749  0.4731
   54CHL1   C13 5128   0.981   5.017   3.722  0.0070 -0.3605  0.0661
   54CHL1   C18 5129   0.830   5.024   3.734  0.7741 -0.1913 -0.1861
   54CHL1  H18A 5130   0.792   5.112   3.788 -1.0769 -1.8904  1.4324
   54CHL1  H18B 5131   0.782   5.027   3.634  1.2036 -1.5316 -0.4569
   54CHL1  H18C 5132   0.785   4.940   3.791 -1.7377  1.3073  0.1379
   54CHL1   C12 5133   1.039   5.138   3.642 -0.0561 -0.1181  0.0363
   54CHL1  H12A 5134   1.009   5.240   3.674 -0.7694 -0.5191  0.6628
   54CHL1  H12B 5135   1.149   5.134   3.628 -0.2985  0.5279 -2.5924
   54CHL1   C11 5136   0.993   5.123   3.496 -0.7753  0.1394  0.3923
   54CHL1  H11A 5137   0.888   5.152   3.479 -1.1384 -0.8627  0.8172
   54CHL1  H11B 5138   1.058   5.196   3.444  1.0367 -0.6416  1.4570
   54CHL1    C9 5139   1.035   4.979   3.442 -0.4868 -0.0010 -0.0823
   54CHL1    H9 5140   1.145   4.985   3.456 -0.3306  0.2945 -1.3817
   54CHL1   C10 5141   1.004   4.954   3.286 -0.4737 -0.6486  0.5026
   54CHL1   C19 5142   0.858   4.997   3.252  0.3035  0.1578  0.3009
   54CHL1  H19A 5143   0.849   5.101   3.290 -1.0235 -0.4899  1.8660
   54CHL1  H19B 5144   0.822   4.989   3.147  0.6008  1.9800  0.0238
   54CHL1  H19C 5145   0.787   4.937   3.312  2.2096 -2.8237 -0.2052
   54CHL1    C1 5146   1.098   5.042   3.194  0.5132 -0.0462  0.5911
   54CHL1   H1A 5147   1.069   5.149   3.195 -2.8804 -0.8084 -1.4329
   54CHL1   H1B 5148   1.202   5.025   3.231  0.7516 -0.5542 -0.2946
   54CHL1    C2 5149   1.098   5.020   3.045 -0.1736  0.3343 -0.0505
   54CHL1   H2A 5150   1.175   5.084   2.998 -0.0145  0.7209  0.7310
   54CHL1   H2B 5151   1.000   5.057   3.008  0.3267  2.1085  0.3257
   54CHL1   C20 5152   1.001   5.115   3.978 -0.0825  0.5788  0.3283
   54CHL1   H20 5153   0.890   5.115   3.981 -0.1357  0.8685 -0.9800
   54CHL1   C21 5154   1.040   5.249   3.931  0.1027 -0.6964  0.1116
   54CHL1  H21A 5155   1.030   5.320   4.016 -0.5645 -0.7238  0.0596
   54CHL1  H21B 5156   0.983   5.291   3.846  0.0606 -2.2965 -0.6818
   54CHL1  H21C 5157   1.147   5.260   3.904 -0.2548  3.8173 -0.2159
   54CHL1   C22 5158   1.061   5.079   4.116  0.2652  0.6350  0.4099
   54CHL1  H22A 5159   1.020   4.980   4.146  2.0155  0.1544  1.3850
   54CHL1  H22B 5160   1.169   5.057   4.096  1.4020  3.3166  2.9064
   54CHL1   C23 5161   1.044   5.171   4.232 -0.4914  0.6617 -0.3278
   54CHL1  H23A 5162   1.116   5.254   4.217 -1.4516  1.7955  1.0826
   54CHL1  H23B 5163   0.939   5.205   4.224 -1.3824 -1.1284  2.1122
   54CHL1   C24 5164   1.064   5.097   4.364  0.6223 -0.5492  0.1065
   54CHL1  H24A 5165   0.999   5.007   4.374 -3.0879  1.8772 -0.0791
   54CHL1  H24B 5166   1.168   5.059   4.357  1.0690 -0.1871  3.3011
   54CHL1   C25 5167   1.051   5.185   4.492  0.2527  1.0435 -0.2099
   54CHL1   H25 5168   0.950   5.233   4.487 -0.2612 -0.1173 -2.5493
   54CHL1   C26 5169   1.041   5.094   4.614  0.3641  0.1509 -0.0720
   54CHL1  H26A 5170   1.035   5.156   4.706  1.0194  1.6693 -1.0122
   54CHL1  H26B 5171   0.952   5.028   4.603 -0.0927  0.8038 -0.3286
   54CHL1  H26C 5172   1.128   5.025   4.621  0.4770  0.4244  2.9318
   54CHL1   C27 5173   1.169   5.285   4.506  0.3761 -1.0866 -0.2031
   54CHL1  H27A 5174   1.266   5.232   4.503  0.0417 -1.7093 -0.2246
   54CHL1  H27B 5175   1.161   5.360   4.425  3.2621 -2.6339 -2.1069
   54CHL1  H27C 5176   1.166   5.333   4.606  0.5779  0.5270 -0.9438
   55CHL1    C3 5177   4.066   0.470   2.632 -0.3301  0.2318  0.5336
   55CHL1    H3 5178   4.155   0.535   2.644  0.5052 -0.8479  0.4057
   55CHL1    O3 5179   4.013   0.476   2.503  0.0873  0.2285  0.2796
   55CHL1   H3' 5180   4.084   0.458   2.440  0.0995 -0.9295  0.6030
   55CHL1    C4 5181   4.112   0.328   2.669  0.2563  0.1649  0.3857
   55CHL1   H4A 5182   4.025   0.259   2.669  0.3731  0.0028 -0.6790
   55CHL1   H4B 5183   4.180   0.291   2.589 -1.2437 -0.2559 -0.7523
   55CHL1    C5 5184   4.168   0.325   2.810  0.5628  1.1277 -0.1677
   55CHL1    C6 5185   4.290   0.268   2.827  0.0797 -0.5644  0.2282
   55CHL1    H6 5186   4.341   0.225   2.739 -1.5523 -0.5944 -0.7390
   55CHL1    C7 5187   4.352   0.249   2.962 -0.2834 -0.1819  0.2783
   55CHL1   H7A 5188   4.399   0.149   2.969 -0.5709 -0.5037 -1.7743
   55CHL1   H7B 5189   4.438   0.319   2.971 -0.8647  0.8035 -1.4054
   55CHL1    C8 5190   4.253   0.271   3.073  0.7143  0.7254 -0.3659
   55CHL1    H8 5191   4.197   0.176   3.086  0.4276  1.0797  1.1871
   55CHL1   C14 5192   4.332   0.304   3.196  0.1533 -0.5147  0.1728
   55CHL1   H14 5193   4.379   0.404   3.184  0.1198 -0.3857  1.0505
   55CHL1   C15 5194   4.449   0.206   3.238  0.3692 -0.2335 -1.0974
   55CHL1  H15A 5195   4.426   0.102   3.207 -0.3886 -0.4287  0.0429
   55CHL1  H15B 5196   4.543   0.238   3.189 -0.9428  2.7881 -1.9301
   55CHL1   C16 5197   4.468   0.221   3.390  0.6829 -0.5607  0.8316
   55CHL1  H16A 5198   4.438   0.126   3.439 -0.6916 -0.0929  0.9205
   55CHL1  H16B 5199   4.572   0.247   3.423  0.3260  2.8550 -0.3580
   55CHL1   C17 5200   4.361   0.332   3.428 -0.5350  0.1330 -0.5472
   55CHL1   H17 5201   4.407   0.430   3.402  0.2322 -0.4927 -1.6418
   55CHL1   C13 5202   4.252   0.316   3.320  0.1143  0.0233 -0.7775
   55CHL1   C18 5203   4.171   0.192   3.353  0.3659  0.3838  0.2917
   55CHL1  H18A 5204   4.105   0.220   3.438 -0.2443 -1.0451  0.3073
   55CHL1  H18B 5205   4.113   0.145   3.271 -1.0597 -0.0171  1.4708
   55CHL1  H18C 5206   4.228   0.104   3.390 -1.2510 -0.2652  1.3490
   55CHL1   C12 5207   4.162   0.443   3.303  0.9196  0.0426  0.7534
   55CHL1  H12A 5208   4.081   0.454   3.378  1.1665  1.6853  0.8215
   55CHL1  H12B 5209   4.224   0.535   3.296 -0.9277  1.3389  0.4552
   55CHL1   C11 5210   4.078   0.434   3.175  0.1945 -0.6111 -0.5235
   55CHL1  H11A 5211   4.002   0.357   3.199 -0.3711 -0.2466 -1.0948
   55CHL1  H11B 5212   4.012   0.523   3.163  1.1712  0.2940  0.5297
   55CHL1    C9 5213   4.156   0.389   3.053 -0.5882 -0.2806  0.4167
   55CHL1    H9 5214   4.227   0.473   3.036 -0.9358  0.1705  1.1336
   55CHL1   C10 5215   4.073   0.379   2.925 -0.1034  0.1263  0.2142
   55CHL1   C19 5216   3.963   0.271   2.943 -0.0224 -0.3178  0.1351
   55CHL1  H19A 5217   3.902   0.278   3.036  0.8471 -2.4344  0.9342
   55CHL1  H19B 5218   3.888   0.280   2.862 -1.0286 -0.6761  1.0105
   55CHL1  H19C 5219   4.002   0.167   2.939  1.4771  0.1664  1.1576
   55CHL1    C1 5220   4.015   0.510   2.874  0.3312 -0.4051 -0.2699
   55CHL1   H1A 5221   3.927   0.541   2.934 -0.8488 -1.0404 -1.6147
   55CHL1   H1B 5222   4.095   0.585   2.893  0.3374 -0.7918  1.3004
   55CHL1    C2 5223   3.958   0.510   2.729  0.1102  0.0499  0.4285
   55CHL1   H2A 5224   3.939   0.617   2.706 -1.9651 -0.3328  0.1982
   55CHL1   H2B 5225   3.866   0.449   2.725  0.3269 -0.2711  0.3018
   55CHL1   C20 5226   4.320   0.325   3.575  0.4175 -0.2477  0.8448
   55CHL1   H20 5227   4.245   0.244   3.584 -0.4384  0.4350  0.0273
   55CHL1   C21 5228   4.259   0.463   3.629  0.3532 -1.2926  0.0062
   55CHL1  H21A 5229   4.200   0.446   3.721  0.1913 -0.8429 -0.0086
   55CHL1  H21B 5230   4.191   0.508   3.552 -0.0748 -0.5228  0.8089
   55CHL1  H21C 5231   4.345   0.526   3.661 -1.5192  1.2599  0.4081
   55CHL1   C22 5232   4.438   0.284   3.670 -0.5963  0.5735 -0.4659
   55CHL1  H22A 5233   4.492   0.193   3.637  1.5183 -0.3068  4.3843
   55CHL1  H22B 5234   4.514   0.365   3.675  0.1893 -0.2059  2.1518
   55CHL1   C23 5235   4.392   0.268   3.820  0.0418  0.2979  0.1997
   55CHL1  H23A 5236   4.484   0.262   3.883 -0.5334  0.9194  1.1228
   55CHL1  H23B 5237   4.348   0.365   3.853 -1.4840  0.6763 -2.6539
   55CHL1   C24 5238   4.293   0.155   3.838 -0.6173  0.3199  0.1726
   55CHL1  H24A 5239   4.191   0.197   3.822 -1.2015 -0.8010  0.9048
   55CHL1  H24B 5240   4.305   0.084   3.753  0.9355 -1.3528  1.7363
   55CHL1   C25 5241   4.288   0.079   3.973  0.1020 -0.0510  0.0645
   55CHL1   H25 5242   4.195   0.021   3.957  1.3989 -2.2401  0.0483
   55CHL1   C26 5243   4.406  -0.021   3.986 -0.3136 -0.6522  0.0294
   55CHL1  H26A 5244   4.409  -0.091   3.900 -1.0452 -0.8248  0.1372
   55CHL1  H26B 5245   4.498   0.041   3.974 -0.6823  0.1409  1.1034
   55CHL1  H26C 5246   4.397  -0.073   4.083 -0.3923 -2.6493 -0.9908
   55CHL1   C27 5247   4.291   0.183   4.082 -0.2891 -0.3564 -0.5974
   55CHL1  H27A 5248   4.247   0.157   4.180 -0.8734  2.9327  0.1019
   55CHL1  H27B 5249   4.386   0.238   4.099  0.3502 -1.3202 -0.9137
   55CHL1  H27C 5250   4.225   0.264   4.045  1.1053  1.6597  1.0706
   56CHL1    C3 5251   4.134   3.024   2.908  0.2854 -0.2504  0.2817
   56CHL1    H3 5252   4.236   2.982   2.892 -0.5349 -1.3984 -2.8564
   56CHL1    O3 5253   4.076   3.047   2.782  0.0188  0.4526 -0.1109
   56CHL1   H3' 5254   4.124   3.121   2.744  1.6553 -0.8703 -0.7338
   56CHL1    C4 5255   4.042   2.936   2.987 -0.8622  0.5102  0.0346
   56CHL1   H4A 5256   3.937   2.970   2.999 -0.2176  2.3046  0.8824
   56CHL1   H4B 5257   4.035   2.846   2.922  0.9320  0.3340  0.0427
   56CHL1    C5 5258   4.106   2.904   3.119  0.4225  0.0400  0.1677
   56CHL1    C6 5259   4.137   2.781   3.167  0.0541  0.2260  0.6398
   56CHL1    H6 5260   4.107   2.700   3.099 -2.5216  0.7832  0.9981
   56CHL1    C7 5261   4.189   2.753   3.311 -0.3956 -0.0054  0.2221
   56CHL1   H7A 5262   4.131   2.669   3.354  0.9327 -1.0553  0.0064
   56CHL1   H7B 5263   4.297   2.727   3.309  0.1286  1.9994 -1.7370
   56CHL1    C8 5264   4.179   2.880   3.403 -0.8111  0.0345  0.0215
   56CHL1    H8 5265   4.071   2.880   3.429 -0.5973 -2.1506  1.0752
   56CHL1   C14 5266   4.268   2.846   3.526 -0.1410  0.6564 -0.0188
   56CHL1   H14 5267   4.373   2.836   3.490 -0.3802  0.0777 -0.5645
   56CHL1   C15 5268   4.239   2.709   3.590 -0.2242 -0.0022 -0.5399
   56CHL1  H15A 5269   4.131   2.684   3.593  0.0916 -1.7683 -1.7221
   56CHL1  H15B 5270   4.299   2.629   3.540  0.3843  0.6664 -0.8898
   56CHL1   C16 5271   4.308   2.731   3.732  0.5722  0.6040  0.8841
   56CHL1  H16A 5272   4.240   2.708   3.817  1.4195 -1.7542  0.9992
   56CHL1  H16B 5273   4.387   2.660   3.765 -1.4371 -0.7895  2.9651
   56CHL1   C17 5274   4.354   2.881   3.739 -0.0731 -0.8192  0.2064
   56CHL1   H17 5275   4.457   2.874   3.697  0.7168  2.3768  1.3600
   56CHL1   C13 5276   4.270   2.954   3.628 -0.9922 -0.0525 -0.9219
   56CHL1   C18 5277   4.126   2.990   3.687 -0.0505 -0.6905 -0.4457
   56CHL1  H18A 5278   4.137   3.086   3.742  1.6098 -1.4951  0.7443
   56CHL1  H18B 5279   4.065   3.005   3.596 -0.1092 -1.9744 -0.6274
   56CHL1  H18C 5280   4.080   2.917   3.757 -1.7881  0.9163  0.1553
   56CHL1   C12 5281   4.327   3.082   3.556  0.4062 -0.0536 -0.1085
   56CHL1  H12A 5282   4.300   3.162   3.629 -1.3497 -0.4087 -0.3195
   56CHL1  H12B 5283   4.434   3.060   3.538  0.3748 -0.8264  0.5934
   56CHL1   C11 5284   4.251   3.124   3.427 -0.1830  0.4431  0.2507
   56CHL1  H11A 5285   4.147   3.151   3.456 -1.9025 -1.2993 -3.4828
   56CHL1  H11B 5286   4.298   3.202   3.363  1.4175 -0.5488  0.1682
   56CHL1    C9 5287   4.229   2.998   3.330  0.0219 -0.2498  0.0312
   56CHL1    H9 5288   4.333   2.981   3.297  0.2069  2.4211 -0.9678
   56CHL1   C10 5289   4.142   3.029   3.202 -0.4178 -0.1299 -0.7151
   56CHL1   C19 5290   4.006   3.089   3.249  0.2339  0.2136  0.4076
   56CHL1  H19A 5291   3.933   3.101   3.167 -0.7752 -0.8067  1.1348
   56CHL1  H19B 5292   3.961   3.039   3.337  1.0924 -0.6876  0.3520
   56CHL1  H19C 5293   4.023   3.189   3.296  0.9361 -0.7571  2.3562
   56CHL1    C1 5294   4.216   3.132   3.120  0.3268 -0.6836 -0.1919
   56CHL1   H1A 5295   4.216   3.232   3.168 -2.1043 -0.6312 -0.1576
   56CHL1   H1B 5296   4.322   3.102   3.111  0.6697  0.4536 -0.0693
   56CHL1    C2 5297   4.148   3.161   2.977 -0.3670  0.2105  0.3380
   56CHL1   H2A 5298   4.217   3.231   2.925 -0.7663  0.4329  0.1057
   56CHL1   H2B 5299   4.053   3.213   3.000 -0.1591  0.5472  0.4411
   56CHL1   C20 5300   4.346   2.940   3.882 -0.0841 -1.5004  0.3918
   56CHL1   H20 5301   4.244   2.940   3.926 -0.3618  0.6008 -0.1172
   56CHL1   C21 5302   4.398   3.087   3.887  0.1310 -0.5322  0.1376
   56CHL1  H21A 5303   4.411   3.143   3.982 -0.0832  0.0071 -0.1483
   56CHL1  H21B 5304   4.327   3.156   3.835  0.4707  0.6143  1.1582
   56CHL1  H21C 5305   4.496   3.086   3.836  0.1650 -3.5643  0.0823
   56CHL1   C22 5306   4.428   2.862   3.983  0.3565  0.2153 -0.1299
   56CHL1  H22A 5307   4.427   2.752   3.969 -0.7066  0.4482 -2.1293
   56CHL1  H22B 5308   4.535   2.889   3.971  0.7699 -1.2157  0.1680
   56CHL1   C23 5309   4.388   2.903   4.128 -0.1846 -0.5991  0.5453
   56CHL1  H23A 5310   4.472   2.872   4.193  1.1257  2.6588  0.6130
   56CHL1  H23B 5311   4.387   3.014   4.137 -1.0984 -0.4490 -1.0392
   56CHL1   C24 5312   4.244   2.873   4.165 -0.0912 -0.6455 -0.1372
   56CHL1  H24A 5313   4.164   2.932   4.114 -0.2461 -1.7312 -1.1873
   56CHL1  H24B 5314   4.206   2.773   4.136 -2.5144  0.1421  0.0273
   56CHL1   C25 5315   4.215   2.878   4.319 -0.6100 -0.4949 -0.2559
   56CHL1   H25 5316   4.270   2.968   4.352 -0.6191 -0.5630 -0.0575
   56CHL1   C26 5317   4.067   2.899   4.361  0.2343 -0.1018  0.9659
   56CHL1  H26A 5318   4.061   2.909   4.472 -0.0964 -0.2788  0.9622
   56CHL1  H26B 5319   4.034   2.999   4.325  1.6143  1.3558  3.4432
   56CHL1  H26C 5320   4.000   2.817   4.328  1.6022 -1.7215  2.0548
   56CHL1   C27 5321   4.268   2.747   4.390  0.6319  1.1510 -0.1721
   56CHL1  H27A 5322   4.362   2.712   4.342  0.2834  0.3500 -0.2720
   56CHL1  H27B 5323   4.281   2.753   4.500 -1.2469 -4.8414  0.7202
   56CHL1  H27C 5324   4.194   2.667   4.373  0.0170  1.7880 -0.5642
   57CHL1    C3 5325   3.970   1.059   2.797 -0.0215  0.1580  1.0012
   57CHL1    H3 5326   3.966   1.170   2.804 -1.8076  0.1813  0.2673
   57CHL1    O3 5327   3.963   1.034   2.652 -0.0035 -0.5664 -0.2165
   57CHL1   H3' 5328   4.005   0.949   2.641  0.3936 -0.4498  0.3231
   57CHL1    C4 5329   4.101   1.008   2.862 -0.0739 -0.3661 -0.4902
   57CHL1   H4A 5330   4.102   0.899   2.838 -1.7359 -0.5607  0.1904
   57CHL1   H4B 5331   4.191   1.048   2.811  0.5183 -2.5017 -1.2401
   57CHL1    C5 5332   4.107   1.016   3.013  0.1283  0.4701  0.5002
   57CHL1    C6 5333   4.207   1.070   3.077 -0.1970 -0.6438  0.3954
   57CHL1    H6 5334   4.296   1.096   3.018 -1.5393  2.0592 -0.6193
   57CHL1    C7 5335   4.223   1.089   3.223  0.0222 -0.3039 -0.5827
   57CHL1   H7A 5336   4.323   1.064   3.262  1.3502  2.0578 -2.1782
   57CHL1   H7B 5337   4.213   1.197   3.247 -0.1009  0.1776 -2.6113
   57CHL1    C8 5338   4.115   1.023   3.311 -0.5066  0.3663  0.5316
   57CHL1    H8 5339   4.157   0.921   3.323 -0.2177  0.1086 -2.1336
   57CHL1   C14 5340   4.105   1.089   3.444 -0.2299  1.2236  0.8119
   57CHL1   H14 5341   4.067   1.192   3.426  1.2532  1.7872  0.7524
   57CHL1   C15 5342   4.231   1.121   3.532  0.8028 -0.2693  0.2034
   57CHL1  H15A 5343   4.310   1.044   3.528  1.4332  0.1205  3.0335
   57CHL1  H15B 5344   4.276   1.215   3.492  1.1487 -1.0075 -1.2037
   57CHL1   C16 5345   4.178   1.137   3.675  0.2117  0.3802 -0.0283
   57CHL1  H16A 5346   4.232   1.056   3.729 -0.8681 -0.7887 -0.6569
   57CHL1  H16B 5347   4.202   1.236   3.718  1.3553  0.0288  0.1980
   57CHL1   C17 5348   4.029   1.099   3.663 -0.0639  0.1339 -0.3689
   57CHL1   H17 5349   3.975   1.191   3.635  2.1256  1.4471 -0.4735
   57CHL1   C13 5350   4.012   1.008   3.538  0.6275  0.4682  0.6184
   57CHL1   C18 5351   4.059   0.872   3.574  0.9192  0.0836  0.3640
   57CHL1  H18A 5352   4.065   0.815   3.479 -2.5777  1.5435 -0.8833
   57CHL1  H18B 5353   4.150   0.868   3.638  1.0509 -0.6299  0.1393
   57CHL1  H18C 5354   3.974   0.824   3.627 -0.7712  0.3172 -1.9646
   57CHL1   C12 5355   3.870   1.013   3.467 -0.2912 -0.7483  0.1750
   57CHL1  H12A 5356   3.797   0.944   3.515 -0.7273 -2.5029 -2.7474
   57CHL1  H12B 5357   3.833   1.117   3.462 -0.0590 -0.6486  0.4872
   57CHL1   C11 5358   3.868   0.961   3.327  0.5960 -0.0815 -0.2258
   57CHL1  H11A 5359   3.878   0.851   3.340 -1.7273 -0.5163 -1.5752
   57CHL1  H11B 5360   3.770   0.977   3.278 -1.1281  0.4001  3.0632
   57CHL1    C9 5361   3.983   1.023   3.240  0.5185 -0.1746 -0.2677
   57CHL1    H9 5362   3.951   1.126   3.213  0.7605 -0.2488 -0.8436
   57CHL1   C10 5363   3.981   0.977   3.087 -0.4177  0.0806 -0.1963
   57CHL1   C19 5364   3.975   0.819   3.094 -0.6246 -0.0855 -0.0908
   57CHL1  H19A 5365   3.988   0.767   2.997  0.4822 -2.6626  1.3297
   57CHL1  H19B 5366   4.064   0.779   3.148 -1.3819  0.4147  1.5875
   57CHL1  H19C 5367   3.883   0.786   3.146  0.3872  0.5347  2.2392
   57CHL1    C1 5368   3.852   1.017   3.014  0.1039  0.2617  0.2236
   57CHL1   H1A 5369   3.766   0.955   3.048 -1.7781  3.1624  1.1600
   57CHL1   H1B 5370   3.835   1.125   3.030  0.2024  0.7228 -2.4474
   57CHL1    C2 5371   3.856   0.994   2.860  0.0210  1.1954  0.1388
   57CHL1   H2A 5372   3.765   1.046   2.823 -0.7023  0.0640  0.2804
   57CHL1   H2B 5373   3.844   0.885   2.843 -2.3705  1.3681  0.3566
   57CHL1   C20 5374   3.968   1.058   3.798  0.5281 -0.1698 -0.7279
   57CHL1   H20 5375   4.021   0.967   3.833  0.9556  0.1401 -0.5727
   57CHL1   C21 5376   3.822   1.021   3.784  0.1724 -0.2055  0.3393
   57CHL1  H21A 5377   3.814   0.929   3.722  0.7093  1.4462 -2.3402
   57CHL1  H21B 5378   3.766   1.104   3.737  0.0864 -0.3695  0.1523
   57CHL1  H21C 5379   3.784   0.999   3.886  0.7688 -1.9026  0.2443
   57CHL1   C22 5380   3.987   1.165   3.909 -0.2729 -0.5255 -0.7182
   57CHL1  H22A 5381   4.090   1.207   3.904  0.1700 -1.6878 -2.1357
   57CHL1  H22B 5382   3.922   1.254   3.898  1.7966  1.1058 -0.4676
   57CHL1   C23 5383   3.958   1.102   4.046  0.1329 -0.5801 -1.0908
   57CHL1  H23A 5384   3.850   1.075   4.043 -0.1172  0.4155 -1.7416
   57CHL1  H23B 5385   4.030   1.019   4.062  2.3326  1.6439  1.5524
   57CHL1   C24 5386   3.989   1.202   4.159 -0.4537 -0.6618 -0.2110
   57CHL1  H24A 5387   4.092   1.241   4.169 -0.6345 -0.4047  0.7113
   57CHL1  H24B 5388   3.915   1.285   4.154 -0.3305 -0.6034 -1.5837
   57CHL1   C25 5389   3.963   1.127   4.292 -0.9083 -0.0509 -0.4904
   57CHL1   H25 5390   4.004   1.026   4.275  0.0868  0.1039  0.8691
   57CHL1   C26 5391   4.033   1.166   4.420 -1.0644 -0.0471 -0.4911
   57CHL1  H26A 5392   4.134   1.201   4.391 -1.8954  2.6734 -0.4060
   57CHL1  H26B 5393   3.975   1.239   4.480 -0.4823  1.3734 -1.5840
   57CHL1  H26C 5394   4.054   1.071   4.474  1.0827 -0.2131 -1.5028
   57CHL1   C27 5395   3.817   1.104   4.322  0.0797 -0.0669 -0.2719
   57CHL1  H27A 5396   3.813   1.051   4.420 -1.0205 -0.2962 -0.4262
   57CHL1  H27B 5397   3.756   1.197   4.322  2.3140  1.4918  0.9858
   57CHL1  H27C 5398   3.770   1.044   4.242  2.2408 -1.5890 -0.4718
   58CHL1    C3 5399   3.416   0.996   3.121  0.2987 -0.2471  0.0455
   58CHL1    H3 5400   3.320   0.997   3.064  1.8098 -1.3107 -2.7213
   58CHL1    O3 5401   3.510   0.965   3.028 -0.4145 -0.1287 -0.3614
   58CHL1   H3' 5402   3.507   0.869   3.023 -1.8380 -0.1446  0.3475
   58CHL1    C4 5403   3.441   1.135   3.172  0.0329 -0.0228  0.2019
   58CHL1   H4A 5404   3.536   1.137   3.229  0.7647  1.5443 -0.9960
   58CHL1   H4B 5405   3.465   1.214   3.098 -1.4666 -0.4376 -0.7799
   58CHL1    C5 5406   3.337   1.187   3.268 -0.1518 -0.2074  0.3889
   58CHL1    C6 5407   3.263   1.298   3.243  0.5009 -0.3381  0.1415
   58CHL1    H6 5408   3.287   1.354   3.152 -0.0416 -1.4826 -0.7274
   58CHL1    C7 5409   3.162   1.359   3.338 -0.3935 -0.5985  0.2157
   58CHL1   H7A 5410   3.175   1.469   3.350 -0.3899 -0.4347 -1.1064
   58CHL1   H7B 5411   3.057   1.347   3.304 -0.5025  1.3624 -0.2709
   58CHL1    C8 5412   3.168   1.289   3.470  0.2773  0.2308  0.9017
   58CHL1    H8 5413   3.258   1.320   3.528  0.6055 -3.3680  2.6289
   58CHL1   C14 5414   3.046   1.322   3.555 -0.3718  0.4750 -0.4462
   58CHL1   H14 5415   2.957   1.272   3.511 -0.2262 -0.5708  0.4067
   58CHL1   C15 5416   3.008   1.469   3.584  0.5691 -0.0127  0.1583
   58CHL1  H15A 5417   3.091   1.543   3.593  0.3176  0.1999  0.7567
   58CHL1  H15B 5418   2.950   1.508   3.497 -0.4551 -0.5511  0.5838
   58CHL1   C16 5419   2.915   1.462   3.708  0.3792 -0.1995  0.4877
   58CHL1  H16A 5420   2.962   1.520   3.790  2.3710 -3.1909  1.6311
   58CHL1  H16B 5421   2.812   1.499   3.686 -1.2116 -3.6144  1.3241
   58CHL1   C17 5422   2.903   1.317   3.751 -0.4078  0.1302 -0.4976
   58CHL1   H17 5423   2.820   1.273   3.692 -1.9646  1.3482  0.7112
   58CHL1   C13 5424   3.040   1.259   3.696 -0.6058  0.1296 -0.3228
   58CHL1   C18 5425   3.160   1.314   3.780  0.2920  0.3683 -0.1578
   58CHL1  H18A 5426   3.193   1.238   3.855 -1.4945  0.6844  1.0101
   58CHL1  H18B 5427   3.251   1.333   3.721 -1.7924  0.9170 -3.4169
   58CHL1  H18C 5428   3.138   1.412   3.827 -0.7422  0.9188 -1.7481
   58CHL1   C12 5429   3.043   1.104   3.679  0.8682 -0.2393 -0.1828
   58CHL1  H12A 5430   3.034   1.059   3.780 -0.3719  1.3727  0.4810
   58CHL1  H12B 5431   2.949   1.081   3.624 -0.6939  1.4980  1.5783
   58CHL1   C11 5432   3.171   1.068   3.605  0.0672  0.0623 -0.4546
   58CHL1  H11A 5433   3.257   1.085   3.673 -0.2048 -0.5538  0.0592
   58CHL1  H11B 5434   3.170   0.959   3.582  1.0980  0.4126 -2.4531
   58CHL1    C9 5435   3.190   1.137   3.466  0.6218 -0.3007 -0.9381
   58CHL1    H9 5436   3.102   1.108   3.405 -1.4125  0.0181  1.6730
   58CHL1   C10 5437   3.317   1.093   3.388 -0.2971  0.3776  0.1053
   58CHL1   C19 5438   3.449   1.097   3.476  0.9143  0.0921 -0.0475
   58CHL1  H19A 5439   3.539   1.065   3.419 -1.1344 -3.3158 -1.7141
   58CHL1  H19B 5440   3.460   1.200   3.516 -2.7039  0.7090 -0.2750
   58CHL1  H19C 5441   3.427   1.029   3.561 -2.3518 -0.5161 -1.2092
   58CHL1    C1 5442   3.301   0.946   3.332 -0.4125 -0.5151 -0.5006
   58CHL1   H1A 5443   3.289   0.872   3.413  0.9693 -0.1943  0.0255
   58CHL1   H1B 5444   3.207   0.952   3.273 -0.9164 -0.6209  0.2802
   58CHL1    C2 5445   3.412   0.896   3.239  0.0602  0.2780  0.7838
   58CHL1   H2A 5446   3.377   0.796   3.206 -1.3467  0.9718  0.1308
   58CHL1   H2B 5447   3.509   0.885   3.292  1.0164  0.2185 -0.9122
   58CHL1   C20 5448   2.872   1.290   3.899  0.8092  0.0922  0.1989
   58CHL1   H20 5449   2.958   1.325   3.960  2.8910  1.1384 -3.1013
   58CHL1   C21 5450   2.835   1.144   3.926 -0.7901  0.6822  0.7348
   58CHL1  H21A 5451   2.789   1.133   4.027  1.4298  0.6618  1.8066
   58CHL1  H21B 5452   2.933   1.092   3.930  1.0124  3.4641 -2.0270
   58CHL1  H21C 5453   2.770   1.107   3.844 -0.1713  4.0142 -1.4657
   58CHL1   C22 5454   2.750   1.370   3.953  0.4344  0.6678  0.8161
   58CHL1  H22A 5455   2.727   1.459   3.890 -1.0110  0.0651  0.4656
   58CHL1  H22B 5456   2.658   1.310   3.941 -0.1148  1.5101  0.6764
   58CHL1   C23 5457   2.753   1.404   4.106  0.2877 -0.1432 -0.2995
   58CHL1  H23A 5458   2.754   1.314   4.171 -1.5752  2.0341  3.0294
   58CHL1  H23B 5459   2.845   1.455   4.143  0.4603 -0.5061 -0.2225
   58CHL1   C24 5460   2.629   1.485   4.153  1.2109 -0.4864  0.5920
   58CHL1  H24A 5461   2.620   1.566   4.078 -0.9784 -2.6358 -1.6645
   58CHL1  H24B 5462   2.544   1.419   4.126  0.5590  0.1768  0.9779
   58CHL1   C25 5463   2.629   1.518   4.297  0.3476 -0.1835 -0.1164
   58CHL1   H25 5464   2.637   1.420   4.349 -1.5240 -0.0046  0.6056
   58CHL1   C26 5465   2.739   1.617   4.341  0.8315  0.3264  0.1567
   58CHL1  H26A 5466   2.839   1.569   4.346  0.9877  0.3983 -1.5375
   58CHL1  H26B 5467   2.737   1.703   4.271 -0.6932  0.2890  0.1036
   58CHL1  H26C 5468   2.709   1.658   4.440 -1.5408  1.2641 -0.8723
   58CHL1   C27 5469   2.500   1.589   4.346  0.6601  0.8537  0.4158
   58CHL1  H27A 5470   2.465   1.669   4.278 -2.5926 -0.5500  0.2223
   58CHL1  H27B 5471   2.418   1.513   4.345 -0.5271  2.1084 -0.1059
   58CHL1  H27C 5472   2.504   1.626   4.451  1.3511 -0.5093  0.8904
   59CHL1    C3 5473   3.570   5.972   3.025 -0.4905 -0.8536  0.5799
   59CHL1    H3 5474   3.586   6.082   3.023  1.8149 -1.1050  1.8757
   59CHL1    O3 5475   3.565   5.914   2.894  0.2497 -0.1764  0.4084
   59CHL1   H3' 5476   3.544   5.821   2.896  0.9130 -0.4010 -1.3924
   59CHL1    C4 5477   3.700   5.922   3.097  0.6209 -0.1743  0.1347
   59CHL1   H4A 5478   3.707   5.812   3.083 -2.5176 -0.4816  0.4202
   59CHL1   H4B 5479   3.787   5.970   3.047  1.0624 -0.0329  1.0126
   59CHL1    C5 5480   3.712   5.957   3.243 -0.4503  0.5266  0.0245
   59CHL1    C6 5481   3.819   6.031   3.290  0.6779  0.4341  0.1495
   59CHL1    H6 5482   3.894   6.069   3.219  1.3858 -2.3938 -0.7399
   59CHL1    C7 5483   3.848   6.058   3.436 -0.6326 -0.0162  0.2786
   59CHL1   H7A 5484   3.954   6.044   3.467  0.1362  2.2127 -1.1193
   59CHL1   H7B 5485   3.833   6.166   3.459  0.5829  0.4197 -0.8179
   59CHL1    C8 5486   3.745   5.979   3.534  0.0978  0.7573 -0.2958
   59CHL1    H8 5487   3.783   5.874   3.539  0.9074  1.0085 -0.9938
   59CHL1   C14 5488   3.739   6.040   3.673 -0.6107  0.6692  0.9786
   59CHL1   H14 5489   3.689   6.139   3.667 -2.1517 -0.0879  0.8272
   59CHL1   C15 5490   3.874   6.062   3.743 -0.3994  0.5455 -0.1356
   59CHL1  H15A 5491   3.950   5.983   3.730  0.1151  1.2393 -1.5422
   59CHL1  H15B 5492   3.917   6.159   3.710 -0.6587  0.2832 -1.2656
   59CHL1   C16 5493   3.835   6.070   3.894 -0.1820  0.2103  0.9650
   59CHL1  H16A 5494   3.894   5.992   3.947 -0.8451 -1.8152 -1.0911
   59CHL1  H16B 5495   3.864   6.166   3.941 -0.5277  1.0934 -0.5614
   59CHL1   C17 5496   3.690   6.039   3.901  0.2806  0.8522 -0.3049
   59CHL1   H17 5497   3.637   6.136   3.892 -2.7320 -0.4148  2.0029
   59CHL1   C13 5498   3.655   5.963   3.772  0.1331 -0.0413 -0.0153
   59CHL1   C18 5499   3.704   5.818   3.786 -0.1610 -0.1129  0.0219
   59CHL1  H18A 5500   3.804   5.817   3.834 -0.9997  3.0329  2.1681
   59CHL1  H18B 5501   3.634   5.767   3.855 -0.5257  1.1230  0.5931
   59CHL1  H18C 5502   3.690   5.768   3.688  1.8109 -2.1104  0.6789
   59CHL1   C12 5503   3.505   5.962   3.727  0.1134 -0.1851  0.2087
   59CHL1  H12A 5504   3.447   5.897   3.796  2.1968 -2.0722  0.3062
   59CHL1  H12B 5505   3.474   6.069   3.730  0.6889 -0.0261  1.3922
   59CHL1   C11 5506   3.489   5.913   3.584 -0.5719  0.5025  0.3983
   59CHL1  H11A 5507   3.485   5.802   3.577  1.6635  0.2745  1.6422
   59CHL1  H11B 5508   3.391   5.954   3.553 -1.4622 -1.0144  1.1444
   59CHL1    C9 5509   3.599   5.968   3.480  0.0116  0.0140 -0.4503
   59CHL1    H9 5510   3.578   6.077   3.475  0.8725  0.1648 -0.8285
   59CHL1   C10 5511   3.586   5.920   3.339 -0.4035 -0.0430  0.1702
   59CHL1   C19 5512   3.589   5.764   3.339 -0.4996 -0.0405 -0.1366
   59CHL1  H19A 5513   3.490   5.732   3.377 -2.3007  3.6568 -1.2396
   59CHL1  H19B 5514   3.596   5.734   3.232 -2.6720 -0.2183 -0.2669
   59CHL1  H19C 5515   3.678   5.729   3.397  2.0976  2.2472 -2.4041
   59CHL1    C1 5516   3.463   5.982   3.259 -0.3257  0.0605  0.4980
   59CHL1   H1A 5517   3.366   5.948   3.302 -1.0277 -0.4904 -1.3949
   59CHL1   H1B 5518   3.472   6.093   3.257 -0.5044  0.1296 -3.5067
   59CHL1    C2 5519   3.448   5.932   3.114  0.5493 -0.3408 -0.5837
   59CHL1   H2A 5520   3.364   5.984   3.064 -0.7067 -0.7551  1.0239
   59CHL1   H2B 5521   3.428   5.825   3.134  0.1265 -0.3907 -1.2336
   59CHL1   C20 5522   3.653   5.982   4.040 -0.5163  0.4104  0.0089
   59CHL1   H20 5523   3.706   5.887   4.063  1.4215  1.4977  0.2431
   59CHL1   C21 5524   3.507   5.944   4.043 -0.1455  0.1967 -0.7877
   59CHL1  H21A 5525   3.484   5.848   3.992  0.6702 -0.1145 -0.5872
   59CHL1  H21B 5526   3.450   6.032   4.005  1.5200  1.9847  0.6264
   59CHL1  H21C 5527   3.472   5.916   4.145  0.9264 -1.9979 -0.9588
   59CHL1   C22 5528   3.696   6.066   4.163 -1.0466 -0.5720 -0.0676
   59CHL1  H22A 5529   3.641   6.021   4.249 -0.9866  0.0023  0.2748
   59CHL1  H22B 5530   3.798   6.040   4.197 -0.7512 -0.1495 -0.6212
   59CHL1   C23 5531   3.674   6.218   4.156 -0.7014  0.2658 -0.7971
   59CHL1  H23A 5532   3.731   6.267   4.074 -1.5495  3.6980  0.4829
   59CHL1  H23B 5533   3.566   6.244   4.151 -0.7926  0.1903  0.4911
   59CHL1   C24 5534   3.735   6.276   4.286 -0.2470  0.3751 -0.1334
   59CHL1  H24A 5535   3.680   6.244   4.377 -0.6127 -0.3818 -0.6100
   59CHL1  H24B 5536   3.840   6.241   4.299 -1.2954 -3.2217 -0.1766
   59CHL1   C25 5537   3.722   6.435   4.296  0.7139  0.1187  0.0291
   59CHL1   H25 5538   3.796   6.465   4.219  1.8884 -0.2980  0.9672
   59CHL1   C26 5539   3.584   6.496   4.262 -0.1617 -0.3617  0.6458
   59CHL1  H26A 5540   3.599   6.606   4.252  0.6741 -0.5951 -1.0640
   59CHL1  H26B 5541   3.546   6.455   4.166 -0.1555 -0.2758  0.6068
   59CHL1  H26C 5542   3.516   6.476   4.347  1.7020 -5.2572  1.3285
   59CHL1   C27 5543   3.782   6.482   4.429  0.3392  0.5132 -0.5216
   59CHL1  H27A 5544   3.776   6.593   4.424 -0.8299  0.4429 -4.2545
   59CHL1  H27B 5545   3.706   6.451   4.504  0.6318  0.2311 -0.3409
   59CHL1  H27C 5546   3.884   6.441   4.444 -0.0144 -0.0675  0.3438
   60CHL1    C3 5547   4.084   5.668   3.149 -0.0066 -0.0273  0.4771
   60CHL1    H3 5548   4.097   5.558   3.151 -1.4513 -0.2400 -0.2227
   60CHL1    O3 5549   4.009   5.716   3.035 -0.5627 -0.4997  0.2324
   60CHL1   H3' 5550   4.032   5.808   3.020  0.5502 -0.7763  0.1201
   60CHL1    C4 5551   4.011   5.717   3.274  0.6264 -0.5017 -0.1599
   60CHL1   H4A 5552   3.999   5.825   3.250  2.6061 -0.2084  0.0258
   60CHL1   H4B 5553   3.911   5.671   3.263  1.1416 -1.4467 -1.0765
   60CHL1    C5 5554   4.090   5.686   3.400 -0.4096  1.1659  0.2571
   60CHL1    C6 5555   4.036   5.613   3.501  0.5006  1.0827  0.1618
   60CHL1    H6 5556   3.927   5.595   3.499  0.2044  2.1085  2.9180
   60CHL1    C7 5557   4.108   5.582   3.621 -0.0679  0.3267 -0.0105
   60CHL1   H7A 5558   4.037   5.580   3.706 -2.5700  1.4946 -1.9341
   60CHL1   H7B 5559   4.161   5.487   3.596 -2.1766 -0.3662 -2.2505
   60CHL1    C8 5560   4.222   5.690   3.642  0.1278 -0.0413 -0.0269
   60CHL1    H8 5561   4.163   5.781   3.668 -0.0437 -0.6760  1.9959
   60CHL1   C14 5562   4.318   5.639   3.746  0.5753 -0.7617 -0.2133
   60CHL1   H14 5563   4.356   5.542   3.708 -1.1296 -1.3592 -0.5103
   60CHL1   C15 5564   4.252   5.607   3.877  0.0558 -0.2157 -1.2268
   60CHL1  H15A 5565   4.183   5.684   3.918  0.0160 -0.2060 -1.3101
   60CHL1  H15B 5566   4.194   5.513   3.860 -2.4254  1.2068 -1.2031
   60CHL1   C16 5567   4.368   5.590   3.976 -0.2715 -0.0677 -0.3700
   60CHL1  H16A 5568   4.349   5.645   4.071  0.8617 -2.4545  1.3185
   60CHL1  H16B 5569   4.393   5.487   4.006 -2.1408 -0.0273  1.5715
   60CHL1   C17 5570   4.490   5.646   3.903 -0.8638  0.7712  0.3938
   60CHL1   H17 5571   4.548   5.558   3.868 -0.2187  2.0207 -1.9301
   60CHL1   C13 5572   4.443   5.724   3.780 -0.0739  0.2788  0.1765
   60CHL1   C18 5573   4.394   5.863   3.826  0.1004 -0.6718 -0.0096
   60CHL1  H18A 5574   4.477   5.932   3.851 -0.9469  0.5894  0.0565
   60CHL1  H18B 5575   4.335   5.908   3.745 -0.2207 -1.7346 -0.3878
   60CHL1  H18C 5576   4.331   5.853   3.917  0.2442 -1.6765 -0.0078
   60CHL1   C12 5577   4.530   5.732   3.659 -0.5890  0.2274 -0.0675
   60CHL1  H12A 5578   4.615   5.802   3.665 -0.8801  0.5648  0.1286
   60CHL1  H12B 5579   4.574   5.638   3.618 -1.1121  0.0496 -0.2318
   60CHL1   C11 5580   4.445   5.774   3.537 -0.5719  0.0213 -0.4464
   60CHL1  H11A 5581   4.426   5.880   3.563  3.3918  0.8458 -0.2246
   60CHL1  H11B 5582   4.508   5.770   3.445  2.2808 -3.3184  1.4457
   60CHL1    C9 5583   4.308   5.700   3.516 -0.1498 -0.2521 -0.2871
   60CHL1    H9 5584   4.335   5.593   3.503 -1.7927 -0.6384 -0.8618
   60CHL1   C10 5585   4.229   5.737   3.395  0.1857 -0.0754 -0.6832
   60CHL1   C19 5586   4.220   5.896   3.386  0.1295  0.1592 -0.1645
   60CHL1  H19A 5587   4.161   5.933   3.300  0.0154 -0.7234 -0.4710
   60CHL1  H19B 5588   4.185   5.940   3.482 -1.0261 -1.5660  0.2552
   60CHL1  H19C 5589   4.318   5.949   3.388 -1.5064  3.5653  3.7468
   60CHL1    C1 5590   4.307   5.694   3.269 -0.3806  0.7981  0.1481
   60CHL1   H1A 5591   4.404   5.747   3.261  0.1941  0.0222  1.7130
   60CHL1   H1B 5592   4.327   5.585   3.275 -2.1658  0.4805  0.7716
   60CHL1    C2 5593   4.227   5.722   3.137 -0.3365  0.1074  0.3651
   60CHL1   H2A 5594   4.276   5.673   3.050 -0.7075  1.1262 -0.4464
   60CHL1   H2B 5595   4.224   5.832   3.118  2.5840  0.7451  2.9067
   60CHL1   C20 5596   4.590   5.723   3.990  0.0080  0.3162  0.7639
   60CHL1   H20 5597   4.535   5.805   4.041 -2.5044 -1.5968  1.3627
   60CHL1   C21 5598   4.708   5.784   3.910 -0.3902 -0.1375 -0.0721
   60CHL1  H21A 5599   4.779   5.830   3.981 -0.7704 -0.0006  0.2233
   60CHL1  H21B 5600   4.673   5.864   3.840  2.6519  1.0807 -0.3357
   60CHL1  H21C 5601   4.749   5.698   3.853 -1.3112  0.6046 -1.9447
   60CHL1   C22 5602   4.650   5.624   4.101 -0.1096  0.0455 -0.2396
   60CHL1  H22A 5603   4.579   5.555   4.152 -0.0456  0.4406  0.3879
   60CHL1  H22B 5604   4.717   5.560   4.040  1.4212  0.0847  1.3402
   60CHL1   C23 5605   4.739   5.692   4.205  0.1391  0.3505  0.3654
   60CHL1  H23A 5606   4.822   5.743   4.151  0.4754 -0.9404 -0.3976
   60CHL1  H23B 5607   4.668   5.770   4.240  2.0933  1.5867  1.7664
   60CHL1   C24 5608   4.781   5.610   4.327  0.4730  0.4706 -0.8926
   60CHL1  H24A 5609   4.685   5.599   4.382  1.3028 -0.3273  0.4450
   60CHL1  H24B 5610   4.813   5.508   4.295  0.4885 -0.0950  0.7995
   60CHL1   C25 5611   4.886   5.681   4.412  0.5223  0.9634 -0.6209
   60CHL1   H25 5612   4.979   5.670   4.351  0.7939  1.0513 -0.2281
   60CHL1   C26 5613   4.848   5.824   4.438  0.3121  0.0767 -0.3423
   60CHL1  H26A 5614   4.850   5.895   4.353  0.3973  0.2723 -0.1777
   60CHL1  H26B 5615   4.743   5.822   4.472  1.0079 -0.8224  1.9184
   60CHL1  H26C 5616   4.901   5.871   4.523 -0.9694  1.1445 -0.1057
   60CHL1   C27 5617   4.901   5.601   4.544  1.0534 -0.1483  0.2236
   60CHL1  H27A 5618   4.890   5.491   4.534  1.3915 -0.2849  1.1940
   60CHL1  H27B 5619   4.997   5.628   4.593 -0.4758  2.1215  2.1475
   60CHL1  H27C 5620   4.823   5.636   4.615  0.4092  1.9090 -1.3962
   61CHL1    C3 5621   5.026   1.229   2.745 -0.2321 -0.3587  0.2419
   61CHL1    H3 5622   5.060   1.150   2.815 -1.1153 -0.7939  0.2023
   61CHL1    O3 5623   5.074   1.213   2.612 -0.1304  0.4179  0.1501
   61CHL1   H3' 5624   5.157   1.260   2.602  0.4966 -0.7994 -0.6631
   61CHL1    C4 5625   4.877   1.244   2.753  0.3270 -0.2249  0.9384
   61CHL1   H4A 5626   4.845   1.334   2.696  0.3849 -0.7879 -0.0083
   61CHL1   H4B 5627   4.836   1.156   2.699 -0.1498  0.8428 -0.5045
   61CHL1    C5 5628   4.835   1.257   2.895  0.3552 -0.0758  0.5615
   61CHL1    C6 5629   4.749   1.170   2.953 -0.7486  0.1336 -0.4932
   61CHL1    H6 5630   4.700   1.091   2.895 -0.8803 -1.2651  1.4306
   61CHL1    C7 5631   4.710   1.178   3.094  0.4206  0.4557  0.3811
   61CHL1   H7A 5632   4.612   1.126   3.108  1.7756 -2.5281 -0.4635
   61CHL1   H7B 5633   4.764   1.102   3.154 -1.3576 -2.6110 -1.6173
   61CHL1    C8 5634   4.718   1.318   3.149  0.5212 -0.2133 -0.3678
   61CHL1    H8 5635   4.640   1.379   3.099 -0.8691 -1.1967  0.5228
   61CHL1   C14 5636   4.684   1.318   3.302  0.2735  0.2040 -0.9695
   61CHL1   H14 5637   4.765   1.263   3.355  0.3612  1.2859  0.0805
   61CHL1   C15 5638   4.547   1.254   3.354 -0.0600 -0.1426 -0.5538
   61CHL1  H15A 5639   4.459   1.292   3.298  0.1323 -1.0745 -1.5296
   61CHL1  H15B 5640   4.543   1.144   3.358  0.6658 -0.2251 -1.6732
   61CHL1   C16 5641   4.540   1.326   3.490  0.6273 -0.8018  0.1921
   61CHL1  H16A 5642   4.446   1.381   3.511  1.2408 -0.4542  2.1923
   61CHL1  H16B 5643   4.547   1.246   3.567  3.1691  1.4215  2.4857
   61CHL1   C17 5644   4.664   1.425   3.506  0.5803  0.0360 -0.4495
   61CHL1   H17 5645   4.744   1.363   3.551 -2.2356 -2.1955  1.8998
   61CHL1   C13 5646   4.704   1.459   3.366  0.5906 -0.4767  0.2707
   61CHL1   C18 5647   4.596   1.555   3.312 -0.3049 -0.5069  0.4047
   61CHL1  H18A 5648   4.591   1.548   3.202  0.9100  0.2744  0.2718
   61CHL1  H18B 5649   4.492   1.536   3.344 -1.0016  1.8546 -0.2605
   61CHL1  H18C 5650   4.619   1.661   3.339  0.5632 -0.5744 -0.0393
   61CHL1   C12 5651   4.850   1.504   3.342 -0.2487  0.2552  0.4559
   61CHL1  H12A 5652   4.875   1.608   3.372  0.3482  0.8302 -1.8241
   61CHL1  H12B 5653   4.916   1.431   3.393  0.3740 -0.2176 -0.9668
   61CHL1   C11 5654   4.877   1.512   3.196  0.6336 -0.1818  0.2623
   61CHL1  H11A 5655   4.814   1.592   3.151  3.2819  2.1715  0.4360
   61CHL1  H11B 5656   4.979   1.552   3.178  0.4369  1.5299  2.5628
   61CHL1    C9 5657   4.857   1.380   3.120 -0.0705  0.8595  0.5075
   61CHL1    H9 5658   4.932   1.314   3.168  0.3193 -1.0380 -2.4330
   61CHL1   C10 5659   4.900   1.374   2.970 -0.2687  0.5129  0.0484
   61CHL1   C19 5660   4.862   1.510   2.908  0.6827 -0.0800  0.4915
   61CHL1  H19A 5661   4.753   1.530   2.922  0.5666 -0.7872  0.6681
   61CHL1  H19B 5662   4.936   1.579   2.952  3.9231 -1.8647 -1.7549
   61CHL1  H19C 5663   4.875   1.523   2.799 -1.2514  2.0035  0.4248
   61CHL1    C1 5664   5.051   1.365   2.956 -0.4149  0.0714  0.7583
   61CHL1   H1A 5665   5.109   1.452   2.993  0.4221 -0.7143  1.3651
   61CHL1   H1B 5666   5.092   1.275   3.007 -2.6372 -0.0451  2.5215
   61CHL1    C2 5667   5.095   1.352   2.806 -0.2055 -1.1408 -0.1552
   61CHL1   H2A 5668   5.206   1.350   2.806 -0.0891 -4.2432 -3.0492
   61CHL1   H2B 5669   5.055   1.438   2.747  0.2257 -1.0472 -0.3126
   61CHL1   C20 5670   4.632   1.533   3.609  0.6015 -0.7231 -0.4362
   61CHL1   H20 5671   4.554   1.607   3.580 -1.0378 -1.3748  1.9664
   61CHL1   C21 5672   4.758   1.611   3.640 -0.4405  0.3467 -0.8730
   61CHL1  H21A 5673   4.739   1.677   3.727  0.3513 -1.8292  1.0745
   61CHL1  H21B 5674   4.793   1.672   3.554  0.2111  0.8957 -0.2270
   61CHL1  H21C 5675   4.837   1.539   3.670  0.0486 -0.0160 -2.8999
   61CHL1   C22 5676   4.561   1.479   3.735 -0.4210  0.3209  0.1417
   61CHL1  H22A 5677   4.528   1.571   3.787 -1.7779  1.3212 -2.3053
   61CHL1  H22B 5678   4.464   1.427   3.722  0.1283 -0.6986 -0.1012
   61CHL1   C23 5679   4.639   1.384   3.829 -0.0363 -0.5903 -0.3086
   61CHL1  H23A 5680   4.641   1.277   3.799  2.8001 -0.9035  0.6592
   61CHL1  H23B 5681   4.744   1.420   3.830  0.0342 -0.8143  0.1940
   61CHL1   C24 5682   4.578   1.396   3.968 -0.4588  0.3765 -0.7433
   61CHL1  H24A 5683   4.652   1.365   4.046 -1.7568  0.4485  0.5499
   61CHL1  H24B 5684   4.572   1.503   3.997  1.5032 -0.0105  1.3596
   61CHL1   C25 5685   4.454   1.309   3.999 -0.2182 -0.1880 -0.0929
   61CHL1   H25 5686   4.373   1.329   3.925  0.2353 -2.2082 -1.2289
   61CHL1   C26 5687   4.470   1.154   3.994 -0.2942  0.8316  0.0370
   61CHL1  H26A 5688   4.504   1.141   3.889 -1.7071  0.6636 -0.4213
   61CHL1  H26B 5689   4.549   1.116   4.062 -0.7756 -0.1571  0.0579
   61CHL1  H26C 5690   4.380   1.094   4.019  1.0163 -0.4738  1.9342
   61CHL1   C27 5691   4.395   1.350   4.130 -0.3819 -0.2594 -0.0317
   61CHL1  H27A 5692   4.467   1.325   4.211  0.1871 -2.0322 -1.0447
   61CHL1  H27B 5693   4.377   1.460   4.134 -0.6128 -0.2240 -1.5405
   61CHL1  H27C 5694   4.303   1.292   4.149 -0.0672 -1.0668 -0.9239
   62CHL1    C3 5695   5.894   2.458   2.940 -0.3477 -0.0004 -0.3464
   62CHL1    H3 5696   5.856   2.360   2.904  1.6794 -0.4013 -1.5584
   62CHL1    O3 5697   5.903   2.547   2.829 -0.6450  0.3163  0.2098
   62CHL1   H3' 5698   5.931   2.635   2.852  0.5588 -0.0302  0.1459
   62CHL1    C4 5699   5.802   2.549   3.026 -0.0919  0.7588  0.2557
   62CHL1   H4A 5700   5.852   2.647   3.042  0.9018  0.4017 -0.5651
   62CHL1   H4B 5701   5.705   2.565   2.975 -0.3083 -0.5433  0.2224
   62CHL1    C5 5702   5.791   2.476   3.164  0.2761 -0.9941  0.3582
   62CHL1    C6 5703   5.672   2.449   3.214 -0.0194  0.3356  0.0821
   62CHL1    H6 5704   5.590   2.493   3.155  0.7097  0.7326 -0.6483
   62CHL1    C7 5705   5.647   2.396   3.355  0.0058  0.5805  0.0470
   62CHL1   H7A 5706   5.572   2.459   3.408  1.6092  3.1055 -0.5808
   62CHL1   H7B 5707   5.599   2.295   3.361  0.6360  0.1098 -2.0991
   62CHL1    C8 5708   5.774   2.395   3.437  0.2208  0.5305  0.6400
   62CHL1    H8 5709   5.795   2.501   3.460 -0.3515  1.2974 -2.0358
   62CHL1   C14 5710   5.750   2.315   3.569 -0.1574 -1.0811  1.1600
   62CHL1   H14 5711   5.719   2.211   3.543 -1.1243  0.0477 -3.1421
   62CHL1   C15 5712   5.634   2.366   3.660 -0.0352 -0.2409 -0.0186
   62CHL1  H15A 5713   5.640   2.476   3.671  1.4431 -0.2244 -0.7070
   62CHL1  H15B 5714   5.534   2.337   3.622 -0.7697  1.6829  0.3611
   62CHL1   C16 5715   5.668   2.297   3.791 -0.2336 -1.0956  0.9833
   62CHL1  H16A 5716   5.681   2.376   3.868  0.3880  0.5744 -0.7802
   62CHL1  H16B 5717   5.585   2.228   3.819 -3.0858  0.9636 -1.7406
   62CHL1   C17 5718   5.802   2.226   3.778 -0.1401 -0.3791 -0.1870
   62CHL1   H17 5719   5.783   2.122   3.744 -3.4579  0.2930 -0.7044
   62CHL1   C13 5720   5.877   2.298   3.655  0.3849 -0.5116 -0.2076
   62CHL1   C18 5721   5.926   2.438   3.702 -0.5190  0.1275  0.1609
   62CHL1  H18A 5722   5.847   2.492   3.759 -2.1497 -3.9460  2.1425
   62CHL1  H18B 5723   6.013   2.416   3.767 -1.4159 -2.4512  0.5824
   62CHL1  H18C 5724   5.954   2.498   3.613 -1.3135 -1.4480 -1.2160
   62CHL1   C12 5725   5.975   2.217   3.569 -0.1670 -0.6390  0.5383
   62CHL1  H12A 5726   6.064   2.196   3.632  1.2037  2.0471 -0.3416
   62CHL1  H12B 5727   5.920   2.128   3.530 -2.7864  0.4589  1.5517
   62CHL1   C11 5728   6.016   2.300   3.439  0.0246 -0.2314 -0.0022
   62CHL1  H11A 5729   6.066   2.394   3.473 -1.6365  0.9392 -0.6667
   62CHL1  H11B 5730   6.088   2.237   3.383 -1.1390 -0.7235 -0.9778
   62CHL1    C9 5731   5.892   2.336   3.357  0.5650 -0.2035  0.3609
   62CHL1    H9 5732   5.849   2.238   3.324  0.7478 -0.5345  1.1021
   62CHL1   C10 5733   5.925   2.431   3.241  0.6828 -0.2892  0.2501
   62CHL1   C19 5734   6.007   2.555   3.276  0.4109 -0.1266  0.3412
   62CHL1  H19A 5735   6.008   2.640   3.205  0.1868 -0.1132  0.3527
   62CHL1  H19B 5736   5.956   2.606   3.360 -1.0122  3.5067 -2.4516
   62CHL1  H19C 5737   6.112   2.533   3.305  1.4981  2.5958 -1.1720
   62CHL1    C1 5738   6.010   2.351   3.137  0.3700 -0.2982  0.2668
   62CHL1   H1A 5739   6.114   2.338   3.175  1.2052  0.9825 -1.4582
   62CHL1   H1B 5740   5.969   2.248   3.131  2.4520 -1.0995 -1.8892
   62CHL1    C2 5741   6.036   2.424   3.002 -0.2073  0.3736 -0.1136
   62CHL1   H2A 5742   6.084   2.358   2.927 -0.1575  1.5856 -1.1705
   62CHL1   H2B 5743   6.100   2.512   3.026 -0.8380  0.9086 -0.3936
   62CHL1   C20 5744   5.878   2.201   3.915 -0.4647 -0.1250  0.7109
   62CHL1   H20 5745   5.882   2.295   3.974  1.2921  0.5053 -0.3119
   62CHL1   C21 5746   6.027   2.164   3.895  0.2095  0.4763 -0.3278
   62CHL1  H21A 5747   6.037   2.065   3.845 -2.5937  0.5585 -1.2128
   62CHL1  H21B 5748   6.068   2.150   3.997 -0.5222 -1.1178 -0.2213
   62CHL1  H21C 5749   6.094   2.235   3.843  0.3495  0.8051  0.2920
   62CHL1   C22 5750   5.802   2.095   4.000 -0.3866  0.0208  0.4140
   62CHL1  H22A 5751   5.691   2.106   4.004 -0.3971 -0.0321  0.2894
   62CHL1  H22B 5752   5.827   1.997   3.955  3.1335  0.3202  1.4790
   62CHL1   C23 5753   5.848   2.104   4.147 -0.1783  0.2756 -0.1843
   62CHL1  H23A 5754   5.955   2.088   4.170 -0.0536  1.7056  0.3344
   62CHL1  H23B 5755   5.823   2.205   4.185  0.3639 -0.1135  1.2800
   62CHL1   C24 5756   5.765   2.005   4.224  0.5677 -0.1649  0.0731
   62CHL1  H24A 5757   5.657   2.020   4.201  0.5584  2.4085  1.4392
   62CHL1  H24B 5758   5.789   1.902   4.192 -0.0959 -0.5461  0.7869
   62CHL1   C25 5759   5.790   2.002   4.372  0.4174 -0.5706 -0.2956
   62CHL1   H25 5760   5.899   1.989   4.388 -0.1068 -1.3249  3.8581
   62CHL1   C26 5761   5.744   2.122   4.462 -0.6140 -0.4492 -0.6186
   62CHL1  H26A 5762   5.785   2.105   4.564  2.8642  0.4372 -1.6968
   62CHL1  H26B 5763   5.794   2.217   4.433 -1.2579  0.6300  1.6093
   62CHL1  H26C 5764   5.634   2.136   4.464 -0.7014 -1.0512  2.1886
   62CHL1   C27 5765   5.734   1.865   4.433 -0.4664 -0.1614 -0.5059
   62CHL1  H27A 5766   5.790   1.838   4.525 -1.3041  1.8553  0.6787
   62CHL1  H27B 5767   5.628   1.883   4.463 -0.3409  2.1086 -1.2070
   62CHL1  H27C 5768   5.738   1.787   4.354  1.6374  0.1940 -0.8160
   63CHL1    C3 5769   4.482   4.870   2.882  0.3467 -0.0949 -0.3719
   63CHL1    H3 5770   4.489   4.981   2.891  1.5698  0.0674 -2.4977
   63CHL1    O3 5771   4.448   4.849   2.751  0.2476 -0.3440 -0.3877
   63CHL1   H3' 5772   4.355   4.825   2.748  0.6490 -2.3759  1.1872
   63CHL1    C4 5773   4.630   4.821   2.916  0.0945  0.2143 -0.3456
   63CHL1   H4A 5774   4.635   4.715   2.883  0.4861 -0.6214  2.2101
   63CHL1   H4B 5775   4.700   4.875   2.848 -0.0459 -0.1739 -0.8053
   63CHL1    C5 5776   4.661   4.833   3.058 -0.2617 -0.6314 -0.0510
   63CHL1    C6 5777   4.764   4.908   3.097 -0.1624  0.1189  0.7246
   63CHL1    H6 5778   4.825   4.963   3.024 -0.2210 -0.4022  0.2717
   63CHL1    C7 5779   4.806   4.927   3.240  0.1847  0.1497  0.2983
   63CHL1   H7A 5780   4.916   4.915   3.250  0.3637  0.7964 -0.7880
   63CHL1   H7B 5781   4.780   5.032   3.267 -0.8036 -0.6412  2.7374
   63CHL1    C8 5782   4.729   4.827   3.337 -0.6103 -0.1778 -0.1790
   63CHL1    H8 5783   4.771   4.725   3.328 -1.5303 -0.5268 -0.6469
   63CHL1   C14 5784   4.743   4.873   3.487 -0.2724  0.3691  0.1586
   63CHL1   H14 5785   4.693   4.972   3.501 -0.0817  0.3235  1.2147
   63CHL1   C15 5786   4.889   4.885   3.533  0.0524 -0.2454  0.3383
   63CHL1  H15A 5787   4.954   4.814   3.477 -1.0678  0.8429 -2.5004
   63CHL1  H15B 5788   4.923   4.987   3.507 -2.2209 -0.0034 -2.1585
   63CHL1   C16 5789   4.883   4.859   3.691  0.3538 -0.2045  0.2941
   63CHL1  H16A 5790   4.945   4.771   3.718 -1.6412 -1.6079  0.5546
   63CHL1  H16B 5791   4.919   4.948   3.747 -0.8909  0.7174 -0.3076
   63CHL1   C17 5792   4.739   4.817   3.718 -0.1693  0.2494 -0.3315
   63CHL1   H17 5793   4.681   4.911   3.723 -0.6559  0.0937 -2.2365
   63CHL1   C13 5794   4.680   4.765   3.585 -0.1983  0.0893 -0.0105
   63CHL1   C18 5795   4.739   4.619   3.568  0.0860  0.4299  0.6911
   63CHL1  H18A 5796   4.849   4.623   3.582  0.0848 -2.6009  2.5745
   63CHL1  H18B 5797   4.686   4.558   3.645  1.7018 -0.5931  1.0424
   63CHL1  H18C 5798   4.721   4.578   3.467 -0.1914  1.1536  0.4444
   63CHL1   C12 5799   4.533   4.771   3.565  0.7419  0.1139  0.3553
   63CHL1  H12A 5800   4.487   4.700   3.638  3.7848  0.1094  2.4651
   63CHL1  H12B 5801   4.509   4.877   3.588 -0.2682 -0.0042 -0.1083
   63CHL1   C11 5802   4.494   4.745   3.414  0.0374  0.1663 -0.3362
   63CHL1  H11A 5803   4.513   4.637   3.398  1.4642 -0.0802  2.4308
   63CHL1  H11B 5804   4.386   4.765   3.396  0.0465  0.5985  0.0627
   63CHL1    C9 5805   4.584   4.819   3.307  0.1618  0.6478  0.1514
   63CHL1    H9 5806   4.555   4.925   3.298 -1.6846  0.2124  0.5823
   63CHL1   C10 5807   4.556   4.778   3.158  0.7778 -0.4340 -0.0087
   63CHL1   C19 5808   4.559   4.628   3.152 -1.3754 -0.2968  0.1824
   63CHL1  H19A 5809   4.456   4.596   3.181 -0.4485 -3.9799 -0.0991
   63CHL1  H19B 5810   4.577   4.567   3.061 -0.2166 -1.5196  1.1896
   63CHL1  H19C 5811   4.622   4.581   3.230 -1.8482 -0.3553  0.5405
   63CHL1    C1 5812   4.415   4.833   3.120 -0.2430  0.0357  0.6588
   63CHL1   H1A 5813   4.349   4.781   3.192  2.3998 -1.7206  1.9991
   63CHL1   H1B 5814   4.420   4.941   3.146  1.4829 -0.1773  1.3461
   63CHL1    C2 5815   4.378   4.813   2.974 -0.3713  0.6529 -0.0873
   63CHL1   H2A 5816   4.279   4.861   2.964 -0.6130  0.0458 -0.6932
   63CHL1   H2B 5817   4.369   4.705   2.951 -1.9117  0.4936  1.1391
   63CHL1   C20 5818   4.717   4.746   3.851  0.3740  0.2041  0.2812
   63CHL1   H20 5819   4.791   4.663   3.863 -0.8803 -1.0051 -0.1445
   63CHL1   C21 5820   4.577   4.695   3.883 -0.1756 -0.2978 -0.1344
   63CHL1  H21A 5821   4.544   4.616   3.812 -2.6113  0.7108 -0.2068
   63CHL1  H21B 5822   4.502   4.774   3.900  1.0810  0.4479  2.5358
   63CHL1  H21C 5823   4.583   4.647   3.983 -2.6288 -0.9496 -0.2414
   63CHL1   C22 5824   4.766   4.841   3.961  0.5067  0.2549  0.3778
   63CHL1  H22A 5825   4.866   4.879   3.934  0.2210  0.6641 -0.1065
   63CHL1  H22B 5826   4.695   4.923   3.984  1.0932  0.4674  1.5026
   63CHL1   C23 5827   4.797   4.767   4.096 -0.5903  0.3970  0.2355
   63CHL1  H23A 5828   4.702   4.761   4.153 -1.5299  0.4278 -1.2792
   63CHL1  H23B 5829   4.828   4.663   4.074  1.3057  0.5197  1.9278
   63CHL1   C24 5830   4.907   4.843   4.177 -0.4069 -0.7638 -0.1096
   63CHL1  H24A 5831   4.880   4.950   4.187 -2.2662 -1.0779 -1.4302
   63CHL1  H24B 5832   4.913   4.799   4.279  0.1934 -0.1661  0.1198
   63CHL1   C25 5833   5.054   4.843   4.124 -0.6701 -0.1539 -0.9297
   63CHL1   H25 5834   5.062   4.903   4.031  1.0101  0.8850 -0.1692
   63CHL1   C26 5835   5.147   4.920   4.222 -0.9928 -0.1302 -0.6361
   63CHL1  H26A 5836   5.097   5.010   4.262 -1.1783 -0.7565  0.5771
   63CHL1  H26B 5837   5.187   4.847   4.296  0.3566  0.7668 -0.4441
   63CHL1  H26C 5838   5.239   4.945   4.164 -0.2731  0.1558  0.5900
   63CHL1   C27 5839   5.106   4.703   4.116  0.1629  0.0042  0.2809
   63CHL1  H27A 5840   5.109   4.650   4.214 -1.0629  2.1992  1.5779
   63CHL1  H27B 5841   5.047   4.650   4.038  0.0776  2.9548 -1.7723
   63CHL1  H27C 5842   5.212   4.688   4.085 -0.0890 -1.0480 -0.1169
   64CHL1    C3 5843   1.915   3.160   3.167  0.0123 -0.3851  0.0211
   64CHL1    H3 5844   1.951   3.057   3.187 -0.2246 -0.3448  0.6709
   64CHL1    O3 5845   1.917   3.192   3.031  0.8006  0.6216 -0.3624
   64CHL1   H3' 5846   2.012   3.205   3.022  0.9638  1.8168  2.0158
   64CHL1    C4 5847   1.767   3.177   3.204 -0.0545  0.2412 -0.2559
   64CHL1   H4A 5848   1.715   3.269   3.171 -0.9363  0.1632  0.8465
   64CHL1   H4B 5849   1.709   3.097   3.154  0.0627 -0.0444  0.0607
   64CHL1    C5 5850   1.755   3.172   3.354  0.7095 -0.0163  0.9279
   64CHL1    C6 5851   1.678   3.084   3.414 -0.7131  0.0657  0.4173
   64CHL1    H6 5852   1.619   3.014   3.353 -0.2465  0.4120 -0.4486
   64CHL1    C7 5853   1.645   3.079   3.560 -0.3978 -0.5598 -0.1571
   64CHL1   H7A 5854   1.534   3.078   3.566 -0.5283  1.6115 -1.1555
   64CHL1   H7B 5855   1.682   2.988   3.613 -0.2842 -0.0015  0.7406
   64CHL1    C8 5856   1.694   3.197   3.639  0.2425  0.1330 -0.2238
   64CHL1    H8 5857   1.643   3.293   3.617 -0.3226  0.1490  1.0448
   64CHL1   C14 5858   1.682   3.179   3.796 -0.1339  0.2198  0.5670
   64CHL1   H14 5859   1.750   3.094   3.817  0.6510  1.0660  1.6016
   64CHL1   C15 5860   1.547   3.140   3.862 -0.2934 -0.2223 -0.3758
   64CHL1  H15A 5861   1.468   3.207   3.822  0.2188 -0.3268 -1.6156
   64CHL1  H15B 5862   1.515   3.035   3.841 -3.1503  0.6447 -0.8435
   64CHL1   C16 5863   1.580   3.157   4.012  0.7993 -0.1240 -0.2677
   64CHL1  H16A 5864   1.498   3.210   4.064 -1.6373 -2.3338 -1.5928
   64CHL1  H16B 5865   1.596   3.057   4.058  1.6438  0.0196 -0.2408
   64CHL1   C17 5866   1.715   3.231   4.023  0.0884  0.0659 -0.4351
   64CHL1   H17 5867   1.794   3.155   4.045 -0.3175 -1.1434 -2.8426
   64CHL1   C13 5868   1.743   3.288   3.880 -0.3535 -0.3267  0.1696
   64CHL1   C18 5869   1.662   3.418   3.880  0.5082  0.5750 -0.2158
   64CHL1  H18A 5870   1.673   3.458   3.776  1.3143  1.2094  0.1007
   64CHL1  H18B 5871   1.554   3.421   3.906  0.6561  1.5649  0.3546
   64CHL1  H18C 5872   1.713   3.502   3.932  0.3887 -0.7751  2.2226
   64CHL1   C12 5873   1.893   3.310   3.829  0.1434 -0.1071 -0.1408
   64CHL1  H12A 5874   1.934   3.397   3.884  0.2215 -0.6560  0.6777
   64CHL1  H12B 5875   1.954   3.223   3.861  1.6267  1.9375  3.1486
   64CHL1   C11 5876   1.895   3.350   3.684  0.2043  0.3695  0.1948
   64CHL1  H11A 5877   1.838   3.445   3.672 -0.6232  0.0341  1.3057
   64CHL1  H11B 5878   1.997   3.374   3.648 -0.2443  0.5339 -1.0010
   64CHL1    C9 5879   1.838   3.235   3.588  0.4413 -0.2322 -0.7252
   64CHL1    H9 5880   1.901   3.149   3.615  1.2360  0.9497  1.4517
   64CHL1   C10 5881   1.847   3.270   3.439 -0.1133  0.2943  0.4531
   64CHL1   C19 5882   1.796   3.414   3.408  0.4461 -1.1718  0.0040
   64CHL1  H19A 5883   1.799   3.459   3.306 -1.5442 -0.5018  0.1876
   64CHL1  H19B 5884   1.695   3.424   3.454  0.8967  0.8910  0.6809
   64CHL1  H19C 5885   1.870   3.480   3.458  0.6596 -1.7784  0.5023
   64CHL1    C1 5886   1.992   3.254   3.395  0.0139  0.3056  0.3961
   64CHL1   H1A 5887   2.054   3.326   3.452 -0.4458 -0.0059  1.3163
   64CHL1   H1B 5888   2.027   3.155   3.433 -0.8532  0.5000  1.8156
   64CHL1    C2 5889   2.010   3.264   3.239 -0.0849 -0.2205 -0.9172
   64CHL1   H2A 5890   2.114   3.263   3.201  0.5689 -1.3717  0.7560
   64CHL1   H2B 5891   1.973   3.361   3.202  0.5140  0.8089  1.0211
   64CHL1   C20 5892   1.725   3.323   4.147 -0.1630 -0.1751 -1.3532
   64CHL1   H20 5893   1.666   3.416   4.129  1.0535  0.4151 -2.5269
   64CHL1   C21 5894   1.872   3.360   4.176  0.2671 -0.5477 -0.1553
   64CHL1  H21A 5895   1.906   3.424   4.091 -2.4076  2.3587  0.7521
   64CHL1  H21B 5896   1.936   3.271   4.192 -0.6501 -1.0957  0.5404
   64CHL1  H21C 5897   1.878   3.429   4.263 -0.3479  1.7304 -1.8012
   64CHL1   C22 5898   1.669   3.256   4.277 -0.2447  0.2426 -0.5379
   64CHL1  H22A 5899   1.560   3.238   4.278  0.1601 -2.8427  1.7098
   64CHL1  H22B 5900   1.722   3.162   4.301 -1.8522 -0.2912  1.1487
   64CHL1   C23 5901   1.706   3.339   4.407  0.6543  0.8373 -0.4094
   64CHL1  H23A 5902   1.813   3.331   4.434  0.2439  0.5871  1.2701
   64CHL1  H23B 5903   1.680   3.447   4.394  0.3789  0.7030 -1.0155
   64CHL1   C24 5904   1.621   3.310   4.536 -0.1739 -0.2405 -0.2123
   64CHL1  H24A 5905   1.515   3.341   4.527 -0.8412 -1.5549  2.3906
   64CHL1  H24B 5906   1.618   3.200   4.548  0.1290 -0.0566  1.8504
   64CHL1   C25 5907   1.679   3.367   4.664 -0.5952 -0.2470 -0.9655
   64CHL1   H25 5908   1.788   3.343   4.662 -0.7965 -1.4889  0.7571
   64CHL1   C26 5909   1.664   3.515   4.688 -0.1129 -0.6183  0.4899
   64CHL1  H26A 5910   1.560   3.535   4.720 -0.9664  0.1583 -2.4771
   64CHL1  H26B 5911   1.732   3.540   4.772 -0.1309  0.4343  0.2026
   64CHL1  H26C 5912   1.689   3.572   4.596  1.3059  0.4868  1.5211
   64CHL1   C27 5913   1.631   3.292   4.785  0.3502 -0.4160 -0.3015
   64CHL1  H27A 5914   1.521   3.300   4.789  0.5360  2.9782  0.4035
   64CHL1  H27B 5915   1.665   3.186   4.788 -0.7149 -0.7765 -0.5655
   64CHL1  H27C 5916   1.671   3.332   4.881  0.5878  2.4228 -1.4815
   65CHL1    C3 5917   6.775   2.976   2.977  0.2234 -0.1085  0.1313
   65CHL1    H3 5918   6.826   2.887   3.019  0.9012  0.2460  0.0669
   65CHL1    O3 5919   6.784   2.981   2.838  0.2750 -0.1846  0.0810
   65CHL1   H3' 5920   6.873   3.006   2.812  0.4911 -1.8745 -0.9454
   65CHL1    C4 5921   6.630   2.973   3.019  0.2839 -0.0993 -0.0405
   65CHL1   H4A 5922   6.570   3.056   2.976 -1.0620 -1.2351 -0.4244
   65CHL1   H4B 5923   6.577   2.887   2.974 -0.5207  1.8800 -3.1438
   65CHL1    C5 5924   6.621   2.971   3.168  0.1716  0.1614  0.2199
   65CHL1    C6 5925   6.565   2.866   3.236 -0.1879 -0.1019  0.4348
   65CHL1    H6 5926   6.515   2.789   3.176 -1.6684 -0.0761  1.5823
   65CHL1    C7 5927   6.541   2.872   3.381 -0.0356  0.3403 -0.7439
   65CHL1   H7A 5928   6.441   2.837   3.413 -0.3065  2.4642  0.8674
   65CHL1   H7B 5929   6.616   2.803   3.425 -0.7926 -0.1110 -0.1398
   65CHL1    C8 5930   6.565   3.007   3.444  0.0916  0.1713  0.6625
   65CHL1    H8 5931   6.486   3.082   3.425  0.2388  0.3522  0.7605
   65CHL1   C14 5932   6.573   2.988   3.593 -0.3235 -0.0352  0.4878
   65CHL1   H14 5933   6.650   2.911   3.616  0.3602  0.9957  1.8309
   65CHL1   C15 5934   6.449   2.919   3.662  0.0921 -0.2864  0.7309
   65CHL1  H15A 5935   6.355   2.956   3.617  0.4849  0.7021  0.7100
   65CHL1  H15B 5936   6.461   2.809   3.652  0.9006 -0.1727  0.3638
   65CHL1   C16 5937   6.459   2.964   3.809 -0.4287  0.2830  0.3693
   65CHL1  H16A 5938   6.378   3.036   3.831 -0.2383  0.6629 -0.1419
   65CHL1  H16B 5939   6.450   2.881   3.882  2.8497  1.6523  2.5471
   65CHL1   C17 5940   6.591   3.042   3.819  0.2299  0.3712  0.0990
   65CHL1   H17 5941   6.678   2.974   3.826 -0.7430 -0.7593  2.2283
   65CHL1   C13 5942   6.613   3.106   3.674 -0.5426 -0.5695 -0.5171
   65CHL1   C18 5943   6.515   3.220   3.657  0.3860 -0.3703  0.0549
   65CHL1  H18A 5944   6.406   3.202   3.668  0.3523 -0.1941  0.0082
   65CHL1  H18B 5945   6.551   3.307   3.717 -0.8297 -0.0506  0.3616
   65CHL1  H18C 5946   6.528   3.248   3.551 -0.2669 -1.7156 -0.3996
   65CHL1   C12 5947   6.749   3.148   3.630  0.5095 -0.2920  0.7054
   65CHL1  H12A 5948   6.776   3.248   3.672 -1.0714 -0.4460  2.1747
   65CHL1  H12B 5949   6.817   3.063   3.652 -0.2450 -0.9787  0.4131
   65CHL1   C11 5950   6.757   3.177   3.477  0.0172 -0.6792 -0.4835
   65CHL1  H11A 5951   6.693   3.268   3.466 -1.0135 -1.3654 -0.2953
   65CHL1  H11B 5952   6.861   3.209   3.454 -0.0450  0.2707  0.4832
   65CHL1    C9 5953   6.702   3.062   3.398  0.6126 -0.4726 -0.2730
   65CHL1    H9 5954   6.766   2.972   3.387 -2.4195 -2.6062 -1.9769
   65CHL1   C10 5955   6.694   3.087   3.241  0.6146  0.4624  0.0953
   65CHL1   C19 5956   6.605   3.209   3.201  0.7476 -0.4645 -0.0603
   65CHL1  H19A 5957   6.594   3.239   3.095 -3.1410  0.0804  0.3576
   65CHL1  H19B 5958   6.503   3.183   3.236  0.7361 -2.3436 -1.3438
   65CHL1  H19C 5959   6.635   3.299   3.260 -0.6842  0.1410 -0.2244
   65CHL1    C1 5960   6.837   3.104   3.194 -0.8117  0.1020  0.5492
   65CHL1   H1A 5961   6.865   3.206   3.227  0.0913 -0.2744  0.9746
   65CHL1   H1B 5962   6.892   3.019   3.240 -0.8222  0.0971  0.5527
   65CHL1    C2 5963   6.843   3.100   3.037  0.3764  0.1233  0.3600
   65CHL1   H2A 5964   6.951   3.088   3.010  0.3415 -0.3700  0.4237
   65CHL1   H2B 5965   6.798   3.188   2.988  1.0723  0.0700 -0.3996
   65CHL1   C20 5966   6.588   3.131   3.941 -0.5216 -0.5458 -0.7346
   65CHL1   H20 5967   6.506   3.206   3.932 -0.4871 -0.3070  0.6217
   65CHL1   C21 5968   6.722   3.215   3.954 -0.0745  0.2351  0.0092
   65CHL1  H21A 5969   6.718   3.292   3.875 -0.7224  1.1404  0.8904
   65CHL1  H21B 5970   6.812   3.150   3.945 -1.4121 -1.5896 -0.7811
   65CHL1  H21C 5971   6.730   3.269   4.051  0.4353 -0.7235  0.5230
   65CHL1   C22 5972   6.565   3.048   4.076  0.6405  0.0317  0.5909
   65CHL1  H22A 5973   6.467   2.996   4.070 -0.3675  1.9492 -0.3328
   65CHL1  H22B 5974   6.642   2.968   4.084  0.5859  0.1268  3.0130
   65CHL1   C23 5975   6.548   3.134   4.203  0.0747  0.4298 -0.2401
   65CHL1  H23A 5976   6.636   3.202   4.206  0.0562  0.7360 -3.2208
   65CHL1  H23B 5977   6.455   3.195   4.200 -0.3401 -0.1235  0.7638
   65CHL1   C24 5978   6.536   3.046   4.326  0.1473 -0.5127  0.2855
   65CHL1  H24A 5979   6.436   3.000   4.333 -1.0157  1.9695  1.3719
   65CHL1  H24B 5980   6.606   2.961   4.312  0.1180 -0.1644 -2.5890
   65CHL1   C25 5981   6.550   3.113   4.459 -1.3227 -0.0921 -0.4193
   65CHL1   H25 5982   6.492   3.207   4.449 -0.8693  0.0081 -2.6501
   65CHL1   C26 5983   6.491   3.037   4.574 -0.1785 -0.2841  0.4029
   65CHL1  H26A 5984   6.386   3.008   4.552 -0.2988 -1.9323  2.7874
   65CHL1  H26B 5985   6.550   2.945   4.589  2.7345  1.3769 -0.0273
   65CHL1  H26C 5986   6.493   3.097   4.668 -0.2035  0.1808  0.1147
   65CHL1   C27 5987   6.701   3.152   4.480 -0.5087 -0.9238 -0.3509
   65CHL1  H27A 5988   6.712   3.219   4.568  0.7352 -3.5955  1.6581
   65CHL1  H27B 5989   6.769   3.068   4.505  0.9936  1.1861  3.4779
   65CHL1  H27C 5990   6.746   3.204   4.392  3.0948 -0.1354  1.7429
   66CHL1    C3 5991   3.576   2.611   3.049  0.8068 -0.2503 -0.2447
   66CHL1    H3 5992   3.558   2.506   3.079  0.2059 -0.5449 -1.5343
   66CHL1    O3 5993   3.537   2.619   2.914 -0.5283  0.0365  0.2716
   66CHL1   H3' 5994   3.534   2.714   2.900 -0.7477  0.0809  0.6066
   66CHL1    C4 5995   3.473   2.692   3.120  0.3188 -0.5522 -0.9226
   66CHL1   H4A 5996   3.485   2.792   3.072  3.4180 -0.1059  0.5243
   66CHL1   H4B 5997   3.370   2.657   3.100 -0.1244 -0.2485  0.6493
   66CHL1    C5 5998   3.494   2.712   3.269 -0.5090  0.6620  0.3643
   66CHL1    C6 5999   3.395   2.714   3.361 -0.0930  0.3191  0.5009
   66CHL1    H6 6000   3.293   2.699   3.321  0.7337 -0.2516 -1.5388
   66CHL1    C7 6001   3.415   2.726   3.510  0.6217 -0.2199 -1.7404
   66CHL1   H7A 6002   3.346   2.798   3.559  0.6889 -2.2669  1.7063
   66CHL1   H7B 6003   3.388   2.630   3.560  0.7763 -0.0964 -1.4174
   66CHL1    C8 6004   3.555   2.760   3.554 -0.0378 -0.3870  0.0720
   66CHL1    H8 6005   3.562   2.871   3.549  1.0056 -0.3957  0.9060
   66CHL1   C14 6006   3.589   2.713   3.695  0.2479  0.7125  0.7427
   66CHL1   H14 6007   3.568   2.604   3.689 -2.0919  1.1983 -1.8488
   66CHL1   C15 6008   3.498   2.762   3.810 -0.0497  0.5257  0.0116
   66CHL1  H15A 6009   3.485   2.872   3.804 -0.8147  0.5131  1.2210
   66CHL1  H15B 6010   3.397   2.717   3.819 -0.0326  0.0595 -1.6849
   66CHL1   C16 6011   3.581   2.740   3.937 -0.1820 -0.1436 -0.0268
   66CHL1  H16A 6012   3.604   2.841   3.979  1.7977  0.2242 -1.8339
   66CHL1  H16B 6013   3.522   2.686   4.014 -0.1227  1.4469  1.1862
   66CHL1   C17 6014   3.719   2.687   3.893 -0.1675 -0.4871 -0.4676
   66CHL1   H17 6015   3.727   2.576   3.895  0.2960 -0.4626 -0.7838
   66CHL1   C13 6016   3.730   2.731   3.743 -0.2587  0.7376 -0.3439
   66CHL1   C18 6017   3.760   2.888   3.739  0.7191  0.6498 -0.0753
   66CHL1  H18A 6018   3.694   2.950   3.803 -1.3005 -2.5070  1.1262
   66CHL1  H18B 6019   3.860   2.896   3.788 -0.1182  1.1383  1.6350
   66CHL1  H18C 6020   3.769   2.915   3.632 -3.0403 -0.6450 -0.8600
   66CHL1   C12 6021   3.826   2.653   3.650 -0.6099  0.0828  0.0307
   66CHL1  H12A 6022   3.933   2.651   3.680 -0.3485 -0.8474 -0.8898
   66CHL1  H12B 6023   3.811   2.543   3.655  1.7346 -0.4118 -1.7322
   66CHL1   C11 6024   3.807   2.695   3.507 -0.3775 -0.3898 -1.0650
   66CHL1  H11A 6025   3.838   2.800   3.492  0.2649 -0.5332 -0.7939
   66CHL1  H11B 6026   3.871   2.632   3.441  1.7892  2.1712 -1.5744
   66CHL1    C9 6027   3.660   2.686   3.465  0.1443  0.0046  0.8377
   66CHL1    H9 6028   3.634   2.578   3.464 -1.9131  0.4487 -0.3995
   66CHL1   C10 6029   3.644   2.729   3.310  0.5831 -0.8225 -0.2417
   66CHL1   C19 6030   3.680   2.879   3.286  0.3946 -0.0693 -0.2600
   66CHL1  H19A 6031   3.600   2.939   3.334  0.0097 -2.2647  2.0369
   66CHL1  H19B 6032   3.784   2.901   3.320  1.1448 -2.0421 -1.1459
   66CHL1  H19C 6033   3.667   2.915   3.182 -1.7704  0.5995  0.1954
   66CHL1    C1 6034   3.739   2.645   3.223 -0.6307  0.6242  0.0506
   66CHL1   H1A 6035   3.843   2.683   3.231 -0.6161  0.8197 -0.9299
   66CHL1   H1B 6036   3.735   2.542   3.264  0.6563  1.1453  1.5573
   66CHL1    C2 6037   3.714   2.655   3.076  0.0499  0.6791  0.6782
   66CHL1   H2A 6038   3.787   2.590   3.023  0.3514  1.6258 -0.0870
   66CHL1   H2B 6039   3.738   2.754   3.032  1.2486  1.0103  2.0020
   66CHL1   C20 6040   3.834   2.734   3.988 -0.1929  0.3536  0.8035
   66CHL1   H20 6041   3.861   2.842   3.993  1.8360 -0.1677  2.7120
   66CHL1   C21 6042   3.967   2.665   3.948 -0.4132 -0.0119 -0.1552
   66CHL1  H21A 6043   4.023   2.730   3.877 -0.5357  0.8477  0.5086
   66CHL1  H21B 6044   3.946   2.571   3.894 -1.0396  0.6727 -1.1379
   66CHL1  H21C 6045   4.021   2.648   4.043 -1.6182  0.1199  0.5800
   66CHL1   C22 6046   3.798   2.683   4.131 -0.0961  0.0101  0.6322
   66CHL1  H22A 6047   3.892   2.700   4.187 -0.5372  3.1499  0.6187
   66CHL1  H22B 6048   3.710   2.742   4.163 -0.5837 -0.0364 -0.5589
   66CHL1   C23 6049   3.765   2.534   4.155 -0.1832 -0.5862 -0.3487
   66CHL1  H23A 6050   3.668   2.503   4.112 -1.2117  1.8401  0.0331
   66CHL1  H23B 6051   3.839   2.465   4.110 -1.2022 -1.5784 -0.5262
   66CHL1   C24 6052   3.778   2.510   4.306 -0.3872 -0.2845 -0.1129
   66CHL1  H24A 6053   3.776   2.401   4.328 -1.2023 -0.4544 -0.9767
   66CHL1  H24B 6054   3.883   2.531   4.334 -0.4391 -0.2910  0.0883
   66CHL1   C25 6055   3.678   2.579   4.402  0.8619 -0.4335  0.0083
   66CHL1   H25 6056   3.700   2.688   4.414 -0.1507 -0.1769 -0.4243
   66CHL1   C26 6057   3.531   2.569   4.358 -1.2126 -0.2182  0.1831
   66CHL1  H26A 6058   3.515   2.594   4.251  1.2898 -1.6944 -0.6160
   66CHL1  H26B 6059   3.508   2.461   4.359  1.2991 -0.9050 -2.4908
   66CHL1  H26C 6060   3.466   2.632   4.422 -0.7007  0.9547 -0.4189
   66CHL1   C27 6061   3.683   2.516   4.536 -0.7266 -0.7701  0.3029
   66CHL1  H27A 6062   3.786   2.526   4.578 -0.5563 -3.6008  0.7257
   66CHL1  H27B 6063   3.665   2.407   4.536  1.6286 -1.2169  0.0252
   66CHL1  H27C 6064   3.615   2.560   4.613 -1.5020  0.6225 -1.1346
   67CHL1    C3 6065   3.601   6.391   2.922 -0.0218  0.0137 -0.2732
   67CHL1    H3 6066   3.602   6.280   2.929  0.0310 -0.1046 -1.7865
   67CHL1    O3 6067   3.644   6.433   2.796  0.2004 -0.0821  0.1688
   67CHL1   H3' 6068   3.576   6.405   2.733  2.0855  1.0383 -2.5327
   67CHL1    C4 6069   3.470   6.456   2.955 -0.2788  0.7641  0.1483
   67CHL1   H4A 6070   3.491   6.564   2.941  1.3483  0.2834 -1.3859
   67CHL1   H4B 6071   3.394   6.430   2.879 -0.7204  2.6130 -0.0840
   67CHL1    C5 6072   3.424   6.414   3.092  0.1502  0.4499  0.0080
   67CHL1    C6 6073   3.310   6.343   3.114  0.3086  0.2006 -0.3962
   67CHL1    H6 6074   3.252   6.300   3.031 -2.3317  0.0246  1.4022
   67CHL1    C7 6075   3.256   6.305   3.253  0.2033  0.4712 -0.0994
   67CHL1   H7A 6076   3.148   6.329   3.248  0.2311  0.3737 -1.7240
   67CHL1   H7B 6077   3.267   6.196   3.266  3.4209  0.5716 -1.1815
   67CHL1    C8 6078   3.329   6.384   3.363 -0.6185  0.2600  0.7550
   67CHL1    H8 6079   3.285   6.486   3.356 -3.0326 -0.7678 -0.0966
   67CHL1   C14 6080   3.306   6.331   3.506  0.5351  0.3582 -0.0531
   67CHL1   H14 6081   3.358   6.233   3.514  1.1547  0.7474  1.0153
   67CHL1   C15 6082   3.162   6.304   3.551  0.6404  0.1730  0.5241
   67CHL1  H15A 6083   3.092   6.386   3.525 -0.6660 -1.1459 -0.2642
   67CHL1  H15B 6084   3.130   6.209   3.505 -0.2426  1.4347 -1.5961
   67CHL1   C16 6085   3.176   6.294   3.705 -0.1136  0.4573  0.1737
   67CHL1  H16A 6086   3.095   6.361   3.741  1.9873  3.0731  0.3121
   67CHL1  H16B 6087   3.157   6.187   3.728  2.2218 -0.1657 -0.4623
   67CHL1   C17 6088   3.320   6.346   3.752 -0.2735 -0.1096 -0.1932
   67CHL1   H17 6089   3.383   6.255   3.760  1.0080  0.6229 -1.4283
   67CHL1   C13 6090   3.369   6.414   3.619 -0.6203  0.7114  0.0938
   67CHL1   C18 6091   3.312   6.555   3.618 -1.3209  0.4424  0.0942
   67CHL1  H18A 6092   3.318   6.603   3.518  0.9932 -0.1859 -0.1173
   67CHL1  H18B 6093   3.204   6.558   3.644 -1.3789  2.4392 -0.2679
   67CHL1  H18C 6094   3.370   6.621   3.686  0.8088 -1.8371  0.6529
   67CHL1   C12 6095   3.525   6.404   3.603  0.2019 -0.3589  0.3870
   67CHL1  H12A 6096   3.575   6.465   3.682 -0.1763  1.8471 -0.9821
   67CHL1  H12B 6097   3.557   6.298   3.613  1.9810  0.2846  2.1233
   67CHL1   C11 6098   3.563   6.454   3.458  0.2526 -0.1601 -0.1953
   67CHL1  H11A 6099   3.556   6.564   3.469 -1.2671 -0.2122 -0.4344
   67CHL1  H11B 6100   3.669   6.429   3.437 -0.4385 -2.2366 -1.5211
   67CHL1    C9 6101   3.482   6.395   3.340 -0.0789  0.1157  0.0941
   67CHL1    H9 6102   3.523   6.292   3.335 -0.8404 -0.1323 -1.9860
   67CHL1   C10 6103   3.521   6.461   3.204  0.0494  0.2949 -0.4954
   67CHL1   C19 6104   3.515   6.616   3.218  0.3094  0.2049 -0.3472
   67CHL1  H19A 6105   3.421   6.644   3.271 -1.2218 -2.0247 -1.6716
   67CHL1  H19B 6106   3.607   6.652   3.268  0.6323 -0.4041 -0.4858
   67CHL1  H19C 6107   3.514   6.657   3.115  0.6620  0.7621 -0.1294
   67CHL1    C1 6108   3.664   6.406   3.165 -0.0298 -0.3853  0.2816
   67CHL1   H1A 6109   3.730   6.460   3.237 -3.6789  0.5978  3.1834
   67CHL1   H1B 6110   3.663   6.295   3.177 -0.5989 -0.4649 -0.4430
   67CHL1    C2 6111   3.709   6.443   3.022  0.5092  0.2919  0.6843
   67CHL1   H2A 6112   3.810   6.411   2.989 -0.6680 -1.3155 -1.6421
   67CHL1   H2B 6113   3.701   6.553   3.009  0.6210  0.0682 -1.8814
   67CHL1   C20 6114   3.329   6.414   3.888  0.2981  0.0503 -0.5436
   67CHL1   H20 6115   3.419   6.479   3.888  0.6513 -0.4308 -1.1551
   67CHL1   C21 6116   3.362   6.305   3.990  0.2284  0.9424  0.1280
   67CHL1  H21A 6117   3.467   6.271   3.975 -0.0427  0.3845 -0.5307
   67CHL1  H21B 6118   3.301   6.213   3.977  1.2592  0.3298 -0.5285
   67CHL1  H21C 6119   3.359   6.339   4.096 -1.2293  1.7842 -0.1571
   67CHL1   C22 6120   3.200   6.498   3.940  0.5453 -0.2489  0.5646
   67CHL1  H22A 6121   3.181   6.568   3.856  0.8782 -0.7144  0.0974
   67CHL1  H22B 6122   3.116   6.434   3.974  2.1419 -1.7905  1.7945
   67CHL1   C23 6123   3.235   6.584   4.059 -0.1461  0.0410 -0.2876
   67CHL1  H23A 6124   3.250   6.518   4.147  1.3833  0.6123 -0.0917
   67CHL1  H23B 6125   3.336   6.623   4.036  0.0176 -0.7559 -0.9541
   67CHL1   C24 6126   3.132   6.699   4.083  0.6263 -0.6131  0.1154
   67CHL1  H24A 6127   3.106   6.744   3.985  0.0127  0.3622  0.7113
   67CHL1  H24B 6128   3.042   6.651   4.127  1.1352 -2.1543 -0.4520
   67CHL1   C25 6129   3.181   6.807   4.180  0.2471  0.5911  0.1341
   67CHL1   H25 6130   3.281   6.839   4.143 -0.0387  1.2897 -0.0547
   67CHL1   C26 6131   3.090   6.931   4.188  0.4523  0.0795 -0.2099
   67CHL1  H26A 6132   3.124   7.004   4.264  0.5670 -0.4370  0.2380
   67CHL1  H26B 6133   3.077   6.979   4.089  1.3218  1.4416  0.3110
   67CHL1  H26C 6134   2.989   6.900   4.223  1.7981 -2.6870  1.5541
   67CHL1   C27 6135   3.213   6.754   4.319  0.0066 -0.6696 -0.0005
   67CHL1  H27A 6136   3.253   6.842   4.373 -1.5055  0.3493 -0.4995
   67CHL1  H27B 6137   3.122   6.738   4.381  0.0922 -0.6166  0.1381
   67CHL1  H27C 6138   3.279   6.665   4.313  3.0310  1.3705  0.7271
   68CHL1    C3 6139   2.127   0.851   2.700 -0.2459 -0.0612 -0.4243
   68CHL1    H3 6140   2.096   0.956   2.717  0.7652 -0.1003  2.0948
   68CHL1    O3 6141   2.158   0.844   2.558 -0.7745 -0.5016  0.3791
   68CHL1   H3' 6142   2.076   0.872   2.516  0.0611 -0.2634 -1.1634
   68CHL1    C4 6143   2.262   0.825   2.776  0.2592  0.6642  0.1211
   68CHL1   H4A 6144   2.286   0.723   2.738 -0.2941  0.4172  0.4330
   68CHL1   H4B 6145   2.339   0.892   2.730  0.2537  0.0459 -0.8020
   68CHL1    C5 6146   2.237   0.835   2.924  1.0636  0.4180 -0.3562
   68CHL1    C6 6147   2.316   0.913   2.997  0.3265 -0.4470 -0.0977
   68CHL1    H6 6148   2.399   0.977   2.961 -0.8191  0.3478 -1.4417
   68CHL1    C7 6149   2.310   0.926   3.145 -0.0268 -0.1238  0.3139
   68CHL1   H7A 6150   2.411   0.924   3.191  0.7317  5.5995 -0.4307
   68CHL1   H7B 6151   2.289   1.031   3.173  2.3975  0.6643 -0.5951
   68CHL1    C8 6152   2.211   0.831   3.212 -0.1750  0.1742 -0.1064
   68CHL1    H8 6153   2.270   0.741   3.242  0.9737  0.5959 -1.0099
   68CHL1   C14 6154   2.149   0.889   3.334 -0.1057 -0.2629  0.1901
   68CHL1   H14 6155   2.080   0.966   3.294  1.0412  0.9170  0.4277
   68CHL1   C15 6156   2.236   0.969   3.431 -0.0132 -0.2612 -1.1615
   68CHL1  H15A 6157   2.328   0.911   3.454 -1.2983 -1.6281  0.9182
   68CHL1  H15B 6158   2.260   1.069   3.390 -2.2238  0.6026 -0.4793
   68CHL1   C16 6159   2.150   0.970   3.564  0.1235  0.2082  0.4579
   68CHL1  H16A 6160   2.209   0.929   3.649 -0.2908  2.5589  1.9880
   68CHL1  H16B 6161   2.116   1.073   3.587 -1.4443 -0.7874  2.9909
   68CHL1   C17 6162   2.026   0.886   3.527  0.1200 -0.0806 -0.1260
   68CHL1   H17 6163   1.944   0.953   3.493 -0.1367  0.0778  0.7687
   68CHL1   C13 6164   2.065   0.789   3.414  0.0669  0.0022  0.4012
   68CHL1   C18 6165   2.154   0.671   3.466  0.2353  0.2190 -0.4192
   68CHL1  H18A 6166   2.249   0.698   3.518 -1.3399 -0.8656  3.2896
   68CHL1  H18B 6167   2.097   0.621   3.547 -3.3939  1.5605 -1.9605
   68CHL1  H18C 6168   2.183   0.600   3.385 -0.8050  3.3973 -3.8326
   68CHL1   C12 6169   1.949   0.736   3.325  0.9917 -0.2642 -0.7116
   68CHL1  H12A 6170   1.877   0.667   3.374  3.1336 -2.2653 -0.1644
   68CHL1  H12B 6171   1.884   0.821   3.295 -1.0853 -1.5932 -0.2252
   68CHL1   C11 6172   2.005   0.676   3.196 -0.1325  0.6611 -0.4278
   68CHL1  H11A 6173   2.056   0.577   3.199 -1.0558  0.0176 -3.0785
   68CHL1  H11B 6174   1.922   0.655   3.125 -1.7018 -0.6476  1.6609
   68CHL1    C9 6175   2.096   0.781   3.127 -0.3254  0.5572  0.4369
   68CHL1    H9 6176   2.031   0.870   3.111  0.5422  0.7016 -3.0198
   68CHL1   C10 6177   2.127   0.749   2.977  0.4588  0.0265  0.4888
   68CHL1   C19 6178   2.171   0.595   2.977 -0.0166 -0.0030 -0.6535
   68CHL1  H19A 6179   2.250   0.587   3.055  1.5489  1.8264 -1.9527
   68CHL1  H19B 6180   2.083   0.529   2.992  0.9386 -0.9636  1.0642
   68CHL1  H19C 6181   2.213   0.570   2.878  1.2218  1.0420 -0.4217
   68CHL1    C1 6182   2.002   0.775   2.889 -0.0117  0.2928 -0.5139
   68CHL1   H1A 6183   1.924   0.704   2.923 -1.7972  2.1764 -0.4146
   68CHL1   H1B 6184   1.968   0.881   2.898  0.4036  0.4554 -0.8263
   68CHL1    C2 6185   2.023   0.756   2.734  0.4964 -0.9473  0.8696
   68CHL1   H2A 6186   1.930   0.787   2.682  1.0943 -0.7321 -0.0889
   68CHL1   H2B 6187   2.039   0.647   2.723  0.0524 -1.0198  0.9539
   68CHL1   C20 6188   1.970   0.819   3.649  0.3759  0.8037 -0.2591
   68CHL1   H20 6189   2.038   0.737   3.680  0.3423  0.0992 -1.9470
   68CHL1   C21 6190   1.823   0.770   3.623  0.5735  0.6811 -0.2563
   68CHL1  H21A 6191   1.768   0.784   3.719 -0.1243 -2.1374 -0.1693
   68CHL1  H21B 6192   1.812   0.662   3.602 -0.3371  0.6681  0.2348
   68CHL1  H21C 6193   1.765   0.822   3.543 -0.7219 -0.5960 -0.1940
   68CHL1   C22 6194   1.964   0.914   3.774  0.3195 -0.3850 -1.1384
   68CHL1  H22A 6195   2.058   0.971   3.789  2.2198 -2.8402 -2.7708
   68CHL1  H22B 6196   1.876   0.978   3.753 -0.1898 -0.6060  0.2028
   68CHL1   C23 6197   1.955   0.825   3.907 -0.3529 -0.4550  0.8955
   68CHL1  H23A 6198   1.894   0.734   3.890  0.0939 -0.7707  0.9459
   68CHL1  H23B 6199   2.057   0.786   3.927 -0.1709 -0.8545 -0.6719
   68CHL1   C24 6200   1.883   0.902   4.020 -0.4148 -0.9006 -0.0478
   68CHL1  H24A 6201   1.894   1.010   3.997 -3.8086 -0.0720  1.6066
   68CHL1  H24B 6202   1.773   0.884   4.019 -0.4469 -0.9620 -2.6253
   68CHL1   C25 6203   1.933   0.858   4.154  0.6444  0.4813  0.1140
   68CHL1   H25 6204   1.926   0.747   4.154  1.9731  0.3712 -1.1443
   68CHL1   C26 6205   2.067   0.910   4.183 -0.7418 -0.0820  0.1442
   68CHL1  H26A 6206   2.105   0.893   4.286  0.0647  1.1583  0.0726
   68CHL1  H26B 6207   2.138   0.863   4.112  0.5183  0.3487  1.0855
   68CHL1  H26C 6208   2.073   1.020   4.165  0.2158 -0.1341  0.1290
   68CHL1   C27 6209   1.840   0.904   4.262  0.1255 -0.3123 -0.3684
   68CHL1  H27A 6210   1.872   0.875   4.365  1.3695  0.1842 -0.5880
   68CHL1  H27B 6211   1.841   1.015   4.255  0.0223 -0.3533 -1.0917
   68CHL1  H27C 6212   1.737   0.865   4.247  0.2811 -0.1810 -1.9267
   69CHL1    C3 6213   6.085   0.225   2.751 -0.2311 -0.8451 -0.3940
   69CHL1    H3 6214   6.086   0.115   2.740 -0.5612 -0.7695 -1.2798
   69CHL1    O3 6215   6.106   0.296   2.624 -0.0140  0.7441  0.3673
   69CHL1   H3' 6216   6.198   0.270   2.614 -0.5781 -1.1365 -0.5225
   69CHL1    C4 6217   5.951   0.274   2.813  0.4645 -0.0322 -0.2208
   69CHL1   H4A 6218   5.954   0.385   2.817  3.7902 -0.0225  0.5622
   69CHL1   H4B 6219   5.870   0.254   2.740 -1.0821  0.8769  1.1694
   69CHL1    C5 6220   5.916   0.224   2.943 -0.3001 -0.3346 -0.2897
   69CHL1    C6 6221   5.805   0.157   2.967  0.6995  0.4649 -0.1480
   69CHL1    H6 6222   5.745   0.136   2.877  0.5817  0.4182 -0.0581
   69CHL1    C7 6223   5.756   0.110   3.105  0.2258  0.2524  0.1080
   69CHL1   H7A 6224   5.650   0.132   3.130  0.2266 -0.2122  0.5326
   69CHL1   H7B 6225   5.769  -0.000   3.113  0.6768  0.2230 -0.9139
   69CHL1    C8 6226   5.844   0.182   3.215  0.1151 -0.6410  0.5307
   69CHL1    H8 6227   5.813   0.288   3.227 -0.0817 -0.6712  0.2825
   69CHL1   C14 6228   5.833   0.111   3.353  1.0210  0.4722  0.6819
   69CHL1   H14 6229   5.865   0.008   3.326 -1.4406  0.1152 -1.3760
   69CHL1   C15 6230   5.694   0.084   3.414 -0.3004  0.0129  0.8503
   69CHL1  H15A 6231   5.628   0.173   3.424 -1.3170 -0.6973  0.6376
   69CHL1  H15B 6232   5.644   0.000   3.361  0.8997 -0.0305 -0.2525
   69CHL1   C16 6233   5.727   0.042   3.560  0.3688  0.2596  0.4946
   69CHL1  H16A 6234   5.663   0.098   3.632  1.2865  2.0687 -0.0109
   69CHL1  H16B 6235   5.710  -0.067   3.567 -0.4951  0.0918 -2.6534
   69CHL1   C17 6236   5.880   0.059   3.575 -0.0392 -1.0416 -0.2031
   69CHL1   H17 6237   5.941  -0.030   3.550  1.3810  0.1330 -1.0929
   69CHL1   C13 6238   5.920   0.160   3.468  0.0434 -0.7337 -0.4287
   69CHL1   C18 6239   5.878   0.301   3.504 -0.3133 -0.4887 -0.4304
   69CHL1  H18A 6240   5.913   0.339   3.602 -0.7597  0.1812 -0.5298
   69CHL1  H18B 6241   5.913   0.380   3.435 -1.6202  1.9526  1.5510
   69CHL1  H18C 6242   5.768   0.306   3.501 -0.4469 -2.6783 -3.1844
   69CHL1   C12 6243   6.068   0.152   3.429  0.3091  0.4852  0.5486
   69CHL1  H12A 6244   6.129   0.194   3.512 -0.0125  3.0227 -0.3842
   69CHL1  H12B 6245   6.087   0.045   3.410 -1.2152  0.5502 -1.7956
   69CHL1   C11 6246   6.091   0.223   3.295 -0.1406  0.3210  0.1863
   69CHL1  H11A 6247   6.084   0.332   3.318  1.6215  0.4500  0.2562
   69CHL1  H11B 6248   6.199   0.209   3.272 -0.1997 -1.6318  0.8933
   69CHL1    C9 6249   5.997   0.184   3.178 -0.1193  0.0352  0.3805
   69CHL1    H9 6250   6.019   0.077   3.159 -2.2779 -0.1606 -1.4653
   69CHL1   C10 6251   6.028   0.255   3.045 -0.2760  0.0945  0.2195
   69CHL1   C19 6252   6.035   0.413   3.069 -0.0048  0.7799 -0.7300
   69CHL1  H19A 6253   5.942   0.442   3.124 -0.0180  1.7696 -1.2420
   69CHL1  H19B 6254   6.122   0.440   3.132  1.5488 -0.7124 -2.1658
   69CHL1  H19C 6255   6.036   0.475   2.977 -0.0191  1.8425 -0.0290
   69CHL1    C1 6256   6.155   0.191   2.983 -0.0354 -0.7049 -0.2677
   69CHL1   H1A 6257   6.237   0.205   3.057 -0.9717 -0.6909  0.7942
   69CHL1   H1B 6258   6.145   0.083   2.959 -4.0974 -0.7672  1.0006
   69CHL1    C2 6259   6.201   0.260   2.852  0.1964 -0.0112  0.2755
   69CHL1   H2A 6260   6.303   0.224   2.827  0.1153 -0.7583  0.9603
   69CHL1   H2B 6261   6.214   0.370   2.855  1.4073 -0.1322  0.0707
   69CHL1   C20 6262   5.918   0.091   3.727 -0.4389 -0.3207  1.2083
   69CHL1   H20 6263   6.018   0.141   3.723 -1.4384  1.8515  1.7234
   69CHL1   C21 6264   5.924  -0.040   3.804  0.4450 -0.1092  0.0314
   69CHL1  H21A 6265   5.821  -0.075   3.827 -0.2338  2.1314  0.6132
   69CHL1  H21B 6266   5.973  -0.034   3.903  0.8974 -1.4663 -0.0823
   69CHL1  H21C 6267   5.985  -0.109   3.742  0.0644 -1.3770  1.0229
   69CHL1   C22 6268   5.827   0.190   3.806  0.4742 -0.0416  0.2895
   69CHL1  H22A 6269   5.756   0.236   3.734 -0.7892 -2.5033 -0.1302
   69CHL1  H22B 6270   5.762   0.116   3.859 -1.7683  2.2080  0.8912
   69CHL1   C23 6271   5.890   0.296   3.899  0.2438 -0.6827  0.5750
   69CHL1  H23A 6272   5.988   0.259   3.936 -0.3883 -0.8476  2.1793
   69CHL1  H23B 6273   5.896   0.393   3.845  0.6640 -1.8697 -1.6253
   69CHL1   C24 6274   5.796   0.330   4.020  0.3361 -0.2883 -0.7567
   69CHL1  H24A 6275   5.844   0.412   4.078 -1.0283 -0.2775  0.4142
   69CHL1  H24B 6276   5.700   0.369   3.978 -0.1114  0.8993  1.2374
   69CHL1   C25 6277   5.765   0.219   4.123  0.5146  0.0783  0.1752
   69CHL1   H25 6278   5.736   0.126   4.070  0.9653 -0.3078  0.5976
   69CHL1   C26 6279   5.881   0.195   4.217  0.5998  0.3519  0.4649
   69CHL1  H26A 6280   5.852   0.123   4.297  1.8977 -0.0008  0.6372
   69CHL1  H26B 6281   5.972   0.165   4.161  1.2244 -1.0155  2.1148
   69CHL1  H26C 6282   5.901   0.290   4.270 -1.3182  0.3122  1.3480
   69CHL1   C27 6283   5.633   0.250   4.195  0.4054 -0.2045 -0.4291
   69CHL1  H27A 6284   5.545   0.241   4.127 -0.4791 -0.9945  0.7752
   69CHL1  H27B 6285   5.625   0.164   4.265  1.1549  0.4952  0.5391
   69CHL1  H27C 6286   5.626   0.352   4.238 -1.4468 -0.8389  0.8713
   70CHL1    C3 6287   4.909   6.754   2.737  0.8544  0.3039 -0.5522
   70CHL1    H3 6288   5.000   6.809   2.768  0.9961 -1.4625  2.5791
   70CHL1    O3 6289   4.891   6.731   2.595 -0.3969 -0.3480  0.0978
   70CHL1   H3' 6290   4.979   6.742   2.560 -0.4324 -1.0127 -0.2051
   70CHL1    C4 6291   4.907   6.617   2.812  0.7222  0.4623  0.5240
   70CHL1   H4A 6292   4.813   6.563   2.788  0.7950  0.6940 -0.3290
   70CHL1   H4B 6293   4.987   6.553   2.770  1.1457 -1.7421  4.2529
   70CHL1    C5 6294   4.911   6.635   2.959  0.2528 -0.4820 -0.4377
   70CHL1    C6 6295   5.019   6.585   3.024  0.6304  0.1205  0.4431
   70CHL1    H6 6296   5.104   6.532   2.977  1.1216  1.2037  0.0682
   70CHL1    C7 6297   5.032   6.582   3.173 -0.6058 -0.1919  0.2320
   70CHL1   H7A 6298   5.063   6.480   3.206 -1.5381 -0.6087 -0.1345
   70CHL1   H7B 6299   5.118   6.641   3.211  0.7134 -2.6046  1.2057
   70CHL1    C8 6300   4.898   6.628   3.240 -0.5077  0.7482 -0.2203
   70CHL1    H8 6301   4.829   6.542   3.232 -1.4465  1.5944 -1.6398
   70CHL1   C14 6302   4.928   6.673   3.380 -0.2355 -0.6046  0.3271
   70CHL1   H14 6303   4.992   6.763   3.365 -0.0572 -1.0387 -1.7890
   70CHL1   C15 6304   5.018   6.577   3.466 -0.0980 -0.8562  0.4838
   70CHL1  H15A 6305   4.976   6.475   3.451 -3.4288  0.5920 -0.9210
   70CHL1  H15B 6306   5.124   6.584   3.435 -0.0455  2.6999  1.0585
   70CHL1   C16 6307   4.996   6.642   3.606  0.0544  0.7118  0.1019
   70CHL1  H16A 6308   4.955   6.558   3.665 -0.3072 -0.0429 -1.1795
   70CHL1  H16B 6309   5.087   6.677   3.659  0.7998  0.4071 -0.9230
   70CHL1   C17 6310   4.887   6.760   3.596  0.4125  0.4805  0.1500
   70CHL1   H17 6311   4.939   6.856   3.574  0.9542 -0.2823 -2.1860
   70CHL1   C13 6312   4.818   6.726   3.465  0.4556 -0.8231 -0.5318
   70CHL1   C18 6313   4.711   6.617   3.472  0.4783 -0.4935  0.3575
   70CHL1  H18A 6314   4.650   6.618   3.379  2.0271  2.5095 -0.7582
   70CHL1  H18B 6315   4.761   6.519   3.486  2.2263  0.4153  0.6638
   70CHL1  H18C 6316   4.634   6.632   3.550  0.0303  0.6921 -0.2853
   70CHL1   C12 6317   4.737   6.839   3.391 -0.3413  0.0696 -0.1185
   70CHL1  H12A 6318   4.642   6.846   3.449  1.8292  1.8614  3.5698
   70CHL1  H12B 6319   4.790   6.937   3.398 -0.3731  0.1248 -0.5970
   70CHL1   C11 6320   4.714   6.806   3.241  0.4471 -0.5644 -1.1405
   70CHL1  H11A 6321   4.620   6.746   3.238  0.2061 -0.4031  1.1568
   70CHL1  H11B 6322   4.691   6.905   3.197 -1.2039  1.5950  3.8355
   70CHL1    C9 6323   4.835   6.746   3.166  0.4581  0.3097  0.4682
   70CHL1    H9 6324   4.919   6.819   3.160  2.0993 -1.5778 -0.6793
   70CHL1   C10 6325   4.795   6.705   3.022  0.2202 -0.4792  0.0653
   70CHL1   C19 6326   4.667   6.615   3.016  0.1674  0.1232 -0.2258
   70CHL1  H19A 6327   4.584   6.676   3.057 -1.5862 -0.9649 -1.9504
   70CHL1  H19B 6328   4.635   6.591   2.912 -0.7421 -1.2301  0.3433
   70CHL1  H19C 6329   4.669   6.520   3.074  2.0205 -0.3015 -0.9174
   70CHL1    C1 6330   4.771   6.839   2.939 -0.7105  0.2346  0.4825
   70CHL1   H1A 6331   4.672   6.887   2.956 -0.3657  0.8590  0.7702
   70CHL1   H1B 6332   4.840   6.921   2.966 -1.5670  1.3057 -0.4705
   70CHL1    C2 6333   4.781   6.821   2.784 -0.5130  0.2607 -0.1603
   70CHL1   H2A 6334   4.785   6.915   2.726 -2.0040  0.1414 -0.4830
   70CHL1   H2B 6335   4.693   6.762   2.751  0.0160 -0.5055 -0.2298
   70CHL1   C20 6336   4.799   6.781   3.725 -0.3125 -0.0424  0.0943
   70CHL1   H20 6337   4.715   6.709   3.739 -0.3329  0.2250  1.3866
   70CHL1   C21 6338   4.743   6.921   3.726 -0.4878  0.3268 -0.3496
   70CHL1  H21A 6339   4.815   7.005   3.719 -1.9509  1.5117 -2.5960
   70CHL1  H21B 6340   4.683   6.939   3.817  3.0267  3.8041  1.5601
   70CHL1  H21C 6341   4.672   6.935   3.641 -1.2609  0.0812  0.2431
   70CHL1   C22 6342   4.877   6.774   3.857  0.4136 -0.1491 -0.1915
   70CHL1  H22A 6343   4.931   6.678   3.869  0.8092  0.0771 -0.1504
   70CHL1  H22B 6344   4.945   6.862   3.860  0.5913 -0.2636 -0.7253
   70CHL1   C23 6345   4.788   6.766   3.983 -0.7931  0.1797  0.1814
   70CHL1  H23A 6346   4.753   6.871   3.989 -1.3417  0.2303 -2.7707
   70CHL1  H23B 6347   4.700   6.700   3.965 -1.8889  2.3790 -3.6191
   70CHL1   C24 6348   4.857   6.710   4.114 -0.4038 -0.2974 -0.6298
   70CHL1  H24A 6349   4.876   6.603   4.090  1.3156 -0.4611  1.1723
   70CHL1  H24B 6350   4.957   6.759   4.117  0.8581 -2.6653 -1.5560
   70CHL1   C25 6351   4.778   6.733   4.244 -0.2234 -0.4960 -0.0358
   70CHL1   H25 6352   4.762   6.842   4.261 -2.2180 -0.4284 -1.8586
   70CHL1   C26 6353   4.630   6.686   4.219  0.0524 -0.8971  0.4037
   70CHL1  H26A 6354   4.566   6.703   4.309 -0.3063 -1.1753  0.2079
   70CHL1  H26B 6355   4.574   6.716   4.128  1.8331 -0.1682 -0.4807
   70CHL1  H26C 6356   4.637   6.575   4.219  2.7973 -0.8666 -2.4512
   70CHL1   C27 6357   4.848   6.660   4.366  1.0547  0.0176 -0.7153
   70CHL1  H27A 6358   4.845   6.556   4.328 -0.7385  0.6389 -2.4395
   70CHL1  H27B 6359   4.949   6.700   4.390  0.2704  0.9941  1.2038
   70CHL1  H27C 6360   4.778   6.664   4.452  0.7567 -0.0491 -0.9525
   71CHL1    C3 6361   6.701   1.571   3.027  0.8013  0.2867 -0.0211
   71CHL1    H3 6362   6.806   1.551   2.996  1.4122  0.4360  1.8290
   71CHL1    O3 6363   6.618   1.590   2.910 -0.3051  0.0962 -0.2772
   71CHL1   H3' 6364   6.530   1.597   2.947 -0.4851 -1.6346 -0.3012
   71CHL1    C4 6365   6.643   1.445   3.103 -0.4165  0.6972  0.6140
   71CHL1   H4A 6366   6.533   1.459   3.102 -0.5243  0.5643 -3.2051
   71CHL1   H4B 6367   6.659   1.352   3.045  0.3960  0.0906  1.7686
   71CHL1    C5 6368   6.700   1.430   3.242 -0.1496  0.0227 -0.1138
   71CHL1    C6 6369   6.741   1.308   3.288  0.2046  0.5027 -0.4684
   71CHL1    H6 6370   6.726   1.222   3.220 -0.5151  0.2586 -0.0099
   71CHL1    C7 6371   6.802   1.286   3.425 -0.0140  0.1405  0.3308
   71CHL1   H7A 6372   6.766   1.197   3.480  0.4564 -0.0605  0.3169
   71CHL1   H7B 6373   6.912   1.271   3.414  0.1237  2.5097 -3.6053
   71CHL1    C8 6374   6.775   1.404   3.520 -0.4781 -0.3603  0.3938
   71CHL1    H8 6375   6.671   1.416   3.555 -0.1515  0.8880  0.9570
   71CHL1   C14 6376   6.866   1.385   3.646  0.4079 -0.4943 -0.1067
   71CHL1   H14 6377   6.966   1.365   3.602 -0.0026 -1.3694 -0.6463
   71CHL1   C15 6378   6.838   1.267   3.742  0.2028  0.7927 -0.2763
   71CHL1  H15A 6379   6.733   1.257   3.775 -0.1414 -1.8261 -1.9107
   71CHL1  H15B 6380   6.862   1.168   3.699 -3.1012  0.2114 -1.0180
   71CHL1   C16 6381   6.935   1.299   3.865 -0.0246 -0.3416  0.1253
   71CHL1  H16A 6382   6.884   1.284   3.963  0.7628  0.6527  0.6969
   71CHL1  H16B 6383   7.025   1.234   3.861  1.8946  2.0845  0.9003
   71CHL1   C17 6384   6.978   1.444   3.840 -0.6139  0.5674 -0.1279
   71CHL1   H17 6385   7.075   1.440   3.787 -0.7873 -2.9230 -0.4045
   71CHL1   C13 6386   6.887   1.506   3.734 -0.8315  0.4774 -0.2311
   71CHL1   C18 6387   6.755   1.553   3.805  0.1930 -0.0337  0.6845
   71CHL1  H18A 6388   6.686   1.596   3.729 -2.3869 -1.2963  2.1765
   71CHL1  H18B 6389   6.711   1.460   3.847 -0.1222 -2.1327 -3.7457
   71CHL1  H18C 6390   6.785   1.628   3.882  0.3715 -0.7234  1.2957
   71CHL1   C12 6391   6.954   1.614   3.640 -0.0766 -0.8357 -0.1086
   71CHL1  H12A 6392   6.974   1.704   3.701 -1.5372 -0.1242 -0.6245
   71CHL1  H12B 6393   7.049   1.575   3.597  0.8970  1.3638 -0.1033
   71CHL1   C11 6394   6.859   1.651   3.519 -0.3308  0.2594  0.1630
   71CHL1  H11A 6395   6.766   1.691   3.564  0.4719  0.8287  1.3704
   71CHL1  H11B 6396   6.912   1.729   3.461  0.9699  0.5047  1.6198
   71CHL1    C9 6397   6.818   1.529   3.436  0.3150 -0.1061 -0.3251
   71CHL1    H9 6398   6.918   1.498   3.399  1.4044  0.4521  1.9469
   71CHL1   C10 6399   6.724   1.557   3.316  0.2575  0.1097 -0.5368
   71CHL1   C19 6400   6.586   1.592   3.373  0.8261 -0.3089 -0.1810
   71CHL1  H19A 6401   6.532   1.520   3.437 -2.5467  1.1802 -1.1378
   71CHL1  H19B 6402   6.590   1.693   3.421 -3.2088 -0.4193  0.7232
   71CHL1  H19C 6403   6.511   1.597   3.292 -1.3970 -2.5459  1.5952
   71CHL1    C1 6404   6.776   1.675   3.231 -0.5043  0.7852 -0.5086
   71CHL1   H1A 6405   6.767   1.769   3.290  0.7197  1.6229 -1.5961
   71CHL1   H1B 6406   6.882   1.658   3.200 -0.7555 -0.3166 -0.8146
   71CHL1    C2 6407   6.689   1.697   3.110  0.6135 -0.2832  0.6975
   71CHL1   H2A 6408   6.729   1.782   3.051  1.2270 -1.4686 -0.6327
   71CHL1   H2B 6409   6.584   1.730   3.129  1.6277  2.3174  2.4675
   71CHL1   C20 6410   7.009   1.529   3.968  0.2907  0.1424  0.0053
   71CHL1   H20 6411   7.004   1.639   3.951  3.4538  0.2259 -1.0428
   71CHL1   C21 6412   7.158   1.506   4.015  0.1496  0.1053  0.1941
   71CHL1  H21A 6413   7.186   1.579   4.094 -0.2598  0.4475  0.0261
   71CHL1  H21B 6414   7.232   1.510   3.932 -1.2960 -0.0143 -1.1432
   71CHL1  H21C 6415   7.164   1.402   4.053  3.1510  0.6628  1.5745
   71CHL1   C22 6416   6.915   1.502   4.087 -0.9696 -0.4041  0.2921
   71CHL1  H22A 6417   6.807   1.488   4.064 -1.1205  0.8766  0.1492
   71CHL1  H22B 6418   6.952   1.411   4.139  0.1876  0.2412  0.6420
   71CHL1   C23 6419   6.925   1.619   4.191 -0.0469  0.1832  0.1536
   71CHL1  H23A 6420   7.030   1.652   4.203  0.6271 -1.4810 -0.8156
   71CHL1  H23B 6421   6.861   1.690   4.135  0.8011 -0.1784 -1.3172
   71CHL1   C24 6422   6.876   1.577   4.331 -0.0132  0.1804 -0.2995
   71CHL1  H24A 6423   6.783   1.519   4.315  1.0882 -1.7332 -0.0605
   71CHL1  H24B 6424   6.949   1.518   4.391  0.5626 -0.5683 -1.6810
   71CHL1   C25 6425   6.848   1.695   4.418  0.4611 -0.6214 -0.0300
   71CHL1   H25 6426   6.939   1.758   4.423  0.5314 -0.6847 -0.4593
   71CHL1   C26 6427   6.737   1.779   4.353 -0.6480  0.1452  0.0323
   71CHL1  H26A 6428   6.716   1.867   4.417  1.9663  1.2144 -0.4685
   71CHL1  H26B 6429   6.766   1.816   4.252  0.9733  0.0286  0.4335
   71CHL1  H26C 6430   6.643   1.724   4.331 -0.1929 -0.6321  0.0041
   71CHL1   C27 6431   6.825   1.665   4.568  0.2591 -0.2823  0.1844
   71CHL1  H27A 6432   6.913   1.632   4.628  0.7566  0.1568 -0.2876
   71CHL1  H27B 6433   6.795   1.755   4.625  1.8464 -0.3220  1.1651
   71CHL1  H27C 6434   6.749   1.585   4.579  0.0577 -0.2816 -1.1221
   72CHL1    C3 6435   6.620   4.953   3.039 -0.0647 -0.8112 -0.4998
   72CHL1    H3 6436   6.707   5.005   3.085 -1.8075  1.3837  0.4962
   72CHL1    O3 6437   6.633   4.940   2.900  0.5367  0.1731  0.6024
   72CHL1   H3' 6438   6.551   4.905   2.864  0.5558 -2.2133  2.5783
   72CHL1    C4 6439   6.609   4.813   3.119  1.2601 -0.2398 -0.1063
   72CHL1   H4A 6440   6.517   4.768   3.076  0.9270 -0.0160  0.3723
   72CHL1   H4B 6441   6.696   4.755   3.079  0.1931 -1.9874 -0.0083
   72CHL1    C5 6442   6.598   4.842   3.264  0.6476 -0.4863  0.2013
   72CHL1    C6 6443   6.672   4.775   3.351  0.6391 -0.1699 -0.0857
   72CHL1    H6 6444   6.741   4.695   3.321  2.0834  1.0373 -0.1025
   72CHL1    C7 6445   6.658   4.794   3.503 -0.3770  0.2214 -0.2729
   72CHL1   H7A 6446   6.645   4.696   3.554 -0.6040  1.0344  1.3238
   72CHL1   H7B 6447   6.746   4.842   3.551 -2.3023 -0.1279  4.1550
   72CHL1    C8 6448   6.541   4.883   3.542  0.0843  0.0968  0.0674
   72CHL1    H8 6449   6.454   4.815   3.553 -1.4530  2.3016  2.4618
   72CHL1   C14 6450   6.554   4.935   3.684 -0.1626  0.0978 -0.6488
   72CHL1   H14 6451   6.640   5.005   3.676  1.2700 -0.8000  3.8109
   72CHL1   C15 6452   6.613   4.839   3.791  0.8124 -0.3269  0.1175
   72CHL1  H15A 6453   6.556   4.746   3.769  0.5212 -0.3657  0.9916
   72CHL1  H15B 6454   6.723   4.822   3.784  1.0711  1.4066 -0.5255
   72CHL1   C16 6455   6.566   4.899   3.922 -0.5468  0.0781 -0.5600
   72CHL1  H16A 6456   6.491   4.845   3.983 -0.6303  1.0062  0.1779
   72CHL1  H16B 6457   6.658   4.922   3.981 -1.1372  0.0183  0.4099
   72CHL1   C17 6458   6.496   5.037   3.885 -1.1852  0.5596 -0.3646
   72CHL1   H17 6459   6.576   5.111   3.868 -1.0923  0.2668 -1.2592
   72CHL1   C13 6460   6.442   5.008   3.745 -0.3259  0.3131 -0.1058
   72CHL1   C18 6461   6.312   4.920   3.757 -0.5451  0.4721  0.8494
   72CHL1  H18A 6462   6.329   4.818   3.798  2.9383  0.0699 -1.1593
   72CHL1  H18B 6463   6.242   4.981   3.818 -0.2232  3.2881 -1.3318
   72CHL1  H18C 6464   6.260   4.897   3.661 -1.3225  2.1343  0.8376
   72CHL1   C12 6465   6.410   5.127   3.656  0.1734  0.4063 -0.1062
   72CHL1  H12A 6466   6.313   5.173   3.688 -1.0037 -0.6417 -2.0106
   72CHL1  H12B 6467   6.499   5.193   3.658 -1.1078  2.3785 -2.5915
   72CHL1   C11 6468   6.393   5.081   3.509 -0.2535  0.1678  0.1109
   72CHL1  H11A 6469   6.299   5.021   3.505 -0.7030  0.5896  2.6609
   72CHL1  H11B 6470   6.388   5.175   3.450  1.1966  0.5979  0.6211
   72CHL1    C9 6471   6.514   5.001   3.453 -0.0079 -0.2505  0.6949
   72CHL1    H9 6472   6.611   5.056   3.449  1.1998 -2.3432 -1.2737
   72CHL1   C10 6473   6.495   4.951   3.307  0.6707 -0.4859  0.2283
   72CHL1   C19 6474   6.348   4.884   3.289 -0.4225 -0.1891 -0.3926
   72CHL1  H19A 6475   6.342   4.839   3.188  0.2065 -2.8705  0.6945
   72CHL1  H19B 6476   6.326   4.798   3.355  0.1706  0.4533  0.6851
   72CHL1  H19C 6477   6.280   4.969   3.310  2.4845  2.4520 -0.8631
   72CHL1    C1 6478   6.495   5.072   3.210  0.0105 -0.2088 -0.4388
   72CHL1   H1A 6479   6.406   5.135   3.232  0.8722  0.5317  1.1030
   72CHL1   H1B 6480   6.588   5.129   3.232  0.4043 -1.3856  1.1587
   72CHL1    C2 6481   6.491   5.037   3.063 -0.6951 -0.6288 -0.1875
   72CHL1   H2A 6482   6.481   5.128   2.999 -0.5142 -1.0944 -0.8914
   72CHL1   H2B 6483   6.405   4.971   3.036 -1.2541  0.4810 -1.2370
   72CHL1   C20 6484   6.408   5.092   3.992  0.3886  0.0561  0.3907
   72CHL1   H20 6485   6.325   5.025   4.022 -0.3053  1.9258  3.0205
   72CHL1   C21 6486   6.353   5.224   3.955 -0.8047  0.3462  0.6906
   72CHL1  H21A 6487   6.439   5.282   3.915 -0.0818 -1.1326  0.0238
   72CHL1  H21B 6488   6.303   5.281   4.036 -1.5557  0.3675  0.2216
   72CHL1  H21C 6489   6.276   5.225   3.875 -0.4290  1.1984  0.3281
   72CHL1   C22 6490   6.485   5.104   4.126  1.0830  0.6545  0.3345
   72CHL1  H22A 6491   6.546   5.013   4.141  0.6148  0.3579  0.4486
   72CHL1  H22B 6492   6.550   5.194   4.118  2.9367 -0.5854  0.8638
   72CHL1   C23 6493   6.394   5.129   4.245  0.6615 -0.5823 -0.0842
   72CHL1  H23A 6494   6.328   5.218   4.233  0.6058 -0.6896 -0.6006
   72CHL1  H23B 6495   6.316   5.051   4.254  0.5643 -0.6439 -1.2990
   72CHL1   C24 6496   6.480   5.157   4.373  0.2579 -0.0676 -0.0390
   72CHL1  H24A 6497   6.533   5.065   4.405 -0.4987 -0.3661  0.3759
   72CHL1  H24B 6498   6.557   5.225   4.331 -0.8477 -0.3880 -2.8578
   72CHL1   C25 6499   6.402   5.235   4.484  0.1141  0.2042  0.4441
   72CHL1   H25 6500   6.337   5.311   4.436  1.0076  0.8349  0.1995
   72CHL1   C26 6501   6.301   5.145   4.565 -0.3918 -0.4935  0.3232
   72CHL1  H26A 6502   6.250   5.206   4.642  0.1686  0.5061 -0.0749
   72CHL1  H26B 6503   6.230   5.107   4.488 -1.1107  0.2677  0.5954
   72CHL1  H26C 6504   6.367   5.074   4.620  0.8268 -0.7600 -1.4032
   72CHL1   C27 6505   6.493   5.312   4.583  0.9543  0.0155 -0.4814
   72CHL1  H27A 6506   6.550   5.396   4.538 -0.8396  0.5096 -1.9847
   72CHL1  H27B 6507   6.422   5.358   4.655 -1.6882 -1.3949 -1.9984
   72CHL1  H27C 6508   6.551   5.233   4.636  0.7044  0.3491  0.2921
   73CHL1    C3 6509   0.493   0.230   3.212  0.3667  0.1704  1.0202
   73CHL1    H3 6510   0.399   0.180   3.241 -0.7968  0.7606 -1.4611
   73CHL1    O3 6511   0.480   0.275   3.077 -0.3087  0.3277 -0.1063
   73CHL1   H3' 6512   0.567   0.312   3.061 -0.4895  0.4495 -0.8388
   73CHL1    C4 6513   0.515   0.353   3.305 -0.0875  0.0259 -0.3467
   73CHL1   H4A 6514   0.604   0.409   3.271  1.1231 -1.7354 -0.2324
   73CHL1   H4B 6515   0.442   0.432   3.278  0.4674  0.7574  0.2473
   73CHL1    C5 6516   0.522   0.314   3.453  0.4856 -0.4346 -0.0275
   73CHL1    C6 6517   0.440   0.364   3.549 -0.0783 -0.5861 -0.0057
   73CHL1    H6 6518   0.361   0.433   3.516  1.1980 -0.0886 -2.2550
   73CHL1    C7 6519   0.442   0.327   3.698  0.3226  0.8417  0.5334
   73CHL1   H7A 6520   0.450   0.420   3.759  1.3350  1.1169  0.0153
   73CHL1   H7B 6521   0.351   0.266   3.718  0.3892  1.1274  1.7868
   73CHL1    C8 6522   0.568   0.246   3.730  0.9700 -0.0043  0.1806
   73CHL1    H8 6523   0.654   0.316   3.727 -1.7765  3.6448  0.4034
   73CHL1   C14 6524   0.556   0.178   3.870  0.8063  0.0798 -0.3508
   73CHL1   H14 6525   0.479   0.097   3.866  0.9448 -0.4039  3.5494
   73CHL1   C15 6526   0.514   0.269   3.986 -0.0416 -0.9003 -0.1304
   73CHL1  H15A 6527   0.567   0.366   3.977 -1.4203 -0.0822  0.2336
   73CHL1  H15B 6528   0.403   0.279   3.986 -0.0016 -0.0793  1.7489
   73CHL1   C16 6529   0.551   0.187   4.113 -0.5859 -0.0971  0.5680
   73CHL1  H16A 6530   0.622   0.255   4.164  0.2259 -0.2775 -0.2969
   73CHL1  H16B 6531   0.452   0.170   4.161 -0.8583  2.1103  0.8806
   73CHL1   C17 6532   0.636   0.060   4.065 -0.3138  0.1541  0.3503
   73CHL1   H17 6533   0.568  -0.028   4.059  1.7671 -1.6101  1.4735
   73CHL1   C13 6534   0.681   0.097   3.915 -0.6917  0.1392 -0.0506
   73CHL1   C18 6535   0.806   0.189   3.923 -0.7584 -0.4115  0.2395
   73CHL1  H18A 6536   0.889   0.133   3.972 -0.8187 -0.8331 -0.1304
   73CHL1  H18B 6537   0.844   0.224   3.825  0.8299  0.7607  1.2251
   73CHL1  H18C 6538   0.783   0.279   3.985 -1.6989 -0.5883  0.1503
   73CHL1   C12 6539   0.698  -0.017   3.810 -0.2340  0.0190 -0.0787
   73CHL1  H12A 6540   0.774  -0.088   3.849 -1.0542 -0.8974 -0.1313
   73CHL1  H12B 6541   0.603  -0.074   3.813 -0.6388  0.6470 -0.6697
   73CHL1   C11 6542   0.701   0.032   3.663 -0.0785  0.3375 -0.2487
   73CHL1  H11A 6543   0.803   0.075   3.652 -0.0042  0.0187 -0.8558
   73CHL1  H11B 6544   0.695  -0.063   3.605 -0.2888 -0.9677  1.7989
   73CHL1    C9 6545   0.592   0.138   3.621  0.1937  0.2841  0.2285
   73CHL1    H9 6546   0.495   0.083   3.615  0.2704  0.2738 -1.2373
   73CHL1   C10 6547   0.626   0.200   3.479  0.2252 -0.7318 -0.0839
   73CHL1   C19 6548   0.764   0.258   3.479 -0.2035 -0.2815  0.5359
   73CHL1  H19A 6549   0.786   0.328   3.396  1.1414 -0.2979  0.8550
   73CHL1  H19B 6550   0.790   0.312   3.573  1.3355  1.3216 -0.7325
   73CHL1  H19C 6551   0.836   0.174   3.466 -1.3362 -1.0568 -1.0860
   73CHL1    C1 6552   0.605   0.082   3.373  0.0600 -0.8276 -0.7172
   73CHL1   H1A 6553   0.667  -0.007   3.399  2.7816  0.5060 -2.2349
   73CHL1   H1B 6554   0.504   0.055   3.410  1.0906 -3.1899  0.6221
   73CHL1    C2 6555   0.610   0.126   3.228 -0.3537  0.5167 -0.4687
   73CHL1   H2A 6556   0.600   0.041   3.157  1.9569 -0.5369  0.3580
   73CHL1   H2B 6557   0.709   0.175   3.222 -0.1580  0.4112  1.3302
   73CHL1   C20 6558   0.755   0.028   4.163  0.4672 -0.2137  0.7581
   73CHL1   H20 6559   0.806   0.126   4.175 -0.3686  0.0390  2.7711
   73CHL1   C21 6560   0.839  -0.091   4.119 -0.3922  0.0057  0.0055
   73CHL1  H21A 6561   0.770  -0.176   4.099 -0.4524 -0.0231  0.3220
   73CHL1  H21B 6562   0.918  -0.109   4.195 -1.0558 -0.8408  0.5236
   73CHL1  H21C 6563   0.902  -0.077   4.029  3.3455 -3.5332  1.7301
   73CHL1   C22 6564   0.700   0.001   4.307  0.1495 -0.1333  0.2724
   73CHL1  H22A 6565   0.619   0.076   4.316 -1.8800 -1.8590 -2.2315
   73CHL1  H22B 6566   0.654  -0.100   4.318  0.3247 -0.2496 -0.0458
   73CHL1   C23 6567   0.802   0.009   4.419  0.9607  0.2950 -0.1043
   73CHL1  H23A 6568   0.860  -0.085   4.427 -0.6410 -1.2283 -4.1164
   73CHL1  H23B 6569   0.885   0.082   4.404  0.1903  2.0975  3.3180
   73CHL1   C24 6570   0.745   0.060   4.555 -0.0433  0.4409 -0.1321
   73CHL1  H24A 6571   0.721   0.168   4.547 -0.7766  0.2433 -0.8489
   73CHL1  H24B 6572   0.646   0.011   4.569 -0.4102  1.2107 -0.0114
   73CHL1   C25 6573   0.839   0.042   4.676  0.6314 -0.4581 -0.2803
   73CHL1   H25 6574   0.932   0.102   4.667 -0.3760  1.0040 -1.7012
   73CHL1   C26 6575   0.760   0.107   4.797 -0.9339 -0.3523  0.1329
   73CHL1  H26A 6576   0.737   0.215   4.785  0.8172 -0.1541 -2.2244
   73CHL1  H26B 6577   0.660   0.058   4.802 -2.4059  2.2241 -1.8864
   73CHL1  H26C 6578   0.809   0.079   4.892 -0.3357 -2.2675 -0.6764
   73CHL1   C27 6579   0.877  -0.096   4.713 -0.0971  0.5660 -0.2163
   73CHL1  H27A 6580   0.934  -0.138   4.627 -1.4495  0.5647 -1.1489
   73CHL1  H27B 6581   0.943  -0.102   4.802  1.4131  0.0094 -1.3423
   73CHL1  H27C 6582   0.790  -0.164   4.728 -1.4809  2.5353  1.2420
   74CHL1    C3 6583   0.216   6.295   2.981  0.0249 -0.0050 -1.0795
   74CHL1    H3 6584   0.171   6.395   2.997 -0.2244 -0.0288 -1.5993
   74CHL1    O3 6585   0.201   6.258   2.842 -0.2259 -0.1985 -0.2926
   74CHL1   H3' 6586   0.290   6.281   2.814  0.0944  0.5265  1.2030
   74CHL1    C4 6587   0.365   6.300   3.016  0.7089 -0.3624 -0.3206
   74CHL1   H4A 6588   0.429   6.214   2.987 -0.3323 -1.3621  0.2754
   74CHL1   H4B 6589   0.396   6.383   2.949 -0.0464 -0.2736 -0.5684
   74CHL1    C5 6590   0.379   6.335   3.165 -0.2238  0.0203 -0.4472
   74CHL1    C6 6591   0.451   6.447   3.202  0.6429 -0.4051 -0.0851
   74CHL1    H6 6592   0.487   6.515   3.123  1.6822  0.1841  0.8870
   74CHL1    C7 6593   0.486   6.488   3.339 -0.5829 -1.0171  0.4394
   74CHL1   H7A 6594   0.589   6.527   3.352 -0.9492 -0.8695  3.6667
   74CHL1   H7B 6595   0.409   6.565   3.361 -0.1711 -0.9725  1.8642
   74CHL1    C8 6596   0.469   6.362   3.435 -0.2493 -0.2596 -0.1572
   74CHL1    H8 6597   0.541   6.281   3.411 -0.8168 -0.7437 -0.2293
   74CHL1   C14 6598   0.469   6.410   3.584 -0.0008 -0.1016  0.3828
   74CHL1   H14 6599   0.378   6.474   3.589 -1.6033 -2.2786  0.4809
   74CHL1   C15 6600   0.587   6.496   3.630  0.2209  0.1353  0.5746
   74CHL1  H15A 6601   0.679   6.463   3.577  0.6144  1.9973  0.0149
   74CHL1  H15B 6602   0.585   6.602   3.598  1.6947  0.1482  0.4393
   74CHL1   C16 6603   0.592   6.491   3.773 -0.1002 -0.9314  0.1542
   74CHL1  H16A 6604   0.686   6.441   3.805  0.4205 -0.1609 -0.1344
   74CHL1  H16B 6605   0.589   6.590   3.824 -0.4216 -0.7959 -0.1193
   74CHL1   C17 6606   0.482   6.392   3.817 -0.3042  0.3399 -0.2078
   74CHL1   H17 6607   0.391   6.450   3.844  0.0254  1.2646 -1.0205
   74CHL1   C13 6608   0.453   6.305   3.689  0.1501 -0.4724  0.2512
   74CHL1   C18 6609   0.564   6.195   3.669  0.2250  0.0851 -0.2138
   74CHL1  H18A 6610   0.577   6.155   3.566  1.2356  0.5616 -0.2844
   74CHL1  H18B 6611   0.665   6.217   3.708  0.0448 -0.9867  0.9128
   74CHL1  H18C 6612   0.527   6.113   3.735  0.9584 -0.7639 -0.8327
   74CHL1   C12 6613   0.312   6.255   3.672 -0.3762  1.0568 -0.5145
   74CHL1  H12A 6614   0.287   6.176   3.745 -0.3091  0.3270 -1.2674
   74CHL1  H12B 6615   0.233   6.331   3.693 -1.9672 -1.3890  3.4459
   74CHL1   C11 6616   0.303   6.199   3.528  0.2572 -0.5618 -0.2934
   74CHL1  H11A 6617   0.369   6.109   3.530 -1.3183 -1.7568  0.8337
   74CHL1  H11B 6618   0.199   6.161   3.520  0.4699 -1.0942 -0.5685
   74CHL1    C9 6619   0.334   6.301   3.410  0.0971  0.2416  0.2378
   74CHL1    H9 6620   0.262   6.385   3.424  0.1072  0.1514  0.8717
   74CHL1   C10 6621   0.321   6.237   3.266  0.1352 -0.0469 -0.0719
   74CHL1   C19 6622   0.399   6.099   3.261  0.0679 -0.5801  0.2934
   74CHL1  H19A 6623   0.508   6.120   3.273 -0.1793  0.4407  0.9466
   74CHL1  H19B 6624   0.368   6.030   3.342 -1.1912  0.1099  0.4295
   74CHL1  H19C 6625   0.391   6.048   3.163 -1.4996 -0.6719  0.4490
   74CHL1    C1 6626   0.169   6.225   3.223 -0.8778 -0.7683 -0.0740
   74CHL1   H1A 6627   0.126   6.147   3.290  1.7131 -0.5653  1.9688
   74CHL1   H1B 6628   0.115   6.318   3.250  2.8077  1.1290  1.3100
   74CHL1    C2 6629   0.147   6.189   3.074 -0.6012 -0.0533  0.7795
   74CHL1   H2A 6630   0.042   6.194   3.038  0.0839  0.6357 -1.3014
   74CHL1   H2B 6631   0.184   6.084   3.066 -1.0536 -0.2241  0.9023
   74CHL1   C20 6632   0.513   6.314   3.946  0.0984 -0.7720 -1.1484
   74CHL1   H20 6633   0.579   6.228   3.920  1.2128  0.0153 -0.9884
   74CHL1   C21 6634   0.385   6.255   4.009 -0.4457  0.2723  0.1869
   74CHL1  H21A 6635   0.326   6.200   3.933 -0.6726 -1.3147  1.4577
   74CHL1  H21B 6636   0.311   6.328   4.049 -2.8389 -0.6352 -2.2564
   74CHL1  H21C 6637   0.415   6.179   4.084  0.7106  1.5075  1.0185
   74CHL1   C22 6638   0.586   6.407   4.043 -0.2644 -0.0968  0.2247
   74CHL1  H22A 6639   0.684   6.440   4.002 -1.2413  0.4113 -1.8380
   74CHL1  H22B 6640   0.525   6.499   4.049 -0.8998 -0.5840  1.8544
   74CHL1   C23 6641   0.597   6.371   4.199 -0.1794  0.5210 -0.1679
   74CHL1  H23A 6642   0.498   6.355   4.247  1.0262  0.9072  2.6367
   74CHL1  H23B 6643   0.659   6.278   4.200  0.8503  1.1148 -2.3586
   74CHL1   C24 6644   0.651   6.483   4.289  0.6094  0.2892  0.6049
   74CHL1  H24A 6645   0.744   6.521   4.242 -0.4889  3.1612  0.5585
   74CHL1  H24B 6646   0.573   6.562   4.297  0.0098 -0.0611 -1.4068
   74CHL1   C25 6647   0.679   6.435   4.429 -0.3696 -0.0482 -0.1124
   74CHL1   H25 6648   0.734   6.339   4.420  1.4085  0.9019  0.1440
   74CHL1   C26 6649   0.782   6.528   4.498  0.1044 -0.2192 -0.4403
   74CHL1  H26A 6650   0.818   6.474   4.587 -1.6037 -0.8867 -0.1093
   74CHL1  H26B 6651   0.857   6.555   4.421  1.9843 -2.9228  0.3083
   74CHL1  H26C 6652   0.738   6.621   4.538 -0.3414 -0.2063 -0.9374
   74CHL1   C27 6653   0.550   6.407   4.509  0.7020  0.0056  0.3544
   74CHL1  H27A 6654   0.480   6.493   4.519  0.6007 -0.0788  0.3726
   74CHL1  H27B 6655   0.489   6.319   4.481  0.7610 -0.4550  1.6036
   74CHL1  H27C 6656   0.580   6.370   4.609 -1.9345 -1.1686  0.7927
   75CHL1    C3 6657   0.387   3.972   2.915 -0.4887  0.0019  0.0218
   75CHL1    H3 6658   0.344   3.869   2.914  0.0601 -0.2439  0.6611
   75CHL1    O3 6659   0.399   4.015   2.779 -0.3269 -0.3095 -0.0715
   75CHL1   H3' 6660   0.417   4.108   2.793 -0.1429 -0.3982  0.2908
   75CHL1    C4 6661   0.290   4.064   2.987 -0.0903 -1.3056 -0.8496
   75CHL1   H4A 6662   0.333   4.166   2.977 -0.2549 -1.1224  0.2324
   75CHL1   H4B 6663   0.188   4.058   2.944 -1.2704  1.9223  1.1786
   75CHL1    C5 6664   0.287   4.033   3.139 -0.2222  0.8138  0.2387
   75CHL1    C6 6665   0.165   4.013   3.204  0.1448 -0.1983  0.1797
   75CHL1    H6 6666   0.073   4.023   3.145  0.1048  0.8096  0.4020
   75CHL1    C7 6667   0.154   3.996   3.359 -0.4447 -0.2936 -0.0084
   75CHL1   H7A 6668   0.079   4.067   3.400 -0.8575 -1.1216  0.7045
   75CHL1   H7B 6669   0.124   3.894   3.389 -0.3466 -0.3800 -0.1997
   75CHL1    C8 6670   0.292   4.034   3.435  0.3705 -0.1384  0.4475
   75CHL1    H8 6671   0.299   4.145   3.430 -0.0640 -0.1427 -0.4605
   75CHL1   C14 6672   0.284   3.979   3.581 -0.1756  0.1997 -0.7006
   75CHL1   H14 6673   0.274   3.870   3.568 -1.8626  0.3021 -0.4750
   75CHL1   C15 6674   0.177   4.039   3.669  0.1803 -0.8621 -0.4259
   75CHL1  H15A 6675   0.170   4.149   3.666  0.6751 -0.8222 -0.2122
   75CHL1  H15B 6676   0.075   4.005   3.638 -1.3377  0.9935  2.1510
   75CHL1   C16 6677   0.211   4.001   3.813 -0.2511 -0.3460  0.1210
   75CHL1  H16A 6678   0.201   4.094   3.874  0.8257  1.0967 -1.7823
   75CHL1  H16B 6679   0.147   3.921   3.855  0.5363  0.6860  3.5853
   75CHL1   C17 6680   0.364   3.948   3.800  0.0840  0.8135  0.0693
   75CHL1   H17 6681   0.351   3.839   3.784  0.2433  0.4743  1.9509
   75CHL1   C13 6682   0.418   3.996   3.660 -0.0124  0.1235  0.1791
   75CHL1   C18 6683   0.453   4.146   3.670 -0.4024  0.7198  0.2771
   75CHL1  H18A 6684   0.389   4.198   3.745 -2.8773  0.1028 -1.3018
   75CHL1  H18B 6685   0.557   4.156   3.709 -0.6957 -0.3404  1.3813
   75CHL1  H18C 6686   0.455   4.201   3.574 -0.1112  1.4400  0.6829
   75CHL1   C12 6687   0.529   3.925   3.593 -0.2783  0.2562 -0.0062
   75CHL1  H12A 6688   0.623   3.948   3.646  0.1481 -0.7168 -0.3194
   75CHL1  H12B 6689   0.504   3.817   3.596 -1.3015  0.4866  0.1029
   75CHL1   C11 6690   0.549   3.958   3.442  0.0216 -0.0667 -0.5871
   75CHL1  H11A 6691   0.614   4.047   3.430  1.1616 -0.7951 -0.0410
   75CHL1  H11B 6692   0.604   3.866   3.411 -0.3810 -0.6903  0.4803
   75CHL1    C9 6693   0.412   3.969   3.359  0.6401  0.5742 -0.2200
   75CHL1    H9 6694   0.377   3.865   3.342 -1.2752  1.0352  0.7077
   75CHL1   C10 6695   0.417   4.022   3.211 -0.1233 -0.8840  0.0983
   75CHL1   C19 6696   0.487   4.160   3.215 -0.1300 -0.1634 -0.1936
   75CHL1  H19A 6697   0.505   4.201   3.113 -1.1403 -0.7271 -0.6163
   75CHL1  H19B 6698   0.438   4.245   3.266  1.4630  1.4703 -1.2898
   75CHL1  H19C 6699   0.588   4.146   3.260 -0.8356 -0.8972  1.2481
   75CHL1    C1 6700   0.514   3.936   3.121 -0.5282 -0.1124  0.3174
   75CHL1   H1A 6701   0.612   3.922   3.171 -0.0524  1.4635 -0.1341
   75CHL1   H1B 6702   0.482   3.829   3.120  4.6663 -1.9712 -1.3639
   75CHL1    C2 6703   0.523   3.969   2.970 -0.5448 -0.0556  0.2960
   75CHL1   H2A 6704   0.579   3.893   2.912  0.3108  1.0327 -0.3359
   75CHL1   H2B 6705   0.570   4.068   2.949 -2.6090  0.9000 -0.1040
   75CHL1   C20 6706   0.447   3.977   3.924  0.0841  0.0328 -0.6772
   75CHL1   H20 6707   0.442   4.085   3.949 -2.6573  0.5380 -2.8801
   75CHL1   C21 6708   0.595   3.928   3.918  0.3734  0.4326  0.3109
   75CHL1  H21A 6709   0.650   3.982   3.837 -2.4513  1.3996 -1.0769
   75CHL1  H21B 6710   0.585   3.818   3.904 -0.7096  0.3220  1.8028
   75CHL1  H21C 6711   0.650   3.954   4.011  0.0466 -0.8054  0.8611
   75CHL1   C22 6712   0.389   3.909   4.050 -0.3493 -0.7428  0.3898
   75CHL1  H22A 6713   0.282   3.934   4.062 -0.8211 -1.8126 -1.2108
   75CHL1  H22B 6714   0.396   3.800   4.031 -1.8763 -0.7980 -0.0144
   75CHL1   C23 6715   0.455   3.941   4.184 -0.0582 -0.2184 -0.1481
   75CHL1  H23A 6716   0.557   3.896   4.183 -0.3943 -0.9982 -0.9508
   75CHL1  H23B 6717   0.469   4.051   4.193 -0.4023 -0.1465 -0.4874
   75CHL1   C24 6718   0.375   3.892   4.308  0.1791  0.2657  0.0004
   75CHL1  H24A 6719   0.418   3.920   4.406 -0.4855  0.0300  0.3662
   75CHL1  H24B 6720   0.274   3.938   4.300 -0.0618 -0.2465  0.0752
   75CHL1   C25 6721   0.361   3.736   4.316 -0.0351  0.3276  0.2168
   75CHL1   H25 6722   0.347   3.706   4.209 -0.5617  1.6688 -0.1148
   75CHL1   C26 6723   0.493   3.663   4.369 -0.4325  0.0880 -0.5593
   75CHL1  H26A 6724   0.580   3.705   4.315 -0.6869  1.9761  0.4266
   75CHL1  H26B 6725   0.507   3.680   4.478 -0.7411 -3.0852  0.0815
   75CHL1  H26C 6726   0.479   3.553   4.355 -0.5523  0.1516 -0.9569
   75CHL1   C27 6727   0.238   3.691   4.394  0.2289 -0.2255 -0.4163
   75CHL1  H27A 6728   0.260   3.719   4.499  0.5593 -0.4964 -0.4113
   75CHL1  H27B 6729   0.146   3.742   4.358 -0.7824 -0.9678  1.0025
   75CHL1  H27C 6730   0.220   3.582   4.395  1.7058 -0.5192 -1.6421
   76CHL1    C3 6731   5.675   5.855   2.964 -0.6417  0.6442  0.2470
   76CHL1    H3 6732   5.638   5.752   2.978  2.6138 -0.4648  1.5893
   76CHL1    O3 6733   5.670   5.872   2.823  0.2473  0.9198  0.3741
   76CHL1   H3' 6734   5.669   5.968   2.822  0.1910  0.9198  0.4046
   76CHL1    C4 6735   5.594   5.961   3.036  0.6216 -0.3579  0.2069
   76CHL1   H4A 6736   5.620   6.063   3.001  1.1201 -0.5229  0.0798
   76CHL1   H4B 6737   5.491   5.943   2.998 -0.0100  0.0346  1.6306
   76CHL1    C5 6738   5.602   5.951   3.185  0.1466 -0.6397 -0.7034
   76CHL1    C6 6739   5.493   5.942   3.265  0.0485 -0.3057 -0.0490
   76CHL1    H6 6740   5.394   5.955   3.219  0.2925 -2.6396 -1.3838
   76CHL1    C7 6741   5.492   5.951   3.413  0.0651  0.4737  0.5392
   76CHL1   H7A 6742   5.420   6.028   3.447  0.2256  2.3289 -2.8386
   76CHL1   H7B 6743   5.457   5.852   3.450  0.5320  0.8364  1.9973
   76CHL1    C8 6744   5.634   5.988   3.474 -0.3728  0.6498  0.3996
   76CHL1    H8 6745   5.647   6.098   3.460  2.4257  0.3817  0.4359
   76CHL1   C14 6746   5.642   5.941   3.617  0.3994 -0.2417  0.3573
   76CHL1   H14 6747   5.636   5.830   3.609 -1.4312 -0.1823  0.4226
   76CHL1   C15 6748   5.532   5.985   3.717 -0.5919 -0.0039  0.0174
   76CHL1  H15A 6749   5.502   6.091   3.704 -1.0194  0.0155  1.0917
   76CHL1  H15B 6750   5.437   5.929   3.704  0.2133 -1.5259  0.4261
   76CHL1   C16 6751   5.585   5.950   3.858 -0.0201  0.4772  0.2952
   76CHL1  H16A 6752   5.568   6.028   3.935  0.5601  0.4292  0.4787
   76CHL1  H16B 6753   5.560   5.844   3.882 -1.0650  0.3177 -1.3504
   76CHL1   C17 6754   5.741   5.932   3.830 -0.0498  0.2604 -0.2526
   76CHL1   H17 6755   5.755   5.822   3.831  0.2732  0.2981 -0.6402
   76CHL1   C13 6756   5.769   5.974   3.680 -0.8065  0.6141 -0.4284
   76CHL1   C18 6757   5.787   6.130   3.673 -0.4863 -0.7497  0.1711
   76CHL1  H18A 6758   5.784   6.159   3.566 -0.9608 -0.0075  0.3748
   76CHL1  H18B 6759   5.711   6.194   3.723 -1.2064 -1.2787 -0.2087
   76CHL1  H18C 6760   5.882   6.170   3.714  0.5252  0.3795 -2.9871
   76CHL1   C12 6761   5.882   5.895   3.602 -0.2974 -0.8825 -0.2764
   76CHL1  H12A 6762   5.987   5.918   3.633  0.4011 -2.2231 -1.4962
   76CHL1  H12B 6763   5.854   5.788   3.608  1.5759 -1.3834  0.2853
   76CHL1   C11 6764   5.888   5.936   3.448 -0.1198  0.0377 -0.5634
   76CHL1  H11A 6765   5.926   6.040   3.441 -0.4770  0.2898  0.9550
   76CHL1  H11B 6766   5.953   5.869   3.387 -0.1339 -0.7074  0.2282
   76CHL1    C9 6767   5.745   5.920   3.387 -0.0973  0.8942  0.6129
   76CHL1    H9 6768   5.731   5.811   3.402 -0.3670  0.8024 -0.2505
   76CHL1   C10 6769   5.743   5.958   3.238  0.2075  0.1798 -0.0245
   76CHL1   C19 6770   5.803   6.100   3.215  0.0382 -0.0167 -0.3896
   76CHL1  H19A 6771   5.907   6.113   3.250 -0.3055  0.1538  0.5821
   76CHL1  H19B 6772   5.812   6.127   3.107 -2.2683 -0.4370 -0.7358
   76CHL1  H19C 6773   5.739   6.163   3.281  0.5521 -1.2757  1.3470
   76CHL1    C1 6774   5.834   5.858   3.165 -0.2362 -0.3955 -0.6949
   76CHL1   H1A 6775   5.938   5.872   3.201 -0.3803 -0.4426 -0.2548
   76CHL1   H1B 6776   5.794   5.755   3.180 -0.0639 -0.1541  1.8085
   76CHL1    C2 6777   5.823   5.862   3.009  0.0931  0.3888 -0.5221
   76CHL1   H2A 6778   5.867   5.774   2.957 -2.1626 -0.3419 -1.3092
   76CHL1   H2B 6779   5.868   5.959   2.977  0.6406  0.2634 -0.1368
   76CHL1   C20 6780   5.818   6.009   3.939 -0.4868 -0.1097 -0.6714
   76CHL1   H20 6781   5.792   6.117   3.939  1.6873  0.4702  0.1782
   76CHL1   C21 6782   5.972   5.986   3.919 -0.2558  0.1630  0.1161
   76CHL1  H21A 6783   5.989   5.877   3.914 -0.5829  0.1770 -2.2686
   76CHL1  H21B 6784   6.029   6.027   4.005  1.3966  0.4930 -1.0791
   76CHL1  H21C 6785   6.013   6.038   3.829  1.3101  0.3629  0.9008
   76CHL1   C22 6786   5.780   5.964   4.086 -0.1456  0.3303  0.5400
   76CHL1  H22A 6787   5.698   5.889   4.091 -0.3152  0.2987 -1.7835
   76CHL1  H22B 6788   5.874   5.914   4.118 -0.2241 -0.8577 -0.9738
   76CHL1   C23 6789   5.736   6.079   4.184  0.1939  0.3969 -0.2983
   76CHL1  H23A 6790   5.816   6.155   4.182  0.9526 -0.1986  2.7205
   76CHL1  H23B 6791   5.643   6.121   4.139 -0.8257 -0.4369  0.9566
   76CHL1   C24 6792   5.708   6.029   4.323  0.0690 -0.1828  0.9204
   76CHL1  H24A 6793   5.644   5.939   4.314  1.3735 -1.2546  1.9291
   76CHL1  H24B 6794   5.806   5.999   4.366  0.4624  1.2258  1.0522
   76CHL1   C25 6795   5.653   6.131   4.416  0.2358  0.2258 -0.2276
   76CHL1   H25 6796   5.730   6.208   4.440 -0.6784  0.6305  1.6155
   76CHL1   C26 6797   5.521   6.208   4.374 -0.0668 -0.0077 -0.0212
   76CHL1  H26A 6798   5.477   6.275   4.451  1.4960 -0.0890  0.9661
   76CHL1  H26B 6799   5.549   6.263   4.281  0.2932  0.4227  0.3387
   76CHL1  H26C 6800   5.445   6.128   4.359 -0.2131 -0.0334  0.8143
   76CHL1   C27 6801   5.622   6.065   4.555 -0.0171 -0.1073  0.2030
   76CHL1  H27A 6802   5.621   6.137   4.639 -2.2278 -2.4821  2.3814
   76CHL1  H27B 6803   5.524   6.013   4.553 -0.4353  0.5028  2.4667
   76CHL1  H27C 6804   5.688   5.981   4.583 -0.4805 -0.1707  1.1549
   77SOPE     N 6805   4.205   5.700   7.009 -0.0043  0.9395  0.5954
   77SOPE   HN1 6806   4.211   5.803   6.994  0.9483  1.0796  1.8003
   77SOPE   HN2 6807   4.291   5.661   7.053 -0.3421 -1.3802 -0.6644
   77SOPE   HN3 6808   4.187   5.659   6.915  2.1016  0.5059  0.3153
   77SOPE   C12 6809   4.081   5.682   7.092 -0.4505  0.0525  0.1931
   77SOPE  H12A 6810   3.994   5.712   7.030 -1.0209 -1.1022  0.4131
   77SOPE  H12B 6811   4.076   5.765   7.166 -0.9807  0.5285 -0.3668
   77SOPE   C11 6812   4.073   5.541   7.139  0.1361 -0.2096 -0.4503
   77SOPE  H11A 6813   4.015   5.530   7.233  1.7612  0.5142  0.6835
   77SOPE  H11B 6814   4.174   5.503   7.167 -0.0510 -0.8907 -0.6951
   77SOPE     P 6815   3.872   5.441   7.004  0.0347 -0.4716 -0.0610
   77SOPE   O13 6816   3.803   5.570   6.990  0.4682 -0.0363 -0.5877
   77SOPE   O14 6817   3.811   5.356   7.105  0.1038  0.7462 -0.2295
   77SOPE   O12 6818   4.023   5.465   7.026  0.0938 -0.3645  0.7876
   77SOPE   O11 6819   3.870   5.370   6.865  0.0851 -0.7710 -0.6868
   77SOPE    C1 6820   3.956   5.401   6.756 -0.0032  0.2188  0.3210
   77SOPE    HA 6821   4.046   5.336   6.754 -0.4009 -0.3182 -1.2459
   77SOPE    HB 6822   3.992   5.504   6.777  0.9817 -0.0589  0.0686
   77SOPE    C2 6823   3.895   5.406   6.612 -0.1703 -0.0312  0.0216
   77SOPE    HS 6824   3.819   5.487   6.619 -0.4157 -0.3282  1.0051
   77SOPE   O21 6825   3.835   5.283   6.574  0.7881  0.8237  0.1801
   77SOPE   C21 6826   3.717   5.286   6.516  0.5286  0.2518  0.0051
   77SOPE   O22 6827   3.652   5.384   6.494  0.0799 -0.2541  0.7479
   77SOPE   C22 6828   3.664   5.145   6.487  0.3023  0.4975  0.6548
   77SOPE   H2R 6829   3.554   5.158   6.498  0.4347  0.2357  2.6498
   77SOPE   H2S 6830   3.699   5.078   6.569 -0.5269 -0.4948  0.2171
   77SOPE    C3 6831   4.008   5.429   6.507 -0.7558  0.0138  0.2690
   77SOPE    HX 6832   4.081   5.348   6.525 -2.3176 -1.9602 -1.5913
   77SOPE    HY 6833   4.056   5.527   6.527 -0.5149  0.1759 -1.0136
   77SOPE   O31 6834   3.972   5.415   6.371 -0.3215  0.0109  0.3215
   77SOPE   C31 6835   3.906   5.510   6.322 -0.6601 -0.0061 -0.3206
   77SOPE   O32 6836   3.877   5.619   6.373 -0.0452  0.9976 -0.0763
   77SOPE   C32 6837   3.897   5.484   6.177 -0.2898  0.4363 -0.2242
   77SOPE   H2X 6838   3.859   5.382   6.155  0.6058  0.2659 -1.0830
   77SOPE   H2Y 6839   4.001   5.479   6.138 -0.8160 -0.2778 -1.6202
   77SOPE   C23 6840   3.687   5.099   6.343 -0.0437 -0.7476 -0.0568
   77SOPE   H3R 6841   3.651   5.173   6.268 -1.7339 -2.4600 -1.0388
   77SOPE   H3S 6842   3.638   5.002   6.322  0.2298 -0.7055 -0.9317
   77SOPE   C24 6843   3.837   5.069   6.324  0.1412  0.1516  0.1870
   77SOPE   H4R 6844   3.896   5.161   6.339 -2.6711  1.9610  0.9695
   77SOPE   H4S 6845   3.864   4.995   6.403  2.1681 -0.5841 -1.1192
   77SOPE   C25 6846   3.866   5.001   6.188  0.5035  0.3535 -0.0975
   77SOPE   H5R 6847   3.969   4.960   6.189 -0.0977 -1.2613 -0.1553
   77SOPE   H5S 6848   3.801   4.912   6.172 -0.5738  0.7698  1.7098
   77SOPE   C26 6849   3.840   5.087   6.066  0.9298 -0.0027 -0.2429
   77SOPE   H6R 6850   3.738   5.128   6.074  1.3502  0.9045  0.6969
   77SOPE   H6S 6851   3.915   5.169   6.057  1.0901 -0.1322 -0.1049
   77SOPE   C27 6852   3.858   5.005   5.934  0.8872  0.3198  0.2982
   77SOPE   H7R 6853   3.954   4.950   5.926 -0.7173 -2.7875  0.6707
   77SOPE   H7S 6854   3.777   4.929   5.942 -0.6543  1.8992  0.2282
   77SOPE   C28 6855   3.843   5.095   5.812 -0.1723 -0.2417 -0.4288
   77SOPE   H8R 6856   3.907   5.185   5.822  1.2004 -1.1519 -0.7472
   77SOPE   H8S 6857   3.882   5.047   5.720 -0.1492 -1.9420  0.4278
   77SOPE   C29 6858   3.702   5.127   5.793  0.2646  0.3417  0.0890
   77SOPE   H91 6859   3.635   5.095   5.874  0.2495 -1.1038 -0.4651
   77SOPE  C210 6860   3.648   5.181   5.681 -0.2474 -0.6136  0.1730
   77SOPE  H101 6861   3.542   5.209   5.672 -0.7685 -2.6479 -0.3825
   77SOPE  C211 6862   3.723   5.233   5.551  0.2821  0.3451 -0.4619
   77SOPE  H11R 6863   3.833   5.229   5.567  0.0042  1.0266  2.2268
   77SOPE  H11S 6864   3.684   5.336   5.536  1.2314  0.7059 -0.5283
   77SOPE  C212 6865   3.693   5.139   5.430  0.2994  0.4345  0.0370
   77SOPE  H12R 6866   3.584   5.119   5.422  0.3284  0.1759  0.2735
   77SOPE  H12S 6867   3.748   5.044   5.447  1.4730  0.6772 -2.0765
   77SOPE  C213 6868   3.764   5.185   5.303  0.0972  0.3184 -0.1220
   77SOPE  H13R 6869   3.768   5.296   5.313  1.2653  0.1038  2.6280
   77SOPE  H13S 6870   3.690   5.155   5.226 -0.5396  0.1763  0.5403
   77SOPE  C214 6871   3.901   5.129   5.274  0.2051  0.0515  1.2574
   77SOPE  H14R 6872   3.897   5.021   5.247  2.0130 -0.1535  1.6765
   77SOPE  H14S 6873   3.960   5.140   5.368  1.7048  0.4225  0.3073
   77SOPE  C215 6874   3.984   5.192   5.155 -0.1881 -0.3141 -0.2153
   77SOPE  H15R 6875   4.087   5.149   5.150  0.3127  0.7600  0.3729
   77SOPE  H15S 6876   4.004   5.299   5.181  0.5857 -0.3965 -0.4332
   77SOPE  C216 6877   3.920   5.171   5.016 -0.1369  0.3879  0.0329
   77SOPE  H16R 6878   3.974   5.234   4.942 -1.0739  0.8819 -0.2458
   77SOPE  H16S 6879   3.814   5.205   5.013  0.0080  0.8088 -1.4073
   77SOPE  C217 6880   3.938   5.035   4.948  0.1575  0.2558 -0.9138
   77SOPE  H17R 6881   3.885   5.047   4.852 -0.2067  1.0748 -0.6124
   77SOPE  H17S 6882   3.884   4.961   5.011  1.8411  0.9032  1.4696
   77SOPE  C218 6883   4.078   4.980   4.928  0.8176  0.3821  0.1684
   77SOPE  H18R 6884   4.147   5.046   4.872  2.5467 -0.8184  0.7985
   77SOPE  H18S 6885   4.062   4.885   4.873  1.2047  0.5041 -0.1603
   77SOPE  H18T 6886   4.128   4.968   5.026  0.0810  2.4334  0.8626
   77SOPE   C33 6887   3.828   5.606   6.101 -0.0469  0.2368  0.0646
   77SOPE   H3X 6888   3.894   5.691   6.127  0.7312 -0.7906  1.5380
   77SOPE   H3Y 6889   3.731   5.632   6.149  0.6747  0.8432  1.2390
   77SOPE   C34 6890   3.803   5.592   5.943  0.0960  0.3011 -0.0707
   77SOPE   H4X 6891   3.755   5.687   5.912 -1.8562 -0.0144  1.7371
   77SOPE   H4Y 6892   3.735   5.506   5.923  1.8542 -0.8451 -1.4409
   77SOPE   C35 6893   3.930   5.560   5.859  0.1197  0.2375  0.6121
   77SOPE   H5X 6894   3.985   5.469   5.888  2.4314  1.0080 -1.0317
   77SOPE   H5Y 6895   3.996   5.647   5.882 -1.2148  1.4574  0.0429
   77SOPE   C36 6896   3.898   5.564   5.704  0.0733 -0.9360 -0.4755
   77SOPE   H6X 6897   3.871   5.670   5.682 -2.3707 -1.4180 -0.0937
   77SOPE   H6Y 6898   3.799   5.517   5.690 -0.4807 -0.5419  1.6569
   77SOPE   C37 6899   4.010   5.506   5.617  0.0852  0.0630  0.7045
   77SOPE   H7X 6900   4.012   5.396   5.630  1.3591 -0.2789 -1.8605
   77SOPE   H7Y 6901   4.111   5.545   5.640  1.0852 -1.8545 -0.1880
   77SOPE   C38 6902   3.978   5.524   5.468  0.3007  0.3046 -0.3015
   77SOPE   H8X 6903   3.872   5.501   5.444  0.2451 -1.6910  1.5780
   77SOPE   H8Y 6904   4.038   5.448   5.414 -0.3283 -0.5870  0.2287
   77SOPE   C39 6905   4.024   5.667   5.416 -0.1721  0.4726 -0.8861
   77SOPE   H9X 6906   4.133   5.676   5.432 -0.3001  0.6938 -0.0846
   77SOPE   H9Y 6907   3.965   5.749   5.463  1.0868  1.9035 -1.7137
   77SOPE  C310 6908   3.989   5.679   5.265 -1.0896  0.2952  0.2517
   77SOPE  H10X 6909   4.021   5.584   5.217 -1.8795  0.5505 -0.8036
   77SOPE  H10Y 6910   4.037   5.770   5.222 -0.0797 -0.1525  0.4147
   77SOPE  C311 6911   3.841   5.704   5.238 -0.4429 -0.3640  0.1450
   77SOPE  H11X 6912   3.792   5.774   5.309 -0.3620  0.1080 -0.2584
   77SOPE  H11Y 6913   3.796   5.604   5.256  1.0968 -0.8368  1.6250
   77SOPE  C312 6914   3.832   5.741   5.091  0.1571  0.0877 -0.7945
   77SOPE  H12X 6915   3.878   5.660   5.030  1.1702 -0.5281  0.7134
   77SOPE  H12Y 6916   3.894   5.833   5.076  1.0081 -0.7286 -2.7188
   77SOPE  C313 6917   3.689   5.764   5.038 -0.3736 -0.0498  0.3104
   77SOPE  H13X 6918   3.646   5.856   5.083 -1.0697 -0.8171  1.2357
   77SOPE  H13Y 6919   3.624   5.686   5.081  0.1356 -0.4822  0.3075
   77SOPE  C314 6920   3.679   5.755   4.887 -0.4139  0.2188  1.0181
   77SOPE  H14X 6921   3.704   5.654   4.849 -1.4441  0.3124  0.0422
   77SOPE  H14Y 6922   3.745   5.828   4.835 -1.0798 -1.3834 -2.3448
   77SOPE  C315 6923   3.540   5.800   4.838  0.3199 -0.0589 -0.8152
   77SOPE  H15X 6924   3.514   5.898   4.885 -0.0647 -0.9467  0.8987
   77SOPE  H15Y 6925   3.466   5.725   4.874 -0.2079  0.3835 -0.9655
   77SOPE  C316 6926   3.533   5.802   4.683 -0.9127  0.1948  0.0560
   77SOPE  H16X 6927   3.603   5.879   4.645 -2.2781  1.6517  0.3996
   77SOPE  H16Y 6928   3.433   5.832   4.647 -1.1878  0.2271  0.8286
   77SOPE  C317 6929   3.571   5.663   4.620 -0.3247  0.7324  0.1275
   77SOPE  H17X 6930   3.527   5.574   4.670  1.4208 -0.9548 -1.2013
   77SOPE  H17Y 6931   3.680   5.640   4.618 -0.5138 -0.2189  0.0763
   77SOPE  C318 6932   3.527   5.651   4.464  0.4085  0.6653  0.0775
   77SOPE  H18X 6933   3.545   5.741   4.401 -0.6480  0.3511 -0.7071
   77SOPE  H18Y 6934   3.416   5.653   4.465  0.3872  0.1521 -0.5523
   77SOPE  H18Z 6935   3.561   5.562   4.406 -0.7731  0.1102  0.1953
   78SOPE     N 6936   2.651   4.924   6.992  0.0031 -0.1716  0.0957
   78SOPE   HN1 6937   2.699   4.879   7.072 -0.6623 -2.0885 -0.5311
   78SOPE   HN2 6938   2.724   4.963   6.929  1.2935 -0.5037  1.3273
   78SOPE   HN3 6939   2.587   5.002   7.019  0.7569  0.2324  0.7511
   78SOPE   C12 6940   2.565   4.830   6.917  0.0829  0.2289 -0.2025
   78SOPE  H12A 6941   2.461   4.857   6.944 -0.1472 -0.1999 -0.6329
   78SOPE  H12B 6942   2.570   4.725   6.953 -2.0754  0.4493  0.9480
   78SOPE   C11 6943   2.578   4.828   6.765  0.5604  0.2287  0.1184
   78SOPE  H11A 6944   2.495   4.762   6.730  1.9468 -2.1581  1.0896
   78SOPE  H11B 6945   2.664   4.772   6.723 -1.0425 -1.0016 -1.7094
   78SOPE     P 6946   2.695   5.031   6.672 -0.4861  0.2286 -0.0382
   78SOPE   O13 6947   2.802   5.006   6.773  0.4531  0.2507  0.3449
   78SOPE   O14 6948   2.668   5.176   6.634  0.8136  0.7801 -0.2353
   78SOPE   O12 6949   2.557   4.957   6.706 -0.0808 -0.5117  0.4752
   78SOPE   O11 6950   2.751   4.959   6.548  0.5559  0.5233 -0.2549
   78SOPE    C1 6951   2.687   4.874   6.456  0.4017 -0.6835  0.0306
   78SOPE    HA 6952   2.578   4.892   6.472  0.6074 -0.8074  1.6754
   78SOPE    HB 6953   2.716   4.768   6.473  0.9815 -0.8172 -1.5913
   78SOPE    C2 6954   2.741   4.915   6.313 -0.3514  0.0710 -0.0686
   78SOPE    HS 6955   2.647   4.921   6.255  0.2096 -0.4382 -1.0527
   78SOPE   O21 6956   2.840   4.821   6.266  0.1733 -0.2674 -0.0610
   78SOPE   C21 6957   2.805   4.717   6.197 -0.3105 -0.2008  0.4426
   78SOPE   O22 6958   2.693   4.690   6.157 -0.5037 -0.3609  0.5491
   78SOPE   C22 6959   2.925   4.626   6.173 -0.2195 -0.2736  0.1138
   78SOPE   H2R 6960   2.930   4.563   6.265 -1.9409  0.5118  0.7844
   78SOPE   H2S 6961   3.018   4.686   6.160  0.6434 -1.6982 -0.6181
   78SOPE    C3 6962   2.796   5.062   6.303  0.0395  0.6698  0.3893
   78SOPE    HX 6963   2.886   5.056   6.367 -0.9954  0.1863  1.8599
   78SOPE    HY 6964   2.726   5.129   6.358 -0.2992  0.1030  0.6601
   78SOPE   O31 6965   2.830   5.098   6.163 -0.0576  0.5628 -0.4351
   78SOPE   C31 6966   2.727   5.137   6.089 -0.1260 -0.2898 -0.3420
   78SOPE   O32 6967   2.611   5.120   6.112 -0.0119  0.4756 -0.4284
   78SOPE   C32 6968   2.770   5.231   5.973  0.4200  0.4618 -0.1176
   78SOPE   H2X 6969   2.881   5.238   5.981  0.4697  1.4180 -1.3745
   78SOPE   H2Y 6970   2.727   5.331   5.994  0.3695  0.3125  0.5113
   78SOPE   C23 6971   2.894   4.515   6.063  0.0214  0.0337 -0.4020
   78SOPE   H3R 6972   2.802   4.455   6.078 -0.7326  1.7738  2.9184
   78SOPE   H3S 6973   2.983   4.449   6.064 -0.4858 -0.6682 -0.6247
   78SOPE   C24 6974   2.909   4.567   5.924 -0.4123 -0.3672  0.3515
   78SOPE   H4R 6975   2.843   4.654   5.905  0.8590  0.5404 -0.0388
   78SOPE   H4S 6976   3.012   4.602   5.906 -1.0366  1.4658  0.1374
   78SOPE   C25 6977   2.881   4.459   5.817 -0.0245 -0.6486  0.0287
   78SOPE   H5R 6978   2.932   4.366   5.851  0.2557  0.0046  1.4810
   78SOPE   H5S 6979   2.772   4.435   5.817 -0.0422 -0.6374  1.2736
   78SOPE   C26 6980   2.943   4.514   5.680 -0.5208  0.3885 -0.5012
   78SOPE   H6R 6981   2.886   4.598   5.637 -2.0837 -1.1039 -1.4719
   78SOPE   H6S 6982   3.051   4.536   5.697 -0.5480 -0.5084  1.1014
   78SOPE   C27 6983   2.937   4.415   5.561  0.3566 -1.1236 -0.2158
   78SOPE   H7R 6984   2.988   4.320   5.586 -0.3643 -1.6328 -0.6555
   78SOPE   H7S 6985   2.830   4.397   5.536 -0.3849  1.4443  0.7719
   78SOPE   C28 6986   3.000   4.475   5.434 -0.2508  0.0736 -0.3519
   78SOPE   H8R 6987   2.954   4.420   5.349 -0.9380  1.1632 -0.7070
   78SOPE   H8S 6988   2.959   4.576   5.408  0.1249 -0.0682 -1.5595
   78SOPE   C29 6989   3.148   4.481   5.433 -0.3707 -0.0569  0.6497
   78SOPE   H91 6990   3.198   4.526   5.520 -1.7175  1.7423  0.5409
   78SOPE  C210 6991   3.227   4.438   5.334 -0.5501 -0.0133  0.3900
   78SOPE  H101 6992   3.337   4.431   5.347 -0.3792 -0.2456 -1.0913
   78SOPE  C211 6993   3.188   4.373   5.199 -1.1906  0.0021  0.2660
   78SOPE  H11R 6994   3.086   4.405   5.169 -1.3172  1.2430  1.8810
   78SOPE  H11S 6995   3.203   4.263   5.204 -0.2256  0.0429 -1.1302
   78SOPE  C212 6996   3.271   4.432   5.087 -0.5917  0.2908  0.5148
   78SOPE  H12R 6997   3.374   4.391   5.103 -0.1720  1.8742  2.2322
   78SOPE  H12S 6998   3.261   4.542   5.089 -3.3834  0.1099  0.0020
   78SOPE  C213 6999   3.225   4.370   4.952  0.7500  0.5134  0.1601
   78SOPE  H13R 7000   3.124   4.409   4.926  1.0524  1.5495  0.4811
   78SOPE  H13S 7001   3.227   4.260   4.963 -0.5392  0.4766  0.1965
   78SOPE  C214 7002   3.321   4.404   4.839 -0.7968 -0.0128 -0.1902
   78SOPE  H14R 7003   3.423   4.368   4.861 -0.9367 -1.3359 -1.5630
   78SOPE  H14S 7004   3.330   4.514   4.828  1.6272 -0.2333 -0.9364
   78SOPE  C215 7005   3.279   4.331   4.710 -0.1438 -0.9633 -0.7274
   78SOPE  H15R 7006   3.186   4.381   4.674  0.2114  0.6020  0.3996
   78SOPE  H15S 7007   3.264   4.223   4.730 -0.5476 -0.7480  0.2412
   78SOPE  C216 7008   3.380   4.329   4.601 -0.5276 -0.0275  0.8062
   78SOPE  H16R 7009   3.348   4.264   4.517  3.4302 -1.5954  0.3219
   78SOPE  H16S 7010   3.480   4.296   4.635  0.1601  3.2777  2.4610
   78SOPE  C217 7011   3.410   4.466   4.535 -0.5203 -1.1608  0.4027
   78SOPE  H17R 7012   3.497   4.462   4.466  0.7743 -1.4085  2.0093
   78SOPE  H17S 7013   3.450   4.532   4.614  0.0309 -1.4373  0.3616
   78SOPE  C218 7014   3.303   4.534   4.447 -0.0873 -0.2673  0.5854
   78SOPE  H18R 7015   3.337   4.637   4.422 -2.1451  0.1088 -0.9223
   78SOPE  H18S 7016   3.205   4.530   4.498 -0.6458  0.7509 -0.3582
   78SOPE  H18T 7017   3.295   4.469   4.357  1.9623  1.7547 -1.1864
   78SOPE   C33 7018   2.726   5.182   5.835  0.1880 -0.1735  0.4811
   78SOPE   H3X 7019   2.615   5.184   5.834  0.1789 -0.4134 -0.4113
   78SOPE   H3Y 7020   2.760   5.078   5.816  0.0702 -0.4027  1.4898
   78SOPE   C34 7021   2.773   5.280   5.725  0.8056  1.8485  0.7020
   78SOPE   H4X 7022   2.882   5.289   5.740  1.1321 -1.7936  1.5035
   78SOPE   H4Y 7023   2.728   5.378   5.751 -0.7271  0.6594  2.8867
   78SOPE   C35 7024   2.741   5.237   5.580  0.3406 -0.1198 -0.4429
   78SOPE   H5X 7025   2.639   5.195   5.576  0.8465 -1.4402  0.1650
   78SOPE   H5Y 7026   2.809   5.158   5.543  1.0114 -0.0430  0.5819
   78SOPE   C36 7027   2.741   5.351   5.479  0.6412  0.1831  0.2288
   78SOPE   H6X 7028   2.818   5.428   5.504  1.2436 -0.2703 -0.2137
   78SOPE   H6Y 7029   2.642   5.402   5.470  1.0062  0.5242 -3.1643
   78SOPE   C37 7030   2.786   5.309   5.331  0.4772  0.3370 -0.7433
   78SOPE   H7X 7031   2.729   5.219   5.302 -0.6126  0.3853  1.0760
   78SOPE   H7Y 7032   2.894   5.287   5.343  0.7597  1.8069 -0.4262
   78SOPE   C38 7033   2.757   5.423   5.234  0.0895  0.3556 -0.2608
   78SOPE   H8X 7034   2.788   5.522   5.274 -0.5749 -0.1409  1.5542
   78SOPE   H8Y 7035   2.648   5.430   5.219 -0.1251 -2.0770 -0.1893
   78SOPE   C39 7036   2.821   5.398   5.097  0.7527 -0.3640 -0.0774
   78SOPE   H9X 7037   2.930   5.388   5.117  0.7258  0.4048  0.4980
   78SOPE   H9Y 7038   2.810   5.489   5.035  1.3152  0.5643  1.1476
   78SOPE  C310 7039   2.773   5.270   5.022 -0.5523 -0.6744  0.1179
   78SOPE  H10X 7040   2.664   5.283   5.003 -0.3587  0.3319 -0.4058
   78SOPE  H10Y 7041   2.803   5.193   5.096 -1.8508 -0.0591  1.3267
   78SOPE  C311 7042   2.829   5.257   4.883 -0.4015  0.4735  0.6140
   78SOPE  H11X 7043   2.939   5.258   4.872 -0.3313 -0.9112  1.0607
   78SOPE  H11Y 7044   2.806   5.355   4.836  1.1387  0.7005  0.2800
   78SOPE  C312 7045   2.751   5.153   4.798 -0.1269  0.2904 -0.1015
   78SOPE  H12X 7046   2.649   5.196   4.788 -0.0598  0.3232 -0.7048
   78SOPE  H12Y 7047   2.743   5.057   4.852  0.1792 -1.3608 -2.7979
   78SOPE  C313 7048   2.796   5.151   4.655 -0.8247 -0.2665  0.3711
   78SOPE  H13X 7049   2.907   5.145   4.657 -0.6921 -1.0473 -3.1718
   78SOPE  H13Y 7050   2.762   5.240   4.598  1.6110 -0.3987 -1.4428
   78SOPE  C314 7051   2.748   5.031   4.572  0.0602 -0.4144 -0.6080
   78SOPE  H14X 7052   2.638   5.019   4.580  0.3228 -2.9297  0.2916
   78SOPE  H14Y 7053   2.795   4.944   4.624  0.9874 -0.2333 -1.1310
   78SOPE  C315 7054   2.787   5.016   4.425 -0.2576 -0.1612  0.4743
   78SOPE  H15X 7055   2.751   4.920   4.381  1.8047 -0.2121 -1.2850
   78SOPE  H15Y 7056   2.898   5.004   4.419 -0.3559 -0.4122 -2.4626
   78SOPE  C316 7057   2.751   5.142   4.340 -0.1511 -0.2923 -0.1412
   78SOPE  H16X 7058   2.813   5.159   4.250  1.3749 -0.2906  0.8774
   78SOPE  H16Y 7059   2.758   5.230   4.407  2.4473  0.2934 -1.0686
   78SOPE  C317 7060   2.599   5.142   4.317 -0.4000 -0.7731  0.3226
   78SOPE  H17X 7061   2.573   5.248   4.301  2.1106  0.2398  2.3179
   78SOPE  H17Y 7062   2.547   5.104   4.408 -0.1800  1.2339  1.3251
   78SOPE  C318 7063   2.553   5.054   4.196 -0.5447  0.5744  0.6146
   78SOPE  H18X 7064   2.448   5.074   4.166 -1.1254  1.4265  2.9582
   78SOPE  H18Y 7065   2.564   4.949   4.233 -0.4766  0.3261 -0.1007
   78SOPE  H18Z 7066   2.628   5.073   4.116 -1.2967  0.4207 -0.1374
   79SOPE     N 7067   6.030   2.289   7.004  0.0269 -0.2840 -0.1191
   79SOPE   HN1 7068   5.965   2.230   6.949 -0.5497 -0.5466  0.8167
   79SOPE   HN2 7069   6.121   2.295   6.953  0.8269 -0.0172  1.2858
   79SOPE   HN3 7070   6.053   2.251   7.098 -2.4715 -0.4110  0.5020
   79SOPE   C12 7071   5.984   2.431   7.015  0.9893  0.2416 -0.3474
   79SOPE  H12A 7072   6.038   2.477   7.101  2.3696 -0.8200 -0.6347
   79SOPE  H12B 7073   5.875   2.418   7.032  1.0827 -1.1682 -0.7168
   79SOPE   C11 7074   6.008   2.510   6.883  0.4479 -0.1902  0.3483
   79SOPE  H11A 7075   6.113   2.533   6.858  0.2234 -0.2271 -0.6478
   79SOPE  H11B 7076   5.973   2.614   6.900 -0.1450  0.2876 -3.0704
   79SOPE     P 7077   5.795   2.480   6.736 -0.2449  0.1527 -0.1614
   79SOPE   O13 7078   5.798   2.627   6.711 -0.3948  0.6645  0.2951
   79SOPE   O14 7079   5.696   2.428   6.834  0.0457  0.6540  0.0295
   79SOPE   O12 7080   5.947   2.442   6.773 -0.2985 -0.0648  0.2066
   79SOPE   O11 7081   5.775   2.409   6.598  0.0494 -0.0061 -0.5249
   79SOPE    C1 7082   5.873   2.437   6.494 -0.2884 -0.0968 -0.5914
   79SOPE    HA 7083   5.897   2.348   6.431  0.0409  0.1085 -0.7637
   79SOPE    HB 7084   5.974   2.465   6.530  0.3737 -0.9914 -1.6692
   79SOPE    C2 7085   5.826   2.543   6.394 -0.3829  0.4648  0.4962
   79SOPE    HS 7086   5.818   2.640   6.447  0.3292  1.3306 -0.9347
   79SOPE   O21 7087   5.696   2.511   6.345  0.1619  0.2166 -0.2069
   79SOPE   C21 7088   5.642   2.616   6.282 -0.2410  0.4027  0.1887
   79SOPE   O22 7089   5.681   2.731   6.287  0.0761  0.6463 -0.7536
   79SOPE   C22 7090   5.518   2.576   6.208  0.7062  0.5043  0.3298
   79SOPE   H2R 7091   5.473   2.491   6.265  2.0101 -0.1999  0.3361
   79SOPE   H2S 7092   5.576   2.549   6.117  3.5717  3.5694  1.0514
   79SOPE    C3 7093   5.937   2.554   6.283  0.5362 -0.8762 -0.1997
   79SOPE    HX 7094   6.030   2.576   6.340  2.7618 -2.2330 -3.0390
   79SOPE    HY 7095   5.921   2.637   6.211 -0.1205 -2.5992 -2.1196
   79SOPE   O31 7096   5.956   2.429   6.208  0.7635  0.4458 -0.2992
   79SOPE   C31 7097   5.894   2.417   6.097  0.4557 -0.1635 -1.0849
   79SOPE   O32 7098   5.803   2.490   6.058 -0.0158 -0.2761  0.4538
   79SOPE   C32 7099   5.939   2.298   6.021  0.2704  0.7384  0.7423
   79SOPE   H2X 7100   5.977   2.221   6.092 -3.1787 -2.4001 -0.5148
   79SOPE   H2Y 7101   6.033   2.331   5.972 -0.4744  0.3370 -1.0182
   79SOPE   C23 7102   5.432   2.699   6.191 -0.5666  0.1986  0.0049
   79SOPE   H3R 7103   5.403   2.741   6.289  2.4396 -0.6710  1.3735
   79SOPE   H3S 7104   5.342   2.657   6.141  0.2255  0.2851 -1.5891
   79SOPE   C24 7105   5.476   2.800   6.085  0.1286  0.3334  0.3099
   79SOPE   H4R 7106   5.565   2.854   6.123  0.3744  1.0571 -1.2240
   79SOPE   H4S 7107   5.522   2.748   5.999  0.5101  1.1077  0.0418
   79SOPE   C25 7108   5.369   2.893   6.018  0.2175 -0.4506 -0.2670
   79SOPE   H5R 7109   5.287   2.830   5.977 -0.5236 -0.0689  0.6032
   79SOPE   H5S 7110   5.320   2.954   6.096  1.8562  0.7045 -0.0761
   79SOPE   C26 7111   5.426   2.978   5.912  0.0994 -0.5989  0.1756
   79SOPE   H6R 7112   5.462   2.901   5.842 -0.6760 -0.1875 -0.6967
   79SOPE   H6S 7113   5.347   3.036   5.858  0.6608  0.2782  0.2708
   79SOPE   C27 7114   5.531   3.076   5.953  0.2472  0.5670  0.3917
   79SOPE   H7R 7115   5.487   3.153   6.021 -1.0350  0.1135  0.0948
   79SOPE   H7S 7116   5.614   3.020   6.003  1.1787  1.7213  0.1971
   79SOPE   C28 7117   5.600   3.144   5.832  0.3798  0.6940  0.3927
   79SOPE   H8R 7118   5.619   3.058   5.764 -3.1665 -0.3581  0.5152
   79SOPE   H8S 7119   5.527   3.203   5.773 -0.1762  1.6830  2.0006
   79SOPE   C29 7120   5.714   3.238   5.856  0.2723  0.7014  0.1593
   79SOPE   H91 7121   5.784   3.210   5.936 -0.2857  0.8844  0.7181
   79SOPE  C210 7122   5.747   3.351   5.785  1.0043  0.3802  0.4948
   79SOPE  H101 7123   5.830   3.418   5.812 -0.0704  1.8222  0.3557
   79SOPE  C211 7124   5.660   3.401   5.669  0.4528  0.7346  1.4085
   79SOPE  H11R 7125   5.563   3.443   5.702 -0.4699 -1.1982  1.3152
   79SOPE  H11S 7126   5.633   3.318   5.600 -2.5186  2.2655  0.5884
   79SOPE  C212 7127   5.731   3.509   5.580  0.5852 -0.0045  0.1512
   79SOPE  H12R 7128   5.802   3.452   5.518 -0.9636 -0.7876 -0.9697
   79SOPE  H12S 7129   5.782   3.588   5.639 -1.1699 -0.0537  1.8441
   79SOPE  C213 7130   5.629   3.576   5.487 -0.1072 -0.4136  0.1742
   79SOPE  H13R 7131   5.585   3.652   5.555  2.3196 -0.3741  1.8211
   79SOPE  H13S 7132   5.556   3.503   5.445 -0.9789  1.0980 -1.0324
   79SOPE  C214 7133   5.701   3.649   5.374 -0.5170 -0.4479  0.7682
   79SOPE  H14R 7134   5.772   3.577   5.327 -0.7985 -0.4045  0.2747
   79SOPE  H14S 7135   5.757   3.738   5.412  0.5124 -0.6013 -0.3267
   79SOPE  C215 7136   5.604   3.693   5.250  0.0464  0.0532 -0.0167
   79SOPE  H15R 7137   5.547   3.780   5.290  0.9247 -0.3233  2.2282
   79SOPE  H15S 7138   5.533   3.608   5.247 -2.8489  2.2305  1.8861
   79SOPE  C216 7139   5.683   3.717   5.128 -0.3774  0.5832 -0.1099
   79SOPE  H16R 7140   5.743   3.628   5.098  0.5702  1.2992 -0.3746
   79SOPE  H16S 7141   5.747   3.806   5.145  0.1667  0.0292  0.8797
   79SOPE  C217 7142   5.592   3.732   5.012  0.2479  0.2614  0.3359
   79SOPE  H17R 7143   5.528   3.821   5.029 -0.0908  0.9292 -3.6316
   79SOPE  H17S 7144   5.517   3.650   5.008 -1.8745  2.1365  0.0033
   79SOPE  C218 7145   5.663   3.740   4.875  0.5460  0.2753  0.0065
   79SOPE  H18R 7146   5.756   3.801   4.877  1.3716 -0.8889 -1.5068
   79SOPE  H18S 7147   5.603   3.792   4.796  1.1160  0.8845 -0.0369
   79SOPE  H18T 7148   5.688   3.639   4.837 -1.0268 -0.5929  1.1646
   79SOPE   C33 7149   5.837   2.236   5.920 -0.2356  0.4013  0.6644
   79SOPE   H3X 7150   5.745   2.226   5.981 -0.1688 -0.5584  0.6196
   79SOPE   H3Y 7151   5.874   2.137   5.884  0.8595  1.1404 -0.3361
   79SOPE   C34 7152   5.808   2.333   5.807  0.1239 -0.2609 -0.9667
   79SOPE   H4X 7153   5.905   2.373   5.770  0.7863 -1.6838 -0.8552
   79SOPE   H4Y 7154   5.743   2.420   5.831 -0.1275 -0.6224 -0.3210
   79SOPE   C35 7155   5.728   2.255   5.704 -0.0227  0.3181 -0.0047
   79SOPE   H5X 7156   5.629   2.243   5.752  0.5417  0.2455  1.1836
   79SOPE   H5Y 7157   5.770   2.154   5.684  2.4096  0.6939  2.6114
   79SOPE   C36 7158   5.703   2.331   5.569  0.3291  0.0966 -0.1061
   79SOPE   H6X 7159   5.796   2.364   5.518 -0.1992  2.6094  0.3828
   79SOPE   H6Y 7160   5.642   2.420   5.597 -0.9918 -0.7280 -0.2833
   79SOPE   C37 7161   5.613   2.252   5.469  0.1497  0.1008 -0.3130
   79SOPE   H7X 7162   5.520   2.219   5.521  0.1956  2.3605  1.3503
   79SOPE   H7Y 7163   5.661   2.165   5.419 -0.6523 -0.7252  0.3044
   79SOPE   C38 7164   5.566   2.351   5.361  0.5512  0.3429 -0.1180
   79SOPE   H8X 7165   5.661   2.398   5.331 -1.1903  2.3360 -2.9740
   79SOPE   H8Y 7166   5.492   2.423   5.404 -1.5980 -2.0406  0.4417
   79SOPE   C39 7167   5.497   2.265   5.246 -0.5121  0.3527  0.5235
   79SOPE   H9X 7168   5.433   2.187   5.293 -1.9297  0.8623 -0.5037
   79SOPE   H9Y 7169   5.581   2.213   5.196 -1.0553  0.1791 -0.2187
   79SOPE  C310 7170   5.428   2.347   5.141  0.2543 -0.5597  0.3336
   79SOPE  H10X 7171   5.363   2.424   5.187  1.5879  0.2995  0.8239
   79SOPE  H10Y 7172   5.372   2.276   5.077 -0.8870  0.2633  0.3784
   79SOPE  C311 7173   5.520   2.438   5.055  0.0063  0.6441  0.6137
   79SOPE  H11X 7174   5.567   2.364   4.987 -1.2767 -0.1844  0.5943
   79SOPE  H11Y 7175   5.603   2.482   5.114  0.8151  1.3214 -0.9568
   79SOPE  C312 7176   5.454   2.549   4.976 -0.0588 -0.0634  0.2137
   79SOPE  H12X 7177   5.535   2.599   4.919  0.0265 -0.8517 -0.3714
   79SOPE  H12Y 7178   5.406   2.623   5.044 -2.3902 -3.5430  2.7684
   79SOPE  C313 7179   5.351   2.508   4.862 -0.5667 -0.1976  0.1240
   79SOPE  H13X 7180   5.399   2.445   4.784 -0.5222 -0.4229  0.3315
   79SOPE  H13Y 7181   5.330   2.601   4.805  1.0813  0.6163  0.7767
   79SOPE  C314 7182   5.214   2.460   4.910  0.2569  0.6045 -0.2759
   79SOPE  H14X 7183   5.179   2.516   4.999 -0.1236 -0.4349  0.2491
   79SOPE  H14Y 7184   5.224   2.352   4.937  0.6829  0.4485 -1.0162
   79SOPE  C315 7185   5.097   2.480   4.808 -0.2167  0.0676  0.4044
   79SOPE  H15X 7186   5.093   2.585   4.772 -2.6551  0.2921  1.1107
   79SOPE  H15Y 7187   4.996   2.453   4.847 -1.1526  0.3907 -1.6814
   79SOPE  C316 7188   5.105   2.391   4.686  0.6322  1.4210  0.2990
   79SOPE  H16X 7189   5.116   2.284   4.715  1.6631  1.5157  0.2914
   79SOPE  H16Y 7190   5.199   2.414   4.631  0.3381  0.7777 -0.4987
   79SOPE  C317 7191   4.987   2.412   4.588  0.7973  0.5439  0.2840
   79SOPE  H17X 7192   4.968   2.521   4.581  0.2316  0.3969 -0.6175
   79SOPE  H17Y 7193   4.901   2.356   4.631 -0.6621  0.7911 -2.1257
   79SOPE  C318 7194   5.019   2.364   4.448  0.3694  0.3430  0.1232
   79SOPE  H18X 7195   5.105   2.426   4.416  0.3831  0.3976  0.2650
   79SOPE  H18Y 7196   4.934   2.397   4.385 -0.5274 -0.9054  0.6317
   79SOPE  H18Z 7197   5.045   2.256   4.444 -2.7122 -0.4527 -1.2586
   80SOPE     N 7198   1.623   4.252   6.857 -0.3396  0.9360  0.5381
   80SOPE   HN1 7199   1.585   4.203   6.773  4.7504 -0.5016 -1.3162
   80SOPE   HN2 7200   1.719   4.271   6.821 -0.4870 -1.1557 -1.1310
   80SOPE   HN3 7201   1.644   4.187   6.935  2.6557  1.0717 -0.0198
   80SOPE   C12 7202   1.562   4.381   6.897 -0.3676  0.3563  0.6505
   80SOPE  H12A 7203   1.577   4.391   7.007 -0.4127 -0.6720  0.7636
   80SOPE  H12B 7204   1.453   4.373   6.875 -0.0748 -3.4597 -0.1223
   80SOPE   C11 7205   1.638   4.493   6.822  0.2516  0.0077 -0.6393
   80SOPE  H11A 7206   1.595   4.589   6.859 -1.6300 -1.4371  1.1110
   80SOPE  H11B 7207   1.625   4.491   6.712  0.9076  0.7139 -0.7412
   80SOPE     P 7208   1.840   4.572   6.976  0.3005 -0.1153 -0.2510
   80SOPE   O13 7209   1.940   4.491   7.047  0.1130 -0.3697  0.1705
   80SOPE   O14 7210   1.729   4.618   7.062 -0.0750  0.3456 -0.1703
   80SOPE   O12 7211   1.777   4.498   6.853 -0.0324 -0.3716  0.1899
   80SOPE   O11 7212   1.906   4.702   6.908  0.1817 -0.0582 -0.0053
   80SOPE    C1 7213   1.861   4.771   6.798  0.4764  0.3812  0.2900
   80SOPE    HA 7214   1.896   4.877   6.801  0.3231  0.4875 -1.1504
   80SOPE    HB 7215   1.750   4.781   6.794  0.4644  0.2209  0.2421
   80SOPE    C2 7216   1.908   4.710   6.669 -0.4632  0.0535  0.1718
   80SOPE    HS 7217   1.871   4.606   6.654 -1.6849  0.7120 -1.9485
   80SOPE   O21 7218   2.054   4.715   6.668  0.6337 -0.1957 -0.4577
   80SOPE   C21 7219   2.115   4.617   6.601  0.7620  0.4942  0.7117
   80SOPE   O22 7220   2.060   4.520   6.549 -0.1433 -0.0457 -0.4643
   80SOPE   C22 7221   2.264   4.654   6.594  0.0424 -0.1525  0.0318
   80SOPE   H2R 7222   2.314   4.606   6.681  0.0481  0.2999  0.2807
   80SOPE   H2S 7223   2.264   4.762   6.619 -2.3155 -0.3670  1.2307
   80SOPE    C3 7224   1.845   4.786   6.543 -0.2521 -0.0783 -0.1106
   80SOPE    HX 7225   1.734   4.781   6.533 -0.3957  3.2121 -1.2050
   80SOPE    HY 7226   1.877   4.747   6.444 -1.3423  0.4063 -0.6777
   80SOPE   O31 7227   1.872   4.927   6.530  0.0369 -0.4637 -0.4300
   80SOPE   C31 7228   1.992   4.973   6.481  0.4356  0.5875  0.0093
   80SOPE   O32 7229   2.077   4.895   6.444 -0.2361  0.2711 -0.0596
   80SOPE   C32 7230   1.987   5.131   6.463 -0.0989 -0.1606  0.1910
   80SOPE   H2X 7231   1.988   5.176   6.565 -4.6644  2.5959 -0.7251
   80SOPE   H2Y 7232   1.889   5.144   6.412 -1.6028 -1.6585  2.5185
   80SOPE   C23 7233   2.332   4.612   6.466 -0.0702 -0.0944  0.4956
   80SOPE   H3R 7234   2.428   4.667   6.471  0.3235 -0.7795  0.5932
   80SOPE   H3S 7235   2.278   4.634   6.372  0.4145 -0.1167  0.2117
   80SOPE   C24 7236   2.381   4.466   6.468 -0.1599  0.4026  0.0604
   80SOPE   H4R 7237   2.423   4.445   6.569  0.6931  0.0127 -0.3649
   80SOPE   H4S 7238   2.300   4.395   6.442 -1.8706  1.5214  2.0360
   80SOPE   C25 7239   2.510   4.444   6.379 -0.1806  0.0464  0.0057
   80SOPE   H5R 7240   2.475   4.441   6.274  0.5899 -0.6402 -0.2377
   80SOPE   H5S 7241   2.574   4.534   6.386 -1.8408  1.3568 -0.8183
   80SOPE   C26 7242   2.584   4.310   6.410 -0.0321 -0.0191  0.0314
   80SOPE   H6R 7243   2.658   4.307   6.327  0.2926 -2.4656  0.3350
   80SOPE   H6S 7244   2.628   4.317   6.511 -0.2916  0.4018  0.1182
   80SOPE   C27 7245   2.509   4.183   6.401  0.1672 -0.4070  0.5753
   80SOPE   H7R 7246   2.415   4.186   6.460 -0.5300 -2.3731 -0.3466
   80SOPE   H7S 7247   2.484   4.175   6.293  1.1652  1.2757  0.1858
   80SOPE   C28 7248   2.588   4.053   6.423 -0.2922 -0.3649  0.0997
   80SOPE   H8R 7249   2.595   4.032   6.532  0.7720 -3.5153 -0.4607
   80SOPE   H8S 7250   2.517   3.985   6.372 -1.1793  0.4655  0.2103
   80SOPE   C29 7251   2.721   4.077   6.350  0.3938  0.5620  0.6613
   80SOPE   H91 7252   2.800   4.115   6.417 -0.0574 -1.8732  2.7678
   80SOPE  C210 7253   2.754   4.043   6.225 -0.4844 -0.9580  0.0610
   80SOPE  H101 7254   2.857   4.061   6.191 -0.6555  1.7943  0.7916
   80SOPE  C211 7255   2.667   3.970   6.130  0.1018 -0.4014 -0.4406
   80SOPE  H11R 7256   2.594   3.903   6.181  0.2063 -0.3612 -0.2379
   80SOPE  H11S 7257   2.728   3.895   6.076 -0.5045 -1.0772 -0.2056
   80SOPE  C212 7258   2.592   4.057   6.031 -0.3168  0.0189  0.0299
   80SOPE  H12R 7259   2.550   4.145   6.084 -0.5786  0.3250 -0.6673
   80SOPE  H12S 7260   2.502   4.005   5.991 -1.8572  3.0943 -0.8129
   80SOPE  C213 7261   2.693   4.100   5.923 -0.1718  0.7355 -0.9482
   80SOPE  H13R 7262   2.758   4.012   5.903  1.4777  2.0299 -1.5496
   80SOPE  H13S 7263   2.758   4.183   5.959 -4.0934  3.2934  0.8788
   80SOPE  C214 7264   2.642   4.138   5.783 -0.6682  0.0640  0.5048
   80SOPE  H14R 7265   2.613   4.245   5.785  1.5632  0.7064  0.1947
   80SOPE  H14S 7266   2.552   4.075   5.765 -2.1333  1.4159  2.6723
   80SOPE  C215 7267   2.739   4.120   5.666 -0.2863  0.2451 -0.2353
   80SOPE  H15R 7268   2.792   4.022   5.663 -1.0787 -0.1814 -0.7411
   80SOPE  H15S 7269   2.814   4.200   5.685 -0.6137  0.1820  1.4862
   80SOPE  C216 7270   2.689   4.146   5.524  0.3402 -0.4019  0.1364
   80SOPE  H16R 7271   2.651   4.251   5.523 -2.0199 -1.1979  0.2214
   80SOPE  H16S 7272   2.604   4.079   5.501  0.9217 -1.2596  0.4644
   80SOPE  C217 7273   2.791   4.137   5.411 -0.2561  1.2890  0.3410
   80SOPE  H17R 7274   2.838   4.036   5.408  0.0693  1.4538 -0.6752
   80SOPE  H17S 7275   2.882   4.196   5.437  1.4109 -1.5926  1.5260
   80SOPE  C218 7276   2.739   4.162   5.272 -0.2267  0.2864  0.8979
   80SOPE  H18R 7277   2.643   4.107   5.259 -0.2434  0.4253  0.3945
   80SOPE  H18S 7278   2.817   4.142   5.195 -1.7362  1.1002 -0.9374
   80SOPE  H18T 7279   2.714   4.270   5.269  2.0762  0.8902  1.7080
   80SOPE   C33 7280   2.099   5.202   6.382 -0.3723  0.0258 -0.0176
   80SOPE   H3X 7281   2.203   5.186   6.417 -0.5532 -1.0877  0.0377
   80SOPE   H3Y 7282   2.075   5.310   6.395  1.3799  0.3175  1.0910
   80SOPE   C34 7283   2.089   5.177   6.221 -0.0904 -1.3656 -0.2333
   80SOPE   H4X 7284   1.997   5.220   6.175  2.1737  3.9449 -0.4938
   80SOPE   H4Y 7285   2.109   5.071   6.194  0.8784 -1.4861  0.9177
   80SOPE   C35 7286   2.198   5.273   6.159 -0.0313  0.6020 -0.2590
   80SOPE   H5X 7287   2.285   5.258   6.226 -0.2226  0.8621  0.0491
   80SOPE   H5Y 7288   2.162   5.379   6.161 -0.4245  0.4671 -0.1391
   80SOPE   C36 7289   2.242   5.231   6.021 -1.2140 -0.4728 -0.3251
   80SOPE   H6X 7290   2.159   5.173   5.975 -1.8151 -0.5304  0.7947
   80SOPE   H6Y 7291   2.324   5.157   6.034 -1.4822 -1.0274 -1.6247
   80SOPE   C37 7292   2.284   5.344   5.931  0.1023 -0.4489  0.7797
   80SOPE   H7X 7293   2.364   5.400   5.983 -1.5308  3.1615 -0.3087
   80SOPE   H7Y 7294   2.194   5.408   5.935  0.2453 -0.2461  0.7429
   80SOPE   C38 7295   2.300   5.295   5.785 -0.0350  0.1463 -0.5615
   80SOPE   H8X 7296   2.223   5.219   5.761  0.6193 -0.9670  0.7281
   80SOPE   H8Y 7297   2.398   5.241   5.783 -0.4628 -0.7888  1.2523
   80SOPE   C39 7298   2.311   5.398   5.680  0.3329  1.0561  0.2674
   80SOPE   H9X 7299   2.403   5.461   5.682  0.4342  0.9033  0.4645
   80SOPE   H9Y 7300   2.233   5.478   5.681 -0.0857  0.6695 -0.8321
   80SOPE  C310 7301   2.311   5.338   5.541 -0.2613  0.0906  0.1486
   80SOPE  H10X 7302   2.228   5.266   5.529  1.6384 -2.1648 -0.2919
   80SOPE  H10Y 7303   2.400   5.275   5.516 -0.3347  0.4445 -1.0764
   80SOPE  C311 7304   2.294   5.432   5.424 -1.0375  0.5128 -0.2756
   80SOPE  H11X 7305   2.382   5.501   5.421  0.2012 -1.0250 -0.6787
   80SOPE  H11Y 7306   2.203   5.493   5.443  0.0989  1.6302  1.9251
   80SOPE  C312 7307   2.295   5.351   5.288  0.4114  0.8400 -0.7071
   80SOPE  H12X 7308   2.207   5.283   5.281 -1.5117  3.0408  0.5212
   80SOPE  H12Y 7309   2.382   5.282   5.282 -1.0227 -0.9466 -2.8151
   80SOPE  C313 7310   2.307   5.441   5.166 -0.2402  0.6749 -0.1893
   80SOPE  H13X 7311   2.387   5.516   5.185  1.5564 -0.8523 -1.4141
   80SOPE  H13Y 7312   2.215   5.501   5.151 -1.9012 -2.2571 -2.9732
   80SOPE  C314 7313   2.343   5.365   5.034  0.9596 -0.8976  0.2573
   80SOPE  H14X 7314   2.255   5.297   5.030 -0.6277  1.0540 -0.0480
   80SOPE  H14Y 7315   2.438   5.310   5.044 -1.4189 -5.2913  1.1716
   80SOPE  C315 7316   2.326   5.453   4.905  0.1841  0.1072  0.1317
   80SOPE  H15X 7317   2.218   5.474   4.894 -0.1669 -1.3585  0.5797
   80SOPE  H15Y 7318   2.355   5.384   4.823 -1.4822 -0.9106  0.3523
   80SOPE  C316 7319   2.398   5.590   4.902  0.6021  0.2195  0.0297
   80SOPE  H16X 7320   2.340   5.651   4.974 -3.3712  0.0225 -2.6494
   80SOPE  H16Y 7321   2.373   5.634   4.803  1.4924 -1.0800 -0.8109
   80SOPE  C317 7322   2.550   5.585   4.924 -0.1083  0.5263 -0.4959
   80SOPE  H17X 7323   2.581   5.498   4.864 -0.3763  0.1101 -0.0407
   80SOPE  H17Y 7324   2.554   5.563   5.033  0.4795 -0.2521 -0.6712
   80SOPE  C318 7325   2.614   5.720   4.882 -0.3820 -0.3198 -0.3416
   80SOPE  H18X 7326   2.576   5.804   4.943  2.2812  1.4151 -0.8984
   80SOPE  H18Y 7327   2.580   5.739   4.778 -0.9861  0.1955 -0.0546
   80SOPE  H18Z 7328   2.725   5.724   4.888 -0.3988  2.9871 -0.8512
   81SOPE     N 7329   1.116   0.918   6.718 -0.2457 -0.1594 -0.0974
   81SOPE   HN1 7330   1.111   0.863   6.806  0.9352 -0.4263 -0.1765
   81SOPE   HN2 7331   1.098   0.853   6.639  0.4476  0.1215 -0.5012
   81SOPE   HN3 7332   1.215   0.949   6.714  0.2632 -1.6480  0.4540
   81SOPE   C12 7333   1.012   1.034   6.726  0.0309  0.3331 -0.4367
   81SOPE  H12A 7334   0.919   0.986   6.763  0.7458 -1.1765 -0.5161
   81SOPE  H12B 7335   0.993   1.071   6.623  1.2920  2.4019  0.0198
   81SOPE   C11 7336   1.058   1.150   6.812 -0.1189 -0.2633  0.7348
   81SOPE  H11A 7337   1.077   1.113   6.915  1.2908  0.3237  0.7006
   81SOPE  H11B 7338   0.981   1.230   6.810  1.2077  1.0489 -1.8067
   81SOPE     P 7339   1.321   1.193   6.813 -0.2362  0.4062  0.4329
   81SOPE   O13 7340   1.352   1.052   6.781  0.0432 -0.4009  0.5328
   81SOPE   O14 7341   1.330   1.236   6.953  0.8166 -0.3327 -0.1229
   81SOPE   O12 7342   1.176   1.215   6.757 -0.3086  0.0787  0.1448
   81SOPE   O11 7343   1.409   1.289   6.722 -0.1851 -0.0230  0.4372
   81SOPE    C1 7344   1.373   1.418   6.688 -0.0270  0.3924  0.0051
   81SOPE    HA 7345   1.455   1.490   6.711  1.2906 -0.2395 -2.3078
   81SOPE    HB 7346   1.277   1.447   6.735 -0.4348 -2.5677  1.1920
   81SOPE    C2 7347   1.349   1.430   6.535  0.2676  0.5354 -0.0343
   81SOPE    HS 7348   1.259   1.375   6.500 -0.9684  2.9032 -0.7756
   81SOPE   O21 7349   1.459   1.380   6.460  0.0370 -0.1611 -0.0083
   81SOPE   C21 7350   1.459   1.254   6.407  0.4200  0.0869 -0.3838
   81SOPE   O22 7351   1.378   1.170   6.439  0.0432  0.1115  0.7683
   81SOPE   C22 7352   1.575   1.236   6.305 -0.3612 -0.2230 -0.1952
   81SOPE   H2R 7353   1.669   1.237   6.364 -2.3588 -0.3673  3.2215
   81SOPE   H2S 7354   1.585   1.336   6.257  0.0156 -0.1720 -0.0204
   81SOPE    C3 7355   1.320   1.573   6.485 -0.5191  0.1979 -0.1340
   81SOPE    HX 7356   1.407   1.639   6.508 -0.8756 -0.0201  2.0596
   81SOPE    HY 7357   1.236   1.621   6.540 -0.1162  0.3238  0.3826
   81SOPE   O31 7358   1.295   1.581   6.344  0.1114  0.0327 -0.1834
   81SOPE   C31 7359   1.179   1.617   6.291  0.4225 -0.0180  0.8291
   81SOPE   O32 7360   1.076   1.632   6.356 -0.0754 -0.1898 -0.0160
   81SOPE   C32 7361   1.191   1.628   6.144 -0.1836 -0.2911  0.4770
   81SOPE   H2X 7362   1.217   1.528   6.104 -1.7162 -1.1226  1.4347
   81SOPE   H2Y 7363   1.274   1.699   6.124 -0.4034 -0.3673 -0.8114
   81SOPE   C23 7364   1.558   1.125   6.199  0.1164 -0.1998  0.6219
   81SOPE   H3R 7365   1.453   1.110   6.166  0.8314 -0.8515 -1.4508
   81SOPE   H3S 7366   1.585   1.034   6.256  1.0471 -0.3681 -0.0795
   81SOPE   C24 7367   1.652   1.148   6.083 -0.6335 -0.5244  0.2503
   81SOPE   H4R 7368   1.626   1.250   6.049  2.5171  0.7011  1.1608
   81SOPE   H4S 7369   1.759   1.153   6.111 -1.0659 -2.3665  2.5672
   81SOPE   C25 7370   1.641   1.044   5.977  0.5452  0.8120  0.1215
   81SOPE   H5R 7371   1.649   0.945   6.027 -1.2523  0.5181 -0.0975
   81SOPE   H5S 7372   1.541   1.048   5.929 -0.5366 -0.9725  2.0823
   81SOPE   C26 7373   1.756   1.050   5.870  0.3277 -0.1063 -0.1911
   81SOPE   H6R 7374   1.745   1.148   5.818 -1.3989 -0.6489 -0.9154
   81SOPE   H6S 7375   1.854   1.048   5.922  0.0025 -0.9822  0.3958
   81SOPE   C27 7376   1.747   0.960   5.748 -1.0350  0.6008 -0.1346
   81SOPE   H7R 7377   1.817   0.874   5.760  1.1053  1.8113 -2.7544
   81SOPE   H7S 7378   1.647   0.927   5.713 -0.5173 -1.4381  0.1817
   81SOPE   C28 7379   1.812   1.031   5.619 -0.1522  0.7470 -0.6323
   81SOPE   H8R 7380   1.741   1.113   5.591 -1.4345 -1.1382 -3.3497
   81SOPE   H8S 7381   1.911   1.072   5.647  0.8370  0.1503 -3.0003
   81SOPE   C29 7382   1.824   0.953   5.488 -0.6956 -0.6502 -0.3764
   81SOPE   H91 7383   1.735   0.892   5.469 -2.5045  2.0328 -1.0143
   81SOPE  C210 7384   1.912   0.967   5.389  0.6119 -0.0662 -0.3328
   81SOPE  H101 7385   1.887   0.897   5.307 -0.2811 -0.2832  0.1063
   81SOPE  C211 7386   2.038   1.043   5.385 -0.1819  0.0435 -0.0540
   81SOPE  H11R 7387   2.101   0.992   5.310 -0.4723 -3.0963  1.6601
   81SOPE  H11S 7388   2.093   1.040   5.482  0.6631  0.4817 -0.5075
   81SOPE  C212 7389   2.014   1.188   5.346 -0.0776 -0.6980 -0.4883
   81SOPE  H12R 7390   2.108   1.247   5.343 -1.0210  0.8195 -1.9100
   81SOPE  H12S 7391   1.952   1.230   5.429  0.4289 -0.1286 -0.3890
   81SOPE  C213 7392   1.941   1.214   5.216 -0.3377  0.3970  0.1906
   81SOPE  H13R 7393   1.911   1.321   5.210  0.7817  0.7001 -0.3804
   81SOPE  H13S 7394   1.854   1.145   5.216  0.2438 -0.3541 -0.5173
   81SOPE  C214 7395   2.032   1.185   5.099  0.6194 -0.2760 -0.3746
   81SOPE  H14R 7396   2.138   1.217   5.115 -0.1396  2.0706  0.3574
   81SOPE  H14S 7397   1.990   1.240   5.012 -0.3720 -2.3984 -1.2880
   81SOPE  C215 7398   2.032   1.044   5.036 -0.0192  0.2822  0.1476
   81SOPE  H15R 7399   1.924   1.016   5.031  0.1077 -0.1839 -0.0964
   81SOPE  H15S 7400   2.071   0.972   5.110 -0.4473 -0.5964 -0.4533
   81SOPE  C216 7401   2.099   1.029   4.907  0.0957 -0.4100 -0.1053
   81SOPE  H16R 7402   2.201   1.074   4.910 -0.2518  0.5685 -1.9040
   81SOPE  H16S 7403   2.027   1.082   4.842 -0.7500  0.2542  1.3311
   81SOPE  C217 7404   2.103   0.886   4.866 -0.1336  0.3295  0.1687
   81SOPE  H17R 7405   2.008   0.835   4.890  0.9489 -1.6877  0.3364
   81SOPE  H17S 7406   2.181   0.830   4.921 -1.2663  0.0386  1.5253
   81SOPE  C218 7407   2.107   0.864   4.712  0.1190 -0.2099  0.6078
   81SOPE  H18R 7408   2.201   0.901   4.665 -1.1272  2.1370 -0.2226
   81SOPE  H18S 7409   2.024   0.926   4.671  2.1919  1.9375 -0.5977
   81SOPE  H18T 7410   2.081   0.764   4.673 -2.0169  0.5041  0.0557
   81SOPE   C33 7411   1.048   1.653   6.083 -0.6428  0.5421  0.4792
   81SOPE   H3X 7412   1.019   1.760   6.091  0.5747  0.9195  0.1050
   81SOPE   H3Y 7413   0.983   1.587   6.145 -0.7210 -4.0804 -3.8062
   81SOPE   C34 7414   1.036   1.615   5.936  0.0148  0.4356  0.3716
   81SOPE   H4X 7415   1.114   1.543   5.905 -1.1036 -1.3303  1.5035
   81SOPE   H4Y 7416   1.053   1.705   5.873 -1.9185  0.8226  0.3512
   81SOPE   C35 7417   0.899   1.554   5.892  0.2851  0.2361 -0.0506
   81SOPE   H5X 7418   0.826   1.624   5.939 -0.8605 -0.6253 -0.4881
   81SOPE   H5Y 7419   0.876   1.457   5.942 -3.6229  0.2705 -1.4022
   81SOPE   C36 7420   0.879   1.540   5.743  0.6239 -0.3076  0.7871
   81SOPE   H6X 7421   0.907   1.639   5.701 -0.2991  0.0745  1.0595
   81SOPE   H6Y 7422   0.773   1.520   5.719  0.6287  1.1686 -0.6562
   81SOPE   C37 7423   0.960   1.421   5.689 -0.3199  0.0268 -0.4875
   81SOPE   H7X 7424   0.940   1.329   5.748  0.4276  0.1996  0.0542
   81SOPE   H7Y 7425   1.068   1.443   5.708  0.1530 -1.8973 -0.7647
   81SOPE   C38 7426   0.939   1.395   5.538  0.0115 -0.1861 -0.3578
   81SOPE   H8X 7427   0.968   1.493   5.495 -0.2682 -0.0709 -0.2882
   81SOPE   H8Y 7428   0.831   1.370   5.524 -0.7327  1.8406  1.2188
   81SOPE   C39 7429   1.039   1.290   5.491 -0.0843 -0.3237  1.0697
   81SOPE   H9X 7430   1.041   1.209   5.567 -0.6475 -0.5171  0.8884
   81SOPE   H9Y 7431   1.141   1.332   5.502  0.4630 -1.6300  1.2331
   81SOPE  C310 7432   1.015   1.237   5.352 -0.2323  0.0785 -0.1373
   81SOPE  H10X 7433   1.095   1.183   5.297  0.1347  0.5971 -0.1217
   81SOPE  H10Y 7434   1.012   1.326   5.285  1.6904  1.1043  1.0321
   81SOPE  C311 7435   0.885   1.151   5.349 -0.5949  0.1671 -0.0430
   81SOPE  H11X 7436   0.797   1.207   5.388 -0.0222  0.4517  0.8562
   81SOPE  H11Y 7437   0.891   1.065   5.420  1.2582  0.2951  0.0041
   81SOPE  C312 7438   0.850   1.103   5.212 -0.1849  0.5439  0.2077
   81SOPE  H12X 7439   0.858   1.182   5.134 -0.2680 -0.5899 -0.9715
   81SOPE  H12Y 7440   0.745   1.068   5.215  1.1544 -4.1525 -0.0496
   81SOPE  C313 7441   0.932   0.989   5.145 -0.4551  0.3144  0.8478
   81SOPE  H13X 7442   0.938   0.907   5.220  0.0511 -1.5513 -1.1469
   81SOPE  H13Y 7443   1.030   1.037   5.128 -1.3569  1.8692 -0.1795
   81SOPE  C314 7444   0.893   0.940   5.002  0.4646  0.0645 -0.0796
   81SOPE  H14X 7445   0.886   1.035   4.946  0.8091  0.9231  1.2783
   81SOPE  H14Y 7446   0.795   0.891   5.015 -0.3960  1.9435  0.9538
   81SOPE  C315 7447   0.996   0.835   4.937  0.3227  0.7371  0.0070
   81SOPE  H15X 7448   1.010   0.759   5.017 -2.2921  0.3142  0.1515
   81SOPE  H15Y 7449   1.094   0.885   4.922 -0.9211  3.1158 -0.7922
   81SOPE  C316 7450   0.930   0.758   4.818 -0.5949 -0.1074 -0.5957
   81SOPE  H16X 7451   0.939   0.835   4.739  3.3086 -0.7940 -1.0306
   81SOPE  H16Y 7452   0.830   0.731   4.857  0.1649 -0.1463  1.4210
   81SOPE  C317 7453   1.020   0.647   4.780 -0.6056  0.5883 -0.0749
   81SOPE  H17X 7454   0.961   0.580   4.714  0.2264  0.2752 -0.5111
   81SOPE  H17Y 7455   1.053   0.582   4.864 -1.0242  0.0404 -0.3329
   81SOPE  C318 7456   1.153   0.677   4.705  0.3245  1.0065  0.5890
   81SOPE  H18X 7457   1.218   0.597   4.665  0.7611  1.2122  0.8729
   81SOPE  H18Y 7458   1.212   0.736   4.778  0.0741 -0.7596  2.3010
   81SOPE  H18Z 7459   1.128   0.740   4.616  1.4360  1.1607  0.3791
   82SOPE     N 7460   3.124   0.792   6.833 -0.0839 -0.8338  0.0014
   82SOPE   HN1 7461   3.084   0.706   6.792 -0.1664 -0.5068 -0.6151
   82SOPE   HN2 7462   3.209   0.775   6.889  1.4548  2.7746 -0.9309
   82SOPE   HN3 7463   3.050   0.832   6.894  1.1643  0.2602  0.8546
   82SOPE   C12 7464   3.148   0.901   6.729 -0.6100 -0.6042 -0.1768
   82SOPE  H12A 7465   3.057   0.920   6.669 -0.5128  1.8352  0.3124
   82SOPE  H12B 7466   3.234   0.872   6.665 -0.8050  2.3945 -2.0157
   82SOPE   C11 7467   3.191   1.028   6.801 -0.4483  0.1344  0.1229
   82SOPE  H11A 7468   3.220   1.100   6.722  0.9791 -0.4067  0.1377
   82SOPE  H11B 7469   3.278   0.999   6.863  0.4172  2.1887 -0.0527
   82SOPE     P 7470   3.004   1.203   6.861  0.4244 -0.4473 -0.5960
   82SOPE   O13 7471   3.095   1.320   6.855 -0.7001  0.6470 -0.1678
   82SOPE   O14 7472   2.883   1.206   6.948 -0.7247  0.0358 -0.9330
   82SOPE   O12 7473   3.085   1.068   6.890 -0.1531  0.1476  0.1533
   82SOPE   O11 7474   2.945   1.181   6.713  0.0324 -0.0791 -0.4822
   82SOPE    C1 7475   2.806   1.199   6.692  0.1482 -1.0754 -0.3829
   82SOPE    HA 7476   2.761   1.278   6.755 -0.9843 -1.0601 -1.1979
   82SOPE    HB 7477   2.755   1.102   6.708  1.3204 -1.3952  1.8414
   82SOPE    C2 7478   2.783   1.253   6.546  0.1983  0.0424 -0.3875
   82SOPE    HS 7479   2.845   1.345   6.537  1.9576 -0.7335  2.4285
   82SOPE   O21 7480   2.643   1.283   6.539  0.7511  0.4098  0.0448
   82SOPE   C21 7481   2.602   1.400   6.580 -0.0559 -0.7082 -0.0526
   82SOPE   O22 7482   2.681   1.484   6.630  0.1094 -0.6720 -0.1214
   82SOPE   C22 7483   2.452   1.423   6.543  0.0142  0.6328 -0.3299
   82SOPE   H2R 7484   2.407   1.471   6.633 -0.7873 -1.0316  0.2062
   82SOPE   H2S 7485   2.414   1.320   6.527  1.4429 -0.0505  0.4673
   82SOPE    C3 7486   2.826   1.154   6.428 -0.1771 -0.0442  0.2595
   82SOPE    HX 7487   2.744   1.081   6.410 -1.5010  1.4293  0.0957
   82SOPE    HY 7488   2.916   1.105   6.471  1.8543  2.4993 -0.7769
   82SOPE   O31 7489   2.856   1.225   6.302  0.1970 -0.1336 -0.3161
   82SOPE   C31 7490   2.962   1.304   6.300  0.1132 -0.3085  0.0765
   82SOPE   O32 7491   3.055   1.292   6.382  0.8192  0.2074  0.0661
   82SOPE   C32 7492   2.953   1.393   6.180 -0.7663 -0.2290 -0.7145
   82SOPE   H2X 7493   3.042   1.457   6.198 -2.3429  1.1335  3.5523
   82SOPE   H2Y 7494   2.867   1.464   6.184 -0.8260 -0.1195 -2.9560
   82SOPE   C23 7495   2.430   1.517   6.426  0.9823  0.2140 -0.7935
   82SOPE   H3R 7496   2.469   1.462   6.337 -3.7384 -2.5009 -1.5036
   82SOPE   H3S 7497   2.486   1.612   6.438  1.4809  0.2651 -3.0682
   82SOPE   C24 7498   2.285   1.544   6.408  0.0399 -0.0848  0.3107
   82SOPE   H4R 7499   2.230   1.456   6.368 -0.9427  0.3404  0.6723
   82SOPE   H4S 7500   2.240   1.568   6.507  0.5605 -2.4947  1.2163
   82SOPE   C25 7501   2.252   1.654   6.307 -0.3152 -0.0089  0.0223
   82SOPE   H5R 7502   2.264   1.608   6.207  1.0466  2.8495 -1.2314
   82SOPE   H5S 7503   2.145   1.684   6.321 -0.8716 -0.8789 -2.0062
   82SOPE   C26 7504   2.340   1.775   6.309 -0.4834  0.7083  0.3446
   82SOPE   H6R 7505   2.346   1.806   6.415 -0.0088  0.3021  0.4419
   82SOPE   H6S 7506   2.449   1.759   6.292 -0.7553  0.0408 -0.9267
   82SOPE   C27 7507   2.272   1.890   6.234 -0.0380 -0.4722 -0.7649
   82SOPE   H7R 7508   2.166   1.888   6.268 -0.4698 -0.8488 -2.0953
   82SOPE   H7S 7509   2.320   1.981   6.274  0.8449 -0.9627 -0.6844
   82SOPE   C28 7510   2.284   1.893   6.085  0.0041  0.5796  0.4285
   82SOPE   H8R 7511   2.387   1.930   6.066  0.5242 -0.4761  1.0975
   82SOPE   H8S 7512   2.282   1.788   6.049  0.1401  1.2768 -1.8066
   82SOPE   C29 7513   2.185   1.978   6.021  0.7645 -0.0735  0.6395
   82SOPE   H91 7514   2.083   1.958   6.056  0.1921  0.2612 -0.7822
   82SOPE  C210 7515   2.204   2.075   5.930  0.3440 -0.2812 -0.5616
   82SOPE  H101 7516   2.115   2.122   5.885  0.7150  3.1432  1.8969
   82SOPE  C211 7517   2.340   2.104   5.873  0.4760 -0.0141 -0.3852
   82SOPE  H11R 7518   2.400   2.011   5.861  0.8729  0.0754  0.8211
   82SOPE  H11S 7519   2.394   2.169   5.944  0.9923 -1.9607  1.0718
   82SOPE  C212 7520   2.329   2.184   5.740 -0.2876  0.2608  0.4103
   82SOPE  H12R 7521   2.423   2.236   5.710  0.0568  0.2239  1.3920
   82SOPE  H12S 7522   2.255   2.263   5.766 -2.3199 -0.9097 -1.5134
   82SOPE  C213 7523   2.273   2.099   5.624  0.7429 -0.2183  0.3221
   82SOPE  H13R 7524   2.170   2.065   5.652  0.3599  0.2066 -0.5374
   82SOPE  H13S 7525   2.334   2.006   5.618  0.9613 -0.2678  2.4249
   82SOPE  C214 7526   2.249   2.168   5.481 -0.5685 -0.0821  0.3950
   82SOPE  H14R 7527   2.346   2.196   5.436 -0.9463 -0.3105 -0.5790
   82SOPE  H14S 7528   2.198   2.266   5.494  1.6483  0.9756  1.6315
   82SOPE  C215 7529   2.163   2.083   5.384 -0.0588  0.4643  0.2470
   82SOPE  H15R 7530   2.063   2.075   5.432  1.6245 -0.7540  3.9280
   82SOPE  H15S 7531   2.208   1.984   5.363  3.3687  2.0773 -0.8272
   82SOPE  C216 7532   2.135   2.146   5.241 -0.0285  1.0629  0.2602
   82SOPE  H16R 7533   2.232   2.192   5.213  0.0788  0.4522 -0.4117
   82SOPE  H16S 7534   2.060   2.228   5.240  0.1485  1.2326  0.7942
   82SOPE  C217 7535   2.088   2.043   5.135 -0.5496 -0.7003 -0.0662
   82SOPE  H17R 7536   1.995   2.006   5.183  0.1247 -0.7771  1.2389
   82SOPE  H17S 7537   2.147   1.949   5.131  0.4268 -0.1336  0.5525
   82SOPE  C218 7538   2.051   2.102   5.000  0.8305 -0.2313  0.0280
   82SOPE  H18R 7539   2.137   2.151   4.949  0.4723 -1.2263 -1.5973
   82SOPE  H18S 7540   1.968   2.175   5.013  0.3304 -0.5217 -1.3577
   82SOPE  H18T 7541   2.011   2.022   4.935 -1.0921 -0.4834  1.4399
   82SOPE   C33 7542   2.957   1.319   6.041 -0.3180  0.2930 -0.1355
   82SOPE   H3X 7543   2.874   1.246   6.050 -0.5705  0.6842  0.8873
   82SOPE   H3Y 7544   3.053   1.263   6.036 -0.5313 -0.3418  1.9003
   82SOPE   C34 7545   2.952   1.408   5.914 -0.2000  0.0839  0.9356
   82SOPE   H4X 7546   3.045   1.468   5.910 -2.2540  3.4639 -1.0435
   82SOPE   H4Y 7547   2.868   1.480   5.913 -0.9674 -0.7862  0.6657
   82SOPE   C35 7548   2.941   1.334   5.783  0.2410 -0.1660 -0.2885
   82SOPE   H5X 7549   2.840   1.288   5.780 -1.0293  2.4017  0.2659
   82SOPE   H5Y 7550   3.013   1.250   5.775  0.3948 -0.2864  1.7859
   82SOPE   C36 7551   2.964   1.426   5.669 -0.1312  0.2871 -0.6192
   82SOPE   H6X 7552   3.073   1.436   5.645  0.1160 -2.1665 -0.7631
   82SOPE   H6Y 7553   2.927   1.529   5.688  0.5876  0.2736  1.0034
   82SOPE   C37 7554   2.904   1.378   5.538 -0.1786 -0.2369 -0.4865
   82SOPE   H7X 7555   2.797   1.354   5.555  0.2563 -3.6270 -1.7676
   82SOPE   H7Y 7556   2.969   1.290   5.518  1.4744  1.0267 -0.9561
   82SOPE   C38 7557   2.926   1.482   5.424  0.0831  0.2051 -0.1072
   82SOPE   H8X 7558   3.029   1.521   5.435  0.4522 -0.5683 -0.7472
   82SOPE   H8Y 7559   2.858   1.568   5.441 -0.7101 -0.5589  0.7895
   82SOPE   C39 7560   2.902   1.426   5.284 -0.0598  0.0910  0.6419
   82SOPE   H9X 7561   2.795   1.394   5.278 -0.1321  0.3663  0.4377
   82SOPE   H9Y 7562   2.966   1.337   5.271 -0.5905 -0.1432 -0.5093
   82SOPE  C310 7563   2.929   1.536   5.176 -0.5064  0.1614 -0.1333
   82SOPE  H10X 7564   3.030   1.570   5.208 -1.5441  0.3408  3.3500
   82SOPE  H10Y 7565   2.861   1.623   5.180  2.1857  2.5594 -2.1065
   82SOPE  C311 7566   2.924   1.478   5.035 -0.0840 -0.3293  0.0380
   82SOPE  H11X 7567   2.820   1.444   5.014  0.7376 -2.5795 -0.7144
   82SOPE  H11Y 7568   2.998   1.395   5.034  1.1572  0.7546 -0.7532
   82SOPE  C312 7569   2.964   1.585   4.938  0.1170  0.0707 -0.0446
   82SOPE  H12X 7570   3.056   1.639   4.970 -0.4092  0.7718  0.3218
   82SOPE  H12Y 7571   2.876   1.652   4.933 -0.0698 -0.2538 -1.8087
   82SOPE  C313 7572   2.993   1.545   4.788  0.4281 -0.2540  0.1584
   82SOPE  H13X 7573   2.897   1.502   4.752 -1.0130  1.2772  1.9581
   82SOPE  H13Y 7574   3.068   1.464   4.785 -1.2778 -1.8683 -0.9194
   82SOPE  C314 7575   3.019   1.656   4.684  0.2236  0.4754  0.0206
   82SOPE  H14X 7576   2.932   1.722   4.666  0.4521  0.4011 -1.4252
   82SOPE  H14Y 7577   3.046   1.607   4.588 -1.0558 -0.5159  0.1341
   82SOPE  C315 7578   3.137   1.753   4.717  0.0194  0.1115  0.4215
   82SOPE  H15X 7579   3.099   1.824   4.793  0.4223  0.7499  0.0347
   82SOPE  H15Y 7580   3.153   1.811   4.624  0.5778 -1.2349 -0.3617
   82SOPE  C316 7581   3.266   1.677   4.761  0.2907  0.3583  0.0535
   82SOPE  H16X 7582   3.297   1.610   4.678  0.5331 -0.9201  1.1506
   82SOPE  H16Y 7583   3.243   1.612   4.848 -2.0643 -1.5136 -1.8045
   82SOPE  C317 7584   3.364   1.782   4.807  0.2228 -0.0499  0.4623
   82SOPE  H17X 7585   3.315   1.862   4.866  0.8664  1.0773 -0.5125
   82SOPE  H17Y 7586   3.397   1.841   4.719  4.7229 -2.1917  0.4143
   82SOPE  C318 7587   3.486   1.744   4.882 -0.2801 -0.1314 -0.2354
   82SOPE  H18X 7588   3.572   1.813   4.867  0.0869 -0.7044 -0.8285
   82SOPE  H18Y 7589   3.512   1.640   4.851 -1.1378 -0.1178 -1.0417
   82SOPE  H18Z 7590   3.480   1.733   4.992  0.0215 -0.0214 -0.2067
   83SOPE     N 7591   0.037   5.829   2.233 -0.4333  0.5415  0.1013
   83SOPE   HN1 7592   0.064   5.876   2.322  0.6626 -1.3851  0.8645
   83SOPE   HN2 7593   0.130   5.803   2.193 -0.3921 -1.2526  1.2541
   83SOPE   HN3 7594  -0.012   5.906   2.184 -0.7142 -0.4652 -1.2682
   83SOPE   C12 7595  -0.023   5.696   2.251  0.5257 -0.3246 -0.2882
   83SOPE  H12A 7596  -0.021   5.634   2.158 -2.3595 -2.3612  0.8196
   83SOPE  H12B 7597  -0.131   5.709   2.277  0.2427 -1.3649 -0.8670
   83SOPE   C11 7598   0.040   5.614   2.360  0.3660 -0.4116 -0.0485
   83SOPE  H11A 7599  -0.025   5.527   2.381 -3.1047  1.5943 -1.5420
   83SOPE  H11B 7600   0.049   5.674   2.453 -2.4643  3.6090 -2.0578
   83SOPE     P 7601   0.203   5.422   2.273  0.0544  0.1063  0.1260
   83SOPE   O13 7602   0.348   5.417   2.247 -0.5696  0.7833  0.4773
   83SOPE   O14 7603   0.122   5.383   2.154 -0.4213 -0.6216 -0.1163
   83SOPE   O12 7604   0.167   5.573   2.308 -0.4823  0.2783 -0.9640
   83SOPE   O11 7605   0.171   5.327   2.392 -0.5798 -0.0510 -0.3669
   83SOPE    C1 7606   0.244   5.374   2.509  0.0108  0.4579 -0.2141
   83SOPE    HA 7607   0.244   5.483   2.529  0.2026  0.1595  1.5520
   83SOPE    HB 7608   0.350   5.342   2.506  0.2051  0.8935  1.2730
   83SOPE    C2 7609   0.191   5.296   2.638  0.3672  0.1451 -0.0874
   83SOPE    HS 7610   0.193   5.188   2.611  2.4097 -0.0627  0.7253
   83SOPE   O21 7611   0.060   5.342   2.671  0.4380  0.2386 -0.0706
   83SOPE   C21 7612  -0.032   5.243   2.700  0.1032 -0.1078  0.1855
   83SOPE   O22 7613  -0.014   5.126   2.699  0.5963  0.6501  0.0599
   83SOPE   C22 7614  -0.162   5.294   2.766 -0.4214 -0.0250 -0.1889
   83SOPE   H2R 7615  -0.194   5.231   2.853 -0.4268  1.0111  0.5718
   83SOPE   H2S 7616  -0.235   5.292   2.682 -0.9687  1.1311  0.2455
   83SOPE    C3 7617   0.281   5.314   2.763 -0.4579  0.0523  0.4734
   83SOPE    HX 7618   0.291   5.422   2.786  0.8347  0.0517 -0.0303
   83SOPE    HY 7619   0.384   5.282   2.739 -0.3546 -0.0579  1.0587
   83SOPE   O31 7620   0.237   5.251   2.880 -0.0178  0.4297 -0.1072
   83SOPE   C31 7621   0.230   5.118   2.876 -0.2987  0.1807  0.1881
   83SOPE   O32 7622   0.269   5.043   2.789  0.1377  0.1825  0.2653
   83SOPE   C32 7623   0.156   5.067   3.000  0.0048  0.2121  0.1307
   83SOPE   H2X 7624   0.058   5.117   2.983 -0.0974 -0.8803 -3.1176
   83SOPE   H2Y 7625   0.205   5.107   3.092  1.4909  0.1896 -0.6233
   83SOPE   C23 7626  -0.140   5.439   2.819 -0.1756 -0.4285 -0.0584
   83SOPE   H3R 7627  -0.238   5.483   2.849  1.1704  0.9161  2.7538
   83SOPE   H3S 7628  -0.098   5.502   2.738  0.5299 -0.3581  0.3539
   83SOPE   C24 7629  -0.058   5.457   2.941 -0.3803  0.4950 -0.0705
   83SOPE   H4R 7630   0.046   5.425   2.924 -0.7465 -1.5377  1.1914
   83SOPE   H4S 7631  -0.055   5.568   2.953 -1.2793  0.8092 -2.3293
   83SOPE   C25 7632  -0.132   5.397   3.058 -0.2343 -0.1731 -0.7871
   83SOPE   H5R 7633  -0.236   5.438   3.060  0.1520  1.1342  3.5395
   83SOPE   H5S 7634  -0.143   5.287   3.053 -2.1732 -0.1278  0.9077
   83SOPE   C26 7635  -0.057   5.430   3.193 -0.3746  0.4301  0.4848
   83SOPE   H6R 7636   0.032   5.364   3.194  0.6808  1.7833 -0.1302
   83SOPE   H6S 7637  -0.029   5.538   3.184 -1.0297  0.5097 -0.8463
   83SOPE   C27 7638  -0.144   5.417   3.315  0.1426 -0.2401  0.2274
   83SOPE   H7R 7639  -0.178   5.518   3.345  1.1091  0.1162  0.1552
   83SOPE   H7S 7640  -0.223   5.342   3.292  1.4242 -1.5732  0.0206
   83SOPE   C28 7641  -0.082   5.344   3.438 -0.2959 -0.6206  0.3909
   83SOPE   H8R 7642  -0.157   5.299   3.505  0.4789 -1.4048  0.7530
   83SOPE   H8S 7643  -0.026   5.263   3.385 -0.9565  0.5256 -2.2380
   83SOPE   C29 7644   0.023   5.424   3.513 -0.1498  0.0264 -0.9658
   83SOPE   H91 7645   0.117   5.445   3.459  0.2957 -1.3330 -0.7526
   83SOPE  C210 7646   0.021   5.457   3.646  1.1658 -0.5502  0.1941
   83SOPE  H101 7647   0.107   5.509   3.692  1.9942 -0.3294 -1.5038
   83SOPE  C211 7648  -0.095   5.412   3.734 -0.6367 -0.1326 -0.4054
   83SOPE  H11R 7649  -0.112   5.305   3.708  1.2076 -0.5690  0.0075
   83SOPE  H11S 7650  -0.187   5.466   3.703 -1.6563 -2.0124 -0.8112
   83SOPE  C212 7651  -0.067   5.425   3.886 -0.1418  0.1613 -0.0605
   83SOPE  H12R 7652  -0.051   5.528   3.925 -3.0532 -0.4742  3.4714
   83SOPE  H12S 7653   0.025   5.365   3.905  0.3262  1.1980  1.1340
   83SOPE  C213 7654  -0.191   5.383   3.969 -0.6095 -0.2935  0.5664
   83SOPE  H13R 7655  -0.217   5.280   3.938  0.3007  0.4485 -3.2031
   83SOPE  H13S 7656  -0.263   5.454   3.924  0.1128  1.0359  1.4316
   83SOPE  C214 7657  -0.178   5.410   4.120 -0.1033  0.1885 -0.6740
   83SOPE  H14R 7658  -0.275   5.380   4.166  0.2236 -1.2158 -0.8571
   83SOPE  H14S 7659  -0.164   5.519   4.136 -1.3603  0.4556 -1.2753
   83SOPE  C215 7660  -0.063   5.331   4.177 -0.0115  0.1403 -0.0182
   83SOPE  H15R 7661   0.032   5.358   4.126  1.1085  0.2383  2.0518
   83SOPE  H15S 7662  -0.073   5.221   4.172 -2.5700  0.3688 -1.4882
   83SOPE  C216 7663  -0.041   5.378   4.322 -0.4426  0.0767  0.1104
   83SOPE  H16R 7664  -0.144   5.385   4.364 -0.8408  0.8235 -0.9355
   83SOPE  H16S 7665   0.002   5.481   4.323 -2.0295  0.7795 -0.1082
   83SOPE  C217 7666   0.042   5.284   4.407  0.3371  0.7072  0.2211
   83SOPE  H17R 7667   0.011   5.179   4.390 -0.0834  0.9049 -0.2538
   83SOPE  H17S 7668   0.005   5.294   4.511 -0.8365 -0.0910 -0.1001
   83SOPE  C218 7669   0.195   5.288   4.403  0.6449 -0.5273  0.3063
   83SOPE  H18R 7670   0.234   5.226   4.486  0.3324 -2.4513 -0.9409
   83SOPE  H18S 7671   0.234   5.388   4.433  0.6630 -1.4014  3.5587
   83SOPE  H18T 7672   0.230   5.268   4.300 -1.0502 -0.9787 -0.2110
   83SOPE   C33 7673   0.157   4.911   3.008 -0.0411  0.2048  0.1507
   83SOPE   H3X 7674   0.262   4.878   3.009 -0.2438 -0.4293  0.9683
   83SOPE   H3Y 7675   0.113   4.882   2.910  2.5341  0.5945 -1.2085
   83SOPE   C34 7676   0.072   4.857   3.130 -0.9544 -0.0818 -0.1691
   83SOPE   H4X 7677   0.043   4.751   3.110  0.0663 -0.0061 -2.3130
   83SOPE   H4Y 7678  -0.013   4.927   3.146 -1.0546  0.0202 -1.1117
   83SOPE   C35 7679   0.177   4.865   3.245  0.6186  0.1389 -0.7134
   83SOPE   H5X 7680   0.249   4.947   3.226 -1.3386  2.2740  0.6530
   83SOPE   H5Y 7681   0.241   4.774   3.239 -0.5922 -0.7362 -0.8992
   83SOPE   C36 7682   0.113   4.875   3.384  0.2453  0.1855 -0.1613
   83SOPE   H6X 7683   0.063   4.779   3.408 -0.0949  0.9181  2.3202
   83SOPE   H6Y 7684   0.039   4.958   3.385  2.3121  2.2069 -2.3234
   83SOPE   C37 7685   0.211   4.886   3.494 -0.4293  0.0830  0.1580
   83SOPE   H7X 7686   0.280   4.972   3.482  2.1500 -1.5031  2.4944
   83SOPE   H7Y 7687   0.269   4.792   3.498 -0.8476 -0.2283 -0.8674
   83SOPE   C38 7688   0.128   4.916   3.627 -0.2687  0.1199  0.4420
   83SOPE   H8X 7689   0.077   4.820   3.651  0.1341  0.1392  1.4023
   83SOPE   H8Y 7690   0.051   4.995   3.611 -1.4499 -0.4328  2.8547
   83SOPE   C39 7691   0.204   4.967   3.740  0.7215 -0.0765  0.0885
   83SOPE   H9X 7692   0.223   5.076   3.732  0.9361 -0.0631  0.7164
   83SOPE   H9Y 7693   0.299   4.911   3.751 -0.5206 -2.2064  0.6843
   83SOPE  C310 7694   0.128   4.936   3.863  0.0640  0.0253  0.5983
   83SOPE  H10X 7695   0.080   4.837   3.850  1.6154 -0.4851 -2.1697
   83SOPE  H10Y 7696   0.047   5.012   3.863  0.0859  0.1776 -2.1935
   83SOPE  C311 7697   0.209   4.939   3.998 -0.5285 -0.2885  0.2137
   83SOPE  H11X 7698   0.277   5.026   3.986 -1.3896  0.3703 -0.0293
   83SOPE  H11Y 7699   0.267   4.845   4.000  1.5243  0.9280  1.4796
   83SOPE  C312 7700   0.124   4.968   4.118 -1.1323  0.1412  0.6397
   83SOPE  H12X 7701   0.081   5.068   4.101  1.2839  1.7553  3.1826
   83SOPE  H12Y 7702   0.175   4.969   4.216 -2.0282 -1.6824  1.1878
   83SOPE  C313 7703   0.013   4.860   4.133  0.1333  0.2102 -0.7452
   83SOPE  H13X 7704   0.065   4.763   4.148 -0.4917  0.4289  5.1323
   83SOPE  H13Y 7705  -0.038   4.848   4.035  0.7538 -0.4600 -1.0045
   83SOPE  C314 7706  -0.090   4.898   4.241 -0.4167  0.1102 -0.4578
   83SOPE  H14X 7707  -0.137   4.991   4.203  0.1687 -0.2496 -2.1293
   83SOPE  H14Y 7708  -0.048   4.906   4.344 -0.4262 -0.2407 -0.4259
   83SOPE  C315 7709  -0.195   4.785   4.259  0.6140  0.1605 -0.3649
   83SOPE  H15X 7710  -0.243   4.759   4.162  3.8566  0.2453 -2.1222
   83SOPE  H15Y 7711  -0.272   4.822   4.331  1.8400  2.5141 -0.1484
   83SOPE  C316 7712  -0.126   4.659   4.316 -0.1499  1.1301  0.4192
   83SOPE  H16X 7713  -0.060   4.697   4.397  0.9746 -0.4335  0.2778
   83SOPE  H16Y 7714  -0.065   4.617   4.232 -1.0673  1.7989 -0.6184
   83SOPE  C317 7715  -0.212   4.543   4.378 -0.1388 -0.6817 -0.1817
   83SOPE  H17X 7716  -0.263   4.506   4.287  0.6470 -1.4852 -0.3125
   83SOPE  H17Y 7717  -0.287   4.591   4.445 -0.7325 -0.1708 -1.2039
   83SOPE  C318 7718  -0.134   4.443   4.457 -0.0166 -0.1752  0.1880
   83SOPE  H18X 7719  -0.039   4.435   4.399 -2.3521 -1.6603 -3.8045
   83SOPE  H18Y 7720  -0.182   4.343   4.468  1.2996 -0.6981  1.6369
   83SOPE  H18Z 7721  -0.108   4.472   4.561  0.9520 -0.6574  0.0998
   84SOPE     N 7722   5.669   2.992   2.462  0.7945  0.8538  0.1194
   84SOPE   HN1 7723   5.733   2.943   2.396 -0.1317 -1.5076  0.8967
   84SOPE   HN2 7724   5.716   2.984   2.555  0.2407  2.0797  0.5278
   84SOPE   HN3 7725   5.580   2.940   2.477  0.4171  2.2542  4.0053
   84SOPE   C12 7726   5.647   3.135   2.406 -0.3474  0.4138 -0.5255
   84SOPE  H12A 7727   5.579   3.188   2.476 -1.7113 -0.8747 -0.8256
   84SOPE  H12B 7728   5.602   3.137   2.305 -1.2745  1.4129 -0.1138
   84SOPE   C11 7729   5.791   3.199   2.411  0.7350 -0.0695 -0.4119
   84SOPE  H11A 7730   5.775   3.300   2.367  1.9187 -0.1644 -1.0847
   84SOPE  H11B 7731   5.860   3.139   2.348 -1.9417 -2.2243 -1.5220
   84SOPE     P 7732   5.936   3.326   2.588  0.2657 -0.0557  0.3584
   84SOPE   O13 7733   5.894   3.442   2.511  0.3928 -0.1951  0.2581
   84SOPE   O14 7734   6.076   3.285   2.575 -0.0378  0.0579 -0.4844
   84SOPE   O12 7735   5.840   3.206   2.545 -0.3092  0.4018 -0.0984
   84SOPE   O11 7736   5.914   3.357   2.740  0.3248  0.6916  0.1571
   84SOPE    C1 7737   5.871   3.251   2.834 -0.7899 -0.4342  0.3298
   84SOPE    HA 7738   5.961   3.214   2.887 -0.4610  1.0665  0.8653
   84SOPE    HB 7739   5.821   3.164   2.786 -5.0542  1.8772  0.0796
   84SOPE    C2 7740   5.778   3.309   2.934  1.1107 -0.0814  0.5107
   84SOPE    HS 7741   5.677   3.345   2.903  1.9050  0.5169 -1.5145
   84SOPE   O21 7742   5.853   3.411   2.996  0.2123 -0.1162 -0.1960
   84SOPE   C21 7743   5.777   3.497   3.070 -0.0016 -0.0172  1.5783
   84SOPE   O22 7744   5.660   3.516   3.052  0.1104  0.3290 -0.0782
   84SOPE   C22 7745   5.862   3.576   3.162 -0.2402  0.1363  0.0783
   84SOPE   H2R 7746   5.796   3.635   3.228  1.4892  3.8734 -1.2225
   84SOPE   H2S 7747   5.922   3.654   3.110 -1.3699  0.2405 -1.1432
   84SOPE    C3 7748   5.738   3.193   3.034  0.2208  0.9179 -0.4601
   84SOPE    HX 7749   5.673   3.242   3.109 -1.1451 -1.4157 -0.0221
   84SOPE    HY 7750   5.833   3.160   3.080  0.1268  1.3638  0.0643
   84SOPE   O31 7751   5.665   3.085   2.970 -0.3451 -0.1752  0.4635
   84SOPE   C31 7752   5.533   3.087   2.968 -1.0550  0.2390  0.2025
   84SOPE   O32 7753   5.461   3.165   3.022  0.3370 -0.1908  0.6102
   84SOPE   C32 7754   5.473   2.967   2.893  0.4861 -0.0857  0.0342
   84SOPE   H2X 7755   5.490   2.981   2.784 -0.5981 -0.8255 -0.2493
   84SOPE   H2Y 7756   5.364   2.976   2.915  0.6478  2.5946  0.0700
   84SOPE   C23 7757   5.943   3.493   3.259 -0.9546 -0.1993 -0.0844
   84SOPE   H3R 7758   6.022   3.442   3.199  0.6855  0.2613  1.6051
   84SOPE   H3S 7759   5.875   3.416   3.299  0.6251 -1.5543  0.1084
   84SOPE   C24 7760   6.016   3.584   3.355 -0.4410  0.0266 -0.7968
   84SOPE   H4R 7761   6.076   3.647   3.286 -1.0318  1.3160 -0.1719
   84SOPE   H4S 7762   5.949   3.654   3.410  0.1970  1.2089 -1.4932
   84SOPE   C25 7763   6.127   3.504   3.441  0.0428 -0.1665 -0.6513
   84SOPE   H5R 7764   6.160   3.423   3.373 -1.1948 -1.2766  0.0265
   84SOPE   H5S 7765   6.212   3.572   3.461 -0.4093  0.1545  0.2526
   84SOPE   C26 7766   6.067   3.456   3.576 -0.2698  0.3780 -0.2698
   84SOPE   H6R 7767   6.027   3.538   3.638  0.5511  2.1700 -2.0150
   84SOPE   H6S 7768   5.985   3.382   3.562 -0.7226  0.4480  1.7209
   84SOPE   C27 7769   6.178   3.380   3.650 -0.3958  0.5212  0.2543
   84SOPE   H7R 7770   6.217   3.304   3.580  0.3261  2.7890 -1.9394
   84SOPE   H7S 7771   6.260   3.451   3.674 -0.4252  1.2837 -1.7655
   84SOPE   C28 7772   6.127   3.306   3.782  0.1505 -0.2436 -0.4750
   84SOPE   H8R 7773   6.053   3.228   3.752 -0.0171  0.2334 -1.3272
   84SOPE   H8S 7774   6.214   3.248   3.820 -0.4387 -0.9367 -0.1511
   84SOPE   C29 7775   6.070   3.396   3.892  0.7779  0.1505 -0.2460
   84SOPE   H91 7776   5.990   3.459   3.850 -2.9629 -3.8309  0.1720
   84SOPE  C210 7777   6.097   3.410   4.021 -0.2301  0.7520  0.2348
   84SOPE  H101 7778   6.050   3.490   4.080  0.7192  2.0732 -0.7435
   84SOPE  C211 7779   6.208   3.338   4.100  0.2721  0.9245  0.2669
   84SOPE  H11R 7780   6.261   3.414   4.160  0.2442  0.5472  0.7786
   84SOPE  H11S 7781   6.278   3.297   4.023 -0.3487  1.4720 -0.6130
   84SOPE  C212 7782   6.152   3.228   4.192 -0.3891  0.1618  0.6478
   84SOPE  H12R 7783   6.239   3.168   4.228 -0.3495 -1.6404 -2.1626
   84SOPE  H12S 7784   6.084   3.162   4.134  1.3553 -2.2154  1.1207
   84SOPE  C213 7785   6.075   3.277   4.315 -0.8025 -0.6792 -0.3804
   84SOPE  H13R 7786   6.008   3.199   4.358 -0.8859 -1.2233 -1.4708
   84SOPE  H13S 7787   6.013   3.368   4.300 -0.6368 -0.7426 -1.5875
   84SOPE  C214 7788   6.176   3.314   4.431  0.3383  0.2764 -0.6260
   84SOPE  H14R 7789   6.252   3.377   4.380  1.5138 -1.3661 -0.9513
   84SOPE  H14S 7790   6.231   3.222   4.457  1.6831  0.9874 -0.9017
   84SOPE  C215 7791   6.128   3.394   4.553  0.1420 -0.2034  0.4390
   84SOPE  H15R 7792   6.052   3.328   4.600  0.0518  0.1122  0.7388
   84SOPE  H15S 7793   6.079   3.487   4.519  0.7270  0.1127  0.4557
   84SOPE  C216 7794   6.247   3.423   4.643  0.1613  0.0260  0.0051
   84SOPE  H16R 7795   6.282   3.322   4.673  0.7987  0.1059 -0.4534
   84SOPE  H16S 7796   6.209   3.475   4.734 -0.0216 -0.7650  0.3913
   84SOPE  C217 7797   6.350   3.519   4.580 -0.5460  0.6280  0.0829
   84SOPE  H17R 7798   6.301   3.614   4.550 -0.3563  0.7899  0.2807
   84SOPE  H17S 7799   6.406   3.480   4.493 -0.7632  0.6738 -0.0798
   84SOPE  C218 7800   6.461   3.551   4.680  0.8919  0.0937  0.4941
   84SOPE  H18R 7801   6.427   3.643   4.732  1.1645 -1.1131  2.9024
   84SOPE  H18S 7802   6.554   3.559   4.620 -0.0353  1.8275 -0.7955
   84SOPE  H18T 7803   6.463   3.460   4.743 -0.9395  0.5402  1.2568
   84SOPE   C33 7804   5.524   2.829   2.926 -0.3871 -0.3985  0.0051
   84SOPE   H3X 7805   5.635   2.825   2.926 -0.3162  0.8439  0.5719
   84SOPE   H3Y 7806   5.478   2.763   2.850 -1.6630  0.2267  0.1964
   84SOPE   C34 7807   5.477   2.772   3.061  0.1860 -0.6624 -0.2454
   84SOPE   H4X 7808   5.469   2.661   3.061  0.2395 -0.6731  0.2900
   84SOPE   H4Y 7809   5.383   2.819   3.098 -0.7590 -3.1396  0.7348
   84SOPE   C35 7810   5.573   2.794   3.177  0.4316  0.0258  0.0287
   84SOPE   H5X 7811   5.572   2.904   3.196 -1.1078 -0.0255  0.3171
   84SOPE   H5Y 7812   5.677   2.757   3.162 -0.3786 -2.7537  0.7196
   84SOPE   C36 7813   5.526   2.738   3.316 -0.5930 -0.7006  0.0851
   84SOPE   H6X 7814   5.509   2.629   3.318  0.5732 -0.8782  1.1714
   84SOPE   H6Y 7815   5.436   2.798   3.344  1.0392  2.1974 -0.4277
   84SOPE   C37 7816   5.621   2.782   3.426  0.2140  1.0181  0.1634
   84SOPE   H7X 7817   5.628   2.893   3.420  0.5188  1.0537  1.1270
   84SOPE   H7Y 7818   5.721   2.733   3.421 -0.6046 -0.7890  0.6839
   84SOPE   C38 7819   5.554   2.737   3.564  0.1934 -0.5374 -0.4770
   84SOPE   H8X 7820   5.530   2.629   3.560  0.1041 -0.5249 -0.2712
   84SOPE   H8Y 7821   5.465   2.799   3.586 -0.8903 -2.3993  0.6177
   84SOPE   C39 7822   5.653   2.758   3.683 -0.2337 -0.3243  0.1458
   84SOPE   H9X 7823   5.676   2.866   3.684 -2.7271  0.2461  0.2003
   84SOPE   H9Y 7824   5.738   2.691   3.658 -2.0692 -2.7881  0.1058
   84SOPE  C310 7825   5.591   2.725   3.824 -0.7630 -0.8844 -0.8520
   84SOPE  H10X 7826   5.517   2.642   3.819 -0.3746 -1.1611 -2.7858
   84SOPE  H10Y 7827   5.535   2.813   3.864  0.5491 -0.3489 -0.1470
   84SOPE  C311 7828   5.700   2.706   3.933 -0.5234  0.3184 -0.0131
   84SOPE  H11X 7829   5.769   2.792   3.941 -0.6961  0.4587 -0.0412
   84SOPE  H11Y 7830   5.764   2.617   3.912  0.0916  0.5660  0.7703
   84SOPE  C312 7831   5.632   2.675   4.067 -0.2497 -0.6654 -0.5829
   84SOPE  H12X 7832   5.569   2.584   4.056  2.3180 -2.4739 -1.3088
   84SOPE  H12Y 7833   5.561   2.757   4.090 -0.0548 -0.3263 -1.1562
   84SOPE  C313 7834   5.728   2.636   4.180 -0.3938 -0.1867 -0.4852
   84SOPE  H13X 7835   5.794   2.722   4.204  2.5884 -2.3834 -0.2600
   84SOPE  H13Y 7836   5.785   2.545   4.153 -0.5684 -0.4836  0.1228
   84SOPE  C314 7837   5.651   2.597   4.313  0.0317  0.3409 -0.3187
   84SOPE  H14X 7838   5.579   2.514   4.302 -1.4137  1.2839  1.4335
   84SOPE  H14Y 7839   5.591   2.680   4.357 -0.8685  0.3922 -1.6095
   84SOPE  C315 7840   5.748   2.562   4.426 -0.1856 -0.0307  0.0532
   84SOPE  H15X 7841   5.809   2.648   4.460 -1.4761 -0.6241  4.5242
   84SOPE  H15Y 7842   5.818   2.488   4.382 -1.5641 -1.0111 -0.5696
   84SOPE  C316 7843   5.679   2.500   4.548  0.5289  0.3488  0.3699
   84SOPE  H16X 7844   5.623   2.411   4.509 -3.0863  1.7236  1.9940
   84SOPE  H16Y 7845   5.603   2.556   4.606  1.1699  1.0767  0.5195
   84SOPE  C317 7846   5.771   2.454   4.652  0.1733  0.6382  0.4838
   84SOPE  H17X 7847   5.855   2.390   4.616  0.7512  1.6126  0.0717
   84SOPE  H17Y 7848   5.718   2.390   4.726 -1.6360 -0.0690 -1.3481
   84SOPE  C318 7849   5.831   2.571   4.731 -0.1453 -0.6717  0.2254
   84SOPE  H18X 7850   5.756   2.650   4.754 -0.7269 -1.3637  0.7868
   84SOPE  H18Y 7851   5.923   2.601   4.678  0.4096 -1.3116  0.8155
   84SOPE  H18Z 7852   5.868   2.536   4.830  1.9391 -0.0184 -0.2885
   85SOPE     N 7853   3.045   4.503   2.808  0.5209  0.2264 -0.2173
   85SOPE   HN1 7854   3.054   4.523   2.706  1.2002  0.8149 -0.0530
   85SOPE   HN2 7855   3.127   4.447   2.840  1.2392  0.5910 -1.3403
   85SOPE   HN3 7856   2.968   4.434   2.815 -0.3066  1.0185 -1.2065
   85SOPE   C12 7857   3.035   4.630   2.886 -0.1393 -0.0249 -0.4555
   85SOPE  H12A 7858   3.047   4.604   2.994  0.7927  1.0793 -0.2685
   85SOPE  H12B 7859   2.930   4.662   2.872  0.3255  0.5072 -3.2357
   85SOPE   C11 7860   3.142   4.735   2.844  0.2068  0.3625 -0.1860
   85SOPE  H11A 7861   3.131   4.831   2.898 -2.6639  0.1864 -0.3070
   85SOPE  H11B 7862   3.123   4.748   2.735  1.3538  1.2846 -0.2923
   85SOPE     P 7863   3.399   4.753   2.793 -0.0863 -0.1163  0.4143
   85SOPE   O13 7864   3.383   4.786   2.652  0.1267 -0.2056 -0.2805
   85SOPE   O14 7865   3.523   4.678   2.818 -0.3563  0.2394  0.7692
   85SOPE   O12 7866   3.272   4.678   2.852 -0.3576  0.1188 -0.1368
   85SOPE   O11 7867   3.402   4.891   2.871  0.5215 -0.0508  0.1421
   85SOPE    C1 7868   3.424   4.901   3.007  0.3245  0.2601 -0.4635
   85SOPE    HA 7869   3.389   4.810   3.060  0.8926 -0.9589 -2.0927
   85SOPE    HB 7870   3.357   4.979   3.048  0.3767 -0.2311  0.5915
   85SOPE    C2 7871   3.570   4.915   3.029 -0.3029 -0.2623 -0.4707
   85SOPE    HS 7872   3.619   4.817   3.012  2.0440  1.0935 -2.1769
   85SOPE   O21 7873   3.598   4.962   3.166  0.1854  0.0924  0.1360
   85SOPE   C21 7874   3.602   4.870   3.262  0.5963  0.5380  0.1155
   85SOPE   O22 7875   3.576   4.751   3.250 -1.1647 -0.3209 -0.1899
   85SOPE   C22 7876   3.646   4.931   3.391 -0.5086  0.1688  0.4218
   85SOPE   H2R 7877   3.558   4.970   3.446 -1.6268 -0.5379 -0.8090
   85SOPE   H2S 7878   3.719   5.011   3.366  3.2863 -1.8977  3.6772
   85SOPE    C3 7879   3.635   5.021   2.930 -0.4063 -0.0984  0.1129
   85SOPE    HX 7880   3.569   5.111   2.931 -0.1493  0.0900  0.5582
   85SOPE    HY 7881   3.626   4.978   2.829  1.0717 -2.1724  0.8183
   85SOPE   O31 7882   3.771   5.058   2.958 -0.4896  0.0434  0.0462
   85SOPE   C31 7883   3.868   5.040   2.872  0.1876 -0.5007  0.0624
   85SOPE   O32 7884   3.853   4.978   2.765  0.9461  0.7352  0.0665
   85SOPE   C32 7885   3.993   5.122   2.903  0.4480  0.5548 -0.4865
   85SOPE   H2X 7886   4.022   5.197   2.827  0.7671  0.5586 -0.3625
   85SOPE   H2Y 7887   4.074   5.047   2.914 -0.1524 -0.0925 -0.4400
   85SOPE   C23 7888   3.710   4.828   3.490  0.5025 -0.0233 -0.1935
   85SOPE   H3R 7889   3.818   4.810   3.476  0.9391  1.2611  1.1790
   85SOPE   H3S 7890   3.653   4.732   3.493  2.8288 -1.4556  1.1832
   85SOPE   C24 7891   3.686   4.883   3.635 -0.1622  0.2535  0.4507
   85SOPE   H4R 7892   3.748   4.974   3.650  0.1240  0.3739 -1.2675
   85SOPE   H4S 7893   3.581   4.914   3.652 -0.4412 -0.2065 -0.3864
   85SOPE   C25 7894   3.704   4.786   3.752 -0.2524  0.1894  0.6042
   85SOPE   H5R 7895   3.648   4.696   3.718 -0.4431  1.0945 -1.6933
   85SOPE   H5S 7896   3.813   4.764   3.762 -0.1162  1.0054  0.9406
   85SOPE   C26 7897   3.646   4.823   3.880  0.3903 -0.2469 -0.7381
   85SOPE   H6R 7898   3.539   4.851   3.875  0.0656 -1.5701 -1.9254
   85SOPE   H6S 7899   3.663   4.741   3.953 -0.2656 -1.0286 -1.4425
   85SOPE   C27 7900   3.726   4.946   3.934  0.2715  0.7724 -0.6491
   85SOPE   H7R 7901   3.834   4.936   3.908  0.8363  1.9775  1.0386
   85SOPE   H7S 7902   3.686   5.032   3.877 -2.7074 -0.9912 -1.3838
   85SOPE   C28 7903   3.709   4.961   4.090  0.0049 -0.2609  0.0187
   85SOPE   H8R 7904   3.726   4.856   4.123  1.3782 -0.2921 -0.7330
   85SOPE   H8S 7905   3.792   5.028   4.122  0.1489 -0.9520  1.1448
   85SOPE   C29 7906   3.577   5.006   4.148 -0.0546 -0.3872  0.3453
   85SOPE   H91 7907   3.496   4.959   4.091  0.9985 -0.2234 -1.3739
   85SOPE  C210 7908   3.562   5.086   4.252  0.1278  0.4254 -0.3473
   85SOPE  H101 7909   3.460   5.097   4.293 -0.7617 -0.6915 -2.1330
   85SOPE  C211 7910   3.674   5.151   4.327  0.1164  0.4070 -0.6641
   85SOPE  H11R 7911   3.658   5.261   4.326 -1.2477  0.2990  1.6779
   85SOPE  H11S 7912   3.770   5.131   4.275  0.0107 -0.8985 -0.3847
   85SOPE  C212 7913   3.697   5.089   4.477  0.2905  0.1893 -0.4555
   85SOPE  H12R 7914   3.727   4.982   4.482  1.7421  0.5169 -1.4545
   85SOPE  H12S 7915   3.597   5.102   4.524  0.5663 -0.7969  0.4455
   85SOPE  C213 7916   3.815   5.160   4.553 -0.0158 -0.4545 -0.0208
   85SOPE  H13R 7917   3.902   5.158   4.484 -1.3373 -0.5660 -1.7628
   85SOPE  H13S 7918   3.840   5.112   4.650  2.0132  0.1858 -0.1793
   85SOPE  C214 7919   3.785   5.306   4.583 -0.5416  0.1595 -0.0455
   85SOPE  H14R 7920   3.686   5.301   4.633 -0.9926  0.2475 -0.9120
   85SOPE  H14S 7921   3.764   5.365   4.491  0.2707  0.5126 -0.0153
   85SOPE  C215 7922   3.882   5.384   4.670 -0.0111  0.8587  0.1549
   85SOPE  H15R 7923   3.892   5.345   4.774 -0.0079  0.0690 -0.1328
   85SOPE  H15S 7924   3.828   5.479   4.692  0.9343  1.5265 -0.3344
   85SOPE  C216 7925   4.018   5.402   4.607  0.2985  0.1688 -1.1731
   85SOPE  H16R 7926   3.996   5.461   4.515  0.1197 -0.6834 -1.6890
   85SOPE  H16S 7927   4.059   5.303   4.579  1.1344  0.3967 -0.8034
   85SOPE  C217 7928   4.114   5.467   4.711 -0.0068  0.3187  0.2426
   85SOPE  H17R 7929   4.212   5.502   4.672 -0.8404  0.0123 -2.2808
   85SOPE  H17S 7930   4.126   5.403   4.801 -2.0956 -1.9168 -0.9398
   85SOPE  C218 7931   4.061   5.597   4.762  0.4713 -0.6265 -0.2016
   85SOPE  H18R 7932   4.143   5.664   4.797 -0.0175  0.3696 -0.8935
   85SOPE  H18S 7933   3.996   5.587   4.851 -0.1633  1.8474 -0.3102
   85SOPE  H18T 7934   4.000   5.655   4.689  2.1663 -0.4203 -1.5219
   85SOPE   C33 7935   3.992   5.191   3.040  0.6600 -0.0833 -0.2547
   85SOPE   H3X 7936   3.898   5.246   3.060  0.4095 -0.3882 -0.5769
   85SOPE   H3Y 7937   4.086   5.249   3.048  0.5391  0.1560 -0.5580
   85SOPE   C34 7938   4.013   5.087   3.151 -0.8489  0.4749  0.3811
   85SOPE   H4X 7939   4.101   5.025   3.123 -2.0946  0.4895 -4.4421
   85SOPE   H4Y 7940   3.920   5.028   3.166 -1.6766  1.5722 -0.3204
   85SOPE   C35 7941   4.035   5.147   3.295 -0.5307  0.0258 -0.1097
   85SOPE   H5X 7942   3.955   5.220   3.322  0.4182  1.4072 -0.8573
   85SOPE   H5Y 7943   4.129   5.206   3.303 -0.2232 -0.4841  0.0470
   85SOPE   C36 7944   4.044   5.034   3.392 -0.0142  0.6255 -0.0441
   85SOPE   H6X 7945   4.113   4.956   3.352  1.2248  0.8921  1.4791
   85SOPE   H6Y 7946   3.942   4.997   3.418  0.9418 -1.4250  1.0512
   85SOPE   C37 7947   4.094   5.088   3.532  1.0318  0.2327 -0.7317
   85SOPE   H7X 7948   4.042   5.180   3.564  1.7460  0.6999 -0.9135
   85SOPE   H7Y 7949   4.201   5.117   3.526  1.5507 -1.5969 -1.1027
   85SOPE   C38 7950   4.075   4.994   3.648  0.0995  0.4552  1.2286
   85SOPE   H8X 7951   4.132   4.904   3.616 -0.6459  0.4290 -0.0695
   85SOPE   H8Y 7952   3.968   4.965   3.658 -0.0829  1.0866  1.1657
   85SOPE   C39 7953   4.122   5.052   3.784  0.1759  0.0067  0.1091
   85SOPE   H9X 7954   4.231   5.071   3.778  0.3093 -0.4017  1.1091
   85SOPE   H9Y 7955   4.102   4.977   3.864 -1.3705  1.1602  0.8590
   85SOPE  C310 7956   4.049   5.181   3.825  0.5150  0.1760 -0.5093
   85SOPE  H10X 7957   3.940   5.165   3.812  0.1721  3.2040 -2.3223
   85SOPE  H10Y 7958   4.073   5.279   3.780 -1.1446  2.1437  2.5546
   85SOPE  C311 7959   4.055   5.216   3.978 -0.4088  0.3016  0.0317
   85SOPE  H11X 7960   4.004   5.133   4.032  0.7033 -0.0614  0.5672
   85SOPE  H11Y 7961   3.997   5.310   3.993  0.3483  0.7842 -0.0023
   85SOPE  C312 7962   4.199   5.244   4.034  0.2480  0.3091  0.1081
   85SOPE  H12X 7963   4.255   5.314   3.969 -2.0814  0.5031 -1.8411
   85SOPE  H12Y 7964   4.259   5.151   4.035 -1.5955 -1.0275  3.5188
   85SOPE  C313 7965   4.206   5.302   4.179 -0.3292 -0.0760  0.2095
   85SOPE  H13X 7966   4.140   5.230   4.232  0.6565 -1.6258 -0.5723
   85SOPE  H13Y 7967   4.163   5.403   4.196 -0.1786  0.0217  0.0109
   85SOPE  C314 7968   4.344   5.286   4.241  0.7457  0.8861 -0.7503
   85SOPE  H14X 7969   4.425   5.352   4.204  0.1968  1.4458 -0.9497
   85SOPE  H14Y 7970   4.380   5.182   4.224  1.1722  0.7977  0.5459
   85SOPE  C315 7971   4.330   5.294   4.397 -0.6907  0.0931  0.0345
   85SOPE  H15X 7972   4.254   5.223   4.436 -0.1476  0.5045  1.9137
   85SOPE  H15Y 7973   4.308   5.401   4.416  2.8913  0.9471 -0.0245
   85SOPE  C316 7974   4.465   5.259   4.466  0.2601 -0.1491 -0.2981
   85SOPE  H16X 7975   4.535   5.338   4.430 -1.3380  2.1410  1.3439
   85SOPE  H16Y 7976   4.493   5.161   4.422  1.1020 -0.1101  0.1397
   85SOPE  C317 7977   4.460   5.261   4.622 -0.2718  0.2794  0.1252
   85SOPE  H17X 7978   4.376   5.196   4.655 -1.5663  0.7581 -2.0478
   85SOPE  H17Y 7979   4.436   5.369   4.630  2.2179  0.9814 -1.0019
   85SOPE  C318 7980   4.592   5.228   4.686 -0.2578 -0.5739 -0.4236
   85SOPE  H18X 7981   4.574   5.219   4.795  1.5134  0.9356  0.0655
   85SOPE  H18Y 7982   4.661   5.314   4.669 -0.4180 -0.5225 -0.8272
   85SOPE  H18Z 7983   4.651   5.138   4.660  1.2598 -0.8068  3.1950
   86SOPE     N 7984   4.102   1.291   2.340 -0.0804  0.0065  0.3975
   86SOPE   HN1 7985   3.999   1.293   2.351 -0.1122 -1.0028  0.4011
   86SOPE   HN2 7986   4.150   1.379   2.312 -2.2818  2.4939  3.7093
   86SOPE   HN3 7987   4.109   1.220   2.264 -1.9590  0.8283 -0.5985
   86SOPE   C12 7988   4.176   1.272   2.473 -0.0120  0.2253  0.1767
   86SOPE  H12A 7989   4.152   1.176   2.524 -0.2371  0.6453  0.8812
   86SOPE  H12B 7990   4.144   1.354   2.540  0.3376 -0.0691  0.7107
   86SOPE   C11 7991   4.334   1.269   2.442  0.6138  0.0923 -0.0846
   86SOPE  H11A 7992   4.363   1.195   2.364  0.4431 -1.3803  1.1857
   86SOPE  H11B 7993   4.383   1.249   2.540  1.2482  3.6655  0.4569
   86SOPE     P 7994   4.500   1.444   2.335 -0.1863  0.1000 -0.1026
   86SOPE   O13 7995   4.459   1.538   2.226  0.6026 -0.3519 -0.2943
   86SOPE   O14 7996   4.581   1.324   2.293  0.1598 -0.3210  0.0434
   86SOPE   O12 7997   4.372   1.401   2.410  0.5348  0.7685 -0.0832
   86SOPE   O11 7998   4.580   1.521   2.450 -0.6610  0.8038 -0.1477
   86SOPE    C1 7999   4.604   1.458   2.581 -0.0182 -0.2150 -0.0157
   86SOPE    HA 8000   4.706   1.480   2.617  0.5686 -0.7086 -1.2937
   86SOPE    HB 8001   4.589   1.348   2.586 -0.4489 -0.1321  0.5478
   86SOPE    C2 8002   4.492   1.507   2.680 -0.3566 -0.4325 -0.9107
   86SOPE    HS 8003   4.398   1.507   2.621 -0.2337  1.7254 -1.2116
   86SOPE   O21 8004   4.531   1.635   2.724 -0.6746 -0.5302  0.4646
   86SOPE   C21 8005   4.448   1.730   2.740 -0.3917  0.0066  1.6341
   86SOPE   O22 8006   4.332   1.731   2.711  0.3341 -0.2624  0.6473
   86SOPE   C22 8007   4.518   1.855   2.793  0.2648  0.2239 -0.4853
   86SOPE   H2R 8008   4.458   1.942   2.761  1.4105  2.0293  1.9139
   86SOPE   H2S 8009   4.609   1.866   2.730 -0.3607 -1.4928 -1.7432
   86SOPE    C3 8010   4.469   1.407   2.801  0.3475  0.5422  1.1858
   86SOPE    HX 8011   4.568   1.381   2.845  0.0878 -3.1464 -0.0878
   86SOPE    HY 8012   4.431   1.308   2.768  0.3381  1.2495 -1.1836
   86SOPE   O31 8013   4.378   1.459   2.904  0.3296  0.6766  0.1567
   86SOPE   C31 8014   4.252   1.474   2.892 -0.4631  0.3748  0.0758
   86SOPE   O32 8015   4.182   1.436   2.804  0.0612 -0.3402  0.0586
   86SOPE   C32 8016   4.195   1.555   3.012  0.4559 -0.5444  0.4232
   86SOPE   H2X 8017   4.090   1.579   2.984  0.9016  0.3857 -0.5111
   86SOPE   H2Y 8018   4.251   1.651   3.009  1.1946 -0.9334  1.3794
   86SOPE   C23 8019   4.524   1.847   2.948 -0.3733 -0.0294 -0.2978
   86SOPE   H3R 8020   4.611   1.907   2.984 -2.6728  1.5976  3.0267
   86SOPE   H3S 8021   4.545   1.740   2.970 -1.4273 -0.4847 -1.4262
   86SOPE   C24 8022   4.403   1.916   3.003  0.2807  0.0989 -0.8958
   86SOPE   H4R 8023   4.420   2.025   3.010 -0.2983  0.1035  1.3151
   86SOPE   H4S 8024   4.311   1.903   2.942 -0.2646 -0.4728  0.0150
   86SOPE   C25 8025   4.363   1.860   3.140 -0.0122 -0.3259  0.5296
   86SOPE   H5R 8026   4.253   1.875   3.149  0.3351  1.7247  1.9260
   86SOPE   H5S 8027   4.390   1.752   3.142  0.1182 -0.3260 -0.5807
   86SOPE   C26 8028   4.424   1.932   3.260  0.4088  0.3297  0.1576
   86SOPE   H6R 8029   4.533   1.910   3.264  0.4857  0.4335 -1.0309
   86SOPE   H6S 8030   4.413   2.040   3.239 -3.4537 -0.2194 -1.5197
   86SOPE   C27 8031   4.362   1.894   3.394  0.2819 -0.2037 -0.4788
   86SOPE   H7R 8032   4.263   1.943   3.399  0.4761  0.1787 -0.3443
   86SOPE   H7S 8033   4.363   1.783   3.389  3.0572 -0.2177 -2.1416
   86SOPE   C28 8034   4.449   1.930   3.510  0.2324 -0.0077 -0.4403
   86SOPE   H8R 8035   4.531   1.857   3.494  0.7077  0.4281 -0.0316
   86SOPE   H8S 8036   4.497   2.030   3.501  0.7898 -0.3659 -1.7922
   86SOPE   C29 8037   4.406   1.889   3.653 -0.0798  0.2525  0.3696
   86SOPE   H91 8038   4.453   1.796   3.685  0.4627  0.1051 -0.7986
   86SOPE  C210 8039   4.322   1.958   3.727  0.0116 -0.3984  0.0320
   86SOPE  H101 8040   4.293   1.916   3.825  0.2717 -1.3966 -0.3086
   86SOPE  C211 8041   4.258   2.086   3.689 -0.4613 -0.0366  0.5538
   86SOPE  H11R 8042   4.156   2.097   3.731  0.1133 -0.1934  2.0814
   86SOPE  H11S 8043   4.254   2.087   3.578  3.4702 -3.0312  0.1903
   86SOPE  C212 8044   4.332   2.215   3.735  0.5482  0.7556  0.1281
   86SOPE  H12R 8045   4.292   2.305   3.682 -0.3154 -0.5877 -1.6068
   86SOPE  H12S 8046   4.439   2.224   3.710  0.7354 -1.3594 -0.0047
   86SOPE  C213 8047   4.317   2.239   3.887  0.1031 -0.0354 -0.1472
   86SOPE  H13R 8048   4.374   2.171   3.955 -1.6741 -1.1621  0.3082
   86SOPE  H13S 8049   4.213   2.222   3.924 -0.3582  0.2629 -1.2761
   86SOPE  C214 8050   4.331   2.390   3.916  0.0395  0.0536 -0.1270
   86SOPE  H14R 8051   4.242   2.444   3.876  0.9856  1.5725 -0.2589
   86SOPE  H14S 8052   4.418   2.415   3.852  0.0028 -1.8806 -1.0207
   86SOPE  C215 8053   4.348   2.432   4.063  0.1253  0.0053 -0.3520
   86SOPE  H15R 8054   4.253   2.431   4.121 -0.8163 -0.4278 -1.8407
   86SOPE  H15S 8055   4.393   2.533   4.057 -0.7712  0.3521 -1.8409
   86SOPE  C216 8056   4.440   2.338   4.150  0.7565  0.0021 -0.1866
   86SOPE  H16R 8057   4.539   2.331   4.100  1.2133 -3.7257  0.9177
   86SOPE  H16S 8058   4.390   2.238   4.150  0.9065 -0.0727 -0.2635
   86SOPE  C217 8059   4.444   2.383   4.297  0.3454 -0.5304  0.3890
   86SOPE  H17R 8060   4.341   2.410   4.328  0.8546  1.8460  0.1680
   86SOPE  H17S 8061   4.489   2.482   4.319 -1.2671  0.1266  0.8870
   86SOPE  C218 8062   4.505   2.287   4.398  0.4431  1.0017  0.3917
   86SOPE  H18R 8063   4.615   2.268   4.398  0.2503 -0.2288  0.6255
   86SOPE  H18S 8064   4.466   2.185   4.377 -0.7197  1.5952 -0.4318
   86SOPE  H18T 8065   4.490   2.320   4.503  1.7827 -0.4912  1.1015
   86SOPE   C33 8066   4.210   1.488   3.152  0.8133 -0.0363 -0.2360
   86SOPE   H3X 8067   4.319   1.474   3.171  0.4824 -0.7316  1.3341
   86SOPE   H3Y 8068   4.168   1.385   3.153  0.8658 -0.0846 -1.2829
   86SOPE   C34 8069   4.155   1.569   3.264  0.6079  0.0953 -0.6142
   86SOPE   H4X 8070   4.045   1.578   3.264  0.4165 -1.7617 -1.6667
   86SOPE   H4Y 8071   4.208   1.667   3.267 -0.5982  0.7989 -1.5546
   86SOPE   C35 8072   4.176   1.503   3.403  0.4705 -0.1356  0.3426
   86SOPE   H5X 8073   4.283   1.480   3.422  0.7209 -1.4064 -2.1347
   86SOPE   H5Y 8074   4.118   1.409   3.394 -1.0066  0.8170 -0.5675
   86SOPE   C36 8075   4.119   1.591   3.512 -0.0216 -0.6507  0.3740
   86SOPE   H6X 8076   4.016   1.612   3.477 -0.0409 -0.2275  0.6752
   86SOPE   H6Y 8077   4.182   1.682   3.511 -0.6421 -0.2163 -0.1784
   86SOPE   C37 8078   4.121   1.527   3.642 -0.3287 -0.9185 -1.1944
   86SOPE   H7X 8079   4.216   1.472   3.656 -1.1343 -2.0345  0.1816
   86SOPE   H7Y 8080   4.035   1.457   3.652 -0.7858 -0.1362  0.8750
   86SOPE   C38 8081   4.123   1.630   3.754 -0.0695  0.3143  0.0276
   86SOPE   H8X 8082   4.028   1.686   3.747 -0.5663 -0.3962  0.8037
   86SOPE   H8Y 8083   4.208   1.701   3.747 -0.8538  1.5492  2.0001
   86SOPE   C39 8084   4.128   1.560   3.891  0.4704  0.1826 -0.2434
   86SOPE   H9X 8085   4.234   1.554   3.923  1.1472  1.0232 -2.1743
   86SOPE   H9Y 8086   4.094   1.457   3.870  4.1806 -1.4849  1.1952
   86SOPE  C310 8087   4.060   1.631   4.013 -0.0653  0.6207 -0.2645
   86SOPE  H10X 8088   4.067   1.588   4.115 -1.7786  0.7710 -0.0591
   86SOPE  H10Y 8089   3.952   1.620   3.992 -0.0009  2.0871 -1.5458
   86SOPE  C311 8090   4.101   1.778   4.028 -0.6771  0.3798  0.5217
   86SOPE  H11X 8091   4.065   1.827   3.935  1.6602 -0.4548 -0.9014
   86SOPE  H11Y 8092   4.212   1.776   4.023 -0.6515 -1.5956  0.7547
   86SOPE  C312 8093   4.077   1.843   4.161  0.4532  0.7791  0.0517
   86SOPE  H12X 8094   4.149   1.814   4.240  0.7217 -2.3014 -1.2009
   86SOPE  H12Y 8095   3.974   1.819   4.194  0.8909  0.8155  1.4770
   86SOPE  C313 8096   4.079   1.998   4.150  0.0055 -0.2025  0.4545
   86SOPE  H13X 8097   3.993   2.037   4.091 -0.8407 -1.0538  1.0899
   86SOPE  H13Y 8098   4.175   2.024   4.101  0.0698 -1.9718 -0.4468
   86SOPE  C314 8099   4.093   2.066   4.288  0.1550  0.2693 -0.0347
   86SOPE  H14X 8100   4.179   2.025   4.346 -1.2836 -3.4678 -0.3233
   86SOPE  H14Y 8101   4.004   2.031   4.344  1.0458 -3.0034 -0.4454
   86SOPE  C315 8102   4.101   2.211   4.287  0.1154 -0.0649 -0.3671
   86SOPE  H15X 8103   4.003   2.244   4.247  0.1943  5.0738  2.7300
   86SOPE  H15Y 8104   4.186   2.252   4.230  0.8889  0.6073  1.2050
   86SOPE  C316 8105   4.119   2.272   4.430 -0.3167 -0.0486  0.4367
   86SOPE  H16X 8106   4.159   2.376   4.419  0.4024 -0.2358  1.1385
   86SOPE  H16Y 8107   4.199   2.215   4.482 -0.4398 -0.2100  0.4485
   86SOPE  C317 8108   3.997   2.257   4.529  0.1834 -0.0966  0.3275
   86SOPE  H17X 8109   3.969   2.152   4.547 -0.0328 -0.7029 -2.8495
   86SOPE  H17Y 8110   3.915   2.303   4.469 -0.8687  0.6106  2.2213
   86SOPE  C318 8111   4.025   2.341   4.656  0.7706 -0.3067 -0.2208
   86SOPE  H18X 8112   3.940   2.346   4.727  1.2248  0.4690  0.2832
   86SOPE  H18Y 8113   4.032   2.448   4.626 -2.5522  0.0731 -0.0346
   86SOPE  H18Z 8114   4.107   2.303   4.721  2.7019  2.4475 -0.8778
   87SOPE     N 8115   5.101   0.790   2.140 -0.1143 -0.2382  0.1792
   87SOPE   HN1 8116   5.165   0.872   2.135  3.9256 -3.1152 -0.3668
   87SOPE   HN2 8117   5.161   0.708   2.116 -0.2626 -0.5471  0.8505
   87SOPE   HN3 8118   5.024   0.813   2.074 -0.8047 -0.6330  0.8386
   87SOPE   C12 8119   5.049   0.801   2.285 -0.0489  0.4300 -0.3116
   87SOPE  H12A 8120   5.140   0.782   2.346 -0.3178 -3.4359 -0.8406
   87SOPE  H12B 8121   4.982   0.714   2.297  0.6944  0.1712  2.8225
   87SOPE   C11 8122   4.974   0.932   2.302 -0.3524  0.0369  0.1577
   87SOPE  H11A 8123   5.045   1.017   2.309 -0.4467  0.1410 -0.1406
   87SOPE  H11B 8124   4.927   0.934   2.403 -0.7170 -1.5977  0.0524
   87SOPE     P 8125   4.748   0.877   2.174  0.0346 -0.1205  0.5558
   87SOPE   O13 8126   4.777   0.741   2.114 -0.0245  1.2407 -0.1185
   87SOPE   O14 8127   4.649   0.959   2.102 -0.3096 -0.5542 -0.0897
   87SOPE   O12 8128   4.881   0.965   2.193 -1.1228 -0.2224 -0.0977
   87SOPE   O11 8129   4.687   0.865   2.321  0.4665 -0.2073 -0.0854
   87SOPE    C1 8130   4.670   0.729   2.376  0.3206 -0.4082  0.5785
   87SOPE    HA 8131   4.755   0.659   2.358  1.0647  1.2855 -3.5040
   87SOPE    HB 8132   4.582   0.677   2.333  0.0155  0.3079  0.3219
   87SOPE    C2 8133   4.644   0.739   2.530  0.0432  0.6317 -0.1507
   87SOPE    HS 8134   4.584   0.832   2.542 -0.5056  0.1906  0.6164
   87SOPE   O21 8135   4.773   0.743   2.594  0.7536 -0.7055 -0.0729
   87SOPE   C21 8136   4.778   0.822   2.696  0.1769 -0.4110 -0.2342
   87SOPE   O22 8137   4.695   0.903   2.735  0.5901 -0.1185  0.7211
   87SOPE   C22 8138   4.902   0.801   2.777 -1.0381  0.7765 -0.7634
   87SOPE   H2R 8139   4.984   0.876   2.769  1.6731 -1.9698 -0.4810
   87SOPE   H2S 8140   4.948   0.703   2.753 -1.2436  0.3362  0.5665
   87SOPE    C3 8141   4.553   0.622   2.581 -0.0587  0.2292 -0.2290
   87SOPE    HX 8142   4.609   0.535   2.539 -0.6985 -1.1468  1.6414
   87SOPE    HY 8143   4.459   0.615   2.522  0.3558  0.2784 -0.9200
   87SOPE   O31 8144   4.539   0.600   2.721  0.1891 -0.4949 -0.5266
   87SOPE   C31 8145   4.450   0.678   2.771 -0.3013  0.7348  0.1139
   87SOPE   O32 8146   4.359   0.738   2.718 -0.0630  0.1314  0.6356
   87SOPE   C32 8147   4.481   0.667   2.920  0.9340  0.5451  0.2692
   87SOPE   H2X 8148   4.591   0.657   2.934  1.1526  1.8709 -0.3232
   87SOPE   H2Y 8149   4.436   0.572   2.954  1.0848  0.0852 -0.7846
   87SOPE   C23 8150   4.874   0.806   2.929 -0.0115 -0.1932  0.4517
   87SOPE   H3R 8151   4.778   0.758   2.958 -0.2483 -0.5431 -0.8831
   87SOPE   H3S 8152   4.862   0.915   2.951  2.0586 -0.3172  2.6788
   87SOPE   C24 8153   4.987   0.757   3.009 -0.2328  0.5510 -0.4144
   87SOPE   H4R 8154   5.019   0.656   2.977  0.7128  1.4875 -2.5995
   87SOPE   H4S 8155   5.077   0.820   2.992  0.8171 -0.5878  0.6978
   87SOPE   C25 8156   4.968   0.737   3.160 -0.1009  0.1349  0.4653
   87SOPE   H5R 8157   4.880   0.671   3.179 -0.6777  0.8885  0.4410
   87SOPE   H5S 8158   5.060   0.690   3.199 -0.3174  0.8431  1.8991
   87SOPE   C26 8159   4.939   0.865   3.233 -0.3156 -0.3271  0.2212
   87SOPE   H6R 8160   5.010   0.934   3.183 -0.0867 -3.0324 -3.7009
   87SOPE   H6S 8161   4.840   0.912   3.215 -0.7551 -0.8376  1.2097
   87SOPE   C27 8162   4.974   0.859   3.381 -0.2889  0.5235  0.2752
   87SOPE   H7R 8163   4.893   0.808   3.437 -0.5119 -0.6924 -1.0907
   87SOPE   H7S 8164   5.061   0.791   3.398 -2.7857 -2.6979  1.0597
   87SOPE   C28 8165   5.018   1.000   3.437 -0.5629 -0.1541 -0.6828
   87SOPE   H8R 8166   5.097   1.010   3.360  0.3621 -1.7067  0.0110
   87SOPE   H8S 8167   4.937   1.076   3.437  0.6234  1.1779 -1.9586
   87SOPE   C29 8168   5.085   0.988   3.575 -0.5941 -0.1823  0.0125
   87SOPE   H91 8169   5.175   0.925   3.575  0.1573  0.8615 -0.3677
   87SOPE  C210 8170   5.048   1.032   3.697 -1.0867  0.4110  0.0459
   87SOPE  H101 8171   5.108   1.007   3.786  1.7398  0.0647 -1.8474
   87SOPE  C211 8172   4.921   1.102   3.732 -0.1978 -0.2973  0.3452
   87SOPE  H11R 8173   4.857   1.135   3.647  0.4411 -0.5494 -0.2423
   87SOPE  H11S 8174   4.941   1.192   3.794  0.5152  1.2685 -2.0237
   87SOPE  C212 8175   4.833   1.012   3.824  0.2554 -0.1458  0.2515
   87SOPE  H12R 8176   4.791   0.921   3.777  2.8320 -0.4649 -1.6101
   87SOPE  H12S 8177   4.746   1.073   3.858  0.5242 -0.2929  1.2530
   87SOPE  C213 8178   4.915   0.965   3.947 -0.1670  0.7246 -0.1125
   87SOPE  H13R 8179   4.978   1.047   3.986  0.3777 -0.0268  0.6361
   87SOPE  H13S 8180   4.979   0.884   3.905 -0.7979 -1.2004  2.3754
   87SOPE  C214 8181   4.832   0.919   4.065 -0.3840 -0.0628 -0.0731
   87SOPE  H14R 8182   4.767   0.842   4.019 -2.4840  1.2030  0.6280
   87SOPE  H14S 8183   4.776   1.011   4.090  0.0829  0.0753  0.4985
   87SOPE  C215 8184   4.909   0.868   4.182  0.3460  0.6143 -0.0082
   87SOPE  H15R 8185   4.948   0.951   4.244 -0.5336  1.1622 -0.1690
   87SOPE  H15S 8186   4.994   0.806   4.148  1.3292  1.6546  0.4900
   87SOPE  C216 8187   4.812   0.792   4.273  0.3085  0.2364  0.0809
   87SOPE  H16R 8188   4.790   0.696   4.220  0.4148  1.5927 -2.5819
   87SOPE  H16S 8189   4.724   0.856   4.288 -0.5773 -1.2408  1.5734
   87SOPE  C217 8190   4.882   0.760   4.407  0.1029 -0.0853  0.5621
   87SOPE  H17R 8191   4.813   0.717   4.483  0.7923 -0.0863  1.2003
   87SOPE  H17S 8192   4.921   0.855   4.450  2.3402  0.0075 -1.4471
   87SOPE  C218 8193   4.996   0.660   4.390 -0.4262  0.8189  0.2420
   87SOPE  H18R 8194   4.958   0.555   4.390 -0.2963  0.7429 -1.6095
   87SOPE  H18S 8195   5.071   0.657   4.472  1.3700 -0.6507 -1.3550
   87SOPE  H18T 8196   5.070   0.671   4.308 -0.2111 -0.3221  0.2571
   87SOPE   C33 8197   4.432   0.790   3.003 -0.7689  0.4484  0.0750
   87SOPE   H3X 8198   4.337   0.820   2.955 -0.3461  0.5631 -0.7185
   87SOPE   H3Y 8199   4.501   0.871   2.972 -0.7024  0.0773 -0.7685
   87SOPE   C34 8200   4.442   0.755   3.155 -0.3276  0.4898  0.2639
   87SOPE   H4X 8201   4.380   0.663   3.157  1.4144 -0.8610 -1.9025
   87SOPE   H4Y 8202   4.401   0.834   3.221  0.9389  1.2013  0.2406
   87SOPE   C35 8203   4.582   0.715   3.219  0.2090 -0.3252  0.1532
   87SOPE   H5X 8204   4.654   0.790   3.180  1.2475 -1.0864  0.5687
   87SOPE   H5Y 8205   4.623   0.621   3.177  0.0587  0.9451 -3.1814
   87SOPE   C36 8206   4.584   0.718   3.372 -1.2208 -0.5676  0.9916
   87SOPE   H6X 8207   4.684   0.688   3.409 -2.0648 -1.5573  2.5929
   87SOPE   H6Y 8208   4.516   0.640   3.414 -2.3773  0.4959  1.1610
   87SOPE   C37 8209   4.553   0.862   3.427  0.0847 -0.2414  0.5535
   87SOPE   H7X 8210   4.448   0.889   3.405 -0.4914 -0.9649  2.2229
   87SOPE   H7Y 8211   4.612   0.933   3.365 -0.2843 -2.5681 -2.7206
   87SOPE   C38 8212   4.592   0.875   3.574 -0.3459 -0.8004  0.8176
   87SOPE   H8X 8213   4.588   0.986   3.584  1.8848 -0.1532 -3.2179
   87SOPE   H8Y 8214   4.696   0.840   3.590  0.2081  0.8356  0.9592
   87SOPE   C39 8215   4.496   0.793   3.669  0.3100 -0.1031  0.5139
   87SOPE   H9X 8216   4.504   0.687   3.635 -0.1691  0.3608 -1.1283
   87SOPE   H9Y 8217   4.395   0.836   3.652  1.5818  2.6935 -0.4004
   87SOPE  C310 8218   4.526   0.813   3.818 -0.2475  0.2653 -0.4956
   87SOPE  H10X 8219   4.508   0.919   3.848 -0.0993  0.2974 -0.5173
   87SOPE  H10Y 8220   4.629   0.790   3.851 -1.4027 -1.7939  1.9685
   87SOPE  C311 8221   4.453   0.720   3.920  0.5563  0.0937 -0.2520
   87SOPE  H11X 8222   4.486   0.722   4.026 -0.9523  1.2748  0.2175
   87SOPE  H11Y 8223   4.466   0.617   3.878  2.0391  0.7297 -1.4746
   87SOPE  C312 8224   4.305   0.756   3.932  0.1213  0.2726 -0.0079
   87SOPE  H12X 8225   4.252   0.765   3.835  1.7643 -1.3523 -1.1171
   87SOPE  H12Y 8226   4.284   0.851   3.986 -2.7648 -0.6576  0.7179
   87SOPE  C313 8227   4.231   0.659   4.021  0.0368  0.0101  0.1273
   87SOPE  H13X 8228   4.229   0.688   4.128 -1.4081 -0.4301  0.2339
   87SOPE  H13Y 8229   4.281   0.562   4.001 -1.0034 -0.5269  0.0672
   87SOPE  C314 8230   4.096   0.656   3.966  0.1784 -0.3924  0.1356
   87SOPE  H14X 8231   4.078   0.664   3.857 -1.7752  1.7602  0.5399
   87SOPE  H14Y 8232   4.033   0.733   4.015 -0.1357 -0.3303 -0.3620
   87SOPE  C315 8233   4.034   0.528   4.006 -0.0733  1.2204 -0.1660
   87SOPE  H15X 8234   4.030   0.533   4.117 -2.0077  2.0326 -0.2418
   87SOPE  H15Y 8235   4.087   0.438   3.968 -0.0079  2.5174 -3.4401
   87SOPE  C316 8236   3.889   0.519   3.968  1.0829 -0.3386 -0.2062
   87SOPE  H16X 8237   3.839   0.611   4.004  0.4715 -0.5795 -0.4282
   87SOPE  H16Y 8238   3.848   0.429   4.019  2.9269  0.0806  2.1969
   87SOPE  C317 8239   3.854   0.504   3.818  0.1513  0.2166  0.4780
   87SOPE  H17X 8240   3.899   0.587   3.760 -0.1837  1.2145  1.5866
   87SOPE  H17Y 8241   3.745   0.514   3.800  0.1538  1.9054  1.1162
   87SOPE  C318 8242   3.889   0.365   3.754 -0.3814 -0.5803 -0.6193
   87SOPE  H18X 8243   3.879   0.367   3.644  0.2493 -2.7403 -0.7807
   87SOPE  H18Y 8244   3.818   0.290   3.796 -0.8312 -0.1594 -0.6316
   87SOPE  H18Z 8245   3.993   0.341   3.788 -1.0080  1.0247  2.9293
   88SOPE     N 8246   1.062   1.166   2.165 -0.7885 -0.0938 -0.8024
   88SOPE   HN1 8247   1.154   1.173   2.212 -1.0818  1.4482 -0.4024
   88SOPE   HN2 8248   1.080   1.202   2.069  2.2089  2.1663  0.4179
   88SOPE   HN3 8249   1.004   1.235   2.217 -1.6125 -1.2225 -0.1809
   88SOPE   C12 8250   1.011   1.028   2.179  0.5985  0.1476 -0.1870
   88SOPE  H12A 8251   1.076   0.964   2.115 -1.4269 -0.5522 -1.6662
   88SOPE  H12B 8252   0.910   1.025   2.132  1.4547 -0.7571 -2.0909
   88SOPE   C11 8253   1.008   0.991   2.327  0.5586 -0.1158 -0.7874
   88SOPE  H11A 8254   1.110   1.014   2.363  0.3217  1.3365 -0.9869
   88SOPE  H11B 8255   0.992   0.882   2.344 -0.0938 -0.1674 -1.6355
   88SOPE     P 8256   0.765   1.036   2.409  0.2595  0.3226 -0.6891
   88SOPE   O13 8257   0.733   0.905   2.343 -0.0576  0.1252  0.0272
   88SOPE   O14 8258   0.690   1.151   2.361 -0.0673 -0.0459  0.3903
   88SOPE   O12 8259   0.918   1.072   2.397  0.3705 -0.4485  0.5044
   88SOPE   O11 8260   0.751   1.013   2.564 -0.0567 -0.2366  0.5359
   88SOPE    C1 8261   0.862   0.955   2.635  0.1255 -0.3238  0.3910
   88SOPE    HA 8262   0.956   1.012   2.620 -0.1938  0.2035  0.3677
   88SOPE    HB 8263   0.883   0.850   2.604 -1.2605 -0.8683  1.2208
   88SOPE    C2 8264   0.846   0.968   2.795  0.6177 -0.9082 -0.0148
   88SOPE    HS 8265   0.942   0.944   2.846 -0.3416  0.1521  2.4484
   88SOPE   O21 8266   0.736   0.886   2.842 -0.1840 -0.2702 -0.3909
   88SOPE   C21 8267   0.721   0.853   2.963 -0.4887  0.2091 -0.2783
   88SOPE   O22 8268   0.792   0.886   3.056 -0.1815 -0.5518  0.3656
   88SOPE   C22 8269   0.609   0.749   2.975  0.4439 -0.1252  0.0677
   88SOPE   H2R 8270   0.648   0.668   2.910  1.3101  0.5801 -0.3247
   88SOPE   H2S 8271   0.518   0.790   2.925  2.3114  1.5678 -2.2180
   88SOPE    C3 8272   0.821   1.117   2.815  0.1472  0.1411 -0.5318
   88SOPE    HX 8273   0.737   1.155   2.753  1.5082  1.8136 -1.4467
   88SOPE    HY 8274   0.915   1.172   2.791  1.4145 -1.2253  1.0182
   88SOPE   O31 8275   0.773   1.149   2.946  0.2794  0.1643  0.0257
   88SOPE   C31 8276   0.871   1.155   3.039  0.7894 -0.2066 -0.8254
   88SOPE   O32 8277   0.988   1.158   3.019 -0.0236  0.0395  0.3653
   88SOPE   C32 8278   0.807   1.161   3.173  0.9709 -0.3880  0.6720
   88SOPE   H2X 8279   0.871   1.101   3.241  1.7683 -0.8713 -0.4784
   88SOPE   H2Y 8280   0.709   1.111   3.161  1.1820 -0.5190 -0.6523
   88SOPE   C23 8281   0.581   0.703   3.121  0.5597  0.1754 -0.1119
   88SOPE   H3R 8282   0.672   0.663   3.172  0.7186 -0.7563 -1.0977
   88SOPE   H3S 8283   0.509   0.618   3.117  1.3228 -0.6311  1.6889
   88SOPE   C24 8284   0.513   0.813   3.202 -0.1617  0.4665 -0.8416
   88SOPE   H4R 8285   0.583   0.899   3.205  1.6951 -0.9738 -0.6850
   88SOPE   H4S 8286   0.419   0.848   3.155 -1.4095 -1.8100 -0.2248
   88SOPE   C25 8287   0.475   0.766   3.342 -0.6496  0.1509  0.7043
   88SOPE   H5R 8288   0.401   0.683   3.335  0.3719 -0.9524  2.2848
   88SOPE   H5S 8289   0.563   0.734   3.402  1.0965 -0.6060 -2.0526
   88SOPE   C26 8290   0.392   0.873   3.413 -0.3518  0.2628  0.8409
   88SOPE   H6R 8291   0.436   0.975   3.419 -1.1138  0.8070 -1.5952
   88SOPE   H6S 8292   0.294   0.884   3.361  0.1127  1.6234  0.2070
   88SOPE   C27 8293   0.379   0.838   3.563 -0.2580  0.9043 -0.3024
   88SOPE   H7R 8294   0.360   0.728   3.563 -1.6768  1.1301  0.1505
   88SOPE   H7S 8295   0.467   0.843   3.631  0.2126 -1.3485 -0.6448
   88SOPE   C28 8296   0.256   0.904   3.637  0.1561 -0.5085  0.2333
   88SOPE   H8R 8297   0.162   0.909   3.580 -0.4369 -1.8884  1.0359
   88SOPE   H8S 8298   0.233   0.847   3.730  0.4794 -0.0357  0.6128
   88SOPE   C29 8299   0.289   1.046   3.674 -0.6855 -0.4133 -0.2071
   88SOPE   H91 8300   0.262   1.114   3.592  0.4588 -0.4822 -0.6677
   88SOPE  C210 8301   0.333   1.096   3.786 -0.5189 -0.3584 -0.2137
   88SOPE  H101 8302   0.347   1.205   3.796  0.4906 -0.4287 -0.6551
   88SOPE  C211 8303   0.385   1.029   3.909 -0.1299 -0.3409 -0.5423
   88SOPE  H11R 8304   0.487   1.073   3.920  0.6329 -2.3613  1.0662
   88SOPE  H11S 8305   0.400   0.923   3.883 -0.1582 -0.9651  1.7714
   88SOPE  C212 8306   0.313   1.046   4.043 -0.4932 -0.2469 -0.9641
   88SOPE  H12R 8307   0.306   1.149   4.084 -0.4882 -0.4586 -0.4207
   88SOPE  H12S 8308   0.379   1.005   4.123 -1.8411 -0.1602  0.2331
   88SOPE  C213 8309   0.173   0.981   4.043 -0.4493  0.6010 -0.3238
   88SOPE  H13R 8310   0.186   0.873   4.022 -1.2980  0.1529  1.3159
   88SOPE  H13S 8311   0.115   1.019   3.956 -1.7998 -2.2437 -0.7744
   88SOPE  C214 8312   0.098   1.003   4.174 -0.3824  0.3451  0.0549
   88SOPE  H14R 8313  -0.003   0.958   4.160 -0.3100  0.8816 -2.6793
   88SOPE  H14S 8314   0.085   1.111   4.195 -0.4102  0.1269  1.2720
   88SOPE  C215 8315   0.169   0.928   4.292 -0.2933  0.3680  0.5438
   88SOPE  H15R 8316   0.272   0.970   4.289 -1.1064  2.5008  0.8159
   88SOPE  H15S 8317   0.182   0.819   4.270  2.0739  0.8397 -0.8325
   88SOPE  C216 8318   0.095   0.938   4.424 -0.0620 -0.2422 -0.2881
   88SOPE  H16R 8319   0.147   0.886   4.508  0.1352  1.2085  0.5261
   88SOPE  H16S 8320  -0.003   0.887   4.414  0.3164 -0.8950 -0.7681
   88SOPE  C217 8321   0.081   1.088   4.480 -0.1376  0.0159  0.4045
   88SOPE  H17R 8322   0.020   1.070   4.571  0.1696  1.5500  0.9504
   88SOPE  H17S 8323   0.029   1.149   4.402 -0.6903 -1.3140 -0.2974
   88SOPE  C218 8324   0.210   1.158   4.521 -0.3288 -0.7020 -0.3500
   88SOPE  H18R 8325   0.265   1.101   4.599  2.2497  2.1152  0.0799
   88SOPE  H18S 8326   0.207   1.256   4.572 -1.4529 -0.6402 -0.5277
   88SOPE  H18T 8327   0.271   1.163   4.428 -0.7253 -0.4219 -0.5946
   88SOPE   C33 8328   0.787   1.308   3.233  0.0705 -0.2832  0.0027
   88SOPE   H3X 8329   0.700   1.313   3.302 -0.7775  0.3416 -1.0797
   88SOPE   H3Y 8330   0.759   1.373   3.147  0.7164  0.4806  0.3578
   88SOPE   C34 8331   0.911   1.364   3.300 -0.6080 -0.1227 -0.0879
   88SOPE   H4X 8332   0.885   1.468   3.329  0.3446 -0.4496  2.0972
   88SOPE   H4Y 8333   1.003   1.368   3.237  0.1271 -0.5758  0.9424
   88SOPE   C35 8334   0.948   1.293   3.432  0.3032 -0.1638  0.7043
   88SOPE   H5X 8335   1.049   1.333   3.452  0.9441 -1.3903  0.0128
   88SOPE   H5Y 8336   0.975   1.187   3.412  2.3947  0.1885  1.4352
   88SOPE   C36 8337   0.843   1.305   3.541  0.0710 -0.3282 -0.5513
   88SOPE   H6X 8338   0.758   1.235   3.527  0.3297 -1.2235  1.8808
   88SOPE   H6Y 8339   0.801   1.407   3.555  0.0910 -0.4173  0.2320
   88SOPE   C37 8340   0.890   1.252   3.679 -0.2459 -0.4372 -0.1457
   88SOPE   H7X 8341   0.976   1.313   3.715  0.9430 -1.1186 -1.6922
   88SOPE   H7Y 8342   0.920   1.145   3.667 -0.6581 -0.3993 -1.6517
   88SOPE   C38 8343   0.787   1.262   3.788  0.2339 -0.0992 -0.3443
   88SOPE   H8X 8344   0.693   1.211   3.755 -0.8593  2.4343 -1.4670
   88SOPE   H8Y 8345   0.753   1.363   3.819  2.2999 -0.6527  4.5079
   88SOPE   C39 8346   0.837   1.200   3.916  1.2495  0.4882 -0.6406
   88SOPE   H9X 8347   0.923   1.260   3.952  2.1568 -0.5634 -0.9950
   88SOPE   H9Y 8348   0.856   1.091   3.914 -0.6614 -0.1500  4.0967
   88SOPE  C310 8349   0.731   1.227   4.025  0.1215 -0.4733 -0.6693
   88SOPE  H10X 8350   0.626   1.205   3.994 -0.0480 -2.1434  0.9850
   88SOPE  H10Y 8351   0.730   1.324   4.079  0.4123 -0.5153 -0.5896
   88SOPE  C311 8352   0.774   1.137   4.146  0.4403  0.6454  0.1106
   88SOPE  H11X 8353   0.866   1.171   4.199  0.5830 -1.3603  1.2520
   88SOPE  H11Y 8354   0.770   1.031   4.112  0.5412  0.3617  0.9426
   88SOPE  C312 8355   0.662   1.152   4.258  0.7661 -0.4337  0.3784
   88SOPE  H12X 8356   0.563   1.161   4.207  2.0986  0.3398 -2.2717
   88SOPE  H12Y 8357   0.683   1.254   4.297 -0.9376 -0.2218  0.8515
   88SOPE  C313 8358   0.668   1.054   4.368 -0.0205  0.5348 -0.8651
   88SOPE  H13X 8359   0.768   1.007   4.373 -0.1217  0.4250  0.3429
   88SOPE  H13Y 8360   0.585   0.982   4.350  0.5390 -0.5090  0.5732
   88SOPE  C314 8361   0.629   1.106   4.505  0.3929  0.2826 -0.0500
   88SOPE  H14X 8362   0.519   1.121   4.503  0.2206 -0.9014 -0.1705
   88SOPE  H14Y 8363   0.663   1.212   4.512 -0.3539  0.6998 -1.9475
   88SOPE  C315 8364   0.659   1.032   4.626  0.0490  0.6984  0.4221
   88SOPE  H15X 8365   0.767   1.011   4.642  0.6950  1.5449 -2.2078
   88SOPE  H15Y 8366   0.618   0.931   4.608 -2.9486  1.6650  1.2528
   88SOPE  C316 8367   0.597   1.092   4.751  0.2678  0.2632 -0.4183
   88SOPE  H16X 8368   0.501   1.140   4.725 -0.0999 -0.9897 -1.4967
   88SOPE  H16Y 8369   0.676   1.162   4.783  0.5874 -1.0849  1.9933
   88SOPE  C317 8370   0.574   0.998   4.862 -0.2002  0.9736  0.0455
   88SOPE  H17X 8371   0.655   0.924   4.883 -1.5056 -0.5175  0.0178
   88SOPE  H17Y 8372   0.504   0.922   4.822 -0.6028  1.3435  0.0497
   88SOPE  C318 8373   0.513   1.060   4.986  0.6684 -0.2309 -0.1865
   88SOPE  H18X 8374   0.443   0.996   5.043 -1.3091  0.8615 -1.2520
   88SOPE  H18Y 8375   0.437   1.128   4.942 -0.5910 -1.7547 -0.4645
   88SOPE  H18Z 8376   0.591   1.111   5.046  1.1596 -1.9059  0.6290
   89SAPC     N 8377   5.115   4.536   6.927  0.3851  0.2047  0.3931
   89SAPC   C12 8378   5.155   4.499   6.784  0.4627  0.6204  0.0208
   89SAPC  H12A 8379   5.258   4.467   6.785  0.2429 -0.3658 -2.1670
   89SAPC  H12B 8380   5.153   4.585   6.720 -0.8572 -0.0099 -0.8557
   89SAPC   C13 8381   4.977   4.600   6.927  0.2913  0.3375 -0.3299
   89SAPC  H13A 8382   4.946   4.632   7.026  0.5649  0.4481 -0.2799
   89SAPC  H13B 8383   4.975   4.688   6.864 -1.0919  2.4262  2.4174
   89SAPC  H13C 8384   4.902   4.533   6.888 -0.6120  1.1021  0.0481
   89SAPC   C14 8385   5.116   4.413   7.010 -0.7064 -0.6829  0.5011
   89SAPC  H14A 8386   5.094   4.434   7.114 -0.9168  3.2916 -0.1867
   89SAPC  H14B 8387   5.035   4.351   6.975 -0.2646 -0.0286 -1.8620
   89SAPC  H14C 8388   5.213   4.368   6.996 -0.3722 -0.1542  1.0363
   89SAPC   C15 8389   5.216   4.639   6.965  0.4976  0.2074  0.4413
   89SAPC  H15A 8390   5.206   4.676   7.066  0.7861 -0.7222  0.8247
   89SAPC  H15B 8391   5.316   4.598   6.957  0.6789  0.8840 -1.3941
   89SAPC  H15C 8392   5.223   4.722   6.896 -1.5917  1.5061  1.6959
   89SAPC   C11 8393   5.062   4.403   6.694  0.5694 -0.5487 -0.0586
   89SAPC  H11A 8394   5.099   4.410   6.589  0.0816  1.5422 -0.1354
   89SAPC  H11B 8395   4.965   4.455   6.708 -0.0676 -1.9501  0.9703
   89SAPC     P 8396   5.171   4.174   6.723  0.0071  0.0319  0.2188
   89SAPC   O13 8397   5.288   4.245   6.767 -0.8805  0.2704  0.1091
   89SAPC   O14 8398   5.135   4.045   6.779  0.3234 -0.0354  0.2372
   89SAPC   O12 8399   5.051   4.267   6.741 -0.5347  0.2066 -0.0619
   89SAPC   O11 8400   5.181   4.163   6.562  0.5152 -0.0259  0.7795
   89SAPC    C1 8401   5.058   4.142   6.492  0.0790 -0.2167  0.2697
   89SAPC    HA 8402   4.980   4.096   6.555 -1.4520  0.3886 -1.1198
   89SAPC    HB 8403   5.017   4.237   6.452 -0.5848 -0.6083  0.0209
   89SAPC    C2 8404   5.082   4.047   6.363 -0.3535  0.2446  0.3342
   89SAPC    HS 8405   5.121   3.948   6.395 -1.7782 -0.1803  0.8232
   89SAPC   O21 8406   5.172   4.124   6.281  0.6598 -0.3565 -0.0952
   89SAPC   C21 8407   5.300   4.105   6.304  0.2365  0.2990  0.4793
   89SAPC   O22 8408   5.338   4.024   6.382 -0.0857  0.6656  0.0804
   89SAPC   C22 8409   5.374   4.219   6.236  0.3853 -0.2554 -0.2471
   89SAPC   H2R 8410   5.384   4.189   6.130  1.3356 -3.4486  0.6256
   89SAPC   H2S 8411   5.317   4.314   6.243  0.7985  0.0371 -0.8599
   89SAPC    C3 8412   4.963   4.031   6.273  0.0213  0.3104 -0.1699
   89SAPC    HX 8413   4.931   4.136   6.253  0.7850  1.1158  2.3584
   89SAPC    HY 8414   4.882   3.981   6.331  0.1084  1.1804  0.7434
   89SAPC   O31 8415   4.993   3.951   6.157 -0.4782 -0.1979  0.4403
   89SAPC   C31 8416   4.938   3.837   6.130  0.0902 -0.1164 -0.8903
   89SAPC   O32 8417   4.834   3.798   6.182 -0.1326 -0.5013  0.5542
   89SAPC   C32 8418   5.016   3.767   6.028  0.2197 -0.0996  0.6353
   89SAPC   H2X 8419   5.001   3.658   6.047 -0.4747 -0.0049  0.6884
   89SAPC   H2Y 8420   5.126   3.777   6.028  0.3541 -1.3242  1.1387
   89SAPC   C23 8421   5.516   4.244   6.296 -0.5756 -0.3653  0.3373
   89SAPC   H3R 8422   5.514   4.219   6.404 -0.9095  0.1816  0.4593
   89SAPC   H3S 8423   5.546   4.349   6.277 -1.8143 -0.1543 -0.6153
   89SAPC   C24 8424   5.628   4.154   6.229  0.1400 -0.0928 -0.3004
   89SAPC   H4R 8425   5.619   4.159   6.118 -2.6100  1.4985 -0.1035
   89SAPC   H4S 8426   5.600   4.051   6.258  0.8890 -0.9748 -2.5235
   89SAPC   C25 8427   5.770   4.189   6.275  0.4353 -0.6086 -0.0258
   89SAPC   H5R 8428   5.782   4.175   6.383  0.0722  1.6155  0.3552
   89SAPC   C26 8429   5.878   4.232   6.193 -0.0978 -0.0614 -0.6285
   89SAPC   H6R 8430   5.979   4.237   6.235 -0.2793  0.3519 -0.2471
   89SAPC   C27 8431   5.871   4.246   6.043 -0.4029 -0.1469 -0.1532
   89SAPC   H7R 8432   5.952   4.320   6.027 -0.7148  1.0290  2.9334
   89SAPC   H7S 8433   5.774   4.295   6.018 -0.6498  1.0909  2.7679
   89SAPC   C28 8434   5.883   4.123   5.963 -0.0853  0.3690 -0.2997
   89SAPC   H8R 8435   5.821   4.035   5.984  1.3960 -1.2332 -2.2148
   89SAPC   C29 8436   5.973   4.099   5.862  0.6294  0.7373  0.1203
   89SAPC   H9R 8437   5.968   4.002   5.811 -0.8246  1.6628 -1.6064
   89SAPC  C210 8438   6.081   4.198   5.809 -0.2738  0.0954  0.3279
   89SAPC  H10R 8439   6.170   4.139   5.777  0.2774  1.0963 -0.0023
   89SAPC  H10S 8440   6.106   4.273   5.886 -0.2676 -0.5675  0.9844
   89SAPC  C211 8441   6.029   4.264   5.682 -0.6187 -0.1719  0.2180
   89SAPC  H11R 8442   5.958   4.341   5.713 -0.3376  0.0747  0.2497
   89SAPC  C212 8443   6.041   4.245   5.550  0.0291 -0.2885 -0.5307
   89SAPC  H12R 8444   5.979   4.314   5.492 -1.2651  0.2134  1.3898
   89SAPC  C213 8445   6.119   4.140   5.476  0.2030  1.1404 -0.3920
   89SAPC  H13R 8446   6.042   4.068   5.442 -0.9735  2.2320 -0.0850
   89SAPC  H13S 8447   6.180   4.091   5.555  0.7759 -0.3875 -1.7288
   89SAPC  C214 8448   6.204   4.182   5.356  0.0706  0.3627  0.3743
   89SAPC  H14R 8449   6.162   4.266   5.300  1.0807 -0.1132 -1.1789
   89SAPC  C215 8450   6.327   4.139   5.320 -0.0886 -0.1233  0.0113
   89SAPC  H15R 8451   6.383   4.185   5.237  0.2271 -1.6398 -0.6548
   89SAPC  C216 8452   6.396   4.028   5.391  1.0021  0.7816  0.2435
   89SAPC  H16R 8453   6.318   3.951   5.408 -0.3983  1.7198 -1.5700
   89SAPC  H16S 8454   6.445   4.039   5.489  2.2237 -1.7439  0.0085
   89SAPC  C217 8455   6.505   3.974   5.307 -0.0192 -0.8374  0.3344
   89SAPC  H17R 8456   6.591   3.943   5.370  1.0979 -0.0924 -0.7730
   89SAPC  H17S 8457   6.560   4.051   5.250  0.9195 -0.6808  1.4128
   89SAPC  C218 8458   6.469   3.849   5.224  0.0068  0.5405 -0.0466
   89SAPC  H18R 8459   6.407   3.799   5.301 -0.4412  1.9522  0.5373
   89SAPC  H18S 8460   6.567   3.798   5.210  3.0937  5.4858  1.1236
   89SAPC  C219 8461   6.403   3.873   5.090 -0.4780  0.1714  0.2720
   89SAPC  H19R 8462   6.472   3.929   5.022 -1.7562  1.7925  0.2674
   89SAPC  H19S 8463   6.310   3.931   5.105 -0.4258  0.8323 -1.6777
   89SAPC  C220 8464   6.357   3.743   5.010 -0.6353 -0.8472 -0.6103
   89SAPC  H20R 8465   6.275   3.690   5.064 -2.0494  0.5047 -1.3237
   89SAPC  H20S 8466   6.448   3.685   4.986 -0.2298  0.1249 -1.5065
   89SAPC  H20T 8467   6.300   3.779   4.921 -1.7209  0.6020  0.6046
   89SAPC   C33 8468   4.959   3.799   5.883 -0.4892 -0.1624 -0.9866
   89SAPC   H3X 8469   4.857   3.842   5.887  0.0580  1.2506 -1.5010
   89SAPC   H3Y 8470   4.955   3.701   5.831  0.1798 -0.5765 -0.2810
   89SAPC   C34 8471   5.050   3.895   5.805  0.3032  0.1601 -0.9399
   89SAPC   H4X 8472   5.148   3.846   5.792 -0.8671 -2.0792 -1.9709
   89SAPC   H4Y 8473   5.057   3.997   5.849  1.5449  0.6615 -2.2242
   89SAPC   C35 8474   5.003   3.929   5.660  0.8452  0.1794  0.0626
   89SAPC   H5X 8475   4.996   3.830   5.611 -0.7280 -0.1670  0.9152
   89SAPC   H5Y 8476   5.084   3.975   5.599  1.4665 -1.1140 -0.1078
   89SAPC   C36 8477   4.870   4.002   5.660  0.2516 -0.8011 -0.5495
   89SAPC   H6X 8478   4.891   4.098   5.711 -1.9966 -0.0686 -0.8840
   89SAPC   H6Y 8479   4.787   3.944   5.708 -0.4540  0.1977 -0.5289
   89SAPC   C37 8480   4.812   4.053   5.524  0.5343  0.1450 -0.1811
   89SAPC   H7X 8481   4.782   3.966   5.462  2.1132 -0.4257 -0.1732
   89SAPC   H7Y 8482   4.898   4.097   5.469  1.1169  0.7799  1.1936
   89SAPC   C38 8483   4.698   4.153   5.530 -0.3739 -0.2961 -0.1707
   89SAPC   H8X 8484   4.730   4.237   5.595  1.5442  0.6365 -2.1927
   89SAPC   H8Y 8485   4.611   4.100   5.574  0.0758 -2.4586 -1.7084
   89SAPC   C39 8486   4.673   4.220   5.397 -0.4944 -0.1050  0.4820
   89SAPC   H9X 8487   4.774   4.259   5.373 -1.0848 -0.2248 -2.4862
   89SAPC   H9Y 8488   4.608   4.308   5.417  0.6991  1.7100 -2.8860
   89SAPC  C310 8489   4.611   4.142   5.283  0.3202  0.3914 -0.9393
   89SAPC  H10X 8490   4.506   4.109   5.298  1.5077 -2.8802  1.3184
   89SAPC  H10Y 8491   4.665   4.045   5.280  0.7765  0.6483 -0.9834
   89SAPC  C311 8492   4.622   4.204   5.140 -0.9722  0.1557  0.0580
   89SAPC  H11X 8493   4.731   4.221   5.126 -0.4882 -0.4187  2.6763
   89SAPC  H11Y 8494   4.562   4.298   5.132 -1.3877 -0.2361 -1.9545
   89SAPC  C312 8495   4.566   4.103   5.037  0.7381 -0.1598 -1.0343
   89SAPC  H12X 8496   4.465   4.083   5.077  1.8884  0.2193  2.3422
   89SAPC  H12Y 8497   4.609   4.002   5.050 -1.5607 -1.0767 -0.2252
   89SAPC  C313 8498   4.583   4.161   4.894 -0.5123  0.0538 -1.3000
   89SAPC  H13X 8499   4.691   4.183   4.879  0.6686 -2.4770  2.0120
   89SAPC  H13Y 8500   4.515   4.248   4.883 -0.0330  0.5354 -0.5351
   89SAPC  C314 8501   4.543   4.054   4.787 -0.3729  0.4802 -0.6552
   89SAPC  H14X 8502   4.435   4.034   4.803  0.0780 -2.6000 -0.7862
   89SAPC  H14Y 8503   4.603   3.961   4.798 -1.5534 -0.6516 -2.9995
   89SAPC  C315 8504   4.560   4.099   4.638 -0.1203  0.6362  0.0920
   89SAPC  H15X 8505   4.669   4.115   4.626 -0.2507  2.3990  0.9160
   89SAPC  H15Y 8506   4.514   4.200   4.626  1.5073  1.2992 -0.8959
   89SAPC  C316 8507   4.514   3.997   4.533  0.6644  0.6213 -0.9372
   89SAPC  H16X 8508   4.518   4.048   4.434  0.4343 -0.3779 -1.4756
   89SAPC  H16Y 8509   4.405   3.981   4.541  0.9719 -0.6398  2.8630
   89SAPC  C317 8510   4.586   3.865   4.546  0.4399  0.0020 -0.3320
   89SAPC  H17X 8511   4.544   3.822   4.640  1.2910  1.5605  0.8105
   89SAPC  H17Y 8512   4.695   3.880   4.560  0.1157  2.0001  0.3275
   89SAPC  C318 8513   4.550   3.772   4.425  0.1620  0.5193 -0.3272
   89SAPC  H18X 8514   4.581   3.827   4.334  1.2390  0.4357 -0.0197
   89SAPC  H18Y 8515   4.451   3.721   4.423  0.8452 -0.8315 -0.8183
   89SAPC  H18Z 8516   4.621   3.687   4.421 -0.1067  0.2445  0.3730
   90SAPC     N 8517   4.302   6.657   6.919 -0.2209  0.2107  0.0198
   90SAPC   C12 8518   4.242   6.613   6.789  0.6135  0.2093 -0.5007
   90SAPC  H12A 8519   4.142   6.573   6.800 -0.3910  1.7596 -3.0881
   90SAPC  H12B 8520   4.298   6.534   6.742  0.2796 -1.1782  1.3029
   90SAPC   C13 8521   4.449   6.636   6.914 -0.2131  0.9846 -0.0420
   90SAPC  H13A 8522   4.489   6.655   7.013 -1.2327  0.1327  0.5632
   90SAPC  H13B 8523   4.476   6.533   6.893  1.9797  1.1060  1.8213
   90SAPC  H13C 8524   4.492   6.708   6.846  0.8587  1.2450  0.8911
   90SAPC   C14 8525   4.277   6.805   6.960  0.0296 -0.4098  0.3090
   90SAPC  H14A 8526   4.316   6.816   7.061  0.4216 -0.0428  0.1241
   90SAPC  H14B 8527   4.332   6.869   6.893 -0.1936 -0.7732 -0.2248
   90SAPC  H14C 8528   4.172   6.827   6.970  0.1894  1.6375 -1.8135
   90SAPC   C15 8529   4.249   6.571   7.032 -0.8688 -0.0559  0.2200
   90SAPC  H15A 8530   4.287   6.471   7.021 -2.6195 -0.7253 -0.0510
   90SAPC  H15B 8531   4.263   6.608   7.133 -2.7861 -0.3929  0.6461
   90SAPC  H15C 8532   4.141   6.560   7.028 -1.6291  1.9568  5.7627
   90SAPC   C11 8533   4.242   6.713   6.670  0.4141 -0.1126  0.4717
   90SAPC  H11A 8534   4.176   6.802   6.685 -0.5368 -0.5109 -1.0977
   90SAPC  H11B 8535   4.192   6.663   6.585  0.6977 -1.1311  0.8954
   90SAPC     P 8536   4.480   6.696   6.556 -0.4452  0.0092 -0.0833
   90SAPC   O13 8537   4.616   6.739   6.589  0.0700  0.5993  0.0853
   90SAPC   O14 8538   4.460   6.550   6.561  0.3614  0.0014  0.0699
   90SAPC   O12 8539   4.371   6.771   6.643 -0.0286 -0.0139 -0.0833
   90SAPC   O11 8540   4.435   6.755   6.414  0.3088  0.5222 -1.0788
   90SAPC    C1 8541   4.465   6.887   6.388  0.2643 -0.0298  0.4921
   90SAPC    HA 8542   4.489   6.949   6.477  0.9351 -1.4266  1.3337
   90SAPC    HB 8543   4.561   6.889   6.332  0.0389  2.0292  0.0970
   90SAPC    C2 8544   4.352   6.947   6.306 -0.2158 -0.2481  0.5761
   90SAPC    HS 8545   4.254   6.940   6.359 -1.5979  0.9623 -1.6554
   90SAPC   O21 8546   4.357   6.877   6.182 -0.1218  0.1903 -0.3412
   90SAPC   C21 8547   4.245   6.865   6.108 -0.4696  0.1103 -0.7739
   90SAPC   O22 8548   4.134   6.892   6.145 -0.1238 -0.1143 -1.1997
   90SAPC   C22 8549   4.273   6.823   5.962  0.0924  0.0933  0.4812
   90SAPC   H2R 8550   4.381   6.837   5.942 -0.1420  0.5868 -0.5233
   90SAPC   H2S 8551   4.257   6.714   5.947  3.1209 -0.2563 -0.7813
   90SAPC    C3 8552   4.378   7.098   6.276  0.4792 -0.5967 -1.2377
   90SAPC    HX 8553   4.481   7.123   6.242  1.3906  0.2539  1.8419
   90SAPC    HY 8554   4.373   7.149   6.374  2.7370  2.5124 -2.5515
   90SAPC   O31 8555   4.277   7.164   6.198  0.3665  0.3054  0.4288
   90SAPC   C31 8556   4.158   7.182   6.252  0.3704  0.1049  0.2837
   90SAPC   O32 8557   4.128   7.154   6.366 -0.3942 -0.2624 -0.1786
   90SAPC   C32 8558   4.068   7.254   6.153 -0.4208  0.0911  0.1433
   90SAPC   H2X 8559   4.041   7.194   6.063  1.3718  0.7601 -0.8933
   90SAPC   H2Y 8560   4.130   7.334   6.106  0.5300 -0.4556  0.4290
   90SAPC   C23 8561   4.184   6.908   5.869  0.1709 -0.3999  0.3138
   90SAPC   H3R 8562   4.206   7.015   5.889 -1.1601 -0.4648  2.3926
   90SAPC   H3S 8563   4.077   6.892   5.893 -0.0016 -1.9743 -1.2526
   90SAPC   C24 8564   4.199   6.869   5.719  0.4961  1.2200  0.4701
   90SAPC   H4R 8565   4.099   6.876   5.671  0.9964 -3.4927 -1.7684
   90SAPC   H4S 8566   4.234   6.764   5.721  0.5932  1.1807 -1.4036
   90SAPC   C25 8567   4.289   6.949   5.632  0.2364  0.7144 -0.6865
   90SAPC   H5R 8568   4.316   7.046   5.677 -0.0109 -0.3701  1.9342
   90SAPC   C26 8569   4.321   6.938   5.503  0.1048  0.5476 -0.7558
   90SAPC   H6R 8570   4.371   7.022   5.452 -0.7713  1.2159 -0.5526
   90SAPC   C27 8571   4.286   6.823   5.415  0.9241  0.5307  0.8694
   90SAPC   H7R 8572   4.182   6.841   5.380  1.0341  1.1661  0.8494
   90SAPC   H7S 8573   4.290   6.740   5.488  1.4377  0.6078  0.9346
   90SAPC   C28 8574   4.389   6.806   5.307 -0.3268 -0.0497  0.0181
   90SAPC   H8R 8575   4.490   6.814   5.350 -0.8692  2.2563  0.9676
   90SAPC   C29 8576   4.379   6.755   5.186  0.7143  0.5242  0.6061
   90SAPC   H9R 8577   4.466   6.774   5.121  0.3546 -1.0397 -0.3956
   90SAPC  C210 8578   4.249   6.731   5.117  0.3417 -0.5527  0.3261
   90SAPC  H10R 8579   4.172   6.754   5.194  1.1940 -0.0414  1.0493
   90SAPC  H10S 8580   4.234   6.628   5.078  1.9527 -1.2533  1.4379
   90SAPC  C211 8581   4.241   6.838   5.011  0.0136 -0.0942 -0.0103
   90SAPC  H11R 8582   4.217   6.933   5.062 -0.2003  0.0119 -0.3039
   90SAPC  C212 8583   4.234   6.831   4.875  0.6708 -0.5215  1.5926
   90SAPC  H12R 8584   4.253   6.920   4.813 -0.7851 -0.4076  1.2779
   90SAPC  C213 8585   4.243   6.705   4.801  0.3229 -0.0707 -0.8718
   90SAPC  H13R 8586   4.151   6.702   4.739  0.1846 -2.5871 -0.6567
   90SAPC  H13S 8587   4.229   6.611   4.858  0.0211  0.0978 -0.6678
   90SAPC  C214 8588   4.351   6.693   4.698 -0.3819 -0.0408  0.2350
   90SAPC  H14R 8589   4.327   6.728   4.596  1.2453  0.4674  0.0010
   90SAPC  C215 8590   4.465   6.624   4.713 -0.0250  0.6854  0.2192
   90SAPC  H15R 8591   4.547   6.626   4.640  1.4212  0.6394  1.7708
   90SAPC  C216 8592   4.503   6.554   4.842  0.2576 -0.1396  0.2846
   90SAPC  H16R 8593   4.415   6.544   4.909 -0.5137 -2.0483 -0.9346
   90SAPC  H16S 8594   4.578   6.613   4.899  3.3132 -0.4426 -3.0700
   90SAPC  C217 8595   4.564   6.412   4.826  1.1556  1.0059  0.0767
   90SAPC  H17R 8596   4.648   6.414   4.754  2.1060 -1.1163  1.0533
   90SAPC  H17S 8597   4.487   6.345   4.782  1.8071  0.0628  0.3368
   90SAPC  C218 8598   4.606   6.362   4.964 -0.1675 -0.3091 -0.3004
   90SAPC  H18R 8599   4.670   6.431   5.022  0.4942 -1.9767  1.0189
   90SAPC  H18S 8600   4.661   6.265   4.972 -0.7873 -0.7225 -0.8731
   90SAPC  C219 8601   4.475   6.332   5.042  0.3554  0.6209  0.6699
   90SAPC  H19R 8602   4.406   6.286   4.968  1.1865  1.6425 -0.8038
   90SAPC  H19S 8603   4.417   6.420   5.076 -1.3869  0.0813 -0.7395
   90SAPC  C220 8604   4.499   6.235   5.154  1.0278 -0.1521  0.0627
   90SAPC  H20R 8605   4.569   6.153   5.124  1.0702 -0.3710  0.7403
   90SAPC  H20S 8606   4.404   6.191   5.190 -0.0165  0.2734 -1.9944
   90SAPC  H20T 8607   4.555   6.292   5.231  0.8992  1.1036 -0.7585
   90SAPC   C33 8608   3.949   7.320   6.223 -0.2876  0.1567  0.0262
   90SAPC   H3X 8609   3.993   7.392   6.296 -1.7007 -0.3270  1.4038
   90SAPC   H3Y 8610   3.891   7.250   6.288 -0.6676 -0.0833 -0.5663
   90SAPC   C34 8611   3.868   7.400   6.122 -0.7687  0.5694  0.7097
   90SAPC   H4X 8612   3.767   7.356   6.116 -0.2999 -0.6780  1.5554
   90SAPC   H4Y 8613   3.908   7.390   6.019 -2.3230  2.7044 -0.1705
   90SAPC   C35 8614   3.879   7.553   6.141  0.0973 -0.1028 -0.7077
   90SAPC   H5X 8615   3.982   7.589   6.119  0.9666 -1.7394  0.5087
   90SAPC   H5Y 8616   3.856   7.569   6.249 -0.4385  0.0606 -0.8456
   90SAPC   C36 8617   3.764   7.632   6.086 -0.0115 -0.2631  0.2725
   90SAPC   H6X 8618   3.741   7.719   6.152 -0.8859  0.1449 -0.5503
   90SAPC   H6Y 8619   3.666   7.580   6.093 -1.1301  1.7089  0.0181
   90SAPC   C37 8620   3.775   7.687   5.943 -0.1958  0.1029 -0.4278
   90SAPC   H7X 8621   3.686   7.739   5.901 -0.4378 -0.2777 -0.3947
   90SAPC   H7Y 8622   3.775   7.595   5.881  1.2731  0.1678 -0.5380
   90SAPC   C38 8623   3.905   7.762   5.910  0.5518 -0.6728  0.6449
   90SAPC   H8X 8624   3.993   7.699   5.935 -0.5702 -1.2107  3.5666
   90SAPC   H8Y 8625   3.892   7.857   5.965 -3.6474  0.4929 -1.8404
   90SAPC   C39 8626   3.912   7.796   5.761 -0.3871  0.7078 -0.1915
   90SAPC   H9X 8627   3.987   7.878   5.750 -0.6097  0.6213 -3.4895
   90SAPC   H9Y 8628   3.813   7.821   5.717 -0.9825 -1.6586 -0.3358
   90SAPC  C310 8629   3.964   7.674   5.673  0.2626 -0.5413 -0.3348
   90SAPC  H10X 8630   3.893   7.589   5.687  1.3451 -1.8976 -2.4264
   90SAPC  H10Y 8631   4.062   7.640   5.713 -0.5420 -1.1430  1.2024
   90SAPC  C311 8632   3.965   7.705   5.525  0.1064  0.2387  0.8152
   90SAPC  H11X 8633   3.858   7.716   5.499  0.0173  1.9972  1.7346
   90SAPC  H11Y 8634   3.994   7.614   5.469 -0.4321  1.1206 -0.9880
   90SAPC  C312 8635   4.056   7.824   5.488  0.6334 -0.2515  0.3556
   90SAPC  H12X 8636   4.162   7.802   5.514  0.2581 -1.7836  0.6713
   90SAPC  H12Y 8637   4.018   7.911   5.546  0.5543 -0.3116  0.3939
   90SAPC  C313 8638   4.064   7.849   5.337  0.4380  0.5817  0.2196
   90SAPC  H13X 8639   4.121   7.764   5.295  1.0847  1.2381 -0.2523
   90SAPC  H13Y 8640   4.128   7.938   5.316  1.3858 -0.0870  0.2471
   90SAPC  C314 8641   3.925   7.875   5.287  0.6246  0.3717  0.0624
   90SAPC  H14X 8642   3.870   7.934   5.363  1.0466  2.4628 -1.1759
   90SAPC  H14Y 8643   3.862   7.783   5.283  1.0544  0.1022 -2.8466
   90SAPC  C315 8644   3.929   7.925   5.146  0.5070 -0.5420  0.0172
   90SAPC  H15X 8645   3.979   8.024   5.146  0.5922 -0.5824 -0.6944
   90SAPC  H15Y 8646   3.824   7.939   5.112  0.9853  3.1874 -0.3799
   90SAPC  C316 8647   3.997   7.826   5.043 -0.3820  0.0758  0.0633
   90SAPC  H16X 8648   3.967   7.721   5.063  2.0709 -0.6325  0.3708
   90SAPC  H16Y 8649   4.108   7.827   5.053 -0.1916 -0.6413 -1.6796
   90SAPC  C317 8650   3.961   7.866   4.892 -0.1115 -0.8689 -0.1674
   90SAPC  H17X 8651   3.978   7.973   4.866  1.0076 -0.0892  3.1592
   90SAPC  H17Y 8652   3.850   7.857   4.891 -0.3933  1.7829 -0.9926
   90SAPC  C318 8653   4.026   7.784   4.782 -0.1622  0.4431 -0.4861
   90SAPC  H18X 8654   3.976   7.802   4.684 -1.0528 -0.1089 -0.1405
   90SAPC  H18Y 8655   4.013   7.677   4.807 -0.2101  0.5989  0.1793
   90SAPC  H18Z 8656   4.135   7.804   4.775  0.3442 -1.7355  0.4815
   91SAPC     N 8657   0.427   1.441   6.803 -0.1238  0.6649 -0.2562
   91SAPC   C12 8658   0.571   1.437   6.757 -0.1103  0.5399 -0.1234
   91SAPC  H12A 8659   0.621   1.521   6.803  1.0802 -0.0264 -0.3250
   91SAPC  H12B 8660   0.578   1.456   6.651  2.3586  0.4839 -0.0362
   91SAPC   C13 8661   0.414   1.407   6.949 -0.6493 -0.4335 -0.2225
   91SAPC  H13A 8662   0.445   1.306   6.973 -2.7185 -1.4585 -1.5395
   91SAPC  H13B 8663   0.478   1.474   7.002 -0.8522  0.2995 -0.8805
   91SAPC  H13C 8664   0.313   1.435   6.976 -0.2165  1.2298 -0.2690
   91SAPC   C14 8665   0.367   1.570   6.783  0.6295 -0.3670  0.6201
   91SAPC  H14A 8666   0.431   1.652   6.811 -0.6796  0.1605  2.2091
   91SAPC  H14B 8667   0.349   1.591   6.678  0.6246  1.8390  1.0289
   91SAPC  H14C 8668   0.276   1.579   6.840  1.8440  0.0546  2.5734
   91SAPC   C15 8669   0.343   1.332   6.722 -0.1127  0.3114  0.2290
   91SAPC  H15A 8670   0.351   1.349   6.616  0.6781 -1.5394 -0.0394
   91SAPC  H15B 8671   0.378   1.231   6.736 -2.2914 -0.2027  3.0218
   91SAPC  H15C 8672   0.239   1.330   6.751 -0.3126 -0.3771 -0.5140
   91SAPC   C11 8673   0.659   1.309   6.765  0.0385  0.2062 -0.0533
   91SAPC  H11A 8674   0.666   1.268   6.868 -3.1652 -1.6404 -0.4297
   91SAPC  H11B 8675   0.759   1.345   6.733 -0.1215  0.8292  0.1356
   91SAPC     P 8676   0.632   1.184   6.535 -0.2358  0.1475  0.0512
   91SAPC   O13 8677   0.613   1.038   6.512 -0.2882  0.2534  0.3687
   91SAPC   O14 8678   0.547   1.267   6.452 -0.0535 -0.5911  0.5779
   91SAPC   O12 8679   0.605   1.205   6.687  0.3129  0.2632 -0.2456
   91SAPC   O11 8680   0.787   1.221   6.533 -0.0258 -0.3999  0.7431
   91SAPC    C1 8681   0.840   1.349   6.485 -0.1053  0.1181  0.1481
   91SAPC    HA 8682   0.761   1.426   6.471  0.3386  0.5213 -0.1691
   91SAPC    HB 8683   0.919   1.386   6.553  2.0096  0.1687 -2.1753
   91SAPC    C2 8684   0.909   1.329   6.344  0.4811 -0.4997  0.2724
   91SAPC    HS 8685   0.952   1.425   6.307 -1.1912  0.4626  0.7108
   91SAPC   O21 8686   0.823   1.281   6.235 -0.2603  0.1455 -0.8958
   91SAPC   C21 8687   0.727   1.362   6.210  0.6160  1.1716 -0.0291
   91SAPC   O22 8688   0.726   1.482   6.236 -0.2993  0.4751  0.0472
   91SAPC   C22 8689   0.626   1.286   6.124 -0.2501  0.0152  0.0059
   91SAPC   H2R 8690   0.691   1.220   6.062 -0.1820 -0.6325  0.7496
   91SAPC   H2S 8691   0.555   1.225   6.184  1.7820 -0.6451  1.8844
   91SAPC    C3 8692   1.031   1.238   6.362  0.0384 -0.1271  0.8722
   91SAPC    HX 8693   0.996   1.133   6.356 -0.1993  0.0161 -2.8936
   91SAPC    HY 8694   1.085   1.248   6.458  1.3897 -1.2140  0.2430
   91SAPC   O31 8695   1.123   1.267   6.248  0.6569  0.3341 -1.0147
   91SAPC   C31 8696   1.149   1.175   6.164  0.5604 -0.2534 -0.0072
   91SAPC   O32 8697   1.132   1.057   6.184 -0.3710  0.6199  0.2770
   91SAPC   C32 8698   1.196   1.226   6.028  0.4539 -0.3518 -0.1960
   91SAPC   H2X 8699   1.279   1.295   6.056  0.4105 -0.8702  1.3006
   91SAPC   H2Y 8700   1.115   1.284   5.978 -0.1415 -1.1024 -0.1260
   91SAPC   C23 8701   0.541   1.382   6.026 -0.6673  0.0235  0.2108
   91SAPC   H3R 8702   0.613   1.450   5.974 -0.7630  1.1455  1.4921
   91SAPC   H3S 8703   0.474   1.441   6.092 -0.0886 -1.0724  1.8177
   91SAPC   C24 8704   0.461   1.304   5.916 -0.2626  0.3329  1.2347
   91SAPC   H4R 8705   0.394   1.383   5.878 -0.3978  0.3582  1.5258
   91SAPC   H4S 8706   0.397   1.224   5.959 -0.7988  1.1937  2.0653
   91SAPC   C25 8707   0.559   1.249   5.822 -0.4028 -0.1527 -0.0739
   91SAPC   H5R 8708   0.635   1.189   5.873  1.5527  1.5132 -0.8991
   91SAPC   C26 8709   0.555   1.260   5.694 -0.0906  0.1240 -0.2908
   91SAPC   H6R 8710   0.636   1.212   5.637 -0.2922 -1.1102  0.4232
   91SAPC   C27 8711   0.452   1.326   5.615 -1.0422  0.2236  0.0995
   91SAPC   H7R 8712   0.442   1.435   5.630 -2.3632  0.2369 -0.7529
   91SAPC   H7S 8713   0.356   1.281   5.648 -0.5675  0.5692  2.0809
   91SAPC   C28 8714   0.465   1.283   5.467  0.4969  0.0953 -0.1215
   91SAPC   H8R 8715   0.471   1.174   5.456  0.0603 -0.1015  1.3759
   91SAPC   C29 8716   0.466   1.359   5.356  0.2608  0.4644  0.4857
   91SAPC   H9R 8717   0.469   1.319   5.254 -0.2138  2.9354 -0.5691
   91SAPC  C210 8718   0.474   1.509   5.362 -0.1747 -0.6408 -0.2037
   91SAPC  H10R 8719   0.423   1.546   5.453  0.9264 -1.4041  0.7643
   91SAPC  H10S 8720   0.427   1.546   5.269  2.3884  0.8427 -1.0202
   91SAPC  C211 8721   0.626   1.532   5.380  0.6380 -0.1285  0.5475
   91SAPC  H11R 8722   0.670   1.517   5.480  0.0582 -1.7843  0.5829
   91SAPC  C212 8723   0.715   1.567   5.289  0.5031 -0.0222 -0.5450
   91SAPC  H12R 8724   0.813   1.600   5.326  0.9317 -0.0606 -1.6247
   91SAPC  C213 8725   0.704   1.592   5.146  0.2991 -0.1507  0.0284
   91SAPC  H13R 8726   0.790   1.654   5.112 -1.0487  1.1920 -1.0736
   91SAPC  H13S 8727   0.620   1.664   5.133  0.5371  0.0914 -0.1705
   91SAPC  C214 8728   0.676   1.468   5.063  0.5597 -0.3972 -0.0975
   91SAPC  H14R 8729   0.635   1.384   5.121 -0.6938  1.2666  1.5647
   91SAPC  C215 8730   0.728   1.441   4.947 -0.8299 -0.2427  0.4820
   91SAPC  H15R 8731   0.709   1.340   4.908 -1.8982  0.0752  0.1313
   91SAPC  C216 8732   0.817   1.529   4.856 -0.6197 -0.4811  0.5262
   91SAPC  H16R 8733   0.858   1.612   4.919  0.4155 -2.0089  1.9569
   91SAPC  H16S 8734   0.753   1.575   4.778  0.0167  2.2892  1.4969
   91SAPC  C217 8735   0.924   1.445   4.767  0.5535 -0.7582 -0.3539
   91SAPC  H17R 8736   0.960   1.506   4.681 -1.9574  1.0147 -0.2495
   91SAPC  H17S 8737   0.858   1.375   4.713 -0.6451  0.6195 -0.7370
   91SAPC  C218 8738   1.026   1.369   4.840 -0.8579 -0.1505 -0.3001
   91SAPC  H18R 8739   0.989   1.320   4.932  1.9899 -0.6692  0.6927
   91SAPC  H18S 8740   1.110   1.436   4.870  0.6808 -1.6276 -1.1794
   91SAPC  C219 8741   1.088   1.251   4.761  0.9187 -0.0676 -0.1843
   91SAPC  H19R 8742   1.114   1.290   4.660  1.2144  2.0073  0.6271
   91SAPC  H19S 8743   1.005   1.180   4.741 -1.0641  2.1840 -0.5679
   91SAPC  C220 8744   1.197   1.183   4.842 -0.3002  0.5209 -0.3799
   91SAPC  H20R 8745   1.286   1.249   4.849  0.2801 -0.4131  1.7063
   91SAPC  H20S 8746   1.227   1.086   4.798  0.5015  0.9716 -0.8652
   91SAPC  H20T 8747   1.159   1.184   4.947 -0.4854  1.5037 -0.4440
   91SAPC   C33 8748   1.245   1.125   5.922 -0.0013  0.3773 -0.4973
   91SAPC   H3X 8749   1.157   1.064   5.893  0.7127 -1.1141  0.3696
   91SAPC   H3Y 8750   1.328   1.063   5.962  0.5427  1.7128  0.5451
   91SAPC   C34 8751   1.281   1.198   5.792 -0.5112 -0.7757  0.6200
   91SAPC   H4X 8752   1.374   1.256   5.809  0.1169 -0.9032 -1.9867
   91SAPC   H4Y 8753   1.205   1.273   5.763 -1.3705 -0.5465  3.2403
   91SAPC   C35 8754   1.335   1.099   5.677  0.8055 -0.3413 -0.5185
   91SAPC   H5X 8755   1.248   1.050   5.629 -0.8675  1.1741  0.7707
   91SAPC   H5Y 8756   1.389   1.019   5.732  1.6010  0.5356  0.0179
   91SAPC   C36 8757   1.403   1.189   5.575 -0.2815 -0.3539 -0.2308
   91SAPC   H6X 8758   1.480   1.257   5.619 -0.2122  0.5990 -1.7605
   91SAPC   H6Y 8759   1.327   1.250   5.524  0.4023  0.3928 -0.3791
   91SAPC   C37 8760   1.469   1.096   5.472 -0.2849 -0.6983  0.3953
   91SAPC   H7X 8761   1.524   1.017   5.528  0.3439 -1.3061 -1.0451
   91SAPC   H7Y 8762   1.549   1.151   5.418 -0.7775 -0.5564 -0.2069
   91SAPC   C38 8763   1.383   1.037   5.370 -0.0623 -0.0485 -0.0850
   91SAPC   H8X 8764   1.343   1.108   5.294  1.7751  1.6955  0.4710
   91SAPC   H8Y 8765   1.308   0.967   5.412  1.1327 -0.7971  0.8615
   91SAPC   C39 8766   1.468   0.929   5.290 -0.2374 -0.6122 -0.4549
   91SAPC   H9X 8767   1.493   0.846   5.360  1.1835 -0.5545 -0.8529
   91SAPC   H9Y 8768   1.557   0.983   5.253  0.5873 -1.3694  0.3588
   91SAPC  C310 8769   1.389   0.851   5.184 -0.8115 -0.0613  0.0743
   91SAPC  H10X 8770   1.355   0.913   5.098  1.2045 -0.2409 -0.8919
   91SAPC  H10Y 8771   1.306   0.803   5.241 -0.3023 -0.8092  0.2021
   91SAPC  C311 8772   1.465   0.732   5.114 -0.8095 -0.1134 -0.2863
   91SAPC  H11X 8773   1.519   0.674   5.191  0.6108  0.0016 -1.1585
   91SAPC  H11Y 8774   1.540   0.778   5.047  0.4308  3.7679  3.3571
   91SAPC  C312 8775   1.371   0.644   5.033  0.3532  0.1950  0.2565
   91SAPC  H12X 8776   1.326   0.701   4.949  0.4014 -1.2662 -0.8009
   91SAPC  H12Y 8777   1.289   0.612   5.101 -0.2089 -1.4783 -1.1476
   91SAPC  C313 8778   1.434   0.512   4.985  0.1813 -0.2554 -0.7545
   91SAPC  H13X 8779   1.355   0.449   4.940 -0.5892 -0.1267  0.3670
   91SAPC  H13Y 8780   1.477   0.443   5.060  0.3556 -0.9214 -1.4611
   91SAPC  C314 8781   1.543   0.541   4.884 -0.7788  0.3748 -0.1954
   91SAPC  H14X 8782   1.633   0.591   4.925  0.8563 -2.5955  0.2007
   91SAPC  H14Y 8783   1.499   0.600   4.801 -1.2014  0.4195  0.0629
   91SAPC  C315 8784   1.595   0.406   4.814  0.0618 -0.2686  0.3400
   91SAPC  H15X 8785   1.517   0.348   4.760  0.4908 -1.5094  0.9969
   91SAPC  H15Y 8786   1.636   0.338   4.892 -0.5989 -0.3084  0.6657
   91SAPC  C316 8787   1.706   0.439   4.710  0.1273  0.3376 -0.2838
   91SAPC  H16X 8788   1.791   0.493   4.756 -0.2237  1.5493 -1.0136
   91SAPC  H16Y 8789   1.663   0.510   4.636 -2.4736 -0.3799  0.4404
   91SAPC  C317 8790   1.761   0.322   4.625  0.3523 -0.6136 -0.6209
   91SAPC  H17X 8791   1.812   0.251   4.693  0.4109  1.2941  1.4763
   91SAPC  H17Y 8792   1.842   0.361   4.559  0.0424  1.6795  0.2532
   91SAPC  C318 8793   1.664   0.254   4.530  0.0692 -0.7067 -0.4334
   91SAPC  H18X 8794   1.621   0.317   4.449 -1.4711 -3.1640 -1.6511
   91SAPC  H18Y 8795   1.579   0.212   4.589 -0.4835 -0.3113 -0.9318
   91SAPC  H18Z 8796   1.717   0.169   4.483 -0.0820 -1.8600  1.3814
   92SAPC     N 8797   0.051   0.443   6.902 -0.0118  0.4825  0.0833
   92SAPC   C12 8798  -0.028   0.353   7.002 -0.6628 -0.3395  0.4971
   92SAPC  H12A 8799  -0.113   0.303   6.959 -0.3286  1.3434 -2.3616
   92SAPC  H12B 8800  -0.072   0.418   7.077  0.9960  0.7224  0.6127
   92SAPC   C13 8801  -0.038   0.541   6.829 -0.1775  0.5936  0.8349
   92SAPC  H13A 8802   0.017   0.598   6.755  1.2732 -1.6256  0.1079
   92SAPC  H13B 8803  -0.110   0.486   6.770 -0.0991  0.4051  0.9135
   92SAPC  H13C 8804  -0.095   0.605   6.895 -0.9959  0.4402  0.2843
   92SAPC   C14 8805   0.150   0.519   6.984 -0.6218 -0.5546  0.0894
   92SAPC  H14A 8806   0.103   0.587   7.054 -0.8037 -1.1427  0.5447
   92SAPC  H14B 8807   0.205   0.452   7.049 -1.2191 -0.0979  1.0884
   92SAPC  H14C 8808   0.220   0.565   6.916  1.0112 -1.0980  1.3300
   92SAPC   C15 8809   0.123   0.355   6.805 -0.0031 -0.4014  0.6245
   92SAPC  H15A 8810   0.195   0.290   6.852  1.0971 -0.9656 -1.7168
   92SAPC  H15B 8811   0.055   0.284   6.760 -0.5551  0.4041  0.1723
   92SAPC  H15C 8812   0.168   0.416   6.729  1.7560 -1.7951  0.4841
   92SAPC   C11 8813   0.057   0.242   7.063 -0.2107  0.4899 -0.5631
   92SAPC  H11A 8814  -0.005   0.202   7.146 -1.8704  1.0113 -1.5020
   92SAPC  H11B 8815   0.150   0.284   7.105 -0.5145  1.2719 -0.6647
   92SAPC     P 8816  -0.021   0.018   6.949 -0.0058  0.0355  0.6718
   92SAPC   O13 8817  -0.047  -0.043   7.079 -0.2535 -0.0596 -0.3376
   92SAPC   O14 8818  -0.134   0.080   6.880  0.4060  0.9438  0.3611
   92SAPC   O12 8819   0.085   0.137   6.961  0.1133  0.0797  0.0193
   92SAPC   O11 8820   0.054  -0.078   6.843 -0.2352 -0.2041  0.1195
   92SAPC    C1 8821   0.126  -0.027   6.728  0.2777  0.9585  0.5218
   92SAPC    HA 8822   0.143   0.083   6.730  1.2608  0.7998  1.4323
   92SAPC    HB 8823   0.231  -0.062   6.716 -0.2676 -0.6881  0.2909
   92SAPC    C2 8824   0.053  -0.067   6.593  0.2850 -0.2304  0.5117
   92SAPC    HS 8825   0.095  -0.005   6.511  0.5593  1.0978  1.6205
   92SAPC   O21 8826  -0.082  -0.036   6.610 -0.1295 -0.0779  0.2687
   92SAPC   C21 8827  -0.109   0.091   6.593 -0.4232  0.4174 -0.1039
   92SAPC   O22 8828  -0.035   0.185   6.582  0.3570  0.4015  0.2001
   92SAPC   C22 8829  -0.259   0.105   6.588  0.1440  0.4899  0.7048
   92SAPC   H2R 8830  -0.297   0.001   6.599 -0.5964  0.7449  0.6462
   92SAPC   H2S 8831  -0.296   0.171   6.669  1.8082  1.1519  0.9541
   92SAPC    C3 8832   0.066  -0.214   6.556  0.0412 -0.1901 -0.1507
   92SAPC    HX 8833   0.024  -0.230   6.454  0.5326  0.4445 -0.4569
   92SAPC    HY 8834   0.015  -0.287   6.623  0.3738  1.4749  2.0279
   92SAPC   O31 8835   0.204  -0.251   6.533  0.3525 -0.8005  0.5231
   92SAPC   C31 8836   0.226  -0.382   6.520 -0.3027 -0.6853  0.2985
   92SAPC   O32 8837   0.144  -0.470   6.507 -0.7776 -0.2378 -0.2613
   92SAPC   C32 8838   0.372  -0.408   6.507 -0.1393 -0.1278 -0.2130
   92SAPC   H2X 8839   0.392  -0.500   6.565  0.5811 -0.9561 -1.7233
   92SAPC   H2Y 8840   0.433  -0.326   6.551 -0.8022  1.2339 -1.7096
   92SAPC   C23 8841  -0.296   0.168   6.447  0.9017  0.0014  0.7638
   92SAPC   H3R 8842  -0.271   0.276   6.446  0.8251  0.0307  1.5834
   92SAPC   H3S 8843  -0.407   0.170   6.444  0.8914  3.3672 -0.7614
   92SAPC   C24 8844  -0.250   0.097   6.316  0.2961  0.2576  0.1498
   92SAPC   H4R 8845  -0.140   0.102   6.298  0.3624  1.1518  0.7726
   92SAPC   H4S 8846  -0.293   0.155   6.231 -2.1234  1.1262  1.8709
   92SAPC   C25 8847  -0.303  -0.041   6.295 -0.3893 -0.1578 -0.1326
   92SAPC   H5R 8848  -0.403  -0.074   6.329 -0.9579  1.4421 -0.1585
   92SAPC   C26 8849  -0.249  -0.137   6.222 -0.0058  0.2478 -0.5405
   92SAPC   H6R 8850  -0.302  -0.233   6.219 -0.2472  0.2798  1.5728
   92SAPC   C27 8851  -0.109  -0.130   6.172  0.0113 -0.1821  0.6047
   92SAPC   H7R 8852  -0.048  -0.176   6.253 -0.2688  1.8800  2.0767
   92SAPC   H7S 8853  -0.058  -0.034   6.150  1.4547 -1.2233 -0.8500
   92SAPC   C28 8854  -0.081  -0.210   6.045 -0.2433 -0.4819 -0.2229
   92SAPC   H8R 8855  -0.105  -0.146   5.958  0.3201  0.2299  0.1264
   92SAPC   C29 8856  -0.046  -0.336   6.023 -0.0808 -0.2102  0.8146
   92SAPC   H9R 8857  -0.032  -0.369   5.919  3.2135 -0.5205  1.2333
   92SAPC  C210 8858  -0.019  -0.435   6.131 -0.3105 -0.0561 -0.7656
   92SAPC  H10R 8859   0.030  -0.378   6.214 -1.6672  0.3171 -0.1920
   92SAPC  H10S 8860   0.065  -0.503   6.104 -0.2535  0.6133 -2.3670
   92SAPC  C211 8861  -0.134  -0.517   6.179  0.1697 -0.3661 -0.6813
   92SAPC  H11R 8862  -0.171  -0.500   6.281  2.6227 -1.6627  0.5025
   92SAPC  C212 8863  -0.205  -0.601   6.101  0.5573  0.0780 -0.1076
   92SAPC  H12R 8864  -0.289  -0.656   6.146 -1.2503 -0.3324 -3.6124
   92SAPC  C213 8865  -0.198  -0.640   5.956  0.4786  0.3582 -0.2650
   92SAPC  H13R 8866  -0.197  -0.751   5.957  0.0322  0.2987 -2.5344
   92SAPC  H13S 8867  -0.106  -0.595   5.912 -0.9043  2.7871 -0.8257
   92SAPC  C214 8868  -0.323  -0.601   5.885  0.3392  0.0506 -0.1256
   92SAPC  H14R 8869  -0.410  -0.589   5.952  1.8193 -4.4269  3.0871
   92SAPC  C215 8870  -0.342  -0.591   5.755 -0.3678 -0.7757 -0.1976
   92SAPC  H15R 8871  -0.446  -0.581   5.720 -0.2875  2.1756  0.1674
   92SAPC  C216 8872  -0.239  -0.590   5.651 -0.2451 -0.1389  0.7147
   92SAPC  H16R 8873  -0.227  -0.686   5.597 -1.2443  1.0897 -1.8866
   92SAPC  H16S 8874  -0.139  -0.566   5.692  1.9185 -2.0791 -2.9025
   92SAPC  C217 8875  -0.259  -0.486   5.541  0.1213 -0.8663  0.0797
   92SAPC  H17R 8876  -0.204  -0.394   5.573 -1.0691 -0.5197  1.2327
   92SAPC  H17S 8877  -0.366  -0.466   5.518 -0.1478 -0.6005  1.4974
   92SAPC  C218 8878  -0.225  -0.542   5.402 -0.5854  0.1272 -0.0777
   92SAPC  H18R 8879  -0.285  -0.634   5.388  0.0426 -0.2293 -0.4826
   92SAPC  H18S 8880  -0.114  -0.556   5.407 -0.3526  1.9397  0.8049
   92SAPC  C219 8881  -0.268  -0.448   5.287 -0.7111  0.3281  0.0554
   92SAPC  H19R 8882  -0.216  -0.356   5.322  0.4021 -1.0680  2.3566
   92SAPC  H19S 8883  -0.377  -0.428   5.285 -0.6902  0.3793 -0.5066
   92SAPC  C220 8884  -0.214  -0.491   5.149  0.1216  0.1009 -0.5477
   92SAPC  H20R 8885  -0.271  -0.581   5.117  0.2841  0.1814 -1.0662
   92SAPC  H20S 8886  -0.105  -0.511   5.160  0.2868  0.5064 -1.3705
   92SAPC  H20T 8887  -0.244  -0.414   5.075  0.2297 -0.6354 -1.3764
   92SAPC   C33 8888   0.414  -0.429   6.363 -0.0292 -0.3481 -0.0482
   92SAPC   H3X 8889   0.524  -0.440   6.369  0.0792 -0.6058 -2.0123
   92SAPC   H3Y 8890   0.397  -0.337   6.303 -0.1686 -0.2454  0.1431
   92SAPC   C34 8891   0.359  -0.555   6.295  0.3259 -0.3358  0.4913
   92SAPC   H4X 8892   0.255  -0.528   6.269 -0.2583 -0.5026  2.5170
   92SAPC   H4Y 8893   0.352  -0.645   6.360 -1.5364 -0.9457 -0.4686
   92SAPC   C35 8894   0.430  -0.589   6.160 -0.3601 -0.4259 -0.3351
   92SAPC   H5X 8895   0.396  -0.688   6.122  0.8353 -0.3253 -1.7523
   92SAPC   H5Y 8896   0.541  -0.590   6.168  0.1542 -0.3443 -5.0261
   92SAPC   C36 8897   0.408  -0.497   6.030 -0.2132 -0.8232 -0.4027
   92SAPC   H6X 8898   0.430  -0.391   6.053 -0.1886 -0.6928 -1.0135
   92SAPC   H6Y 8899   0.309  -0.512   5.981  1.1700 -3.2778 -2.7196
   92SAPC   C37 8900   0.493  -0.544   5.914 -0.2659  0.3231 -0.2209
   92SAPC   H7X 8901   0.512  -0.653   5.905  1.6172  0.6710 -0.8248
   92SAPC   H7Y 8902   0.592  -0.500   5.936 -0.0516 -0.6676  0.8990
   92SAPC   C38 8903   0.441  -0.483   5.781 -0.1120 -0.3587  0.1803
   92SAPC   H8X 8904   0.410  -0.376   5.788 -2.2810 -0.7025 -2.6144
   92SAPC   H8Y 8905   0.352  -0.534   5.738  0.5442 -0.7163 -0.7699
   92SAPC   C39 8906   0.550  -0.501   5.672 -0.7729 -0.0946 -0.1026
   92SAPC   H9X 8907   0.572  -0.609   5.688 -1.6442 -0.1299  1.0507
   92SAPC   H9Y 8908   0.643  -0.447   5.698  0.7314 -3.2997  1.7784
   92SAPC  C310 8909   0.502  -0.469   5.534 -0.1065  0.2941 -0.0628
   92SAPC  H10X 8910   0.472  -0.362   5.522  0.0159  0.5671  1.6764
   92SAPC  H10Y 8911   0.416  -0.534   5.509  0.5547 -1.2699  1.4907
   92SAPC  C311 8912   0.614  -0.498   5.431 -0.0210 -0.2469 -0.1153
   92SAPC  H11X 8913   0.652  -0.602   5.433  0.5971 -0.0152  1.3756
   92SAPC  H11Y 8914   0.698  -0.432   5.462  1.1108 -1.7264  0.0850
   92SAPC  C312 8915   0.581  -0.462   5.290  0.1655 -0.5603  0.7855
   92SAPC  H12X 8916   0.671  -0.473   5.226 -1.5605  0.0223 -1.9279
   92SAPC  H12Y 8917   0.561  -0.353   5.286  0.9301 -0.4447 -0.2110
   92SAPC  C313 8918   0.477  -0.548   5.213 -0.9199  0.5954  1.0764
   92SAPC  H13X 8919   0.373  -0.553   5.252 -1.8569 -1.1021 -1.3923
   92SAPC  H13Y 8920   0.510  -0.654   5.225  0.5795  0.9428  0.2766
   92SAPC  C314 8921   0.464  -0.513   5.059  0.0408  0.6279  0.4456
   92SAPC  H14X 8922   0.547  -0.552   4.995 -0.5363 -0.2437  0.2157
   92SAPC  H14Y 8923   0.456  -0.403   5.048  0.7881  0.7223  0.7677
   92SAPC  C315 8924   0.341  -0.585   4.992 -0.3883  0.5771 -0.4365
   92SAPC  H15X 8925   0.251  -0.539   5.039 -0.9699 -0.7157 -0.2322
   92SAPC  H15Y 8926   0.344  -0.695   5.005 -3.4405  0.0160 -3.2236
   92SAPC  C316 8927   0.329  -0.561   4.845  0.2226 -0.5661 -0.2078
   92SAPC  H16X 8928   0.405  -0.623   4.792  0.5233 -0.7556  0.4405
   92SAPC  H16Y 8929   0.349  -0.454   4.821  0.3625  0.0443  2.3862
   92SAPC  C317 8930   0.183  -0.592   4.783 -0.2724 -0.2124  0.0164
   92SAPC  H17X 8931   0.119  -0.529   4.849  2.6170  3.3582 -0.2005
   92SAPC  H17Y 8932   0.166  -0.701   4.781  0.5644 -0.3469 -1.6757
   92SAPC  C318 8933   0.170  -0.543   4.637  0.8777 -0.3921  0.6074
   92SAPC  H18X 8934   0.251  -0.586   4.575  0.3477  1.0632 -1.2133
   92SAPC  H18Y 8935   0.179  -0.432   4.627 -0.5132 -0.1306  1.8473
   92SAPC  H18Z 8936   0.066  -0.564   4.604  1.4904 -2.5350 -0.1050
   93SAPC     N 8937   2.320   6.465   7.082 -0.8053  1.1695 -0.7293
   93SAPC   C12 8938   2.345   6.549   6.953  0.0406  0.4905  0.3595
   93SAPC  H12A 8939   2.258   6.537   6.890  0.3030 -1.9286  0.3498
   93SAPC  H12B 8940   2.430   6.513   6.897 -0.6295 -0.4503 -0.0771
   93SAPC   C13 8941   2.273   6.326   7.064  0.6215  0.2038  1.0169
   93SAPC  H13A 8942   2.206   6.312   6.980  2.0798  0.3697 -0.2265
   93SAPC  H13B 8943   2.348   6.253   7.038  0.5836 -0.0195  1.5243
   93SAPC  H13C 8944   2.229   6.291   7.156  1.7147  0.7463  1.7697
   93SAPC   C14 8945   2.439   6.472   7.174  0.0965 -0.6418  0.7595
   93SAPC  H14A 8946   2.531   6.427   7.138  2.1347  2.7806  1.2775
   93SAPC  H14B 8947   2.462   6.577   7.175  0.5034 -0.5697 -2.8079
   93SAPC  H14C 8948   2.415   6.438   7.273 -0.8189  0.4299  0.9228
   93SAPC   C15 8949   2.207   6.531   7.160 -0.6539 -0.2219  0.1034
   93SAPC  H15A 8950   2.223   6.637   7.155 -1.3618 -0.1720 -2.3774
   93SAPC  H15B 8951   2.117   6.521   7.102 -0.6289  3.2429 -0.7214
   93SAPC  H15C 8952   2.181   6.483   7.253 -2.5156  0.6058  0.0361
   93SAPC   C11 8953   2.377   6.701   6.977  0.1611 -0.5674 -0.2340
   93SAPC  H11A 8954   2.434   6.746   6.893  0.0642  0.4281  0.2162
   93SAPC  H11B 8955   2.451   6.690   7.059  0.0356  2.5794  0.4229
   93SAPC     P 8956   2.152   6.807   6.908  0.6256 -0.1918 -0.3967
   93SAPC   O13 8957   2.081   6.684   6.884 -0.3563  0.0551 -0.5587
   93SAPC   O14 8958   2.076   6.922   6.960 -0.0139  0.1555 -0.0166
   93SAPC   O12 8959   2.268   6.779   7.018 -0.2820  0.1259  0.0618
   93SAPC   O11 8960   2.224   6.853   6.779 -0.3001 -0.0795  0.1569
   93SAPC    C1 8961   2.298   6.978   6.772 -0.2312  0.0715 -0.1666
   93SAPC    HA 8962   2.334   7.007   6.873 -1.4438 -1.2642  0.6848
   93SAPC    HB 8963   2.384   6.961   6.703 -0.7411 -0.6645 -0.6405
   93SAPC    C2 8964   2.198   7.081   6.708  0.2950  0.6023  0.2371
   93SAPC    HS 8965   2.110   7.102   6.773  0.4736 -0.2147  0.7602
   93SAPC   O21 8966   2.160   7.034   6.575 -0.0388 -0.3008  0.2806
   93SAPC   C21 8967   2.061   7.107   6.522  0.4945 -0.0436 -0.6050
   93SAPC   O22 8968   2.003   7.197   6.578  0.2465 -0.1340  0.1791
   93SAPC   C22 8969   2.041   7.056   6.384 -0.2337 -0.3822  0.2849
   93SAPC   H2R 8970   2.142   7.039   6.341 -0.0486 -1.8644  1.2620
   93SAPC   H2S 8971   1.994   6.956   6.374 -0.2598 -0.2104 -1.7571
   93SAPC    C3 8972   2.272   7.219   6.702  0.3884  0.0126 -0.1658
   93SAPC    HX 8973   2.315   7.234   6.803  1.7341 -1.2665 -0.5097
   93SAPC    HY 8974   2.199   7.300   6.685  1.1628  0.4669 -1.4849
   93SAPC   O31 8975   2.383   7.232   6.611 -0.4199 -0.4371 -0.3991
   93SAPC   C31 8976   2.412   7.350   6.561  0.3069 -0.0189 -0.1637
   93SAPC   O32 8977   2.389   7.459   6.614 -0.4123  0.5617 -0.0144
   93SAPC   C32 8978   2.505   7.346   6.439 -0.4259 -0.2395  0.2722
   93SAPC   H2X 8979   2.592   7.282   6.466  0.0875 -0.5883 -2.0365
   93SAPC   H2Y 8980   2.539   7.451   6.421  0.6722 -0.9107 -2.0285
   93SAPC   C23 8981   1.962   7.144   6.281  0.2951  0.6431  0.1069
   93SAPC   H3R 8982   1.953   7.080   6.191  1.8126 -1.2176  1.2196
   93SAPC   H3S 8983   2.013   7.241   6.262 -1.2071  1.1533 -1.6366
   93SAPC   C24 8984   1.812   7.171   6.322  0.5736 -1.3059  0.6458
   93SAPC   H4R 8985   1.815   7.206   6.428 -2.6586 -2.7184  1.3204
   93SAPC   H4S 8986   1.746   7.083   6.336 -0.8550 -0.2240  0.9383
   93SAPC   C25 8987   1.748   7.276   6.224 -1.0982  0.2525 -0.3671
   93SAPC   H5R 8988   1.737   7.234   6.123  0.3478  0.2932 -0.5627
   93SAPC   C26 8989   1.737   7.410   6.238  0.4342  0.5745  0.0048
   93SAPC   H6R 8990   1.696   7.472   6.158 -1.3866  2.7447  2.4425
   93SAPC   C27 8991   1.760   7.496   6.357  0.2023 -0.2328 -0.1559
   93SAPC   H7R 8992   1.833   7.446   6.424  0.0479  2.1796  1.9658
   93SAPC   H7S 8993   1.671   7.500   6.422 -0.4573 -1.2941 -0.9591
   93SAPC   C28 8994   1.808   7.639   6.341  0.4240  0.3805  0.2440
   93SAPC   H8R 8995   1.742   7.710   6.391  1.6188  1.9275 -0.2836
   93SAPC   C29 8996   1.908   7.690   6.266 -0.0922  0.2641  0.0445
   93SAPC   H9R 8997   1.939   7.795   6.272  1.7999 -0.2606  0.0715
   93SAPC  C210 8998   2.011   7.618   6.185  0.0315  0.0831  0.1136
   93SAPC  H10R 8999   1.964   7.581   6.091  1.4984  1.0277 -1.0348
   93SAPC  H10S 9000   2.040   7.525   6.239  1.1901  1.6837  2.3591
   93SAPC  C211 9001   2.138   7.697   6.159 -0.6678 -0.4870 -0.0438
   93SAPC  H11R 9002   2.204   7.697   6.246 -2.2183  0.5159  1.1887
   93SAPC  C212 9003   2.167   7.759   6.037 -0.3464  0.0453 -0.0962
   93SAPC  H12R 9004   2.257   7.824   6.040 -0.1431 -0.2439  1.7371
   93SAPC  C213 9005   2.087   7.749   5.909 -0.0596  0.2713 -0.0008
   93SAPC  H13R 9006   1.987   7.785   5.941 -0.5882 -0.5753 -0.6563
   93SAPC  H13S 9007   2.084   7.640   5.887 -1.2351  0.1407  0.6781
   93SAPC  C214 9008   2.143   7.830   5.797 -0.1495  0.1699  0.3502
   93SAPC  H14R 9009   2.132   7.939   5.810 -3.1700  0.0465 -0.4390
   93SAPC  C215 9010   2.185   7.776   5.680 -0.8257  0.4268 -0.7446
   93SAPC  H15R 9011   2.229   7.830   5.594  0.2675 -0.1942 -0.5925
   93SAPC  C216 9012   2.197   7.628   5.645  0.3548  0.7024 -0.3955
   93SAPC  H16R 9013   2.099   7.577   5.649  0.5727  0.3239  0.1946
   93SAPC  H16S 9014   2.270   7.576   5.711  0.4286 -1.7583 -2.2412
   93SAPC  C217 9015   2.240   7.613   5.495 -1.0530 -0.0341 -1.3339
   93SAPC  H17R 9016   2.177   7.676   5.428 -0.0671  0.8686 -1.4399
   93SAPC  H17S 9017   2.219   7.510   5.462 -2.8726  0.2166 -1.0587
   93SAPC  C218 9018   2.391   7.634   5.476 -0.1215  0.7714 -0.1617
   93SAPC  H18R 9019   2.453   7.572   5.545 -1.0139 -2.0099 -1.6891
   93SAPC  H18S 9020   2.419   7.739   5.498 -2.0179  1.3405 -0.2959
   93SAPC  C219 9021   2.426   7.598   5.331 -0.7821 -0.0270  0.3200
   93SAPC  H19R 9022   2.407   7.491   5.310 -4.7985  0.6518 -0.2606
   93SAPC  H19S 9023   2.537   7.604   5.321 -0.7643 -2.5801 -2.3131
   93SAPC  C220 9024   2.358   7.682   5.224 -0.3965 -0.5332 -0.3358
   93SAPC  H20R 9025   2.247   7.679   5.228 -0.3712 -0.0750  1.3747
   93SAPC  H20S 9026   2.388   7.638   5.126 -0.6623 -0.6490 -0.3668
   93SAPC  H20T 9027   2.400   7.785   5.224 -1.2654 -0.1562 -1.3722
   93SAPC   C33 9028   2.443   7.281   6.318  0.1528  0.2357  0.5462
   93SAPC   H3X 9029   2.378   7.192   6.333  1.0137 -0.5530 -0.2694
   93SAPC   H3Y 9030   2.537   7.241   6.275  1.1636  0.7061  2.2382
   93SAPC   C34 9031   2.371   7.379   6.222  0.1129  0.6840  0.6263
   93SAPC   H4X 9032   2.426   7.471   6.195  1.3944 -0.0687  0.5956
   93SAPC   H4Y 9033   2.279   7.423   6.267  0.4422  1.3257  0.6754
   93SAPC   C35 9034   2.337   7.306   6.093 -0.7349 -0.0890  0.3152
   93SAPC   H5X 9035   2.238   7.339   6.055 -1.1049 -1.4684  0.0045
   93SAPC   H5Y 9036   2.330   7.196   6.107  1.6166  0.0654  4.1179
   93SAPC   C36 9037   2.438   7.339   5.975  0.1056 -0.2667 -0.0276
   93SAPC   H6X 9038   2.535   7.319   6.026 -0.2103  0.4043  0.8653
   93SAPC   H6Y 9039   2.434   7.448   5.951 -0.9166  0.2114  2.0078
   93SAPC   C37 9040   2.423   7.244   5.845  0.0394  0.0308 -0.3598
   93SAPC   H7X 9041   2.431   7.139   5.879 -1.1689 -0.5489 -1.7600
   93SAPC   H7Y 9042   2.511   7.275   5.784 -1.1406 -0.2101 -2.2589
   93SAPC   C38 9043   2.282   7.264   5.777  0.0414 -0.0393 -0.5707
   93SAPC   H8X 9044   2.264   7.369   5.746  1.5487 -0.2998 -2.5426
   93SAPC   H8Y 9045   2.195   7.246   5.843  0.1080  0.1768 -0.4225
   93SAPC   C39 9046   2.267   7.188   5.646 -0.0253  0.7586  0.5125
   93SAPC   H9X 9047   2.308   7.086   5.662 -0.7092  0.6399  1.6296
   93SAPC   H9Y 9048   2.316   7.242   5.563  1.7158 -2.3453 -0.6455
   93SAPC  C310 9049   2.117   7.156   5.605 -0.5448 -0.3756 -0.1280
   93SAPC  H10X 9050   2.059   7.249   5.586 -1.4564 -1.1871 -1.5051
   93SAPC  H10Y 9051   2.061   7.110   5.690  1.3494 -0.0005  1.3886
   93SAPC  C311 9052   2.092   7.061   5.488 -0.2190 -0.4567 -0.1814
   93SAPC  H11X 9053   1.991   7.015   5.491 -1.9205  3.0172  1.5325
   93SAPC  H11Y 9054   2.162   6.974   5.492  0.4711  0.0630 -0.6882
   93SAPC  C312 9055   2.094   7.131   5.352 -0.0336 -0.2133 -0.0876
   93SAPC  H12X 9056   2.197   7.164   5.327 -0.4380  1.6852  0.5308
   93SAPC  H12Y 9057   2.038   7.227   5.358  1.8327  0.9887 -0.8398
   93SAPC  C313 9058   2.041   7.050   5.234  0.1473 -0.1869  0.2908
   93SAPC  H13X 9059   2.090   6.950   5.233  1.0903  0.2628  0.8876
   93SAPC  H13Y 9060   2.061   7.105   5.140  1.6475  0.4218  0.9404
   93SAPC  C314 9061   1.885   7.039   5.238 -0.3716  1.2779  0.1919
   93SAPC  H14X 9062   1.841   7.138   5.213  2.1997  2.7778  1.1977
   93SAPC  H14Y 9063   1.847   7.018   5.341  0.9261  1.5235  0.7405
   93SAPC  C315 9064   1.821   6.930   5.143 -0.3193 -0.3099 -0.3351
   93SAPC  H15X 9065   1.723   6.917   5.193  0.5730  1.9830  2.2705
   93SAPC  H15Y 9066   1.889   6.842   5.145  0.0584 -0.0153 -0.1295
   93SAPC  C316 9067   1.811   6.978   4.997  0.1116 -0.0754  0.7875
   93SAPC  H16X 9068   1.902   7.031   4.961 -1.3384  0.9324 -1.6617
   93SAPC  H16Y 9069   1.726   7.049   4.998 -0.0804 -0.2080 -1.3706
   93SAPC  C317 9070   1.773   6.871   4.900  0.5366  0.4921 -0.4351
   93SAPC  H17X 9071   1.698   6.900   4.824 -0.1855 -0.8703 -0.2725
   93SAPC  H17Y 9072   1.714   6.797   4.957 -1.0817  2.8728  1.1430
   93SAPC  C318 9073   1.884   6.803   4.810  0.4094  0.6406 -0.7344
   93SAPC  H18X 9074   1.837   6.717   4.758 -0.0162 -1.6507  3.0928
   93SAPC  H18Y 9075   1.969   6.771   4.874  0.1833  1.0277 -0.2362
   93SAPC  H18Z 9076   1.937   6.866   4.734  3.0753 -0.5495  0.0103
   94SAPC     N 9077   0.224   6.005   7.390 -0.2504  0.2936 -0.0596
   94SAPC   C12 9078   0.129   5.986   7.268  0.9570 -0.2271 -0.6671
   94SAPC  H12A 9079   0.033   6.033   7.285  0.1925 -2.0369  0.3472
   94SAPC  H12B 9080   0.102   5.881   7.271 -0.2810  0.0768 -0.5401
   94SAPC   C13 9081   0.162   5.942   7.510  0.3616 -0.6293 -0.1313
   94SAPC  H13A 9082   0.128   5.842   7.487  0.3675 -0.8941  0.9472
   94SAPC  H13B 9083   0.233   5.944   7.591  0.3927 -3.6846  0.0359
   94SAPC  H13C 9084   0.074   5.998   7.536 -0.1917 -1.7899  0.5870
   94SAPC   C14 9085   0.349   5.927   7.366  0.0857 -0.7019 -0.6498
   94SAPC  H14A 9086   0.387   5.955   7.269  0.6943 -1.0472 -0.5183
   94SAPC  H14B 9087   0.425   5.956   7.438  0.5623  0.0567 -1.4395
   94SAPC  H14C 9088   0.335   5.820   7.367 -0.1007 -0.7662 -3.2202
   94SAPC   C15 9089   0.257   6.152   7.415 -0.0091  0.3790 -0.3138
   94SAPC  H15A 9090   0.314   6.176   7.503  0.0642  0.3924 -0.3652
   94SAPC  H15B 9091   0.304   6.200   7.330  1.5839 -0.3114  0.1582
   94SAPC  H15C 9092   0.166   6.208   7.433  0.1947  0.7310 -0.3598
   94SAPC   C11 9093   0.189   6.020   7.130  0.5243 -0.4047  0.4981
   94SAPC  H11A 9094   0.229   6.124   7.131  0.3329 -0.2310 -2.5288
   94SAPC  H11B 9095   0.110   6.031   7.053  0.3274 -0.9972  0.6150
   94SAPC     P 9096   0.251   5.775   7.059 -0.1108 -0.1410  0.2947
   94SAPC   O13 9097   0.371   5.696   7.092  0.7293 -0.0286 -0.3064
   94SAPC   O14 9098   0.123   5.742   7.119 -0.1066  0.5089 -0.4298
   94SAPC   O12 9099   0.283   5.925   7.091  0.5780  0.5070 -0.1015
   94SAPC   O11 9100   0.237   5.774   6.903  0.4431 -0.4735 -0.4187
   94SAPC    C1 9101   0.258   5.882   6.818  0.3126  0.2417 -0.0869
   94SAPC    HA 9102   0.171   5.950   6.814 -0.9532 -1.3751 -1.2652
   94SAPC    HB 9103   0.350   5.939   6.844  0.3174  0.4920 -0.6463
   94SAPC    C2 9104   0.290   5.840   6.667 -0.3525  0.2323 -0.4714
   94SAPC    HS 9105   0.312   5.930   6.607 -0.2021  1.1789  0.9629
   94SAPC   O21 9106   0.176   5.758   6.615  0.2072 -0.8780  0.0322
   94SAPC   C21 9107   0.178   5.749   6.481  0.0184  0.0131  0.2043
   94SAPC   O22 9108   0.231   5.831   6.405 -0.2706  0.7421 -0.0847
   94SAPC   C22 9109   0.061   5.652   6.442 -0.9382  0.1268 -0.0059
   94SAPC   H2R 9110   0.041   5.581   6.526 -1.9566  1.1911  0.6859
   94SAPC   H2S 9111  -0.032   5.710   6.424 -0.5238  0.1789 -2.1865
   94SAPC    C3 9112   0.416   5.745   6.661 -0.1620  0.1591  0.0229
   94SAPC    HX 9113   0.386   5.649   6.708  0.0974  0.1895  0.2558
   94SAPC    HY 9114   0.497   5.794   6.719  0.1641 -1.3961  0.9584
   94SAPC   O31 9115   0.467   5.707   6.531  0.4494  0.2633  0.7062
   94SAPC   C31 9116   0.528   5.810   6.471  0.4595 -0.5286 -0.3735
   94SAPC   O32 9117   0.571   5.908   6.525  0.0858 -0.3810 -0.6073
   94SAPC   C32 9118   0.579   5.767   6.328 -0.0352  0.3177 -0.4774
   94SAPC   H2X 9119   0.576   5.657   6.310  1.3423  0.6347 -3.1475
   94SAPC   H2Y 9120   0.686   5.797   6.335  0.2068 -0.5089 -0.4774
   94SAPC   C23 9121   0.091   5.572   6.311 -0.2138 -0.2127  0.6241
   94SAPC   H3R 9122   0.095   5.648   6.230 -0.8100 -1.1946 -0.3621
   94SAPC   H3S 9123  -0.004   5.525   6.278 -1.1599  2.3479 -0.6346
   94SAPC   C24 9124   0.203   5.473   6.317  0.4310 -0.9115  0.4226
   94SAPC   H4R 9125   0.193   5.412   6.410 -1.7729  0.2741  1.0429
   94SAPC   H4S 9126   0.301   5.525   6.321  0.5463 -0.9631 -1.3182
   94SAPC   C25 9127   0.213   5.379   6.200  0.0035  0.4335 -0.1335
   94SAPC   H5R 9128   0.197   5.273   6.226 -1.6416  1.0172  1.5190
   94SAPC   C26 9129   0.239   5.406   6.071 -0.3603  0.0414  0.4025
   94SAPC   H6R 9130   0.228   5.334   5.989  0.7678  1.1610 -0.7961
   94SAPC   C27 9131   0.279   5.551   6.034  0.1120 -0.2993 -0.1276
   94SAPC   H7R 9132   0.304   5.612   6.124 -0.0195  1.4872 -1.2504
   94SAPC   H7S 9133   0.191   5.610   6.002 -0.1082  0.3011  1.5005
   94SAPC   C28 9134   0.383   5.560   5.923  0.4208  0.3418 -0.0915
   94SAPC   H8R 9135   0.485   5.585   5.956 -0.1172  1.2695  0.9459
   94SAPC   C29 9136   0.372   5.550   5.792  0.0517 -0.4243 -0.1499
   94SAPC   H9R 9137   0.453   5.582   5.725  0.0938  0.2631  0.2234
   94SAPC  C210 9138   0.238   5.549   5.719  0.0083  0.5161 -0.6868
   94SAPC  H10R 9139   0.159   5.596   5.780  0.2018  0.3433 -0.2973
   94SAPC  H10S 9140   0.203   5.444   5.712  1.2281  0.0922 -0.7060
   94SAPC  C211 9141   0.226   5.620   5.590 -0.0312 -0.1612  0.3979
   94SAPC  H11R 9142   0.171   5.715   5.592  1.0073  0.5253 -1.4785
   94SAPC  C212 9143   0.281   5.568   5.473  0.4897  0.4045  1.1595
   94SAPC  H12R 9144   0.264   5.628   5.382  2.3960 -2.5035 -1.2797
   94SAPC  C213 9145   0.363   5.439   5.458  0.6753  0.2695 -0.1557
   94SAPC  H13R 9146   0.304   5.347   5.438 -0.1865  0.6885  0.4249
   94SAPC  H13S 9147   0.413   5.418   5.555 -0.3822  1.9326  0.8000
   94SAPC  C214 9148   0.470   5.462   5.346  0.3568  0.2871  0.3339
   94SAPC  H14R 9149   0.574   5.470   5.380  0.4106  0.9274  0.0334
   94SAPC  C215 9150   0.462   5.440   5.214 -0.6494  0.7155 -0.0101
   94SAPC  H15R 9151   0.548   5.465   5.150 -0.2316 -1.1369 -0.2241
   94SAPC  C216 9152   0.345   5.409   5.135  0.8964 -0.3932  0.2448
   94SAPC  H16R 9153   0.333   5.473   5.044 -2.3503 -2.1488 -0.7054
   94SAPC  H16S 9154   0.254   5.418   5.197 -0.6301 -0.0320 -1.9397
   94SAPC  C217 9155   0.362   5.269   5.071 -0.2876 -0.2313 -0.1942
   94SAPC  H17R 9156   0.258   5.243   5.040 -0.6427 -0.6854  1.3086
   94SAPC  H17S 9157   0.382   5.201   5.156 -2.5873 -2.4286 -1.2893
   94SAPC  C218 9158   0.463   5.267   4.958 -0.4034  0.1876 -0.0253
   94SAPC  H18R 9159   0.567   5.298   4.985  1.5678 -1.2963 -4.8518
   94SAPC  H18S 9160   0.434   5.339   4.879  0.5774 -2.8443 -3.4319
   94SAPC  C219 9161   0.481   5.136   4.886  0.1697 -0.3064  0.0388
   94SAPC  H19R 9162   0.391   5.103   4.830  0.1238  1.1228 -0.7727
   94SAPC  H19S 9163   0.513   5.063   4.963  4.6018 -0.8307 -1.9828
   94SAPC  C220 9164   0.587   5.149   4.775  0.7276  0.1699  0.2451
   94SAPC  H20R 9165   0.554   5.214   4.692  0.5905 -1.0656 -0.6878
   94SAPC  H20S 9166   0.609   5.052   4.725  0.6628  0.7364 -0.9020
   94SAPC  H20T 9167   0.676   5.193   4.826  0.9096 -0.2731  0.3134
   94SAPC   C33 9168   0.515   5.841   6.210  0.3331  0.1259 -0.2074
   94SAPC   H3X 9169   0.497   5.947   6.239 -1.3061 -0.3606  0.6406
   94SAPC   H3Y 9170   0.419   5.788   6.197  0.9180 -1.9610  2.7992
   94SAPC   C34 9171   0.600   5.836   6.086 -0.2469  0.7125  0.3669
   94SAPC   H4X 9172   0.613   5.726   6.078  1.7128  0.9096  0.4702
   94SAPC   H4Y 9173   0.695   5.894   6.089  0.3622 -0.2179 -0.2859
   94SAPC   C35 9174   0.534   5.879   5.951  0.2197  0.0115  0.2636
   94SAPC   H5X 9175   0.536   5.990   5.950  0.9774  0.0504  2.1015
   94SAPC   H5Y 9176   0.432   5.836   5.958  0.9602 -1.7519  0.6796
   94SAPC   C36 9177   0.610   5.824   5.830 -1.0122 -0.2677  0.1664
   94SAPC   H6X 9178   0.606   5.714   5.834 -0.1685 -0.2859  0.9443
   94SAPC   H6Y 9179   0.711   5.870   5.840 -0.7449 -0.8121 -0.0345
   94SAPC   C37 9180   0.554   5.859   5.687  0.2780  0.0780 -0.7882
   94SAPC   H7X 9181   0.515   5.963   5.686 -0.0787 -0.0343  0.1595
   94SAPC   H7Y 9182   0.461   5.799   5.685  0.3115  0.0416 -2.1094
   94SAPC   C38 9183   0.662   5.831   5.580  0.1809 -0.9317  0.6608
   94SAPC   H8X 9184   0.713   5.733   5.590  2.3836  0.3129  2.7357
   94SAPC   H8Y 9185   0.744   5.905   5.594  0.2337 -1.0315  0.8836
   94SAPC   C39 9186   0.603   5.845   5.444 -0.3172 -0.0898 -0.0655
   94SAPC   H9X 9187   0.569   5.950   5.439  0.6421  0.2404  0.1071
   94SAPC   H9Y 9188   0.507   5.790   5.438 -0.7814  0.8279 -1.3335
   94SAPC  C310 9189   0.711   5.802   5.344  0.3373  0.4976 -0.1715
   94SAPC  H10X 9190   0.736   5.695   5.361 -1.0254  0.1027 -0.5442
   94SAPC  H10Y 9191   0.802   5.864   5.361 -0.1006  1.8526 -2.3420
   94SAPC  C311 9192   0.661   5.825   5.201  0.0900  0.1145  0.2419
   94SAPC  H11X 9193   0.660   5.935   5.188  0.2554  0.1630  0.6012
   94SAPC  H11Y 9194   0.558   5.784   5.197 -0.4220  1.0943  2.1652
   94SAPC  C312 9195   0.757   5.758   5.106  0.6013 -0.0133  0.2822
   94SAPC  H12X 9196   0.802   5.665   5.148  0.2431 -0.1632  0.3400
   94SAPC  H12Y 9197   0.846   5.821   5.086  0.3213  0.2760 -0.0546
   94SAPC  C313 9198   0.686   5.714   4.973  0.2135  0.4429  0.1104
   94SAPC  H13X 9199   0.634   5.798   4.923  2.0458  0.8040 -1.3219
   94SAPC  H13Y 9200   0.621   5.634   5.016  4.2437 -2.2119  1.9528
   94SAPC  C314 9201   0.774   5.639   4.872 -0.4249 -0.4027  0.7645
   94SAPC  H14X 9202   0.834   5.559   4.921  0.0979 -0.4001  0.1286
   94SAPC  H14Y 9203   0.852   5.704   4.827 -0.0927 -0.2852  1.4949
   94SAPC  C315 9204   0.685   5.564   4.765 -0.4253 -0.0936  0.4436
   94SAPC  H15X 9205   0.599   5.630   4.739 -0.7495  0.5379  2.8910
   94SAPC  H15Y 9206   0.639   5.471   4.804 -2.4337  1.5893  2.3713
   94SAPC  C316 9207   0.756   5.544   4.628  0.4570  0.0422  0.0165
   94SAPC  H16X 9208   0.832   5.466   4.652 -1.0912 -1.8016 -0.8438
   94SAPC  H16Y 9209   0.802   5.641   4.599 -1.9360  1.3445  0.3199
   94SAPC  C317 9210   0.671   5.492   4.511  0.5846 -0.1009 -0.2801
   94SAPC  H17X 9211   0.579   5.553   4.502  0.6497 -0.0509 -0.6048
   94SAPC  H17Y 9212   0.633   5.392   4.541 -0.9052  0.4626 -0.2023
   94SAPC  C318 9213   0.735   5.484   4.371  0.0047 -0.5941  0.2328
   94SAPC  H18X 9214   0.654   5.470   4.296 -0.4149  1.8931  0.1385
   94SAPC  H18Y 9215   0.804   5.397   4.366  0.6920 -0.0538  0.1187
   94SAPC  H18Z 9216   0.798   5.573   4.346 -1.5427  1.2266  2.3942
   95SAPC     N 9217   1.762   0.445   2.218  0.1261 -0.0363  0.3533
   95SAPC   C12 9218   1.849   0.433   2.341  0.2900 -0.0569 -0.3703
   95SAPC  H12A 9219   1.904   0.341   2.346  1.7007  0.6852 -1.3130
   95SAPC  H12B 9220   1.789   0.426   2.430 -1.0801 -1.9640 -1.3671
   95SAPC   C13 9221   1.851   0.475   2.098 -0.7426  0.0572 -0.2074
   95SAPC  H13A 9222   1.793   0.475   2.007 -2.6686 -0.5352  0.9654
   95SAPC  H13B 9223   1.885   0.577   2.109 -1.9565  0.2804  2.1272
   95SAPC  H13C 9224   1.932   0.404   2.101 -0.9370 -0.1376  1.7870
   95SAPC   C14 9225   1.691   0.312   2.204  0.0010 -0.5500  0.3063
   95SAPC  H14A 9226   1.647   0.276   2.296  0.2959 -1.1465  0.2199
   95SAPC  H14B 9227   1.610   0.327   2.134 -0.1780  3.8405  1.1768
   95SAPC  H14C 9228   1.762   0.239   2.167 -0.5042 -1.7098  1.5116
   95SAPC   C15 9229   1.652   0.547   2.232  0.1126  0.8085  0.0628
   95SAPC  H15A 9230   1.608   0.565   2.135  0.2779  1.0319  0.0284
   95SAPC  H15B 9231   1.569   0.517   2.294 -0.1908  0.7073 -0.3853
   95SAPC  H15C 9232   1.697   0.642   2.257 -0.2320  1.8172 -2.7515
   95SAPC   C11 9233   1.957   0.550   2.367  0.3742  0.0480  0.0838
   95SAPC  H11A 9234   1.991   0.522   2.469  1.8384  1.7339  0.1116
   95SAPC  H11B 9235   1.902   0.647   2.370 -0.4372 -0.3846 -0.4297
   95SAPC     P 9236   2.198   0.476   2.273  0.1601  0.1989 -0.2419
   95SAPC   O13 9237   2.195   0.371   2.166  0.1732 -0.3337  0.2296
   95SAPC   O14 9238   2.311   0.572   2.271  0.0981  0.6144  0.3616
   95SAPC   O12 9239   2.060   0.552   2.266  0.2028 -0.2271  0.2674
   95SAPC   O11 9240   2.195   0.406   2.416 -0.1025  0.3839  0.2716
   95SAPC    C1 9241   2.276   0.442   2.528  0.2101  0.2795  0.2160
   95SAPC    HA 9242   2.288   0.552   2.522 -1.1210  0.3704 -1.9273
   95SAPC    HB 9243   2.223   0.428   2.625 -1.4926  2.1998 -0.3511
   95SAPC    C2 9244   2.408   0.360   2.524  0.8428  0.1053  0.7092
   95SAPC    HS 9245   2.425   0.338   2.416  0.8250  0.0754  0.7120
   95SAPC   O21 9246   2.384   0.232   2.590 -0.7841 -0.6610  0.8533
   95SAPC   C21 9247   2.477   0.140   2.587  1.0447  0.2682  0.2363
   95SAPC   O22 9248   2.573   0.141   2.510  0.5196 -0.2024 -0.1665
   95SAPC   C22 9249   2.448   0.026   2.685  0.6212 -0.4309  0.2678
   95SAPC   H2R 9250   2.344   0.035   2.722  0.6764  1.1817  0.0965
   95SAPC   H2S 9251   2.454  -0.064   2.620 -0.6750  0.6591 -1.4598
   95SAPC    C3 9252   2.526   0.442   2.579 -0.7180  0.0192 -0.0402
   95SAPC    HX 9253   2.554   0.534   2.522  1.1355  0.3903  1.3559
   95SAPC    HY 9254   2.612   0.371   2.583  0.7731  1.7696  2.0789
   95SAPC   O31 9255   2.484   0.489   2.712  0.3400 -0.5403  0.4583
   95SAPC   C31 9256   2.571   0.500   2.802  0.3079 -0.4001  0.2154
   95SAPC   O32 9257   2.689   0.463   2.791 -0.1978 -0.5500 -0.0928
   95SAPC   C32 9258   2.512   0.553   2.931  0.5210  0.6829  0.6292
   95SAPC   H2X 9259   2.433   0.485   2.972  0.2426  1.9802  2.3725
   95SAPC   H2Y 9260   2.452   0.643   2.907 -2.1963 -1.1103  0.0939
   95SAPC   C23 9261   2.561   0.010   2.790  0.5563  0.1793  0.1317
   95SAPC   H3R 9262   2.656  -0.018   2.740 -0.5196  0.9125 -2.5369
   95SAPC   H3S 9263   2.537  -0.066   2.868 -0.7479 -1.5954 -1.8829
   95SAPC   C24 9264   2.598   0.133   2.879  0.4476  0.5468 -0.3668
   95SAPC   H4R 9265   2.504   0.168   2.928 -0.4313 -0.5137 -1.2635
   95SAPC   H4S 9266   2.626   0.215   2.809  1.0178  1.2519  0.6481
   95SAPC   C25 9267   2.717   0.119   2.974  0.0712  0.0925  0.2952
   95SAPC   H5R 9268   2.815   0.091   2.930 -0.1627 -0.3454  0.0476
   95SAPC   C26 9269   2.714   0.144   3.105 -0.5286 -0.0163 -0.0805
   95SAPC   H6R 9270   2.803   0.140   3.169 -0.7121  3.2456  0.5889
   95SAPC   C27 9271   2.585   0.170   3.185  0.5252 -0.0618  0.2479
   95SAPC   H7R 9272   2.495   0.132   3.131 -0.3231  3.3085 -0.9384
   95SAPC   H7S 9273   2.569   0.280   3.188  2.6768  0.3128 -0.5669
   95SAPC   C28 9274   2.582   0.113   3.324 -0.4374 -0.2154 -0.4113
   95SAPC   H8R 9275   2.523   0.020   3.326 -1.4401  0.3875  1.9172
   95SAPC   C29 9276   2.625   0.174   3.443 -0.2915  0.6056  0.8444
   95SAPC   H9R 9277   2.639   0.114   3.534  1.0652 -0.3111  0.0613
   95SAPC  C210 9278   2.668   0.320   3.461 -0.7321  0.5596  0.1879
   95SAPC  H10R 9279   2.586   0.376   3.510 -0.3120  0.2261  1.3180
   95SAPC  H10S 9280   2.696   0.354   3.359  0.8658  1.0817  0.7628
   95SAPC  C211 9281   2.789   0.331   3.556  0.4926 -0.6397 -0.0635
   95SAPC  H11R 9282   2.890   0.346   3.517 -0.1356  1.9837 -0.8891
   95SAPC  C212 9283   2.775   0.325   3.690 -0.1836  0.2626 -0.0073
   95SAPC  H12R 9284   2.870   0.319   3.744  0.3644 -0.7432 -1.0342
   95SAPC  C213 9285   2.648   0.311   3.776 -0.2311  0.1588  0.4576
   95SAPC  H13R 9286   2.558   0.310   3.710 -0.5662 -1.0627  0.9142
   95SAPC  H13S 9287   2.645   0.399   3.844 -0.3641  0.2652  0.3146
   95SAPC  C214 9288   2.663   0.183   3.862 -0.3206 -0.0784  0.6566
   95SAPC  H14R 9289   2.651   0.092   3.801  3.3225  0.5602 -1.2946
   95SAPC  C215 9290   2.712   0.168   3.979 -0.1196 -0.7118  0.4893
   95SAPC  H15R 9291   2.716   0.066   4.020  0.2289 -0.9998 -0.2355
   95SAPC  C216 9292   2.756   0.269   4.075 -0.3495 -0.0027 -0.2897
   95SAPC  H16R 9293   2.712   0.371   4.065  0.6170  0.1788 -4.3958
   95SAPC  H16S 9294   2.865   0.286   4.062  0.0139 -1.5801  0.4841
   95SAPC  C217 9295   2.737   0.231   4.221  0.1948  0.2730 -0.3118
   95SAPC  H17R 9296   2.801   0.142   4.240  1.8016  1.5134  0.3364
   95SAPC  H17S 9297   2.635   0.190   4.236  0.1517 -0.0631 -1.4013
   95SAPC  C218 9298   2.772   0.343   4.324 -0.1904  0.6872  0.6784
   95SAPC  H18R 9299   2.726   0.439   4.294 -2.4656 -0.6625 -0.3877
   95SAPC  H18S 9300   2.883   0.351   4.317 -0.2976  0.8208 -1.6695
   95SAPC  C219 9301   2.729   0.300   4.467  0.0274 -0.2825  0.2066
   95SAPC  H19R 9302   2.759   0.195   4.487  2.1561 -0.2448 -2.2005
   95SAPC  H19S 9303   2.618   0.300   4.457 -0.1984 -0.7211  2.2763
   95SAPC  C220 9304   2.782   0.394   4.574  0.8955  0.7806  0.0506
   95SAPC  H20R 9305   2.761   0.352   4.675 -0.1137  0.0954 -0.4185
   95SAPC  H20S 9306   2.738   0.496   4.578 -0.8584  0.0589  0.0612
   95SAPC  H20T 9307   2.892   0.408   4.571  0.7510  1.8603 -0.3697
   95SAPC   C33 9308   2.607   0.559   3.048  0.1716 -0.0976  0.1358
   95SAPC   H3X 9309   2.677   0.642   3.027  0.6109 -0.3949  0.4022
   95SAPC   H3Y 9310   2.655   0.459   3.059  4.5282  2.0097  3.2958
   95SAPC   C34 9311   2.540   0.592   3.179  0.6651 -0.3327  0.0047
   95SAPC   H4X 9312   2.491   0.498   3.212 -0.7217  0.9270  1.7537
   95SAPC   H4Y 9313   2.455   0.663   3.169  1.4065  0.5851 -0.0089
   95SAPC   C35 9314   2.632   0.639   3.298  0.4436 -0.8079 -0.1452
   95SAPC   H5X 9315   2.734   0.625   3.257  0.5547 -1.3020  0.2935
   95SAPC   H5Y 9316   2.618   0.584   3.393 -2.5553  0.1131  0.0777
   95SAPC   C36 9317   2.604   0.788   3.332 -0.0823 -0.1880 -0.0097
   95SAPC   H6X 9318   2.507   0.788   3.385 -0.3687 -0.9131 -0.5178
   95SAPC   H6Y 9319   2.596   0.859   3.247 -1.8032  0.0077  0.2750
   95SAPC   C37 9320   2.724   0.831   3.417  0.3380 -0.2779 -1.0771
   95SAPC   H7X 9321   2.735   0.942   3.417 -0.1810 -0.1480  2.1689
   95SAPC   H7Y 9322   2.823   0.796   3.380  1.3863 -0.0045  1.3105
   95SAPC   C38 9323   2.704   0.782   3.561  0.2223 -0.2187  0.1540
   95SAPC   H8X 9324   2.798   0.789   3.620 -1.9833  1.1334  3.8678
   95SAPC   H8Y 9325   2.667   0.677   3.568 -0.8075  0.1310  0.0889
   95SAPC   C39 9326   2.601   0.872   3.633 -0.1735 -1.0294  0.4024
   95SAPC   H9X 9327   2.501   0.854   3.589  0.8634 -3.2051 -1.2621
   95SAPC   H9Y 9328   2.626   0.978   3.615  0.1944 -1.0894  0.5440
   95SAPC  C310 9329   2.599   0.841   3.782 -0.4710  0.3980 -0.1450
   95SAPC  H10X 9330   2.691   0.887   3.825  0.5601  0.2635 -2.0879
   95SAPC  H10Y 9331   2.609   0.731   3.792  0.8224  0.5515  0.4696
   95SAPC  C311 9332   2.474   0.893   3.851  0.5900  0.2450  0.2743
   95SAPC  H11X 9333   2.461   0.863   3.957 -1.5389  1.2575  0.3427
   95SAPC  H11Y 9334   2.379   0.863   3.803  0.2386  0.2984  0.9288
   95SAPC  C312 9335   2.456   1.046   3.847  0.4664 -0.3079  0.2546
   95SAPC  H12X 9336   2.463   1.089   3.745  3.6613  1.7599  1.1954
   95SAPC  H12Y 9337   2.540   1.089   3.906  2.5344 -3.4377 -0.2132
   95SAPC  C313 9338   2.324   1.083   3.915  0.0530 -0.2906 -0.0333
   95SAPC  H13X 9339   2.317   1.064   4.024  1.4647  1.1793  0.3433
   95SAPC  H13Y 9340   2.239   1.029   3.866  0.5373 -1.2909  0.2064
   95SAPC  C314 9341   2.295   1.236   3.917 -0.0469  0.4062 -0.1069
   95SAPC  H14X 9342   2.247   1.276   3.825  0.1953  1.0728  0.0498
   95SAPC  H14Y 9343   2.395   1.282   3.931 -0.9248  2.0309  1.4031
   95SAPC  C315 9344   2.206   1.286   4.031  0.4832  0.3526 -0.1257
   95SAPC  H15X 9345   2.219   1.224   4.122  0.2389 -1.4343 -1.2597
   95SAPC  H15Y 9346   2.105   1.260   3.991 -0.6412  0.3939  2.4736
   95SAPC  C316 9347   2.201   1.438   4.065 -0.3984  0.1873  0.8603
   95SAPC  H16X 9348   2.153   1.490   3.980  1.6397  0.8469  0.0694
   95SAPC  H16Y 9349   2.308   1.464   4.079 -1.0712  2.0675  3.2643
   95SAPC  C317 9350   2.127   1.457   4.188  0.0777 -0.1287 -0.5613
   95SAPC  H17X 9351   2.158   1.380   4.262 -3.6453  0.3160  1.7647
   95SAPC  H17Y 9352   2.018   1.439   4.176 -0.1295  0.7407 -0.0634
   95SAPC  C318 9353   2.140   1.596   4.256 -0.4577  0.7332 -0.1948
   95SAPC  H18X 9354   2.115   1.668   4.175  0.3535  0.4654 -0.6922
   95SAPC  H18Y 9355   2.235   1.628   4.304  0.2449  2.8263 -2.7343
   95SAPC  H18Z 9356   2.061   1.608   4.333 -0.1294  0.8181  0.1279
   96SAPC     N 9357   1.446   1.989   2.278  0.1332  0.6255  0.2482
   96SAPC   C12 9358   1.488   1.929   2.144 -0.1314  0.0054  0.3839
   96SAPC  H12A 9359   1.440   1.979   2.061 -0.4832  0.7947  1.0563
   96SAPC  H12B 9360   1.439   1.833   2.134  0.8660 -0.5234  0.4885
   96SAPC   C13 9361   1.517   2.113   2.302 -0.6455 -0.1940 -0.3583
   96SAPC  H13A 9362   1.618   2.085   2.330 -0.7719  0.2252  0.5812
   96SAPC  H13B 9363   1.500   2.183   2.222 -1.9786 -1.3946 -1.1615
   96SAPC  H13C 9364   1.476   2.158   2.392  1.0918 -0.2994  0.5360
   96SAPC   C14 9365   1.299   2.024   2.282  0.0990  0.0222 -0.4873
   96SAPC  H14A 9366   1.235   1.938   2.273  0.6415 -0.5681  0.9628
   96SAPC  H14B 9367   1.280   2.067   2.379  1.1419  0.0755 -0.2879
   96SAPC  H14C 9368   1.263   2.091   2.204  1.2141 -1.0732 -2.0063
   96SAPC   C15 9369   1.463   1.882   2.390 -0.0807  0.4331  0.5963
   96SAPC  H15A 9370   1.404   1.795   2.367 -1.8540  1.8581 -0.5846
   96SAPC  H15B 9371   1.561   1.846   2.417  0.3403 -0.1425 -1.5059
   96SAPC  H15C 9372   1.426   1.915   2.486 -1.5012 -0.7284  0.4821
   96SAPC   C11 9373   1.641   1.913   2.123 -1.2463 -0.5440 -0.0702
   96SAPC  H11A 9374   1.700   2.006   2.132 -0.7814 -0.7774 -0.6040
   96SAPC  H11B 9375   1.657   1.874   2.020 -0.0542 -0.4175  0.0468
   96SAPC     P 9376   1.828   1.804   2.269 -0.1207  0.0929  0.0254
   96SAPC   O13 9377   1.817   1.739   2.402 -0.5188  0.8215  0.4470
   96SAPC   O14 9378   1.927   1.746   2.172  0.0738  0.1708 -0.3459
   96SAPC   O12 9379   1.686   1.809   2.209  0.3700  0.2218 -0.3804
   96SAPC   O11 9380   1.864   1.954   2.296 -0.5017  0.2919 -0.8348
   96SAPC    C1 9381   1.982   1.983   2.381 -0.1312 -0.1418  0.1105
   96SAPC    HA 9382   2.060   1.907   2.361 -1.1671 -1.4255  0.7864
   96SAPC    HB 9383   2.019   2.085   2.354  4.5310 -1.7562 -0.3686
   96SAPC    C2 9384   1.946   1.977   2.529  1.3625  0.6769  0.0367
   96SAPC    HS 9385   1.889   1.884   2.551  1.7672  0.4526  0.1471
   96SAPC   O21 9386   1.860   2.092   2.554  0.3971  0.6791 -0.0979
   96SAPC   C21 9387   1.740   2.069   2.619  0.2892 -0.4560 -0.4354
   96SAPC   O22 9388   1.708   1.961   2.666 -0.7203 -0.0729 -0.1475
   96SAPC   C22 9389   1.655   2.204   2.626  0.0432  0.4796  0.2329
   96SAPC   H2R 9390   1.697   2.257   2.538  4.4709 -0.6602  1.3767
   96SAPC   H2S 9391   1.550   2.171   2.616  0.7932 -1.9894 -0.2053
   96SAPC    C3 9392   2.067   1.992   2.624  1.1209  0.1240  0.3499
   96SAPC    HX 9393   2.120   2.089   2.611 -0.9657  1.2314 -0.2938
   96SAPC    HY 9394   2.139   1.913   2.595  1.7554  1.4084 -1.7629
   96SAPC   O31 9395   2.038   1.988   2.765 -0.1156  0.0057 -0.8587
   96SAPC   C31 9396   2.025   1.870   2.822 -0.2807  0.5194 -0.5245
   96SAPC   O32 9397   2.058   1.761   2.776  0.2028 -0.4856  0.4722
   96SAPC   C32 9398   1.974   1.884   2.967  0.0235 -0.2004  0.5335
   96SAPC   H2X 9399   2.026   1.964   3.025 -2.8389  1.8659  0.4792
   96SAPC   H2Y 9400   2.009   1.790   3.014  2.0860  0.1481 -0.2046
   96SAPC   C23 9401   1.663   2.267   2.761  0.2436 -0.3153  0.0306
   96SAPC   H3R 9402   1.685   2.374   2.744  1.2712 -0.8564 -2.6667
   96SAPC   H3S 9403   1.748   2.218   2.814  2.2252  2.3568 -0.4960
   96SAPC   C24 9404   1.545   2.249   2.857  0.5080 -0.3922 -0.3397
   96SAPC   H4R 9405   1.526   2.140   2.867 -0.5005 -0.5016 -2.6844
   96SAPC   H4S 9406   1.455   2.290   2.806  1.2806  1.2967 -0.4196
   96SAPC   C25 9407   1.548   2.304   2.993 -1.1504 -0.5236 -0.1330
   96SAPC   H5R 9408   1.654   2.300   3.024 -0.6145 -2.3453 -1.9754
   96SAPC   C26 9409   1.458   2.373   3.065 -0.0381 -0.7723 -0.2462
   96SAPC   H6R 9410   1.496   2.410   3.161  1.0827 -2.2994 -0.0561
   96SAPC   C27 9411   1.318   2.409   3.022  0.2351 -0.4276 -0.4574
   96SAPC   H7R 9412   1.256   2.390   3.112 -0.1462  0.0261 -0.6217
   96SAPC   H7S 9413   1.282   2.335   2.948 -1.7646  0.1233 -0.0846
   96SAPC   C28 9414   1.291   2.549   2.971 -0.7309  0.0999  0.6279
   96SAPC   H8R 9415   1.358   2.548   2.884 -0.2656 -1.6245  0.9556
   96SAPC   C29 9416   1.198   2.642   3.003 -0.3616 -0.1868  0.4325
   96SAPC   H9R 9417   1.193   2.734   2.942  0.8899  1.5328  2.7561
   96SAPC  C210 9418   1.096   2.640   3.113 -0.1595 -0.2336  0.0315
   96SAPC  H10R 9419   1.126   2.706   3.197  2.8230 -0.7987 -0.4563
   96SAPC  H10S 9420   1.105   2.542   3.164  1.4309 -0.0258  0.1990
   96SAPC  C211 9421   0.959   2.674   3.056  0.2791 -0.1571 -0.6745
   96SAPC  H11R 9422   0.936   2.637   2.955 -1.4649  1.7492 -1.0466
   96SAPC  C212 9423   0.858   2.729   3.130 -0.2983  0.0089 -0.1208
   96SAPC  H12R 9424   0.762   2.751   3.080 -0.2505  0.3691 -0.0540
   96SAPC  C213 9425   0.871   2.768   3.275  0.0608  0.1170 -0.3801
   96SAPC  H13R 9426   0.861   2.878   3.286  0.8766  0.2048 -0.4669
   96SAPC  H13S 9427   0.974   2.744   3.309 -0.7885 -2.3496  0.6905
   96SAPC  C214 9428   0.773   2.690   3.358 -0.3159  0.8365  0.3714
   96SAPC  H14R 9429   0.700   2.635   3.298  1.5525 -1.5086  0.0975
   96SAPC  C215 9430   0.775   2.678   3.495 -0.5068  0.3363  0.2066
   96SAPC  H15R 9431   0.685   2.630   3.535  1.0185 -1.2204  1.9700
   96SAPC  C216 9432   0.876   2.748   3.589 -0.2611 -0.1443 -0.2189
   96SAPC  H16R 9433   0.863   2.857   3.575  0.0860 -0.4011 -3.1195
   96SAPC  H16S 9434   0.980   2.715   3.571 -0.2437  0.7354 -1.9936
   96SAPC  C217 9435   0.858   2.722   3.738  0.6635  0.2421  0.5151
   96SAPC  H17R 9436   0.933   2.787   3.786  1.4334  0.7535 -1.3087
   96SAPC  H17S 9437   0.896   2.620   3.762  0.3084 -0.2615 -0.9276
   96SAPC  C218 9438   0.713   2.734   3.789 -0.0308 -0.4568 -0.2116
   96SAPC  H18R 9439   0.635   2.718   3.711  0.4658 -0.3058 -0.7520
   96SAPC  H18S 9440   0.707   2.843   3.812 -1.5605 -0.3765 -0.8430
   96SAPC  C219 9441   0.681   2.667   3.927 -0.2161  0.4688 -0.2525
   96SAPC  H19R 9442   0.687   2.556   3.919  1.2347  0.5837 -1.0793
   96SAPC  H19S 9443   0.587   2.701   3.976 -0.4236  0.6774 -0.7937
   96SAPC  C220 9444   0.795   2.703   4.031  0.2374 -1.2339  0.2115
   96SAPC  H20R 9445   0.877   2.629   4.023  2.6041  1.0090  1.6895
   96SAPC  H20S 9446   0.747   2.681   4.129  0.8511  0.8680  1.0549
   96SAPC  H20T 9447   0.823   2.811   4.032 -1.9620 -0.5881 -0.6404
   96SAPC   C33 9448   1.817   1.892   2.974 -0.5647 -0.5599  1.1240
   96SAPC   H3X 9449   1.785   1.804   2.914  1.0546  1.0895 -2.4908
   96SAPC   H3Y 9450   1.778   1.982   2.920 -2.2805 -1.5495  0.6210
   96SAPC   C34 9451   1.772   1.885   3.119  1.1241 -0.0912 -0.4680
   96SAPC   H4X 9452   1.674   1.937   3.120  2.3304  2.5959 -3.3688
   96SAPC   H4Y 9453   1.841   1.947   3.180 -1.5856  2.3639  0.3437
   96SAPC   C35 9454   1.768   1.741   3.172 -0.0166 -0.2825 -0.1880
   96SAPC   H5X 9455   1.876   1.714   3.174  0.1414  0.3156 -0.4347
   96SAPC   H5Y 9456   1.723   1.665   3.103 -2.3838  0.0605  0.8976
   96SAPC   C36 9457   1.713   1.727   3.316 -0.7090 -0.3490 -0.5044
   96SAPC   H6X 9458   1.712   1.619   3.339  0.0975  0.1684  2.3498
   96SAPC   H6Y 9459   1.608   1.761   3.315 -0.4387  0.6783  1.4055
   96SAPC   C37 9460   1.785   1.811   3.426  0.4488 -0.5341  0.5897
   96SAPC   H7X 9461   1.766   1.919   3.407 -0.2994 -0.6133  0.8434
   96SAPC   H7Y 9462   1.893   1.788   3.435  0.2928 -1.3983  0.3418
   96SAPC   C38 9463   1.713   1.775   3.557  0.1197  0.1546  0.0488
   96SAPC   H8X 9464   1.693   1.666   3.565  0.0986  0.0935 -0.7561
   96SAPC   H8Y 9465   1.611   1.817   3.547 -0.8242 -2.1498 -0.8319
   96SAPC   C39 9466   1.780   1.827   3.681  0.8240  0.6221 -0.0128
   96SAPC   H9X 9467   1.758   1.936   3.678 -0.0522  0.4748  0.8556
   96SAPC   H9Y 9468   1.888   1.802   3.691  1.0454  1.1420 -0.9311
   96SAPC  C310 9469   1.705   1.790   3.813 -1.0476  0.7188  0.3184
   96SAPC  H10X 9470   1.684   1.682   3.827 -0.1648  0.3374 -1.0659
   96SAPC  H10Y 9471   1.604   1.836   3.812 -1.1926  0.4397  1.2012
   96SAPC  C311 9472   1.779   1.828   3.939 -0.8622  0.3061  0.1242
   96SAPC  H11X 9473   1.862   1.757   3.955  0.7309  2.2243  0.8215
   96SAPC  H11Y 9474   1.707   1.809   4.022 -1.4923  0.2792 -0.4179
   96SAPC  C312 9475   1.839   1.970   3.945  0.6174 -0.0495  0.8915
   96SAPC  H12X 9476   1.769   2.053   3.922  0.3644 -0.3110  0.7117
   96SAPC  H12Y 9477   1.922   1.972   3.871  2.5331 -2.0734  2.8172
   96SAPC  C313 9478   1.924   2.005   4.071 -0.1212  0.0718 -0.8573
   96SAPC  H13X 9479   1.952   2.110   4.047 -1.8684  0.3233 -1.9917
   96SAPC  H13Y 9480   2.015   1.942   4.071  1.2613  1.9755 -1.6974
   96SAPC  C314 9481   1.835   2.004   4.195  0.3257 -0.1213 -0.6291
   96SAPC  H14X 9482   1.733   2.016   4.153  0.8635  2.7181 -1.3691
   96SAPC  H14Y 9483   1.848   2.100   4.250  2.4774  0.5265 -2.1574
   96SAPC  C315 9484   1.853   1.875   4.295 -0.6523  0.3677  0.3141
   96SAPC  H15X 9485   1.961   1.867   4.322 -0.6013  0.5171  0.1569
   96SAPC  H15Y 9486   1.815   1.786   4.240 -2.7280  1.2280  0.2674
   96SAPC  C316 9487   1.772   1.898   4.427  0.2741 -0.2088 -0.3989
   96SAPC  H16X 9488   1.748   1.804   4.481  0.4730  0.3770  0.7376
   96SAPC  H16Y 9489   1.675   1.942   4.396  1.0131  2.0099  0.2550
   96SAPC  C317 9490   1.833   2.003   4.517  0.3435  0.0417 -0.1001
   96SAPC  H17X 9491   1.879   2.080   4.450 -1.7198 -0.2188 -1.9171
   96SAPC  H17Y 9492   1.920   1.964   4.574  2.0567  1.9947 -1.2398
   96SAPC  C318 9493   1.744   2.076   4.620 -0.5749  0.1457 -0.3848
   96SAPC  H18X 9494   1.725   2.002   4.700  0.9752  1.1133  0.9277
   96SAPC  H18Y 9495   1.646   2.103   4.575 -0.4438 -1.6062 -1.8520
   96SAPC  H18Z 9496   1.794   2.167   4.658  0.9002  0.2336 -2.3965
   97SAPC     N 9497   0.603   2.059   2.178  0.2943  0.3567 -0.0120
   97SAPC   C12 9498   0.595   2.099   2.325  0.0769  0.3752  0.4343
   97SAPC  H12A 9499   0.642   2.019   2.380 -1.4464 -2.0627 -1.6040
   97SAPC  H12B 9500   0.490   2.104   2.347 -0.1665  3.1003 -0.8615
   97SAPC   C13 9501   0.508   1.948   2.155  0.0749 -0.3382 -0.0174
   97SAPC  H13A 9502   0.410   1.991   2.172  0.3550 -0.0714  0.9991
   97SAPC  H13B 9503   0.520   1.907   2.056 -1.0170 -0.6886 -0.0225
   97SAPC  H13C 9504   0.522   1.868   2.227  1.8638 -0.2249 -0.1966
   97SAPC   C14 9505   0.572   2.167   2.084 -0.1242  0.6005  0.0818
   97SAPC  H14A 9506   0.629   2.257   2.107  1.2107 -0.4855  1.2367
   97SAPC  H14B 9507   0.594   2.140   1.982 -3.1326 -0.8020 -0.2916
   97SAPC  H14C 9508   0.467   2.192   2.079  0.4607  3.5058  0.5445
   97SAPC   C15 9509   0.736   1.998   2.149  0.1056  0.2180  0.7387
   97SAPC  H15A 9510   0.817   2.066   2.171  1.5219 -1.5569  1.2121
   97SAPC  H15B 9511   0.767   1.907   2.196  0.5934 -0.6506 -1.1903
   97SAPC  H15C 9512   0.746   1.996   2.042 -0.9906 -1.3508  0.6459
   97SAPC   C11 9513   0.669   2.228   2.374  0.1235  0.7277  0.3477
   97SAPC  H11A 9514   0.633   2.250   2.477 -2.3639  0.4112 -0.3987
   97SAPC  H11B 9515   0.624   2.313   2.318  1.5592  2.5941  1.8365
   97SAPC     P 9516   0.895   2.131   2.454 -0.0127  0.0919 -0.6299
   97SAPC   O13 9517   0.873   1.989   2.422  0.2887  0.1335 -0.0236
   97SAPC   O14 9518   1.033   2.179   2.434 -0.9167 -0.2051 -0.0657
   97SAPC   O12 9519   0.811   2.223   2.360  0.1475 -0.1598  0.3118
   97SAPC   O11 9520   0.840   2.166   2.598  0.8846  0.0745 -0.2654
   97SAPC    C1 9521   0.794   2.052   2.681 -0.4342 -0.3300  0.4040
   97SAPC    HA 9522   0.697   2.077   2.728  0.9190  3.2005  1.6746
   97SAPC    HB 9523   0.781   1.955   2.629  0.4224  0.2465 -0.9315
   97SAPC    C2 9524   0.890   2.022   2.805  0.3076 -0.9831 -0.3924
   97SAPC    HS 9525   0.847   1.940   2.867  0.8228 -1.9454 -1.2738
   97SAPC   O21 9526   0.928   2.135   2.892 -0.2867 -0.0737 -0.1389
   97SAPC   C21 9527   0.840   2.209   2.944 -0.2393 -0.1838 -0.2879
   97SAPC   O22 9528   0.724   2.201   2.942  0.0342 -0.4355  0.3998
   97SAPC   C22 9529   0.901   2.320   3.024 -0.4672 -0.3941  0.5468
   97SAPC   H2R 9530   1.009   2.297   3.038  0.7229  1.5126 -3.6966
   97SAPC   H2S 9531   0.901   2.414   2.966  2.3733  0.6800  2.0974
   97SAPC    C3 9532   1.019   1.958   2.756  0.1762 -0.4528  0.0114
   97SAPC    HX 9533   1.076   2.014   2.679 -0.8629 -1.9277 -1.9426
   97SAPC    HY 9534   0.989   1.863   2.706 -0.1983  0.0283 -0.6989
   97SAPC   O31 9535   1.108   1.924   2.860 -0.3011 -0.0842 -0.3966
   97SAPC   C31 9536   1.202   2.011   2.907  0.8962 -0.5419 -0.2713
   97SAPC   O32 9537   1.223   2.118   2.855 -0.0660  0.7352 -0.2521
   97SAPC   C32 9538   1.273   1.948   3.023  0.0622 -0.1188  0.2003
   97SAPC   H2X 9539   1.369   1.914   2.979  0.4190  0.2767  0.6640
   97SAPC   H2Y 9540   1.215   1.857   3.047  0.8612 -1.3898 -2.3083
   97SAPC   C23 9541   0.809   2.347   3.142 -0.2415 -0.4088  0.5950
   97SAPC   H3R 9542   0.702   2.364   3.120 -0.9077 -2.2399  2.1715
   97SAPC   H3S 9543   0.840   2.446   3.184  2.2087 -1.0272  0.4197
   97SAPC   C24 9544   0.810   2.242   3.252  0.6167 -0.0396  0.0641
   97SAPC   H4R 9545   0.797   2.139   3.212  0.2292  0.5090 -1.2390
   97SAPC   H4S 9546   0.726   2.248   3.325 -0.4495 -3.7435 -0.6588
   97SAPC   C25 9547   0.943   2.244   3.326  0.3461  0.5030 -0.4570
   97SAPC   H5R 9548   1.022   2.213   3.256  0.4013 -1.2034  0.3131
   97SAPC   C26 9549   0.955   2.280   3.455  0.5402 -0.9262  0.3839
   97SAPC   H6R 9550   1.058   2.278   3.495  1.2145 -0.4995 -1.2485
   97SAPC   C27 9551   0.848   2.318   3.561  0.6235 -0.6221 -0.9523
   97SAPC   H7R 9552   0.758   2.372   3.523  1.3401  0.8864 -0.5929
   97SAPC   H7S 9553   0.894   2.390   3.631 -0.5432 -0.3022 -0.4917
   97SAPC   C28 9554   0.802   2.196   3.637  0.4449  0.6026  0.2157
   97SAPC   H8R 9555   0.748   2.120   3.579 -1.4077  2.3027 -0.3759
   97SAPC   C29 9556   0.817   2.173   3.765  0.6014  0.4366 -0.7445
   97SAPC   H9R 9557   0.786   2.075   3.806  0.1871  0.4097 -1.1215
   97SAPC  C210 9558   0.871   2.264   3.872  0.0365 -0.5082 -0.2517
   97SAPC  H10R 9559   0.885   2.371   3.846 -3.1999  1.3218  4.1995
   97SAPC  H10S 9560   0.967   2.218   3.904 -0.2822  0.9518  3.2693
   97SAPC  C211 9561   0.794   2.272   4.005 -0.3345  0.9090  0.4829
   97SAPC  H11R 9562   0.759   2.375   4.019 -1.2941  1.1731 -2.9110
   97SAPC  C212 9563   0.769   2.176   4.098  0.6487 -0.8352  0.5400
   97SAPC  H12R 9564   0.698   2.203   4.177 -0.4324  1.7563 -1.1802
   97SAPC  C213 9565   0.818   2.034   4.097 -0.1944  0.5975 -0.2108
   97SAPC  H13R 9566   0.894   2.009   4.020  1.7865  0.6526  1.6483
   97SAPC  H13S 9567   0.729   1.971   4.076  0.0251 -0.5456  2.0498
   97SAPC  C214 9568   0.872   1.997   4.237  0.5267 -0.3848 -0.7878
   97SAPC  H14R 9569   0.962   2.056   4.259  0.6839  0.3611 -3.1636
   97SAPC  C215 9570   0.829   1.898   4.318 -0.2727 -0.2508 -0.1096
   97SAPC  H15R 9571   0.890   1.877   4.407  0.7462  1.4165 -0.3629
   97SAPC  C216 9572   0.708   1.810   4.289 -0.4440  0.0201  0.3190
   97SAPC  H16R 9573   0.743   1.718   4.237  1.9932  0.8699  0.3433
   97SAPC  H16S 9574   0.649   1.870   4.215 -0.9059  1.6658  1.9453
   97SAPC  C217 9575   0.618   1.781   4.406  0.8053 -0.0159  0.5136
   97SAPC  H17R 9576   0.577   1.877   4.445 -0.2620  0.0196 -0.6287
   97SAPC  H17S 9577   0.668   1.724   4.487 -0.3091 -0.6104  0.8133
   97SAPC  C218 9578   0.496   1.685   4.372 -0.2477 -0.7519  0.2242
   97SAPC  H18R 9579   0.473   1.699   4.264 -0.9226  0.0404  0.4637
   97SAPC  H18S 9580   0.397   1.715   4.411 -1.1334 -2.5773 -0.4686
   97SAPC  C219 9581   0.516   1.539   4.414  0.7599 -0.1283  0.1059
   97SAPC  H19R 9582   0.542   1.535   4.522 -0.5186 -1.4453  0.3995
   97SAPC  H19S 9583   0.601   1.503   4.351  1.0595  1.1643 -0.2451
   97SAPC  C220 9584   0.383   1.466   4.399 -0.2186  0.6240  0.7210
   97SAPC  H20R 9585   0.315   1.484   4.485  0.9773  0.2524  1.7620
   97SAPC  H20S 9586   0.390   1.357   4.376  0.3306  0.8151 -0.0711
   97SAPC  H20T 9587   0.333   1.500   4.305 -2.3462 -0.5471  1.3685
   97SAPC   C33 9588   1.307   2.039   3.140  0.2279 -0.0950  0.4654
   97SAPC   H3X 9589   1.220   2.105   3.161  0.2304 -0.5131  1.8526
   97SAPC   H3Y 9590   1.399   2.097   3.117 -0.1948  0.4786  0.1919
   97SAPC   C34 9591   1.342   1.977   3.274 -0.2829 -0.3810 -0.4173
   97SAPC   H4X 9592   1.452   1.987   3.277 -0.4688  2.3084 -0.0660
   97SAPC   H4Y 9593   1.296   1.878   3.297 -0.6891  0.6817  4.2467
   97SAPC   C35 9594   1.301   2.059   3.394  0.6495 -0.6985  0.2976
   97SAPC   H5X 9595   1.197   2.099   3.392  1.3908  1.3384  0.2239
   97SAPC   H5Y 9596   1.372   2.144   3.402  1.8150 -1.5165 -0.7551
   97SAPC   C36 9597   1.308   1.985   3.524 -0.3877  0.0498  0.0541
   97SAPC   H6X 9598   1.415   1.960   3.544 -0.4334  1.6967  2.8456
   97SAPC   H6Y 9599   1.255   1.888   3.515 -0.1034 -0.3290  2.0386
   97SAPC   C37 9600   1.276   2.066   3.644  0.1869  0.1271  0.6986
   97SAPC   H7X 9601   1.173   2.107   3.640  1.4900  3.6176 -1.4361
   97SAPC   H7Y 9602   1.343   2.155   3.638  0.6080 -0.2725 -1.4372
   97SAPC   C38 9603   1.310   1.975   3.767 -0.0138  0.6548 -0.9982
   97SAPC   H8X 9604   1.416   1.946   3.753 -0.0795  0.5694 -1.3369
   97SAPC   H8Y 9605   1.251   1.881   3.757  0.9724 -0.0184 -0.6116
   97SAPC   C39 9606   1.297   2.050   3.905  0.1909 -0.2286 -0.2926
   97SAPC   H9X 9607   1.201   2.105   3.909 -0.7670 -1.9191  1.9521
   97SAPC   H9Y 9608   1.382   2.121   3.898 -0.1601  0.0760 -1.8420
   97SAPC  C310 9609   1.321   1.967   4.026 -0.2689  0.2939  0.0133
   97SAPC  H10X 9610   1.417   1.912   4.020 -0.3969  0.2191 -1.8551
   97SAPC  H10Y 9611   1.233   1.901   4.042 -0.3400  0.2410 -0.5797
   97SAPC  C311 9612   1.315   2.056   4.159  0.5251  0.4902  0.5320
   97SAPC  H11X 9613   1.219   2.112   4.161  0.0140 -0.2556 -1.0921
   97SAPC  H11Y 9614   1.394   2.132   4.140  0.4947  1.0778  2.5166
   97SAPC  C312 9615   1.325   1.982   4.286 -0.4487 -0.1042  0.6905
   97SAPC  H12X 9616   1.417   1.919   4.291  0.2466  0.8020 -0.1975
   97SAPC  H12Y 9617   1.233   1.922   4.298  0.4119 -1.7396 -0.4475
   97SAPC  C313 9618   1.324   2.085   4.396  0.3921 -0.0560 -0.0511
   97SAPC  H13X 9619   1.232   2.146   4.409 -1.0605 -2.1468  0.0400
   97SAPC  H13Y 9620   1.407   2.156   4.381  0.7023 -0.0685  1.4625
   97SAPC  C314 9621   1.361   2.031   4.538 -0.3508 -0.4316  0.5094
   97SAPC  H14X 9622   1.373   2.117   4.608  0.0948  0.6400 -0.8478
   97SAPC  H14Y 9623   1.461   1.983   4.534 -0.5385 -0.7474 -0.6667
   97SAPC  C315 9624   1.261   1.927   4.600 -0.3744  0.3750  0.5228
   97SAPC  H15X 9625   1.288   1.824   4.568  1.9125  0.8324  0.7531
   97SAPC  H15Y 9626   1.165   1.946   4.548  1.0426 -0.1259 -2.4914
   97SAPC  C316 9627   1.251   1.930   4.752 -0.3011  0.5187 -0.8568
   97SAPC  H16X 9628   1.234   2.036   4.781 -1.2075  0.8845 -2.5842
   97SAPC  H16Y 9629   1.348   1.896   4.794 -0.3585 -1.4957 -2.2409
   97SAPC  C317 9630   1.156   1.822   4.797 -0.5636 -0.3393 -0.1344
   97SAPC  H17X 9631   1.192   1.733   4.742 -0.4802 -0.1343 -0.4150
   97SAPC  H17Y 9632   1.059   1.851   4.751  1.1391  2.0107 -2.5510
   97SAPC  C318 9633   1.151   1.764   4.944 -0.4221 -0.4309  0.4366
   97SAPC  H18X 9634   1.099   1.665   4.946  1.4998 -1.4799  1.7729
   97SAPC  H18Y 9635   1.097   1.841   5.002  0.5590  0.4948  0.1418
   97SAPC  H18Z 9636   1.251   1.755   4.992  0.8724  3.2090 -1.2671
   98SAPC     N 9637   4.968   1.706   2.157  0.5204  0.1512 -0.0390
   98SAPC   C12 9638   5.027   1.750   2.028  0.5772 -0.6784  0.2626
   98SAPC  H12A 9639   5.059   1.662   1.975  1.6088 -1.0495  1.4666
   98SAPC  H12B 9640   5.118   1.808   2.033 -0.0001  0.1673  1.7735
   98SAPC   C13 9641   4.844   1.627   2.131  0.0684 -0.6722 -0.0907
   98SAPC  H13A 9642   4.766   1.682   2.079 -1.5812 -0.6811  2.2225
   98SAPC  H13B 9643   4.869   1.532   2.087  2.9190  1.2459 -3.0383
   98SAPC  H13C 9644   4.787   1.599   2.219 -1.8883  1.9188 -0.3805
   98SAPC   C14 9645   5.057   1.602   2.215  0.2322  0.2956 -0.6382
   98SAPC  H14A 9646   5.158   1.641   2.218  0.5120 -0.2946 -2.0098
   98SAPC  H14B 9647   5.021   1.585   2.316 -0.3430  1.3869 -0.6452
   98SAPC  H14C 9648   5.056   1.512   2.157 -0.5300  0.1472 -0.4123
   98SAPC   C15 9649   4.959   1.810   2.260 -0.1150  0.0031  0.0122
   98SAPC  H15A 9650   4.915   1.777   2.353  0.6238  1.6979  1.0139
   98SAPC  H15B 9651   5.057   1.842   2.292  0.1443 -0.7715  0.0117
   98SAPC  H15C 9652   4.911   1.904   2.236  1.4727  0.5132 -1.3469
   98SAPC   C11 9653   4.931   1.827   1.933 -0.7217 -1.1585 -0.4390
   98SAPC  H11A 9654   4.840   1.766   1.915 -0.3552 -1.6304 -0.7178
   98SAPC  H11B 9655   4.987   1.842   1.838  1.0426 -0.7905  0.6021
   98SAPC     P 9656   5.010   2.073   1.990 -0.0668 -0.1223  0.2040
   98SAPC   O13 9657   5.141   2.011   1.979 -0.5782  0.0560  0.3764
   98SAPC   O14 9658   4.978   2.186   1.894 -0.4946  0.1335  0.2382
   98SAPC   O12 9659   4.894   1.963   1.986  0.0819 -0.1394 -0.0858
   98SAPC   O11 9660   5.002   2.125   2.135  0.2466 -0.3767  0.0729
   98SAPC    C1 9661   4.887   2.202   2.163  0.3313 -0.6090 -0.6528
   98SAPC    HA 9662   4.889   2.296   2.105 -1.0566  0.2304  0.5900
   98SAPC    HB 9663   4.787   2.156   2.154 -0.6070  1.1724  0.1905
   98SAPC    C2 9664   4.897   2.240   2.314  0.2366 -0.0833 -0.2989
   98SAPC    HS 9665   4.991   2.299   2.316  0.2183 -0.0578  0.4214
   98SAPC   O21 9666   4.896   2.125   2.402 -0.2818 -0.1224  0.0253
   98SAPC   C21 9667   4.961   2.134   2.515 -0.3051  0.4779  0.1068
   98SAPC   O22 9668   5.029   2.223   2.557  0.3355 -0.0944 -0.0943
   98SAPC   C22 9669   4.929   2.009   2.595  0.1408 -0.3761  0.5958
   98SAPC   H2R 9670   4.824   2.021   2.631 -0.9675 -1.6257 -1.9731
   98SAPC   H2S 9671   4.918   1.923   2.526 -2.3837  0.6703 -0.4480
   98SAPC    C3 9672   4.783   2.333   2.354  0.2875  0.1532  0.1800
   98SAPC    HX 9673   4.681   2.290   2.342 -0.2181  1.3730 -0.0710
   98SAPC    HY 9674   4.778   2.419   2.284 -0.7468  0.9233  1.1382
   98SAPC   O31 9675   4.801   2.378   2.496 -0.0858 -0.2996 -0.1056
   98SAPC   C31 9676   4.840   2.510   2.516 -0.2570 -0.2783 -0.2374
   98SAPC   O32 9677   4.880   2.583   2.429 -0.0889  0.5118  0.4135
   98SAPC   C32 9678   4.821   2.550   2.662 -0.0577 -0.4905  0.4517
   98SAPC   H2X 9679   4.771   2.465   2.712  0.8236 -1.6555 -0.6053
   98SAPC   H2Y 9680   4.739   2.626   2.669 -0.6339 -1.2172  2.0342
   98SAPC   C23 9681   5.022   1.980   2.716  0.4613 -0.1111 -0.2629
   98SAPC   H3R 9682   5.011   2.067   2.784 -4.9966 -0.0121 -0.8825
   98SAPC   H3S 9683   5.130   1.967   2.694  1.4527  3.8249  1.3499
   98SAPC   C24 9684   4.977   1.856   2.798  0.1176  0.2858 -0.1572
   98SAPC   H4R 9685   4.969   1.766   2.733  1.0875  0.2175 -0.1979
   98SAPC   H4S 9686   4.875   1.875   2.838 -0.5129 -2.2113 -0.3865
   98SAPC   C25 9687   5.080   1.828   2.911 -0.1976  0.1303 -0.1618
   98SAPC   H5R 9688   5.164   1.764   2.882  0.2055  0.8805 -0.6918
   98SAPC   C26 9689   5.078   1.880   3.036 -0.0955 -0.2182  0.4808
   98SAPC   H6R 9690   5.157   1.848   3.105  0.6357 -0.8756 -0.6361
   98SAPC   C27 9691   4.979   1.978   3.094 -0.3862  0.2845  0.2167
   98SAPC   H7R 9692   4.932   2.035   3.012  0.2645  1.6745  0.7603
   98SAPC   H7S 9693   5.031   2.060   3.149  1.7533 -1.2538  0.6163
   98SAPC   C28 9694   4.859   1.917   3.168 -0.2752 -0.7718  0.6399
   98SAPC   H8R 9695   4.791   1.862   3.102 -0.8423 -0.5909  1.0632
   98SAPC   C29 9696   4.827   1.920   3.299 -0.2181 -0.9430 -0.6984
   98SAPC   H9R 9697   4.748   1.855   3.338  0.3125 -1.0304  0.2582
   98SAPC  C210 9698   4.902   1.997   3.403 -0.0078  0.3533  1.2639
   98SAPC  H10R 9699   4.835   2.079   3.437 -1.1260 -0.9816  2.4129
   98SAPC  H10S 9700   4.981   2.051   3.346 -2.1820  1.0766 -1.2821
   98SAPC  C211 9701   4.949   1.917   3.522  0.2623  0.1035 -0.4030
   98SAPC  H11R 9702   5.030   1.844   3.510 -0.5219 -1.5560  3.1504
   98SAPC  C212 9703   4.907   1.922   3.651  0.1781 -0.0694  0.7376
   98SAPC  H12R 9704   4.969   1.857   3.715  0.2714 -1.8354 -1.0365
   98SAPC  C213 9705   4.805   2.022   3.704 -0.7659  0.5312  0.7055
   98SAPC  H13R 9706   4.724   1.960   3.747 -0.5044  0.6439  1.3875
   98SAPC  H13S 9707   4.757   2.079   3.622 -3.3125 -0.1260  1.6543
   98SAPC  C214 9708   4.864   2.109   3.813 -0.8385 -0.2002  0.1656
   98SAPC  H14R 9709   4.965   2.151   3.796  0.6707 -2.7842  1.9357
   98SAPC  C215 9710   4.809   2.138   3.931  0.0359 -0.0243 -0.5547
   98SAPC  H15R 9711   4.862   2.205   4.000 -1.3140 -0.0943  0.5732
   98SAPC  C216 9712   4.667   2.087   3.970  0.4057 -0.1117  0.0389
   98SAPC  H16R 9713   4.599   2.084   3.882  1.6254  0.4439 -0.9478
   98SAPC  H16S 9714   4.615   2.156   4.041  2.5833  2.0829 -0.3743
   98SAPC  C217 9715   4.683   1.944   4.032  0.5158 -0.4785  0.4484
   98SAPC  H17R 9716   4.730   1.956   4.132  0.2676 -0.6945  0.5928
   98SAPC  H17S 9717   4.743   1.875   3.969 -0.6894 -1.2090  0.0488
   98SAPC  C218 9718   4.548   1.878   4.046 -0.2283  0.2207 -0.9589
   98SAPC  H18R 9719   4.560   1.770   4.071  0.6945  0.6168  0.4750
   98SAPC  H18S 9720   4.493   1.877   3.950  1.9127 -0.4302 -2.2624
   98SAPC  C219 9721   4.458   1.925   4.154  0.5631  0.0023  0.4354
   98SAPC  H19R 9722   4.363   1.869   4.138  1.0441 -1.3671  2.0441
   98SAPC  H19S 9723   4.417   2.026   4.134 -1.0022 -0.8929 -1.2337
   98SAPC  C220 9724   4.487   1.895   4.298 -1.1066 -0.3415  0.1120
   98SAPC  H20R 9725   4.529   1.793   4.292 -0.0482  0.0573  0.5670
   98SAPC  H20S 9726   4.408   1.894   4.376  0.6918 -3.0811  2.0967
   98SAPC  H20T 9727   4.557   1.976   4.329 -2.3000  0.9728 -0.5035
   98SAPC   C33 9728   4.962   2.593   2.722 -0.3631 -0.7400 -0.1322
   98SAPC   H3X 9729   4.990   2.681   2.661 -0.7701  0.1638  0.9461
   98SAPC   H3Y 9730   5.036   2.511   2.708 -0.1442 -0.3344 -1.4306
   98SAPC   C34 9731   4.953   2.638   2.874 -0.4046  0.0512  1.0387
   98SAPC   H4X 9732   4.852   2.683   2.887 -0.4604 -0.1525  1.3209
   98SAPC   H4Y 9733   5.033   2.713   2.893 -1.9250  1.8712  0.5229
   98SAPC   C35 9734   4.962   2.525   2.969  0.4846  0.3700 -0.8312
   98SAPC   H5X 9735   4.899   2.436   2.947  0.9626 -0.2587  0.2854
   98SAPC   H5Y 9736   4.927   2.563   3.067  0.8855 -0.1842 -0.4688
   98SAPC   C36 9737   5.108   2.473   2.991 -0.1299  1.1741 -0.5325
   98SAPC   H6X 9738   5.174   2.555   3.025  0.0645  1.0798 -0.6819
   98SAPC   H6Y 9739   5.163   2.432   2.904 -1.8970 -2.8675  0.0106
   98SAPC   C37 9740   5.112   2.353   3.095 -0.3492  0.0710 -0.0731
   98SAPC   H7X 9741   5.212   2.304   3.094  0.3250  1.4321 -1.2021
   98SAPC   H7Y 9742   5.033   2.283   3.060 -1.6082  1.7387 -0.7043
   98SAPC   C38 9743   5.075   2.390   3.241  0.2033  0.4283 -0.1937
   98SAPC   H8X 9744   5.065   2.304   3.310  1.0470  0.2050 -0.3405
   98SAPC   H8Y 9745   4.983   2.451   3.229  0.1750 -0.0798 -3.3413
   98SAPC   C39 9746   5.181   2.479   3.307  0.3472 -0.1759 -0.0040
   98SAPC   H9X 9747   5.189   2.579   3.260  1.1913 -1.9326 -4.0461
   98SAPC   H9Y 9748   5.284   2.442   3.289  1.1969  1.8997  0.2687
   98SAPC  C310 9749   5.169   2.483   3.463 -0.1244  0.1113  0.6655
   98SAPC  H10X 9750   5.187   2.382   3.507  2.7669  0.9716  1.6495
   98SAPC  H10Y 9751   5.063   2.510   3.483 -0.6261  0.4310 -1.9449
   98SAPC  C311 9752   5.271   2.574   3.531  0.4410  0.0632  0.6207
   98SAPC  H11X 9753   5.261   2.678   3.492  0.7150  0.0598  0.5359
   98SAPC  H11Y 9754   5.369   2.528   3.504  0.4812 -0.3700  1.4673
   98SAPC  C312 9755   5.254   2.589   3.682 -0.2606 -0.0749  0.5178
   98SAPC  H12X 9756   5.145   2.612   3.690 -0.3042 -0.7696  2.3131
   98SAPC  H12Y 9757   5.315   2.673   3.720  1.8140 -0.1664 -2.2685
   98SAPC  C313 9758   5.272   2.458   3.760 -0.2617 -0.4252 -0.4727
   98SAPC  H13X 9759   5.367   2.412   3.726  0.5653 -0.9957  2.3576
   98SAPC  H13Y 9760   5.199   2.381   3.725 -0.4670 -1.6180  2.3384
   98SAPC  C314 9761   5.275   2.466   3.915  0.3051 -0.7116  0.0470
   98SAPC  H14X 9762   5.172   2.456   3.954  0.1840 -0.2666 -0.1589
   98SAPC  H14Y 9763   5.306   2.569   3.942  0.7786 -0.4327 -1.4803
   98SAPC  C315 9764   5.352   2.355   3.976 -0.5614  0.4181  0.5170
   98SAPC  H15X 9765   5.457   2.393   3.982 -0.0163 -0.8220 -0.6368
   98SAPC  H15Y 9766   5.348   2.255   3.927  0.1504  0.0565  1.1650
   98SAPC  C316 9767   5.322   2.349   4.126  0.2571  0.3805 -0.1860
   98SAPC  H16X 9768   5.216   2.326   4.148  0.1880  2.2451  1.7760
   98SAPC  H16Y 9769   5.346   2.448   4.172 -0.7037  0.4161  0.2513
   98SAPC  C317 9770   5.406   2.253   4.202 -0.1666  0.4280 -0.0717
   98SAPC  H17X 9771   5.514   2.271   4.185 -0.5115  0.5562 -2.6013
   98SAPC  H17Y 9772   5.381   2.150   4.170 -3.0424  0.6943  0.9664
   98SAPC  C318 9773   5.378   2.284   4.355  0.6602  1.3479  0.1092
   98SAPC  H18X 9774   5.445   2.231   4.427 -0.7365 -0.5595  0.1016
   98SAPC  H18Y 9775   5.275   2.247   4.375  1.2113 -0.8032 -0.7307
   98SAPC  H18Z 9776   5.384   2.394   4.369  0.4947  1.5767 -1.4698
   99SAPC     N 9777   1.721   5.285   2.239  0.1927 -0.0205  0.4448
   99SAPC   C12 9778   1.771   5.210   2.358 -0.7102 -0.4146 -0.1683
   99SAPC  H12A 9779   1.849   5.140   2.333 -0.2972 -0.6094  1.5698
   99SAPC  H12B 9780   1.690   5.150   2.396 -1.1720  1.2718  1.7258
   99SAPC   C13 9781   1.836   5.344   2.159 -0.5023  0.3672 -0.3265
   99SAPC  H13A 9782   1.891   5.259   2.120  2.0391  1.2911  1.0713
   99SAPC  H13B 9783   1.789   5.416   2.093 -1.3165  0.0500 -0.1042
   99SAPC  H13C 9784   1.898   5.394   2.231 -1.9570  0.9837  0.5284
   99SAPC   C14 9785   1.654   5.195   2.135 -0.2962 -0.2415  0.1025
   99SAPC  H14A 9786   1.572   5.139   2.179 -0.6863  0.0522 -0.2486
   99SAPC  H14B 9787   1.612   5.250   2.053 -0.9269 -1.2582 -0.2841
   99SAPC  H14C 9788   1.723   5.119   2.101  0.0392 -0.3356  0.9571
   99SAPC   C15 9789   1.633   5.394   2.283 -0.0094  0.6714  0.5576
   99SAPC  H15A 9790   1.543   5.355   2.328 -0.9089  0.7548 -1.0935
   99SAPC  H15B 9791   1.674   5.460   2.358  1.0471  1.2985 -0.5417
   99SAPC  H15C 9792   1.613   5.464   2.204 -0.2416  0.4512  0.4172
   99SAPC   C11 9793   1.835   5.302   2.467 -0.0038  0.5477  0.2869
   99SAPC  H11A 9794   1.861   5.225   2.543 -0.5214 -0.2718 -0.3458
   99SAPC  H11B 9795   1.761   5.376   2.505  0.4637 -0.0832  2.5728
   99SAPC     P 9796   2.088   5.276   2.397 -0.0294  0.5106 -0.0343
   99SAPC   O13 9797   2.046   5.139   2.361 -0.2336 -0.1655 -0.1304
   99SAPC   O14 9798   2.176   5.353   2.309  0.1942  0.6658 -0.0861
   99SAPC   O12 9799   1.955   5.362   2.423 -0.0942  0.1280 -0.5469
   99SAPC   O11 9800   2.170   5.279   2.539  0.7455  0.2918  0.2739
   99SAPC    C1 9801   2.127   5.376   2.636 -0.3252  0.1792 -0.3966
   99SAPC    HA 9802   2.106   5.482   2.609  0.1546  0.1279 -0.9781
   99SAPC    HB 9803   2.030   5.336   2.673  0.6698 -1.8780  0.1110
   99SAPC    C2 9804   2.231   5.373   2.751 -0.0951  0.2751  0.4132
   99SAPC    HS 9805   2.330   5.366   2.701  0.1657  2.3688  0.5451
   99SAPC   O21 9806   2.194   5.254   2.824 -0.0200  0.3607  0.8562
   99SAPC   C21 9807   2.260   5.141   2.791 -0.1924 -0.4415 -0.2150
   99SAPC   O22 9808   2.359   5.133   2.720 -0.2331 -0.0822 -0.2383
   99SAPC   C22 9809   2.193   5.027   2.870  0.4495 -0.2716  0.3935
   99SAPC   H2R 9810   2.092   5.057   2.904  0.0737 -0.1879 -0.7623
   99SAPC   H2S 9811   2.173   4.943   2.800 -0.4604  1.0403 -0.9672
   99SAPC    C3 9812   2.228   5.499   2.845 -0.0909 -0.0534  0.3638
   99SAPC    HX 9813   2.127   5.485   2.891  0.9101  1.5348  3.3030
   99SAPC    HY 9814   2.220   5.592   2.784 -1.1295  0.3302  1.0418
   99SAPC   O31 9815   2.331   5.490   2.955 -0.1972 -0.0468 -0.2040
   99SAPC   C31 9816   2.453   5.507   2.916 -0.4244 -0.4016  0.5000
   99SAPC   O32 9817   2.491   5.523   2.801  0.0495 -0.1204  0.0475
   99SAPC   C32 9818   2.553   5.460   3.019 -0.3955  0.8997  0.2738
   99SAPC   H2X 9819   2.620   5.390   2.965 -0.2044  1.4874 -0.2553
   99SAPC   H2Y 9820   2.502   5.397   3.096 -2.8929  2.0087 -0.3571
   99SAPC   C23 9821   2.288   4.977   2.977 -0.2993 -0.2858  0.0709
   99SAPC   H3R 9822   2.384   4.966   2.922  0.1302 -3.8804  1.2514
   99SAPC   H3S 9823   2.254   4.878   3.014 -0.8101  0.5884  2.0115
   99SAPC   C24 9824   2.302   5.073   3.092 -0.5499  0.4576  0.2220
   99SAPC   H4R 9825   2.227   5.039   3.166 -1.3806  1.5935 -0.0627
   99SAPC   H4S 9826   2.292   5.183   3.076  2.4262  0.5269 -1.9278
   99SAPC   C25 9827   2.446   5.060   3.142  0.0155 -0.0815  0.2394
   99SAPC   H5R 9828   2.512   5.065   3.053  0.5707 -1.2432  0.5652
   99SAPC   C26 9829   2.487   5.063   3.267  0.0717 -0.1644 -0.2648
   99SAPC   H6R 9830   2.592   5.053   3.298 -0.3640 -0.4939  1.2258
   99SAPC   C27 9831   2.398   5.064   3.390 -0.3724  0.1027 -0.1904
   99SAPC   H7R 9832   2.317   4.988   3.383 -1.0429  0.8570 -0.7747
   99SAPC   H7S 9833   2.346   5.161   3.402  1.7384  0.9844  2.7014
   99SAPC   C28 9834   2.471   5.015   3.518 -0.7292 -0.1357  0.7308
   99SAPC   H8R 9835   2.526   4.920   3.514  0.2510  0.4388  0.1945
   99SAPC   C29 9836   2.484   5.089   3.624  0.1284 -0.1940  0.1811
   99SAPC   H9R 9837   2.544   5.049   3.707 -0.4084 -1.2953  0.0540
   99SAPC  C210 9838   2.421   5.224   3.646 -0.7042  0.4361  0.5274
   99SAPC  H10R 9839   2.349   5.228   3.731 -3.3197  1.0487 -1.5928
   99SAPC  H10S 9840   2.358   5.250   3.558 -1.5178  0.3016  1.0583
   99SAPC  C211 9841   2.536   5.319   3.662 -0.0292  0.3393  1.0438
   99SAPC  H11R 9842   2.573   5.354   3.565  0.1138  0.1177  1.0200
   99SAPC  C212 9843   2.562   5.394   3.768  0.2393 -0.4790 -0.4140
   99SAPC  H12R 9844   2.653   5.455   3.760 -0.3116  0.9942  2.7803
   99SAPC  C213 9845   2.502   5.383   3.907 -0.4150 -0.0989  0.2372
   99SAPC  H13R 9846   2.454   5.283   3.913  1.8338 -1.2022  0.8739
   99SAPC  H13S 9847   2.430   5.466   3.923  1.7250  2.3626 -1.9547
   99SAPC  C214 9848   2.617   5.382   3.999  0.4912  0.1701 -0.0493
   99SAPC  H14R 9849   2.692   5.303   3.985  2.2116  1.8103 -0.6438
   99SAPC  C215 9850   2.629   5.455   4.111 -0.4148  0.4662  0.3363
   99SAPC  H15R 9851   2.722   5.449   4.170  1.0185  2.1899 -1.5897
   99SAPC  C216 9852   2.539   5.570   4.163  0.3528 -0.6735  0.1879
   99SAPC  H16R 9853   2.456   5.588   4.091 -0.0791 -1.4088  0.4879
   99SAPC  H16S 9854   2.592   5.667   4.152  1.7304 -1.1478  2.0371
   99SAPC  C217 9855   2.487   5.553   4.303  0.1006 -0.0421 -1.1611
   99SAPC  H17R 9856   2.434   5.455   4.304 -2.2071  1.0779  1.9680
   99SAPC  H17S 9857   2.410   5.629   4.329  0.6671 -0.0904  0.7591
   99SAPC  C218 9858   2.597   5.546   4.412 -0.0501  0.4134 -0.7255
   99SAPC  H18R 9859   2.662   5.458   4.391  1.3607  1.3470 -0.4350
   99SAPC  H18S 9860   2.560   5.512   4.511  0.1382  0.1694 -0.7389
   99SAPC  C219 9861   2.686   5.672   4.413  1.6363 -0.5510 -0.1134
   99SAPC  H19R 9862   2.625   5.764   4.427  0.6315 -1.2791  0.4478
   99SAPC  H19S 9863   2.745   5.685   4.320  2.2146  0.6629  0.4042
   99SAPC  C220 9864   2.780   5.671   4.534  0.4147 -0.2702  1.2393
   99SAPC  H20R 9865   2.826   5.771   4.548 -2.7498  1.5792 -0.4519
   99SAPC  H20S 9866   2.862   5.596   4.532 -0.7762 -1.6099  0.5844
   99SAPC  H20T 9867   2.726   5.653   4.629 -1.7842 -0.3271  0.0561
   99SAPC   C33 9868   2.647   5.574   3.070  0.2986  0.0905 -0.5448
   99SAPC   H3X 9869   2.678   5.647   2.992  0.6590 -0.0714 -0.5535
   99SAPC   H3Y 9870   2.738   5.532   3.117 -0.0946 -1.0370 -0.7798
   99SAPC   C34 9871   2.573   5.668   3.177  0.2283 -0.6971 -0.0133
   99SAPC   H4X 9872   2.492   5.728   3.131 -0.3287 -2.0352 -0.8232
   99SAPC   H4Y 9873   2.651   5.737   3.217 -0.0197 -0.6593  0.4168
   99SAPC   C35 9874   2.516   5.591   3.302 -0.5348 -0.0795 -0.6683
   99SAPC   H5X 9875   2.597   5.538   3.357 -1.3613 -0.2990  0.3726
   99SAPC   H5Y 9876   2.447   5.510   3.268  0.0307 -1.0348  0.3820
   99SAPC   C36 9877   2.453   5.693   3.390  0.3830  0.5550 -0.2533
   99SAPC   H6X 9878   2.352   5.725   3.359  0.0349  1.3722  1.6012
   99SAPC   H6Y 9879   2.517   5.784   3.395 -0.0661  0.8428  0.3265
   99SAPC   C37 9880   2.446   5.646   3.536  0.1591 -0.9439  0.1484
   99SAPC   H7X 9881   2.533   5.584   3.564  0.1265 -2.7525 -3.1764
   99SAPC   H7Y 9882   2.364   5.573   3.553 -0.5005 -0.1176  0.5894
   99SAPC   C38 9883   2.437   5.768   3.633 -0.0868  0.0757  0.2229
   99SAPC   H8X 9884   2.346   5.830   3.620 -1.3793 -1.9895 -1.3251
   99SAPC   H8Y 9885   2.527   5.833   3.621 -1.6887  2.2846 -0.4340
   99SAPC   C39 9886   2.437   5.719   3.783  0.1045  0.0157  0.9177
   99SAPC   H9X 9887   2.533   5.670   3.808  0.3625  0.3590  0.6051
   99SAPC   H9Y 9888   2.355   5.644   3.791 -0.4927  0.2115 -2.0718
   99SAPC  C310 9889   2.427   5.829   3.888 -0.9109  0.1912  0.1590
   99SAPC  H10X 9890   2.499   5.903   3.847  1.7725 -2.1115  0.4285
   99SAPC  H10Y 9891   2.468   5.798   3.986  2.0238  0.4100 -0.9165
   99SAPC  C311 9892   2.292   5.894   3.903 -0.1286  0.6754  0.0304
   99SAPC  H11X 9893   2.212   5.817   3.902 -0.0844  0.5997  1.0394
   99SAPC  H11Y 9894   2.284   5.967   3.819  2.8328  0.5055 -0.4864
   99SAPC  C312 9895   2.288   5.980   4.031 -0.5317 -0.4150  0.3089
   99SAPC  H12X 9896   2.355   6.068   4.018  1.3214 -1.7932  0.2219
   99SAPC  H12Y 9897   2.341   5.925   4.111  3.3741  0.5136 -1.3818
   99SAPC  C313 9898   2.159   6.053   4.061 -0.2212  0.3118 -0.0722
   99SAPC  H13X 9899   2.077   5.979   4.070 -0.3489  0.5371  0.6785
   99SAPC  H13Y 9900   2.132   6.108   3.968 -0.3570  1.6215  0.7167
   99SAPC  C314 9901   2.153   6.142   4.182 -0.8137 -0.4635  0.5454
   99SAPC  H14X 9902   2.187   6.245   4.157 -0.4648 -0.9333 -1.0300
   99SAPC  H14Y 9903   2.229   6.100   4.252  2.6105  0.4324 -2.3144
   99SAPC  C315 9904   2.016   6.146   4.251  0.0849  0.6897 -0.0329
   99SAPC  H15X 9905   1.987   6.040   4.266  0.4940  0.8549  2.4296
   99SAPC  H15Y 9906   1.943   6.200   4.189  0.1090 -0.9395 -1.5711
   99SAPC  C316 9907   2.034   6.218   4.389 -0.0602 -0.5410 -0.5511
   99SAPC  H16X 9908   2.036   6.327   4.367  1.7207 -0.2797  0.7165
   99SAPC  H16Y 9909   2.125   6.187   4.445  1.4241  2.7544 -0.9103
   99SAPC  C317 9910   1.927   6.179   4.492  0.1884 -0.0620 -0.1961
   99SAPC  H17X 9911   1.930   6.068   4.504 -2.1588 -0.0549  1.1731
   99SAPC  H17Y 9912   1.828   6.212   4.453  0.0633  0.5553  0.6201
   99SAPC  C318 9913   1.950   6.253   4.630 -0.0264  0.3548 -0.3989
   99SAPC  H18X 9914   1.989   6.357   4.632  1.8228 -0.2868 -1.2159
   99SAPC  H18Y 9915   2.026   6.200   4.692  2.3029  1.5222 -2.0917
   99SAPC  H18Z 9916   1.847   6.247   4.670  0.6748 -4.2140  1.2989
  100SAPC     N 9917   0.655   6.002   1.884 -0.0966 -0.3067  0.2348
  100SAPC   C12 9918   0.685   5.972   2.026  0.8987 -0.1334 -0.0798
  100SAPC  H12A 9919   0.791   5.983   2.044  1.2320 -2.0189 -0.7298
  100SAPC  H12B 9920   0.671   5.867   2.044 -1.0112  0.5068  2.8252
  100SAPC   C13 9921   0.520   5.944   1.844 -0.3136  0.4520  0.3151
  100SAPC  H13A 9922   0.524   5.837   1.856 -2.0953  0.5430  2.3170
  100SAPC  H13B 9923   0.448   5.987   1.911 -0.4296  1.4532 -0.4241
  100SAPC  H13C 9924   0.502   5.971   1.741  0.0268 -1.0027 -0.1494
  100SAPC   C14 9925   0.650   6.151   1.872  0.4341  0.4325 -0.7652
  100SAPC  H14A 9926   0.707   6.191   1.954 -1.4015  0.3463  0.6142
  100SAPC  H14B 9927   0.679   6.183   1.773  3.1858  0.1064 -0.1448
  100SAPC  H14C 9928   0.547   6.181   1.882  0.6203  0.5155  1.0763
  100SAPC   C15 9929   0.769   5.949   1.801 -0.8144 -0.6792  0.7006
  100SAPC  H15A 9930   0.768   5.970   1.695 -0.7395 -0.4575  0.7428
  100SAPC  H15B 9931   0.859   5.989   1.845 -0.6468 -0.4244  0.1347
  100SAPC  H15C 9932   0.768   5.842   1.818 -0.1078 -0.8834 -0.4009
  100SAPC   C11 9933   0.598   6.030   2.140  0.0856 -0.1015 -0.2499
  100SAPC  H11A 9934   0.584   6.140   2.130 -4.3289 -0.4807  0.0269
  100SAPC  H11B 9935   0.659   6.016   2.231  0.9193  0.0012 -0.7745
  100SAPC     P 9936   0.444   5.825   2.191  0.2291  0.0914  0.2166
  100SAPC   O13 9937   0.302   5.793   2.156 -0.1000  0.0045 -0.5418
  100SAPC   O14 9938   0.550   5.742   2.129  0.4805 -0.2345 -0.3356
  100SAPC   O12 9939   0.465   5.976   2.147 -0.2288 -0.5005 -0.2564
  100SAPC   O11 9940   0.460   5.825   2.351 -0.6591  0.4120  0.1118
  100SAPC    C1 9941   0.420   5.943   2.419  0.3358  0.6157 -0.6148
  100SAPC    HA 9942   0.498   6.022   2.420  0.6851  0.2880  0.8323
  100SAPC    HB 9943   0.321   5.975   2.382  0.4189  2.1886  0.4506
  100SAPC    C2 9944   0.390   5.910   2.576  0.7034 -0.3489  0.3425
  100SAPC    HS 9945   0.327   5.991   2.620  0.1048 -0.1641 -0.8113
  100SAPC   O21 9946   0.516   5.901   2.648  0.4167 -0.4433  0.2089
  100SAPC   C21 9947   0.548   6.006   2.719 -0.9220 -0.6944  0.7427
  100SAPC   O22 9948   0.499   6.116   2.717  0.7715  0.1014  0.7966
  100SAPC   C22 9949   0.670   5.966   2.817 -0.2244  0.1912 -0.1336
  100SAPC   H2R 9950   0.723   5.882   2.768  0.3395  1.1816 -1.2750
  100SAPC   H2S 9951   0.742   6.050   2.810 -1.2323  1.0173 -0.8915
  100SAPC    C3 9952   0.305   5.780   2.578 -0.6793  0.5661  1.6463
  100SAPC    HX 9953   0.358   5.695   2.529 -1.3473 -0.3879  2.5281
  100SAPC    HY 9954   0.220   5.786   2.506  0.9259 -0.2501 -0.4277
  100SAPC   O31 9955   0.247   5.751   2.709 -0.1427 -0.0563  0.1262
  100SAPC   C31 9956   0.323   5.689   2.793  0.0948 -0.1605 -0.2036
  100SAPC   O32 9957   0.427   5.632   2.765 -0.2514  0.1485 -0.0509
  100SAPC   C32 9958   0.267   5.702   2.933 -0.2248  0.1367  0.0736
  100SAPC   H2X 9959   0.160   5.673   2.928 -0.4731  0.6811  1.6748
  100SAPC   H2Y 9960   0.261   5.811   2.952  0.3436 -0.0173  1.2024
  100SAPC   C23 9961   0.634   5.951   2.964 -0.4997 -0.2128  0.0946
  100SAPC   H3R 9962   0.563   5.869   2.987 -0.2086  0.0272  2.1136
  100SAPC   H3S 9963   0.585   6.044   3.001  0.0983 -0.8552  2.7746
  100SAPC   C24 9964   0.752   5.918   3.054 -0.1300 -0.0158 -0.7195
  100SAPC   H4R 9965   0.713   5.884   3.153  2.6360  1.1933  0.9270
  100SAPC   H4S 9966   0.809   6.011   3.077 -0.8626  0.5001 -0.9551
  100SAPC   C25 9967   0.829   5.808   2.991 -0.2060  0.4972  0.4038
  100SAPC   H5R 9968   0.775   5.739   2.926  1.2836  2.8782 -3.7711
  100SAPC   C26 9969   0.962   5.798   2.981 -0.5076  0.2807 -0.5455
  100SAPC   H6R 9970   1.010   5.713   2.930  2.2856  1.4308 -0.0363
  100SAPC   C27 9971   1.065   5.896   3.041  0.1302  0.5764 -1.2745
  100SAPC   H7R 9972   1.161   5.845   3.065 -0.2794 -0.4571 -1.7812
  100SAPC   H7S 9973   1.022   5.937   3.134 -1.3788 -3.0125 -0.2425
  100SAPC   C28 9974   1.093   6.015   2.957 -0.6456 -0.0207  0.6027
  100SAPC   H8R 9975   1.029   6.018   2.868 -2.0776 -2.3921  1.4628
  100SAPC   C29 9976   1.201   6.097   2.964  1.0771 -0.0998 -0.9041
  100SAPC   H9R 9977   1.220   6.166   2.881  1.2201  1.5156  0.4175
  100SAPC  C210 9978   1.306   6.094   3.071 -0.5402 -0.2209  0.2213
  100SAPC  H10R 9979   1.282   6.014   3.145  1.9125  0.6734  2.1121
  100SAPC  H10S 9980   1.303   6.190   3.127  0.0773 -0.0917  0.0359
  100SAPC  C211 9981   1.438   6.056   3.013 -1.2833  0.8509 -0.1633
  100SAPC  H11R 9982   1.438   5.954   2.971 -1.6201  0.2193  1.2829
  100SAPC  C212 9983   1.554   6.125   3.022  0.4169  0.7286  0.1835
  100SAPC  H12R 9984   1.648   6.088   2.978 -0.5816 -1.0722 -0.5778
  100SAPC  C213 9985   1.570   6.252   3.089 -0.0763 -0.4812  0.4150
  100SAPC  H13R 9986   1.483   6.317   3.063  0.5709 -0.5735 -2.2036
  100SAPC  H13S 9987   1.666   6.300   3.060  0.6457 -1.9067  0.3591
  100SAPC  C214 9988   1.577   6.243   3.236 -0.0926  0.6195 -0.3063
  100SAPC  H14R 9989   1.486   6.233   3.297 -0.4929 -0.9813 -1.1012
  100SAPC  C215 9990   1.696   6.228   3.302 -0.1234 -0.2584 -0.5524
  100SAPC  H15R 9991   1.694   6.204   3.409 -0.4186 -0.8395 -0.6855
  100SAPC  C216 9992   1.831   6.225   3.245 -0.3174 -0.0075  0.0415
  100SAPC  H16R 9993   1.876   6.326   3.258  0.2766 -0.2931  0.2563
  100SAPC  H16S 9994   1.829   6.205   3.135  1.5039 -0.2524  0.0062
  100SAPC  C217 9995   1.926   6.122   3.304 -0.2376  0.0496 -0.2001
  100SAPC  H17R 9996   2.026   6.138   3.257  0.0003 -0.4495  0.1290
  100SAPC  H17S 9997   1.881   6.025   3.272 -2.0247  0.4710  0.9252
  100SAPC  C218 9998   1.942   6.103   3.459  0.1472 -0.4795  0.3449
  100SAPC  H18R 9999   1.835   6.100   3.490  0.3481 -1.3036  0.9876
  100SAPC  H18S10000   1.992   6.188   3.509 -1.7644  1.1600 -0.3830
  100SAPC  C21910001   1.995   5.963   3.499 -0.3524  0.5191 -0.1015
  100SAPC  H19R10002   2.105   5.952   3.495 -0.3452  0.9636 -2.2407
  100SAPC  H19S10003   1.952   5.888   3.429  1.3186 -2.2340  1.5825
  100SAPC  C22010004   1.953   5.929   3.638  0.2466  0.8654 -0.2515
  100SAPC  H20R10005   1.844   5.952   3.647  0.3298  1.2665 -0.2864
  100SAPC  H20S10006   2.007   5.978   3.721  0.8807  0.1990 -0.2625
  100SAPC  H20T10007   1.957   5.818   3.647 -0.1524  0.8159 -0.6245
  100SAPC   C3310008   0.350   5.629   3.042 -0.1521 -0.3112  0.7083
  100SAPC   H3X10009   0.456   5.663   3.038  0.0792 -1.1007 -1.8007
  100SAPC   H3Y10010   0.348   5.519   3.024  0.0966  0.0757 -2.1171
  100SAPC   C3410011   0.295   5.649   3.186  0.5317 -0.0129  0.2116
  100SAPC   H4X10012   0.264   5.552   3.230  1.2423 -0.0226  0.7046
  100SAPC   H4Y10013   0.206   5.716   3.181  2.3416  2.5638  0.4391
  100SAPC   C3510014   0.389   5.712   3.290 -0.3272  0.4578 -0.5187
  100SAPC   H5X10015   0.436   5.808   3.261  0.1770  1.8009  3.9995
  100SAPC   H5Y10016   0.471   5.639   3.310 -1.5370 -0.3861  1.6847
  100SAPC   C3610017   0.314   5.730   3.421  0.3246 -0.0308  0.0183
  100SAPC   H6X10018   0.259   5.638   3.450  1.2170 -0.1699  1.3811
  100SAPC   H6Y10019   0.230   5.801   3.404  1.0586  0.4576 -1.7800
  100SAPC   C3710020   0.406   5.779   3.534 -0.0560  0.5223  1.0965
  100SAPC   H7X10021   0.345   5.834   3.608 -2.7561  1.9483 -1.9079
  100SAPC   H7Y10022   0.476   5.856   3.494 -2.1577  1.2953 -1.3619
  100SAPC   C3810023   0.496   5.675   3.584  0.1477  1.1085  0.5965
  100SAPC   H8X10024   0.576   5.646   3.513 -0.9451  2.1764 -1.1629
  100SAPC   H8Y10025   0.438   5.582   3.599 -1.0817  1.5883 -0.8429
  100SAPC   C3910026   0.545   5.703   3.727  0.5151 -0.5612  1.1341
  100SAPC   H9X10027   0.585   5.611   3.774  1.3434 -0.1810  1.2057
  100SAPC   H9Y10028   0.459   5.727   3.792 -1.4407 -1.4182 -1.0205
  100SAPC  C31010029   0.637   5.825   3.733  0.5372 -0.6332 -0.9109
  100SAPC  H10X10030   0.620   5.888   3.643  0.1649  0.3963 -0.1399
  100SAPC  H10Y10031   0.742   5.793   3.714  0.8642 -0.6322  0.8004
  100SAPC  C31110032   0.612   5.909   3.864 -0.1669  0.5076 -0.2869
  100SAPC  H11X10033   0.502   5.928   3.865 -0.1738  0.5631 -1.1443
  100SAPC  H11Y10034   0.670   5.999   3.839  0.0277  1.1426  2.2447
  100SAPC  C31210035   0.664   5.835   3.986 -0.4640 -1.1401  0.2295
  100SAPC  H12X10036   0.772   5.809   3.979  0.0539  0.8043  0.4101
  100SAPC  H12Y10037   0.606   5.740   3.987  0.1022 -1.5049 -0.5896
  100SAPC  C31310038   0.637   5.918   4.118 -0.1876 -0.4211  0.4791
  100SAPC  H13X10039   0.529   5.933   4.140 -0.2247 -1.5567  1.1315
  100SAPC  H13Y10040   0.679   6.021   4.111 -0.9270 -0.0669  1.0401
  100SAPC  C31410041   0.689   5.846   4.239 -0.6225  0.3586 -0.6705
  100SAPC  H14X10042   0.790   5.804   4.220 -0.4750 -0.7637  2.1481
  100SAPC  H14Y10043   0.625   5.761   4.271 -2.5147  1.7569 -0.5634
  100SAPC  C31510044   0.707   5.927   4.373 -0.1660  0.1150 -0.2932
  100SAPC  H15X10045   0.764   6.021   4.359  1.3942 -0.5180  1.3368
  100SAPC  H15Y10046   0.763   5.862   4.444 -1.6974 -0.6033  0.2921
  100SAPC  C31610047   0.574   5.945   4.438  0.4930  0.7748  0.4391
  100SAPC  H16X10048   0.527   5.849   4.468 -2.6164  1.0874 -2.8951
  100SAPC  H16Y10049   0.505   5.999   4.370 -0.4252  0.1282  0.8493
  100SAPC  C31710050   0.572   6.028   4.568  0.4526 -1.0029  0.2324
  100SAPC  H17X10051   0.471   6.066   4.595  0.0907 -2.4040  0.9378
  100SAPC  H17Y10052   0.631   6.118   4.539 -1.4855  0.1320 -0.3879
  100SAPC  C31810053   0.635   5.961   4.689  0.1017 -0.2848 -0.2144
  100SAPC  H18X10054   0.651   6.032   4.773 -2.5319  0.4774 -0.2774
  100SAPC  H18Y10055   0.735   5.925   4.656 -0.1072 -0.5426 -0.5706
  100SAPC  H18Z10056   0.578   5.876   4.730 -0.1094 -0.9631 -1.8518
  101OSM      N10057   4.486   3.298   7.212 -0.9831 -0.9347 -0.0492
  101OSM    C1510058   4.386   3.290   7.317  0.2055  0.4725  0.1359
  101OSM   H15A10059   4.375   3.189   7.354 -4.0526  0.6206 -0.2743
  101OSM   H15B10060   4.288   3.316   7.281  1.4786  1.7289 -2.7912
  101OSM   H15C10061   4.420   3.349   7.400  0.3217  0.7742 -0.1238
  101OSM    C1410062   4.528   3.438   7.182  0.2081  0.6301 -0.2830
  101OSM   H14A10063   4.553   3.462   7.079  2.1505  1.7125  0.3929
  101OSM   H14B10064   4.607   3.470   7.248 -1.8254  1.1264  2.0612
  101OSM   H14C10065   4.441   3.501   7.197 -0.6633 -0.0452 -2.1160
  101OSM    C1310066   4.611   3.234   7.266  0.4457 -0.2746 -0.4710
  101OSM   H13A10067   4.601   3.135   7.307  0.5507 -0.7278 -1.5117
  101OSM   H13B10068   4.647   3.295   7.348  0.8932 -0.7483 -0.3083
  101OSM   H13C10069   4.694   3.238   7.197  0.0704 -1.3912 -1.0220
  101OSM    C1210070   4.448   3.224   7.092  0.1404 -0.7414  1.0721
  101OSM   H12A10071   4.421   3.125   7.127  3.5969 -1.5875  1.7363
  101OSM   H12B10072   4.541   3.203   7.041  0.1009 -0.6952  0.9833
  101OSM    C1110073   4.345   3.287   6.994 -0.1135  0.4444  0.3139
  101OSM   H11A10074   4.326   3.207   6.919 -1.6148  1.5619 -0.5515
  101OSM   H11B10075   4.395   3.370   6.939  0.7554 -0.1612  0.1789
  101OSM      P10076   4.080   3.266   7.042 -0.1824  0.2875 -0.0648
  101OSM    O1310077   4.086   3.134   7.113  0.1332 -0.6338 -0.0003
  101OSM    O1410078   3.967   3.362   7.061 -0.1137 -0.2935  0.4985
  101OSM    O1110079   4.075   3.219   6.891  0.3606  0.1139  0.5433
  101OSM    O1210080   4.219   3.340   7.059 -0.2353  0.8119  0.2026
  101OSM    C1S10081   4.102   3.306   6.781 -0.7933 -0.3815  0.5515
  101OSM    H1S10082   4.209   3.324   6.761 -1.3921 -0.1481 -3.2748
  101OSM    H1T10083   4.060   3.409   6.788 -0.8198 -0.4455  1.4072
  101OSM     NF10084   4.062   3.343   6.530  0.5957  0.1989 -0.7236
  101OSM    HNF10085   3.972   3.361   6.490 -0.5795 -1.1771  1.1362
  101OSM    C2S10086   4.053   3.245   6.646  0.8133  0.4658 -0.0323
  101OSM    H2S10087   4.118   3.159   6.622  0.0429 -0.3208  0.6398
  101OSM    C3S10088   3.907   3.177   6.655 -0.1303  0.7153 -0.3530
  101OSM    H3S10089   3.843   3.262   6.686  1.6414  1.8452  0.3319
  101OSM     O310090   3.898   3.080   6.765  0.1640  0.1933 -0.1439
  101OSM    HO310091   3.974   3.110   6.815  0.8975  1.4638 -1.8942
  101OSM    C4S10092   3.870   3.111   6.527 -0.0360 -0.7679 -0.3974
  101OSM    H4S10093   3.798   3.172   6.471  1.2854  3.1808  1.8148
  101OSM    C5S10094   3.904   2.989   6.487 -0.2400  0.1166 -0.8020
  101OSM    H5S10095   3.962   2.930   6.559  1.5992  2.7344  0.0141
  101OSM    C6S10096   3.862   2.917   6.358 -0.1877 -0.3683 -0.6982
  101OSM    H6S10097   3.774   2.853   6.379  0.5580 -0.5021  2.5010
  101OSM    H6T10098   3.947   2.847   6.344  1.1143  0.5410  1.9349
  101OSM    C7S10099   3.845   3.000   6.236  1.5081  0.4731 -0.0348
  101OSM    H7S10100   3.929   3.069   6.213  1.4549 -0.0964 -2.1792
  101OSM    H7T10101   3.755   3.064   6.248  1.1268 -0.3452  1.8276
  101OSM    C8S10102   3.821   2.916   6.108  0.2124 -0.0958 -0.2343
  101OSM    H8S10103   3.765   2.822   6.125 -1.1065  0.8520  0.8833
  101OSM    H8T10104   3.923   2.886   6.073  0.2903 -1.6091  1.1661
  101OSM    C9S10105   3.760   2.997   5.997 -0.6763  0.6403 -0.3421
  101OSM    H9S10106   3.668   3.036   6.043 -1.2214 -1.3934  0.4100
  101OSM    H9T10107   3.729   2.939   5.907 -1.1401  2.1950 -1.2190
  101OSM   C10S10108   3.850   3.117   5.937  0.3331  0.2972  0.6566
  101OSM   H10S10109   3.887   3.181   6.019  0.9060 -0.7745  1.2517
  101OSM   H10T10110   3.784   3.179   5.872 -1.2244 -0.3261  1.5900
  101OSM   C11S10111   3.964   3.073   5.845  0.2092 -0.2392 -1.0098
  101OSM   H11S10112   4.034   3.007   5.900 -1.6763 -1.5306 -0.0644
  101OSM   H11T10113   4.007   3.167   5.805 -0.4332 -0.1949 -1.6349
  101OSM   C12S10114   3.912   2.998   5.721  0.6512 -0.1100 -0.5002
  101OSM   H12S10115   3.842   3.065   5.667  1.0620  0.8758  0.1606
  101OSM   H12T10116   3.850   2.909   5.747 -0.5179  0.7337 -0.2873
  101OSM   C13S10117   4.023   2.958   5.625 -0.9161 -0.6491  0.4736
  101OSM   H13S10118   4.080   3.050   5.600  0.2888 -1.4326  0.2180
  101OSM   H13T10119   3.977   2.911   5.535  1.2886 -1.8465 -0.1060
  101OSM   C14S10120   4.123   2.872   5.684  0.0659 -0.0551 -0.2332
  101OSM   H14S10121   4.073   2.779   5.718 -0.2800  0.4191  0.5707
  101OSM   H14T10122   4.189   2.918   5.760  2.6818  1.2851 -3.0525
  101OSM   C15S10123   4.219   2.823   5.575  0.1239 -0.9976 -0.7363
  101OSM   H15S10124   4.248   2.911   5.514  2.0356 -1.3918 -0.4589
  101OSM   H15T10125   4.155   2.755   5.515 -0.1713  0.3350 -1.9726
  101OSM   C16S10126   4.349   2.768   5.627  0.1296  0.4187 -0.3878
  101OSM   H16S10127   4.331   2.680   5.693 -1.9486  0.9773 -0.1421
  101OSM   H16T10128   4.383   2.853   5.691 -0.3635 -0.8624  1.6699
  101OSM   C17S10129   4.467   2.753   5.524 -1.0257  0.5691 -0.4316
  101OSM   H17S10130   4.484   2.851   5.475  0.5424  0.0581 -0.9658
  101OSM   H17T10131   4.441   2.690   5.436 -1.4625  0.7885 -0.4596
  101OSM   C18S10132   4.596   2.706   5.588 -0.3417  0.4949 -0.6090
  101OSM   H18S10133   4.679   2.728   5.517  0.1334  3.5500  0.7218
  101OSM   H18T10134   4.595   2.598   5.615  0.2478  0.4104 -0.9099
  101OSM   H18U10135   4.629   2.772   5.672  3.1119 -2.9710  1.1136
  101OSM    C1F10136   4.168   3.409   6.496 -0.4114 -0.1881 -0.2435
  101OSM     OF10137   4.279   3.359   6.521  0.3122 -0.0061 -0.4405
  101OSM    C2F10138   4.165   3.550   6.442 -0.5267  0.7834  0.5810
  101OSM    H2F10139   4.169   3.617   6.530  0.2640  0.9251  0.4475
  101OSM    H2G10140   4.078   3.571   6.376  0.1762  1.1356 -0.2566
  101OSM    C3F10141   4.275   3.571   6.337  0.3467 -0.8266  0.2919
  101OSM    H3F10142   4.244   3.506   6.252 -0.6774 -1.5623  1.2093
  101OSM    H3G10143   4.377   3.538   6.368  0.1371 -0.9920  0.8167
  101OSM    C4F10144   4.282   3.717   6.282 -0.0786  0.4380  0.4489
  101OSM    H4F10145   4.347   3.727   6.192  0.4721  0.1541  0.8139
  101OSM    H4G10146   4.319   3.786   6.361  1.9958  1.2379 -1.1175
  101OSM    C5F10147   4.154   3.755   6.213 -0.3849 -0.7025  0.2759
  101OSM    H5F10148   4.085   3.751   6.299 -1.1350  1.3930 -0.1802
  101OSM    H5G10149   4.135   3.684   6.129  1.1186 -1.6532  0.7068
  101OSM    C6F10150   4.167   3.905   6.173  0.3347  0.2436  0.4696
  101OSM    H6F10151   4.235   3.917   6.086  1.6103 -2.4926  1.0157
  101OSM    H6G10152   4.223   3.962   6.250  0.6133  0.0230  0.4296
  101OSM    C7F10153   4.037   3.971   6.129 -0.8008  0.7121  0.4679
  101OSM    H7F10154   3.996   3.927   6.036 -2.8348  2.6953  0.3268
  101OSM    H7G10155   4.067   4.075   6.103 -0.3349  0.5532  0.3736
  101OSM    C8F10156   3.918   3.983   6.229  0.2770  0.3088  0.5698
  101OSM    H8F10157   3.958   4.039   6.316  2.1688  0.5291 -0.4115
  101OSM    H8G10158   3.896   3.878   6.259  2.9786  0.3850  3.2475
  101OSM    C9F10159   3.800   4.065   6.185  0.2240 -0.6948  0.6262
  101OSM    H9F10160   3.799   4.158   6.245  0.6197 -2.0714  2.8722
  101OSM   C10F10161   3.700   4.036   6.097 -0.7770  0.3419  0.1506
  101OSM   H10F10162   3.616   4.104   6.077 -1.2100 -0.8704 -2.5498
  101OSM   C11F10163   3.705   3.917   6.003 -0.9331 -0.1289 -0.2727
  101OSM   H11F10164   3.620   3.851   6.031  0.3409 -0.7879  2.3116
  101OSM   H11G10165   3.799   3.859   6.011 -0.3102  0.4631 -2.4896
  101OSM   C12F10166   3.702   3.953   5.851  0.4327 -0.2078  0.3412
  101OSM   H12F10167   3.629   4.031   5.822  0.3786  0.0218  1.0629
  101OSM   H12G10168   3.689   3.857   5.797  0.5338 -0.5989  1.0043
  101OSM   C13F10169   3.838   4.005   5.802 -0.3152 -0.0175  0.1134
  101OSM   H13F10170   3.920   3.940   5.841  0.4971  1.2691  0.6301
  101OSM   H13G10171   3.865   4.102   5.849  2.3571 -0.0345 -1.1826
  101OSM   C14F10172   3.847   4.021   5.650  0.6527  0.8439  0.6734
  101OSM   H14F10173   3.768   4.088   5.609 -1.7995 -1.7860  0.8218
  101OSM   H14G10174   3.820   3.918   5.619 -1.4729  0.7180  2.6157
  101OSM   C15F10175   3.985   4.058   5.599  0.3211  0.5103 -0.2106
  101OSM   H15F10176   4.059   4.009   5.665  0.9642 -1.9277 -2.5864
  101OSM   H15G10177   3.998   4.165   5.626  0.0437  0.2023  1.2592
  101OSM   C16F10178   4.023   4.039   5.454  0.0138  1.0591  0.5456
  101OSM   H16F10179   4.019   3.933   5.422  1.9426  0.9565  0.5177
  101OSM   H16G10180   4.125   4.081   5.445 -0.2531  2.0603  1.8947
  101OSM   C17F10181   3.928   4.119   5.369 -0.6570  0.8506  0.0438
  101OSM   H17F10182   3.944   4.229   5.376  2.6924  0.5411 -1.0251
  101OSM   H17G10183   3.823   4.095   5.397 -1.3751  0.4888 -2.7316
  101OSM   C18F10184   3.949   4.094   5.221 -0.1779 -0.8061 -0.4042
  101OSM   H18F10185   3.919   3.991   5.193  0.6608 -0.6003 -2.2188
  101OSM   H18G10186   4.058   4.109   5.207  0.2784 -2.0849  1.3818
  101OSM   H18H10187   3.887   4.167   5.165 -0.0728 -0.7886 -0.4973
  102OSM      N10188   4.597   2.515   6.824  0.6850  0.3769  0.0417
  102OSM    C1510189   4.674   2.497   6.957 -0.2352 -0.0800 -0.0681
  102OSM   H15A10190   4.780   2.484   6.942  0.5124  1.3117  3.1717
  102OSM   H15B10191   4.637   2.416   7.018  0.9319  0.6173  1.6292
  102OSM   H15C10192   4.667   2.587   7.016 -1.5294 -0.2893  0.1276
  102OSM    C1410193   4.589   2.380   6.751 -0.6989  0.0755  0.2877
  102OSM   H14A10194   4.683   2.353   6.706 -0.4180  0.6531  0.5163
  102OSM   H14B10195   4.512   2.387   6.675 -0.6323 -0.0663  0.2055
  102OSM   H14C10196   4.556   2.299   6.815  2.8485 -0.6890  1.3696
  102OSM    C1310197   4.447   2.540   6.857  0.2040 -0.3594 -0.5922
  102OSM   H13A10198   4.428   2.496   6.953 -0.7876 -0.4163 -0.7987
  102OSM   H13B10199   4.379   2.510   6.779  0.3244  0.5841 -1.0832
  102OSM   H13C10200   4.418   2.644   6.867  1.2735 -0.2278  1.7839
  102OSM    C1210201   4.660   2.620   6.744  0.0366 -0.1164  0.1432
  102OSM   H12A10202   4.581   2.658   6.680 -2.4157 -3.0556  1.1588
  102OSM   H12B10203   4.734   2.573   6.683  2.1024  1.3689  1.3508
  102OSM    C1110204   4.735   2.735   6.814 -0.3118 -0.6963  0.4206
  102OSM   H11A10205   4.773   2.807   6.738 -0.9141 -0.5580  0.2447
  102OSM   H11B10206   4.826   2.687   6.856  0.3934 -0.4234 -0.7532
  102OSM      P10207   4.565   2.930   6.872  0.3886  0.2055  0.0564
  102OSM    O1310208   4.437   2.886   6.924  0.0535 -0.4835  0.3564
  102OSM    O1410209   4.632   3.051   6.930 -0.2655 -0.2083  0.2578
  102OSM    O1110210   4.555   2.933   6.717 -0.0997  0.0038  0.0028
  102OSM    O1210211   4.655   2.810   6.901 -0.5424 -0.0799  0.1641
  102OSM    C1S10212   4.528   3.064   6.663  0.1736  0.6539 -0.2158
  102OSM    H1S10213   4.622   3.121   6.682 -0.7935  1.3613  3.1766
  102OSM    H1T10214   4.443   3.111   6.716 -1.8323 -2.1536 -0.7304
  102OSM     NF10215   4.509   3.190   6.451  0.0027 -0.3997  0.8509
  102OSM    HNF10216   4.423   3.238   6.437 -0.9373 -2.2546 -0.0550
  102OSM    C2S10217   4.494   3.057   6.512 -0.0139  0.6285  0.0309
  102OSM    H2S10218   4.568   2.995   6.457  1.0912  1.3764  0.6386
  102OSM    C3S10219   4.357   2.969   6.496 -0.5658 -0.5414  0.1419
  102OSM    H3S10220   4.279   3.022   6.556 -1.4168 -1.3470 -0.2339
  102OSM     O310221   4.374   2.833   6.529 -0.0957 -0.3838 -0.1832
  102OSM    HO310222   4.448   2.841   6.589  0.1305  1.4202 -0.6533
  102OSM    C4S10223   4.327   2.973   6.352  0.0531  0.0070  0.8241
  102OSM    H4S10224   4.385   2.899   6.294 -0.2531  1.5646 -1.5967
  102OSM    C5S10225   4.246   3.062   6.293  0.7862  0.3928  0.5177
  102OSM    H5S10226   4.187   3.138   6.347  0.2730 -1.3283  2.4932
  102OSM    C6S10227   4.221   3.052   6.142 -0.5297 -0.5820  0.1904
  102OSM    H6S10228   4.117   3.089   6.125 -0.7891 -0.9515  0.8911
  102OSM    H6T10229   4.232   2.945   6.115  0.8081 -0.4926  0.3133
  102OSM    C7S10230   4.323   3.138   6.064 -0.5029 -0.0147 -0.2645
  102OSM    H7S10231   4.421   3.085   6.053 -0.3950  0.3066 -0.8979
  102OSM    H7T10232   4.343   3.226   6.127  1.3026 -0.2494 -0.4547
  102OSM    C8S10233   4.272   3.199   5.940 -0.1141  0.2841 -0.4645
  102OSM    H8S10234   4.169   3.238   5.953  1.1943  3.4480  1.3796
  102OSM    H8T10235   4.259   3.128   5.855 -0.4651  1.0521 -1.0590
  102OSM    C9S10236   4.355   3.312   5.885  0.1748 -0.0555  0.6259
  102OSM    H9S10237   4.455   3.266   5.871 -0.9798 -2.3324 -0.8792
  102OSM    H9T10238   4.360   3.391   5.963 -0.5577  0.1193  0.5101
  102OSM   C10S10239   4.299   3.363   5.753 -0.6232 -0.4478  0.0892
  102OSM   H10S10240   4.256   3.465   5.753  1.8356  0.6690 -0.0134
  102OSM   H10T10241   4.220   3.296   5.713 -1.6495  0.9949 -0.3614
  102OSM   C11S10242   4.414   3.375   5.647  0.1737 -0.7389 -0.0674
  102OSM   H11S10243   4.474   3.282   5.635 -1.1918 -1.5765 -0.5733
  102OSM   H11T10244   4.479   3.460   5.677  1.2982 -1.6806  0.2448
  102OSM   C12S10245   4.361   3.423   5.506 -0.6407  0.0836  0.1993
  102OSM   H12S10246   4.448   3.412   5.438  0.2462  0.5551  1.2245
  102OSM   H12T10247   4.344   3.532   5.519 -0.7515 -0.1172  2.1001
  102OSM   C13S10248   4.247   3.355   5.435 -1.0013 -0.2139  0.1151
  102OSM   H13S10249   4.224   3.414   5.343 -1.0328  0.6691  0.6761
  102OSM   H13T10250   4.153   3.368   5.493 -0.7554 -0.5751  0.5974
  102OSM   C14S10251   4.272   3.209   5.409 -1.2991  0.0715 -0.2204
  102OSM   H14S10252   4.182   3.145   5.393 -0.6899 -0.6651 -0.8444
  102OSM   H14T10253   4.320   3.156   5.493 -1.8110 -1.8494 -1.0753
  102OSM   C15S10254   4.356   3.193   5.282  0.0732  0.0171 -0.0770
  102OSM   H15S10255   4.458   3.235   5.297  0.5609  0.3667 -3.6535
  102OSM   H15T10256   4.308   3.256   5.204  0.2181  2.4661  1.6815
  102OSM   C16S10257   4.369   3.052   5.236  0.5875 -0.7657  0.4006
  102OSM   H16S10258   4.266   3.016   5.217 -0.3611  2.7070 -2.2327
  102OSM   H16T10259   4.418   2.996   5.318 -0.4152  0.3809  1.8350
  102OSM   C17S10260   4.462   3.041   5.116 -0.0449 -0.2369 -0.6110
  102OSM   H17S10261   4.560   3.070   5.160 -1.2310  0.7211  1.5944
  102OSM   H17T10262   4.440   3.122   5.044 -0.8188  1.5274  1.5006
  102OSM   C18S10263   4.478   2.901   5.057 -0.2909 -0.4348  0.5627
  102OSM   H18S10264   4.506   2.819   5.127 -3.1785 -0.2414  2.1217
  102OSM   H18T10265   4.546   2.907   4.970  0.4385  1.4923  1.2147
  102OSM   H18U10266   4.380   2.876   5.011  0.0661  0.6013 -0.8181
  102OSM    C1F10267   4.626   3.256   6.453 -0.4498 -0.6425 -1.0623
  102OSM     OF10268   4.734   3.194   6.473 -0.2604  0.0749 -0.1556
  102OSM    C2F10269   4.623   3.402   6.420  0.0681 -0.3147 -0.6278
  102OSM    H2F10270   4.604   3.459   6.514  1.2355  0.4416 -0.8261
  102OSM    H2G10271   4.555   3.423   6.336  1.1810 -2.0463 -2.0441
  102OSM    C3F10272   4.754   3.454   6.355 -0.5248 -0.0515  0.2129
  102OSM    H3F10273   4.826   3.417   6.431 -1.3668  0.3891  1.2481
  102OSM    H3G10274   4.754   3.565   6.357  0.3177 -0.0577  1.5077
  102OSM    C4F10275   4.769   3.410   6.208 -0.0144  0.2423 -0.3632
  102OSM    H4F10276   4.735   3.305   6.200 -1.4874  0.7050 -0.4297
  102OSM    H4G10277   4.877   3.427   6.190  0.6674 -1.3050  1.8824
  102OSM    C5F10278   4.694   3.492   6.104 -0.2771 -0.2984  0.4968
  102OSM    H5F10279   4.728   3.595   6.126  1.0452 -0.1979 -1.7214
  102OSM    H5G10280   4.584   3.482   6.118 -0.4078 -0.1240 -0.3578
  102OSM    C6F10281   4.732   3.449   5.961 -0.1090  0.4396 -0.7927
  102OSM    H6F10282   4.674   3.357   5.937  1.4720 -0.4790 -1.2516
  102OSM    H6G10283   4.840   3.422   5.963 -0.1927  0.1337  0.3818
  102OSM    C7F10284   4.706   3.556   5.862  0.1702 -0.1613 -0.4261
  102OSM    H7F10285   4.758   3.648   5.897  1.2386 -0.8373 -0.1758
  102OSM    H7G10286   4.597   3.576   5.862  0.7085  3.6263  0.5637
  102OSM    C8F10287   4.758   3.518   5.723 -0.6132  0.1975  0.2328
  102OSM    H8F10288   4.700   3.435   5.675  0.5541  0.2058 -1.2707
  102OSM    H8G10289   4.856   3.468   5.736 -1.4786 -2.1767 -1.5712
  102OSM    C9F10290   4.766   3.631   5.632 -0.1208  0.3632 -0.5749
  102OSM    H9F10291   4.750   3.724   5.689 -1.7870 -0.3017  0.1139
  102OSM   C10F10292   4.791   3.627   5.501 -0.3409 -0.0567  0.1272
  102OSM   H10F10293   4.777   3.715   5.436 -3.0974  1.4838  2.5739
  102OSM   C11F10294   4.797   3.495   5.422 -0.4031 -0.6871  0.6074
  102OSM   H11F10295   4.725   3.499   5.337 -0.6743 -0.9175  0.8245
  102OSM   H11G10296   4.763   3.409   5.484 -1.1254  0.4972  1.9110
  102OSM   C12F10297   4.944   3.464   5.384 -0.4041  0.1584 -0.1340
  102OSM   H12F10298   4.945   3.372   5.322  3.6045  1.0750 -1.7997
  102OSM   H12G10299   5.010   3.440   5.471 -0.7509 -0.7190 -0.1034
  102OSM   C13F10300   5.000   3.574   5.287 -0.0748  0.1966 -0.2801
  102OSM   H13F10301   5.012   3.670   5.342  2.1403 -1.1881  1.8531
  102OSM   H13G10302   4.941   3.577   5.193  0.3909 -0.7925 -0.6160
  102OSM   C14F10303   5.149   3.552   5.248  0.1929  0.1112  0.0476
  102OSM   H14F10304   5.216   3.544   5.336 -2.7216  1.1352  2.5320
  102OSM   H14G10305   5.186   3.640   5.191  1.1777  0.7177  1.5553
  102OSM   C15F10306   5.174   3.427   5.163  0.0145  0.2284 -0.2777
  102OSM   H15F10307   5.108   3.418   5.074 -2.1864 -1.1294  1.4011
  102OSM   H15G10308   5.142   3.342   5.226  0.6736 -0.0534 -0.3081
  102OSM   C16F10309   5.316   3.422   5.112  0.0550  0.5445 -0.0323
  102OSM   H16F10310   5.381   3.394   5.198  0.0709 -1.9426 -0.7738
  102OSM   H16G10311   5.340   3.521   5.068  0.1600  0.3670 -0.3750
  102OSM   C17F10312   5.342   3.317   5.002 -0.8141 -0.2598  0.3489
  102OSM   H17F10313   5.322   3.214   5.039  1.5420 -1.2516 -0.8928
  102OSM   H17G10314   5.452   3.308   4.992 -0.7070  0.7886  0.4780
  102OSM   C18F10315   5.287   3.351   4.864 -0.3136  0.4251  0.2446
  102OSM   H18F10316   5.269   3.273   4.787  0.5586  1.5533 -1.1680
  102OSM   H18G10317   5.343   3.436   4.820 -0.2387  0.0395 -0.4252
  102OSM   H18H10318   5.182   3.384   4.880 -0.0639  0.6105  1.5668
  103OSM      N10319   3.848   3.708   6.959  0.0938  0.7495 -0.3793
  103OSM    C1510320   3.950   3.784   6.882  0.2160  0.9069 -0.4819
  103OSM   H15A10321   4.041   3.729   6.863  0.1836  0.4765  0.5696
  103OSM   H15B10322   3.983   3.865   6.945  1.5968 -0.7452  1.0398
  103OSM   H15C10323   3.919   3.817   6.783  1.4561 -0.9950 -1.5635
  103OSM    C1410324   3.898   3.680   7.097  0.9512 -0.1256  0.1474
  103OSM   H14A10325   3.811   3.676   7.161  0.5859 -1.4478 -0.3932
  103OSM   H14B10326   3.958   3.762   7.134  0.0544  0.7498 -0.2966
  103OSM   H14C10327   3.951   3.586   7.093  0.8969 -0.1579  0.1758
  103OSM    C1310328   3.730   3.801   6.971  0.0690 -0.1243  0.5067
  103OSM   H13A10329   3.668   3.806   6.883  1.0814 -0.9745 -0.2924
  103OSM   H13B10330   3.779   3.896   6.986 -1.8916  0.8073  1.3088
  103OSM   H13C10331   3.668   3.782   7.056 -1.0747  0.7162 -0.1132
  103OSM    C1210332   3.816   3.571   6.897  0.3403 -0.2336  0.9003
  103OSM   H12A10333   3.729   3.527   6.944 -0.9890 -0.0216 -1.2435
  103OSM   H12B10334   3.893   3.500   6.921 -1.6393 -2.6239  0.5629
  103OSM    C1110335   3.784   3.572   6.749 -0.1403  0.1520 -0.1735
  103OSM   H11A10336   3.751   3.471   6.716  0.6603 -0.3808  0.5915
  103OSM   H11B10337   3.874   3.596   6.689 -0.8338  0.5989 -1.0613
  103OSM      P10338   3.539   3.633   6.664 -0.6058 -0.0711 -0.0144
  103OSM    O1310339   3.473   3.539   6.754 -0.0445  0.6181  0.1006
  103OSM    O1410340   3.472   3.760   6.640 -0.1940  0.2981  0.2612
  103OSM    O1110341   3.580   3.573   6.528  0.6719  0.0781 -0.2181
  103OSM    O1210342   3.683   3.665   6.720  0.6957  0.2156 -0.1435
  103OSM    C1S10343   3.493   3.510   6.437  0.2515  0.1630  0.0709
  103OSM    H1S10344   3.397   3.567   6.431  0.6182  0.9588  1.3915
  103OSM    H1T10345   3.469   3.405   6.464  0.4432 -0.1829 -1.0532
  103OSM     NF10346   3.466   3.446   6.191 -0.5624  0.0482  0.2127
  103OSM    HNF10347   3.429   3.353   6.195 -2.3565  0.5722 -1.8854
  103OSM    C2S10348   3.563   3.485   6.292  0.2939 -0.0578 -0.5311
  103OSM    H2S10349   3.606   3.585   6.269  2.0813 -0.9857 -1.3627
  103OSM    C3S10350   3.678   3.387   6.307  0.6602 -0.1435  0.7762
  103OSM    H3S10351   3.630   3.290   6.329 -4.0603  1.0496 -2.6498
  103OSM     O310352   3.741   3.404   6.432  0.3676 -0.8273  0.0886
  103OSM    HO310353   3.692   3.479   6.468  0.4135 -0.8682  0.2356
  103OSM    C4S10354   3.765   3.384   6.187 -0.8663 -0.0742 -0.7558
  103OSM    H4S10355   3.738   3.302   6.118 -0.2559 -0.3632 -0.6594
  103OSM    C5S10356   3.865   3.466   6.154  0.2596 -0.0028  0.1477
  103OSM    H5S10357   3.880   3.554   6.219  2.3224  0.3024 -0.6680
  103OSM    C6S10358   3.943   3.460   6.024  0.4167  0.0395 -0.4672
  103OSM    H6S10359   3.928   3.365   5.968 -3.0702 -0.4522  1.0216
  103OSM    H6T10360   4.051   3.477   6.044  0.5551 -0.0373 -1.1241
  103OSM    C7S10361   3.915   3.577   5.929  0.0708 -0.0814 -0.4106
  103OSM    H7S10362   3.985   3.577   5.842  0.1146 -0.5434 -0.3770
  103OSM    H7T10363   3.937   3.673   5.980 -3.4399 -1.6253  4.8484
  103OSM    C8S10364   3.768   3.585   5.875 -0.1700 -0.1083  1.0150
  103OSM    H8S10365   3.755   3.680   5.819 -1.9134 -1.0909 -0.3469
  103OSM    H8T10366   3.704   3.587   5.966  2.2830 -0.7286  2.8487
  103OSM    C9S10367   3.721   3.464   5.789  1.5324 -0.1635 -0.4066
  103OSM    H9S10368   3.630   3.499   5.736  2.0454  0.4542 -0.8963
  103OSM    H9T10369   3.701   3.379   5.858 -0.1377  2.4083  2.5148
  103OSM   C10S10370   3.803   3.429   5.667  0.5948  0.5925 -0.0502
  103OSM   H10S10371   3.772   3.332   5.621 -0.4589  0.1584  1.5105
  103OSM   H10T10372   3.910   3.415   5.695  0.3129 -0.7150  0.4585
  103OSM   C11S10373   3.805   3.541   5.561  0.4533 -0.2360  0.2609
  103OSM   H11S10374   3.863   3.625   5.604 -0.3596 -0.1521  1.2441
  103OSM   H11T10375   3.698   3.569   5.548  0.2794 -0.9648  0.0590
  103OSM   C12S10376   3.854   3.493   5.428 -0.1562  0.4683  0.3600
  103OSM   H12S10377   3.768   3.445   5.375 -0.1173  0.3412  0.4116
  103OSM   H12T10378   3.940   3.428   5.455 -0.1075  1.0419  1.6370
  103OSM   C13S10379   3.913   3.612   5.341  0.2812 -0.3225  0.7040
  103OSM   H13S10380   3.983   3.668   5.407  2.2162  0.1642 -1.6199
  103OSM   H13T10381   3.846   3.689   5.298 -0.5994 -1.3723  0.1495
  103OSM   C14S10382   3.988   3.561   5.215  0.3029 -0.3799 -0.0478
  103OSM   H14S10383   3.916   3.519   5.141  0.1591  3.0264 -2.0223
  103OSM   H14T10384   4.050   3.478   5.257  1.0028  0.4492  0.5920
  103OSM   C15S10385   4.074   3.668   5.147  0.2595  0.1578  0.1559
  103OSM   H15S10386   4.013   3.761   5.146  1.0430  0.6725 -0.4939
  103OSM   H15T10387   4.080   3.647   5.038  1.5938  4.3512 -0.7631
  103OSM   C16S10388   4.209   3.678   5.215  0.1899  0.4835  0.1720
  103OSM   H16S10389   4.261   3.582   5.192 -0.9717 -0.5773  1.7431
  103OSM   H16T10390   4.193   3.674   5.325 -1.9708  1.1568 -0.0762
  103OSM   C17S10391   4.284   3.807   5.178  0.1432 -0.2579  0.7329
  103OSM   H17S10392   4.222   3.897   5.202 -1.9788 -0.8249 -2.0745
  103OSM   H17T10393   4.298   3.809   5.068  0.7150  0.0599  0.8104
  103OSM   C18S10394   4.415   3.832   5.257  0.3576  0.1187  0.0416
  103OSM   H18S10395   4.460   3.923   5.212  0.2091  0.1628 -0.0165
  103OSM   H18T10396   4.474   3.737   5.256 -2.4740 -1.7989  1.1753
  103OSM   H18U10397   4.395   3.858   5.363 -1.0649  0.9573 -0.4115
  103OSM    C1F10398   3.389   3.538   6.131  0.7381 -0.0849  0.9009
  103OSM     OF10399   3.428   3.658   6.137  0.0945  0.0099  0.6448
  103OSM    C2F10400   3.256   3.499   6.059 -0.7553  0.0784  0.3293
  103OSM    H2F10401   3.193   3.589   6.044 -3.2711 -1.0976  2.8307
  103OSM    H2G10402   3.207   3.430   6.131 -1.5522  0.4799  0.1754
  103OSM    C3F10403   3.276   3.419   5.920  0.1449 -0.1412  0.0318
  103OSM    H3F10404   3.272   3.309   5.936 -0.0868 -0.5976 -2.6167
  103OSM    H3G10405   3.377   3.446   5.881  0.3954 -2.9651 -1.5874
  103OSM    C4F10406   3.158   3.431   5.811 -0.6350 -0.7460 -0.0478
  103OSM    H4F10407   3.068   3.374   5.844 -0.7692 -0.5191 -0.0185
  103OSM    H4G10408   3.199   3.393   5.715 -0.0419 -0.9988  0.3004
  103OSM    C5F10409   3.115   3.573   5.765  0.5478  0.0175  0.0282
  103OSM    H5F10410   3.204   3.638   5.755 -0.2680  1.1216 -0.3365
  103OSM    H5G10411   3.044   3.627   5.832 -2.1489 -2.7994 -0.3045
  103OSM    C6F10412   3.023   3.588   5.642 -0.4256  0.3302 -0.3808
  103OSM    H6F10413   3.004   3.495   5.586  0.8129  0.2255 -0.6621
  103OSM    H6G10414   3.086   3.647   5.572 -0.5740  0.3992 -0.4571
  103OSM    C7F10415   2.901   3.681   5.668 -0.7712 -0.1906  0.4258
  103OSM    H7F10416   2.921   3.771   5.731 -0.0047 -0.2914  0.3436
  103OSM    H7G10417   2.835   3.630   5.740  0.4616 -0.9907  1.0252
  103OSM    C8F10418   2.818   3.744   5.557 -0.2611  0.2469  0.9832
  103OSM    H8F10419   2.881   3.814   5.499  0.0267 -0.8447 -0.0713
  103OSM    H8G10420   2.735   3.804   5.599 -0.2030  1.1252 -0.1144
  103OSM    C9F10421   2.772   3.638   5.464 -0.4391  1.1013  0.2840
  103OSM    H9F10422   2.735   3.550   5.517  0.8220 -0.2866 -1.0434
  103OSM   C10F10423   2.790   3.634   5.330 -0.3048 -0.0465 -0.1617
  103OSM   H10F10424   2.742   3.554   5.272  0.8425 -0.4199 -0.6194
  103OSM   C11F10425   2.853   3.754   5.270 -0.2264 -0.4232 -0.0377
  103OSM   H11F10426   2.952   3.770   5.317 -0.3725  2.6768 -0.6065
  103OSM   H11G10427   2.792   3.844   5.289  1.3762  1.0853 -1.6449
  103OSM   C12F10428   2.892   3.749   5.115 -0.0252  0.5361 -0.5798
  103OSM   H12F10429   2.942   3.651   5.101 -0.2174  0.3624 -0.0554
  103OSM   H12G10430   2.962   3.832   5.093  0.4604  0.3452  0.2296
  103OSM   C13F10431   2.777   3.764   5.009  0.3152  0.1380 -0.2467
  103OSM   H13F10432   2.754   3.871   5.029 -0.3489 -0.3749  2.0322
  103OSM   H13G10433   2.692   3.697   5.033  0.3865 -1.1101 -3.0877
  103OSM   C14F10434   2.821   3.728   4.866  0.0936  0.1699  0.1428
  103OSM   H14F10435   2.733   3.742   4.798  1.5373 -1.2211 -2.1516
  103OSM   H14G10436   2.841   3.619   4.864 -1.1120 -0.0672 -0.0642
  103OSM   C15F10437   2.945   3.809   4.818 -0.0547 -0.7473 -0.5591
  103OSM   H15F10438   3.035   3.764   4.865 -0.0467 -0.7680 -0.5945
  103OSM   H15G10439   2.947   3.911   4.864  1.7109 -1.1481  0.3434
  103OSM   C16F10440   2.961   3.810   4.670 -0.5644 -0.0502 -0.1671
  103OSM   H16F10441   2.875   3.864   4.626  1.2235  0.7685 -2.9412
  103OSM   H16G10442   2.951   3.708   4.627 -0.7560 -0.8999  1.8139
  103OSM   C17F10443   3.098   3.857   4.623  0.3301  0.3512  0.1006
  103OSM   H17F10444   3.182   3.811   4.679 -0.8615  0.0903  1.7580
  103OSM   H17G10445   3.100   3.966   4.644  1.2151  0.4100 -0.2395
  103OSM   C18F10446   3.112   3.824   4.473 -0.2309 -0.1459  0.1422
  103OSM   H18F10447   3.024   3.868   4.423 -0.8110 -0.3066  1.0022
  103OSM   H18G10448   3.111   3.714   4.457  0.5223 -0.3544  1.3726
  103OSM   H18H10449   3.205   3.879   4.445 -0.7170  0.2035 -0.8174
  104OSM      N10450   4.350   5.148   7.150  0.5224  0.0418 -0.4098
  104OSM    C1510451   4.412   5.019   7.118 -0.4875  0.0396  0.9900
  104OSM   H15A10452   4.329   4.953   7.099 -0.8096  1.1912 -2.0510
  104OSM   H15B10453   4.458   4.975   7.206 -3.1807 -0.5482  2.2216
  104OSM   H15C10454   4.464   5.021   7.024 -0.4454 -1.6420  0.9610
  104OSM    C1410455   4.287   5.206   7.028 -0.9962  0.0064 -0.0656
  104OSM   H14A10456   4.197   5.151   7.003 -1.1439  1.3382 -2.8862
  104OSM   H14B10457   4.359   5.215   6.949  2.3201 -1.1579  2.5847
  104OSM   H14C10458   4.260   5.309   7.049  0.5994  0.0532  2.0934
  104OSM    C1310459   4.236   5.125   7.249 -0.2201  0.1631  0.4651
  104OSM   H13A10460   4.254   5.101   7.353 -1.3887  2.6459  1.3335
  104OSM   H13B10461   4.160   5.064   7.203  0.8219  0.7365 -2.1651
  104OSM   H13C10462   4.200   5.227   7.258  1.7806  0.9824 -0.4213
  104OSM    C1210463   4.452   5.260   7.205 -0.0589  0.3186 -0.0578
  104OSM   H12A10464   4.477   5.226   7.305  2.3901  1.5563 -0.1700
  104OSM   H12B10465   4.404   5.355   7.217 -0.9124 -0.1728  0.5668
  104OSM    C1110466   4.592   5.285   7.147 -0.3032  0.2914 -0.1814
  104OSM   H11A10467   4.655   5.193   7.143  0.3787  0.5980  2.1781
  104OSM   H11B10468   4.650   5.348   7.218  0.3433 -0.3309 -0.1489
  104OSM      P10469   4.532   5.494   7.002 -0.2581 -0.4751 -0.0084
  104OSM    O1310470   4.407   5.539   7.069 -0.5584  0.5214  0.7147
  104OSM    O1410471   4.652   5.570   7.033  0.2458  0.4001  0.1457
  104OSM    O1110472   4.508   5.492   6.848 -0.1958  0.1792  0.2039
  104OSM    O1210473   4.567   5.337   7.020 -0.0582 -0.1911 -0.2557
  104OSM    C1S10474   4.611   5.444   6.756 -0.4227  0.9090  0.4364
  104OSM    H1S10475   4.684   5.372   6.799  0.3525  1.0324 -0.6363
  104OSM    H1T10476   4.674   5.528   6.721  2.3498 -2.2569 -3.1092
  104OSM     NF10477   4.638   5.344   6.532  0.1779 -0.5040 -0.6223
  104OSM    HNF10478   4.627   5.405   6.454 -0.0594  1.6237  0.9681
  104OSM    C2S10479   4.545   5.375   6.630  1.0051 -0.3713 -0.3076
  104OSM    H2S10480   4.500   5.281   6.670  0.4785  1.0839  2.8905
  104OSM    C3S10481   4.412   5.456   6.583 -0.1895  0.0518  0.0950
  104OSM    H3S10482   4.435   5.559   6.549 -2.6024  1.0343  1.1949
  104OSM     O310483   4.312   5.460   6.680  0.2986  0.1800 -0.2702
  104OSM    HO310484   4.360   5.443   6.761  0.4743 -0.2387 -0.4591
  104OSM    C4S10485   4.355   5.388   6.459  0.3400  0.1907  0.4261
  104OSM    H4S10486   4.363   5.280   6.445 -0.3905  0.3605 -1.6310
  104OSM    C5S10487   4.315   5.448   6.344 -0.1530 -0.2116 -0.7658
  104OSM    H5S10488   4.325   5.558   6.345  1.8410 -0.3602 -0.1847
  104OSM    C6S10489   4.270   5.388   6.217  0.1444  0.1838  0.0583
  104OSM    H6S10490   4.266   5.464   6.137  0.6871 -0.2173 -0.3585
  104OSM    H6T10491   4.164   5.356   6.223  0.4925 -0.9173  0.8688
  104OSM    C7S10492   4.373   5.278   6.174  0.0824  0.0512  0.2463
  104OSM    H7S10493   4.390   5.209   6.259 -2.1022 -0.8654  0.0025
  104OSM    H7T10494   4.466   5.331   6.144  0.9025 -1.3143  0.3072
  104OSM    C8S10495   4.312   5.201   6.054 -0.8036  0.0750 -0.0657
  104OSM    H8S10496   4.221   5.149   6.091 -1.1429  1.7444  1.6267
  104OSM    H8T10497   4.384   5.125   6.017  1.5139  1.5084  1.2267
  104OSM    C9S10498   4.278   5.286   5.931 -0.5076 -0.1432  0.3211
  104OSM    H9S10499   4.211   5.368   5.965 -0.5557 -1.2099  3.1197
  104OSM    H9T10500   4.235   5.220   5.853 -0.1817  0.8428 -0.7203
  104OSM   C10S10501   4.407   5.346   5.874  0.2527 -0.1376  0.3128
  104OSM   H10S10502   4.477   5.263   5.855  1.6304  0.8281  1.0338
  104OSM   H10T10503   4.458   5.416   5.944  2.8988  0.8845 -2.4225
  104OSM   C11S10504   4.373   5.425   5.749 -0.1581  0.6098  0.4505
  104OSM   H11S10505   4.285   5.377   5.701  1.0097 -1.3721  0.1997
  104OSM   H11T10506   4.456   5.426   5.675 -1.1911 -0.4251 -0.7850
  104OSM   C12S10507   4.353   5.577   5.783 -0.0150  0.3096  0.7906
  104OSM   H12S10508   4.289   5.592   5.872 -1.4443 -0.4891 -0.0536
  104OSM   H12T10509   4.295   5.617   5.697  1.0146 -2.0833 -1.1499
  104OSM   C13S10510   4.482   5.656   5.809  0.2448 -0.0073 -0.0892
  104OSM   H13S10511   4.542   5.643   5.716 -0.7863 -1.3755 -0.6014
  104OSM   H13T10512   4.547   5.614   5.889  0.4479 -1.5318 -1.0136
  104OSM   C14S10513   4.467   5.801   5.850 -0.1432 -0.8459  0.8633
  104OSM   H14S10514   4.436   5.786   5.955 -0.3760 -4.1639  0.4381
  104OSM   H14T10515   4.392   5.853   5.787  1.8806 -1.0159 -1.8856
  104OSM   C15S10516   4.610   5.869   5.857  0.6612  0.0159 -0.0297
  104OSM   H15S10517   4.655   5.865   5.756  0.0787  2.3604 -0.4635
  104OSM   H15T10518   4.676   5.805   5.919  0.2722 -0.9675 -0.6040
  104OSM   C16S10519   4.602   6.014   5.912  0.7740  0.4771 -0.3971
  104OSM   H16S10520   4.556   6.013   6.013 -0.9682 -1.6563 -1.1334
  104OSM   H16T10521   4.538   6.084   5.854 -0.3731  0.3819  0.7087
  104OSM   C17S10522   4.744   6.076   5.932  0.5850 -0.3454 -0.0576
  104OSM   H17S10523   4.741   6.185   5.949  0.3681 -0.3815  0.1423
  104OSM   H17T10524   4.803   6.069   5.838  0.6078  2.9109 -0.3999
  104OSM   C18S10525   4.826   6.018   6.042  0.4210  0.1999 -0.4330
  104OSM   H18S10526   4.912   6.084   6.062 -0.1082  0.7906 -0.0757
  104OSM   H18T10527   4.866   5.917   6.015 -0.5022 -0.6237  1.1214
  104OSM   H18U10528   4.769   5.995   6.134  1.1069 -0.0903 -0.0712
  104OSM    C1F10529   4.734   5.258   6.535  0.6655  0.0955 -0.4482
  104OSM     OF10530   4.741   5.163   6.615 -0.2847  0.0372 -0.3275
  104OSM    C2F10531   4.843   5.276   6.436 -0.1391 -0.6576  0.2271
  104OSM    H2F10532   4.939   5.291   6.489 -0.0787  1.0220 -0.2960
  104OSM    H2G10533   4.820   5.367   6.376 -1.9205 -0.5390  1.0128
  104OSM    C3F10534   4.849   5.154   6.343 -0.1823 -0.6283  0.2533
  104OSM    H3F10535   4.860   5.059   6.401 -1.6168 -1.5859 -0.9814
  104OSM    H3G10536   4.941   5.167   6.282 -0.3422 -1.2733 -0.1346
  104OSM    C4F10537   4.736   5.128   6.244 -0.3685  0.5692 -0.7135
  104OSM    H4F10538   4.696   5.222   6.200  1.7707  1.0561 -1.7023
  104OSM    H4G10539   4.665   5.063   6.301  1.6401 -0.8205  0.3142
  104OSM    C5F10540   4.772   5.025   6.137 -0.1096 -0.2212  0.0919
  104OSM    H5F10541   4.783   4.926   6.185  0.6982 -0.4446 -0.5447
  104OSM    H5G10542   4.873   5.046   6.097 -0.0783  2.4079  1.3043
  104OSM    C6F10543   4.676   5.016   6.018 -0.3350 -0.0451  1.0210
  104OSM    H6F10544   4.735   4.980   5.931 -1.1791  2.0329 -0.4606
  104OSM    H6G10545   4.626   5.113   5.996 -2.9259 -1.6765 -0.8907
  104OSM    C7F10546   4.559   4.910   6.041 -0.4194  0.4716 -0.3138
  104OSM    H7F10547   4.498   4.903   5.948 -3.0997 -0.2190  1.3763
  104OSM    H7G10548   4.492   4.948   6.121  0.5332 -0.1716  0.8190
  104OSM    C8F10549   4.607   4.773   6.087 -0.7046 -0.8132  0.4641
  104OSM    H8F10550   4.600   4.784   6.197  0.0958 -0.9636  0.5368
  104OSM    H8G10551   4.715   4.757   6.068 -0.8622 -1.8635  0.3969
  104OSM    C9F10552   4.505   4.674   6.047 -0.7915 -0.0068 -0.4071
  104OSM    H9F10553   4.403   4.705   6.072  0.0893  0.3965  3.1805
  104OSM   C10F10554   4.536   4.555   5.987  0.2418 -0.0489  0.3362
  104OSM   H10F10555   4.453   4.484   5.979  0.7516 -0.8632  1.8246
  104OSM   C11F10556   4.674   4.495   5.960  0.0382  0.1036  0.8495
  104OSM   H11F10557   4.672   4.399   6.016  0.1084  1.2575  2.9413
  104OSM   H11G10558   4.755   4.557   6.004 -1.4932  0.8013  2.8554
  104OSM   C12F10559   4.707   4.483   5.813 -0.1768  0.2537 -0.2683
  104OSM   H12F10560   4.637   4.412   5.764 -0.7465  1.7760 -1.7371
  104OSM   H12G10561   4.796   4.416   5.811  0.7300  1.1291  3.3137
  104OSM   C13F10562   4.736   4.616   5.743 -0.3626 -0.2270 -0.4643
  104OSM   H13F10563   4.808   4.671   5.807  1.8668 -2.8780 -0.5254
  104OSM   H13G10564   4.646   4.680   5.730 -0.6724 -0.6228 -0.3050
  104OSM   C14F10565   4.795   4.609   5.600  0.4404  0.5948 -0.5669
  104OSM   H14F10566   4.787   4.713   5.562 -2.6552  1.1411  1.2278
  104OSM   H14G10567   4.740   4.540   5.533  1.2213  0.2829 -0.9062
  104OSM   C15F10568   4.944   4.558   5.598  0.1063 -0.7321  0.6866
  104OSM   H15F10569   4.952   4.463   5.655  1.8683 -1.0776 -0.0783
  104OSM   H15G10570   5.006   4.627   5.660  1.5536 -1.5462  0.1743
  104OSM   C16F10571   4.997   4.531   5.455  0.4760  0.5292 -0.5948
  104OSM   H16F10572   5.007   4.621   5.390  0.5816  0.8105 -0.1977
  104OSM   H16G10573   4.935   4.457   5.400 -2.6878  1.3734  1.5103
  104OSM   C17F10574   5.141   4.474   5.465  0.0537 -0.8545  0.3596
  104OSM   H17F10575   5.133   4.387   5.535 -1.4534 -1.7659 -0.9010
  104OSM   H17G10576   5.200   4.554   5.515  0.0934 -1.3384  1.1189
  104OSM   C18F10577   5.205   4.442   5.331  0.4739  0.0679 -0.7570
  104OSM   H18F10578   5.295   4.376   5.334 -0.2004 -0.9907 -2.1994
  104OSM   H18G10579   5.229   4.539   5.283  0.7031  0.3081 -0.1575
  104OSM   H18H10580   5.121   4.385   5.285 -0.5866 -0.1263  1.3357
  105OSM      N10581   5.497   6.080   7.309 -0.2446 -0.1578 -0.2362
  105OSM    C1510582   5.389   6.167   7.251  0.7578 -0.0678  0.6900
  105OSM   H15A10583   5.445   6.224   7.178 -1.3308  0.7735 -0.3144
  105OSM   H15B10584   5.335   6.224   7.325  0.3920 -0.0102  0.3775
  105OSM   H15C10585   5.320   6.109   7.193 -0.5276  3.3167 -1.4560
  105OSM    C1410586   5.601   6.160   7.377 -0.0914 -0.4206 -0.4796
  105OSM   H14A10587   5.655   6.231   7.317 -1.4665 -0.6101 -2.0106
  105OSM   H14B10588   5.673   6.096   7.427 -0.5397  0.6471  1.6284
  105OSM   H14C10589   5.555   6.217   7.456  1.0815  0.6812 -0.5534
  105OSM    C1310590   5.433   5.991   7.416  0.3886  0.5581  0.3136
  105OSM   H13A10591   5.392   6.057   7.490 -0.4599  2.6848 -1.9214
  105OSM   H13B10592   5.509   5.931   7.463  0.7476  1.1699  0.5210
  105OSM   H13C10593   5.348   5.933   7.382  0.0624  1.1291  0.1506
  105OSM    C1210594   5.557   5.998   7.199 -0.1057  0.3161 -0.7114
  105OSM   H12A10595   5.654   5.961   7.229  0.3661  1.0707 -1.2697
  105OSM   H12B10596   5.572   6.061   7.113 -1.7830  0.3457 -1.0116
  105OSM    C1110597   5.472   5.897   7.122 -0.4401 -0.3946  0.2261
  105OSM   H11A10598   5.447   5.827   7.205  0.7629 -0.4253  0.5891
  105OSM   H11B10599   5.532   5.834   7.053  1.0096  0.4603  0.6444
  105OSM      P10600   5.258   5.846   6.996  0.4692  0.1742  0.0665
  105OSM    O1310601   5.262   5.736   7.092 -0.1583  0.6645  0.3521
  105OSM    O1410602   5.132   5.912   6.963  0.9680  0.8715  0.0965
  105OSM    O1110603   5.333   5.810   6.863 -0.3076  0.1366  0.0734
  105OSM    O1210604   5.358   5.954   7.053 -0.9297 -0.6086 -0.8171
  105OSM    C1S10605   5.347   5.663   6.821 -0.3700 -0.1575  0.4314
  105OSM    H1S10606   5.246   5.619   6.812 -0.5331  0.3470 -0.2966
  105OSM    H1T10607   5.399   5.603   6.899  0.5677  1.5979  1.2361
  105OSM     NF10608   5.418   5.508   6.627 -0.4471 -0.2462 -0.1557
  105OSM    HNF10609   5.511   5.473   6.619 -0.9226 -1.6186  0.0630
  105OSM    C2S10610   5.415   5.654   6.679  0.2725 -0.2224  0.9076
  105OSM    H2S10611   5.344   5.699   6.606 -2.6589 -2.1069  2.3927
  105OSM    C3S10612   5.545   5.732   6.683 -0.9501 -0.9246  0.0012
  105OSM    H3S10613   5.606   5.670   6.753  0.1429 -1.1897 -1.1601
  105OSM     O310614   5.532   5.874   6.723 -0.0658  0.1978 -0.0427
  105OSM    HO310615   5.455   5.880   6.780  2.3344  2.2590  3.3743
  105OSM    C4S10616   5.618   5.715   6.551  0.5556 -0.4439 -0.4067
  105OSM    H4S10617   5.709   5.653   6.548 -0.1540 -1.6552  1.2802
  105OSM    C5S10618   5.601   5.801   6.449 -0.2952 -0.1103  0.0611
  105OSM    H5S10619   5.539   5.892   6.457 -0.6477 -0.1303 -1.8368
  105OSM    C6S10620   5.666   5.789   6.316 -0.4396  0.6822  0.3706
  105OSM    H6S10621   5.736   5.875   6.325 -0.8740  1.1520 -0.5755
  105OSM    H6T10622   5.609   5.823   6.227 -1.2023 -0.5925  0.3519
  105OSM    C7S10623   5.751   5.661   6.291  0.3434 -0.4131  0.4382
  105OSM    H7S10624   5.696   5.565   6.305 -1.9951  0.1235 -3.4769
  105OSM    H7T10625   5.838   5.672   6.358 -0.2491  3.6593  0.7820
  105OSM    C8S10626   5.781   5.658   6.138  0.2554  0.0219 -0.2526
  105OSM    H8S10627   5.815   5.757   6.102 -1.6833  0.1484 -1.9130
  105OSM    H8T10628   5.680   5.646   6.092  0.7851 -3.0582 -0.8891
  105OSM    C9S10629   5.896   5.566   6.102  0.2148  0.8944 -0.3021
  105OSM    H9S10630   5.900   5.460   6.134  1.0371  0.1214 -2.7625
  105OSM    H9T10631   5.987   5.608   6.150  1.0530  0.5504 -1.5521
  105OSM   C10S10632   5.927   5.536   5.958  0.0303  0.3957 -0.1935
  105OSM   H10S10633   5.844   5.561   5.889  1.2320 -0.0961 -1.8788
  105OSM   H10T10634   5.950   5.430   5.932  0.2001 -0.0615  1.6539
  105OSM   C11S10635   6.025   5.641   5.884  0.5370 -0.4338 -0.4741
  105OSM   H11S10636   6.107   5.639   5.959 -0.9738  0.4324  1.2964
  105OSM   H11T10637   5.980   5.742   5.890  0.0955 -0.6920  0.9095
  105OSM   C12S10638   6.068   5.598   5.749 -0.1246  0.3182  0.2883
  105OSM   H12S10639   6.101   5.493   5.763 -2.1900 -0.2553  1.0861
  105OSM   H12T10640   6.152   5.660   5.709  2.4086 -1.3681  2.6228
  105OSM   C13S10641   5.963   5.577   5.638  0.1210 -0.3535  0.1431
  105OSM   H13S10642   5.905   5.669   5.617  1.1016 -0.2951 -2.7931
  105OSM   H13T10643   5.897   5.505   5.691  0.2099 -1.4290 -1.1258
  105OSM   C14S10644   6.015   5.512   5.503  0.1099 -0.0004  0.2355
  105OSM   H14S10645   5.939   5.487   5.427  0.9680  0.3075 -0.7426
  105OSM   H14T10646   6.065   5.415   5.524 -2.7389 -2.1306 -1.9860
  105OSM   C15S10647   6.122   5.595   5.426  0.6355 -0.5547  0.2049
  105OSM   H15S10648   6.169   5.514   5.367 -2.0758 -1.2766 -1.1349
  105OSM   H15T10649   6.196   5.639   5.496 -0.4026  3.5008 -0.9473
  105OSM   C16S10650   6.068   5.702   5.336 -0.0187  0.1377  0.4201
  105OSM   H16S10651   6.069   5.793   5.401 -0.3414  0.2998  0.1960
  105OSM   H16T10652   5.961   5.675   5.325  0.1975 -0.1395 -1.2301
  105OSM   C17S10653   6.142   5.727   5.204 -0.8285  0.4252  0.6867
  105OSM   H17S10654   6.178   5.633   5.157  0.9092  1.5931 -0.4466
  105OSM   H17T10655   6.235   5.773   5.243 -0.0586 -0.0534 -0.5322
  105OSM   C18S10656   6.069   5.803   5.098  0.6287 -0.6787 -0.2652
  105OSM   H18S10657   6.022   5.895   5.140  1.1457  1.1767 -3.3821
  105OSM   H18T10658   5.983   5.756   5.046  0.2531 -0.6879  0.3491
  105OSM   H18U10659   6.138   5.847   5.023 -0.0639  2.7629  0.9155
  105OSM    C1F10660   5.318   5.428   6.602  0.1443 -0.2129 -0.1010
  105OSM     OF10661   5.203   5.465   6.619 -0.1896 -0.5272  0.3784
  105OSM    C2F10662   5.346   5.289   6.570  0.2023 -0.1113  0.6396
  105OSM    H2F10663   5.318   5.234   6.662 -3.5890  1.3885  0.5465
  105OSM    H2G10664   5.455   5.279   6.550 -0.4920 -0.3831 -4.0117
  105OSM    C3F10665   5.254   5.246   6.458 -0.1919  0.8134 -0.1870
  105OSM    H3F10666   5.148   5.281   6.465 -0.6156 -0.2634 -0.9395
  105OSM    H3G10667   5.243   5.135   6.466 -1.5261  0.7396 -2.3049
  105OSM    C4F10668   5.313   5.267   6.313  0.3101 -0.7110 -0.1471
  105OSM    H4F10669   5.262   5.191   6.251  0.9175 -0.6998 -0.6751
  105OSM    H4G10670   5.423   5.254   6.320  0.0814 -1.8872  2.4043
  105OSM    C5F10671   5.285   5.402   6.262 -0.6829 -0.1279  0.2037
  105OSM    H5F10672   5.323   5.461   6.348 -2.2857  1.0002  0.1907
  105OSM    H5G10673   5.176   5.427   6.264 -0.2049  2.1856  0.3445
  105OSM    C6F10674   5.354   5.448   6.130 -0.4152  0.0530  0.2382
  105OSM    H6F10675   5.320   5.371   6.057 -0.9487 -0.6540  1.2017
  105OSM    H6G10676   5.465   5.444   6.144  0.2744  3.1290 -3.0421
  105OSM    C7F10677   5.326   5.590   6.091 -0.4632 -0.2436 -0.2533
  105OSM    H7F10678   5.389   5.639   6.167 -0.6745 -1.0312  0.4452
  105OSM    H7G10679   5.217   5.610   6.102 -0.0530  1.0585  2.0551
  105OSM    C8F10680   5.391   5.622   5.948  0.3500  0.0919  0.1338
  105OSM    H8F10681   5.475   5.550   5.939 -0.6117 -1.1128  0.5140
  105OSM    H8G10682   5.436   5.723   5.956  2.2103 -0.7207  0.3303
  105OSM    C9F10683   5.297   5.608   5.829 -0.5139 -0.7483 -0.4799
  105OSM    H9F10684   5.233   5.695   5.807 -0.3555 -1.0107 -2.1270
  105OSM   C10F10685   5.310   5.520   5.733  0.3478 -0.2093 -0.4374
  105OSM   H10F10686   5.227   5.529   5.662 -0.1067  2.6252  0.3561
  105OSM   C11F10687   5.394   5.400   5.707  0.0702  0.9320 -0.7931
  105OSM   H11F10688   5.329   5.314   5.732  0.3138  1.4364  1.8492
  105OSM   H11G10689   5.489   5.405   5.765 -1.2034  1.3574  1.3628
  105OSM   C12F10690   5.435   5.384   5.563  0.8419 -0.3841  0.1217
  105OSM   H12F10691   5.342   5.380   5.502 -0.6895  0.9168  2.2413
  105OSM   H12G10692   5.490   5.288   5.550  0.9677 -0.3477  0.3659
  105OSM   C13F10693   5.520   5.489   5.508  0.9071  0.4105  0.0865
  105OSM   H13F10694   5.614   5.490   5.566  0.3586  1.0046  0.9962
  105OSM   H13G10695   5.470   5.587   5.526  0.9207  0.5257 -0.4721
  105OSM   C14F10696   5.547   5.473   5.356  0.2764  0.4503  0.1705
  105OSM   H14F10697   5.465   5.491   5.283  1.4361  1.7159 -0.8798
  105OSM   H14G10698   5.578   5.367   5.352 -0.1048  0.3689 -1.8015
  105OSM   C15F10699   5.667   5.557   5.317  0.4884  0.4014 -0.5509
  105OSM   H15F10700   5.740   5.525   5.395 -0.1100 -1.9652 -0.8802
  105OSM   H15G10701   5.653   5.667   5.323  4.8593  1.1544 -0.3397
  105OSM   C16F10702   5.743   5.524   5.189  0.6856 -0.0120 -0.0007
  105OSM   H16F10703   5.766   5.415   5.187  0.8853 -0.0397  1.9279
  105OSM   H16G10704   5.846   5.566   5.194  0.2162  1.0797  0.9457
  105OSM   C17F10705   5.672   5.573   5.063  0.2672 -0.5595 -0.6133
  105OSM   H17F10706   5.756   5.597   4.996  1.0232  0.4481  0.6632
  105OSM   H17G10707   5.623   5.670   5.087 -0.9811 -0.2604 -3.9258
  105OSM   C18F10708   5.566   5.483   5.004 -0.0558  0.0959 -0.1592
  105OSM   H18F10709   5.498   5.536   4.934  1.7285  0.1289 -1.9591
  105OSM   H18G10710   5.502   5.440   5.084  0.1589 -3.5955 -1.7446
  105OSM   H18H10711   5.609   5.395   4.952 -0.9311  0.6986 -1.9702
  106OSM      N10712   3.498   1.638   6.676 -0.0537 -0.0157  0.2600
  106OSM    C1510713   3.368   1.665   6.735 -0.2241  0.3688 -0.4449
  106OSM   H15A10714   3.376   1.663   6.842 -0.5488  2.4165 -0.3415
  106OSM   H15B10715   3.300   1.587   6.704 -0.3618 -0.3382  1.5337
  106OSM   H15C10716   3.331   1.762   6.703 -0.8857  0.5480  0.8153
  106OSM    C1410717   3.619   1.683   6.751 -0.7718  0.1413 -0.2903
  106OSM   H14A10718   3.706   1.636   6.708 -0.4192  0.7986 -0.3113
  106OSM   H14B10719   3.612   1.663   6.857  1.7170  2.9489  0.5406
  106OSM   H14C10720   3.637   1.789   6.738  0.4572  0.3319  2.3724
  106OSM    C1310721   3.509   1.491   6.687 -0.6665  0.5675  0.2909
  106OSM   H13A10722   3.431   1.439   6.632 -1.1926 -0.1281  1.6561
  106OSM   H13B10723   3.505   1.451   6.787 -1.0818 -1.5396 -0.5134
  106OSM   H13C10724   3.597   1.445   6.645 -0.1281  1.7074  0.1346
  106OSM    C1210725   3.504   1.690   6.528 -0.2143  0.2747 -0.0682
  106OSM   H12A10726   3.426   1.649   6.466 -0.0678 -1.5446  0.8803
  106OSM   H12B10727   3.595   1.653   6.483 -0.2517  0.1837 -0.0680
  106OSM    C1110728   3.516   1.849   6.504 -0.3888  0.4864 -0.7830
  106OSM   H11A10729   3.429   1.899   6.552  0.1250  2.1861 -1.5581
  106OSM   H11B10730   3.518   1.876   6.397  2.7318 -1.2806 -1.3116
  106OSM      P10731   3.676   2.046   6.583 -0.0198  0.3987 -0.2823
  106OSM    O1310732   3.663   2.096   6.721  0.7668 -0.3240 -0.1850
  106OSM    O1410733   3.817   2.058   6.538 -0.1699 -0.2823  0.4553
  106OSM    O1110734   3.580   2.119   6.484  0.5276  0.2678  0.1094
  106OSM    O1210735   3.636   1.893   6.568  0.5929  0.0902 -0.6878
  106OSM    C1S10736   3.613   2.243   6.418 -0.6579 -1.0392  0.3857
  106OSM    H1S10737   3.689   2.301   6.476 -1.3357  0.1946  0.0736
  106OSM    H1T10738   3.517   2.297   6.403 -1.0720 -1.9561 -0.3348
  106OSM     NF10739   3.729   2.351   6.224 -0.6175  0.2649 -0.3306
  106OSM    HNF10740   3.675   2.401   6.156 -1.0920 -0.9541 -0.8926
  106OSM    C2S10741   3.670   2.228   6.278 -0.4429 -0.0014 -0.0455
  106OSM    H2S10742   3.757   2.159   6.278  0.0441  0.5823 -1.8341
  106OSM    C3S10743   3.553   2.165   6.189  0.3840  0.2594 -0.5352
  106OSM    H3S10744   3.473   2.243   6.189 -0.2356 -0.3689 -0.3052
  106OSM     O310745   3.492   2.054   6.241  0.3742  0.6225 -0.8788
  106OSM    HO310746   3.510   2.066   6.334  0.5965  2.4311 -1.1191
  106OSM    C4S10747   3.598   2.145   6.047  0.0690 -0.0910  0.0311
  106OSM    H4S10748   3.585   2.228   5.975 -0.2966  1.2730  1.6015
  106OSM    C5S10749   3.675   2.047   5.999 -0.4264  0.2617  0.0164
  106OSM    H5S10750   3.700   1.960   6.060  0.6137  1.9009  2.0753
  106OSM    C6S10751   3.729   2.053   5.860  0.0635 -0.2310 -0.1628
  106OSM    H6S10752   3.750   1.947   5.838  2.2857  0.1601 -0.1333
  106OSM    H6T10753   3.829   2.102   5.856 -0.6463  1.3940  0.7164
  106OSM    C7S10754   3.650   2.121   5.745 -0.1582 -0.0295  0.0600
  106OSM    H7S10755   3.653   2.229   5.768  2.0820  0.3079 -1.4207
  106OSM    H7T10756   3.546   2.090   5.720  0.4145 -2.5792  0.5830
  106OSM    C8S10757   3.731   2.113   5.615 -0.6361  0.1155 -0.0554
  106OSM    H8S10758   3.710   2.014   5.569 -1.2917  0.9856 -1.6972
  106OSM    H8T10759   3.841   2.118   5.634 -0.2832 -0.1360 -1.8505
  106OSM    C9S10760   3.676   2.208   5.506  0.0497 -0.1293  0.5583
  106OSM    H9S10761   3.639   2.299   5.559  0.3324  0.8724 -0.9270
  106OSM    H9T10762   3.587   2.174   5.449  0.4680  0.2354 -0.3284
  106OSM   C10S10763   3.792   2.238   5.406 -0.0153  0.4773  0.1215
  106OSM   H10S10764   3.843   2.150   5.362  1.6119  1.0389  0.7694
  106OSM   H10T10765   3.873   2.302   5.448  0.6512  0.0716 -0.5166
  106OSM   C11S10766   3.719   2.304   5.286 -0.2332 -0.4778 -0.3901
  106OSM   H11S10767   3.669   2.402   5.304  1.4995  0.2791  0.5699
  106OSM   H11T10768   3.641   2.231   5.257  1.6545 -2.4305 -0.7998
  106OSM   C12S10769   3.813   2.336   5.162 -0.3732 -0.0894 -0.0929
  106OSM   H12S10770   3.919   2.304   5.172  1.6848  4.9984 -2.0659
  106OSM   H12T10771   3.814   2.447   5.152  0.4118 -0.0526  0.3514
  106OSM   C13S10772   3.764   2.264   5.041 -0.2838  0.0996  0.5774
  106OSM   H13S10773   3.761   2.155   5.061  1.2871  0.2521  1.8109
  106OSM   H13T10774   3.842   2.287   4.966 -1.7886  3.1968 -0.2240
  106OSM   C14S10775   3.627   2.312   4.996 -0.0316 -0.1752 -0.0367
  106OSM   H14S10776   3.623   2.423   4.998  0.9692 -0.1286 -0.0342
  106OSM   H14T10777   3.556   2.279   5.075  1.5351  1.9302  2.4186
  106OSM   C15S10778   3.564   2.273   4.859 -0.2233  0.4075 -0.3495
  106OSM   H15S10779   3.538   2.166   4.865  0.3506  0.3225  0.8877
  106OSM   H15T10780   3.642   2.296   4.783 -0.2535  0.2107 -0.4404
  106OSM   C16S10781   3.437   2.347   4.823  0.4051 -0.1037 -0.1128
  106OSM   H16S10782   3.469   2.453   4.815  3.0647 -0.8410 -0.1218
  106OSM   H16T10783   3.351   2.336   4.893  0.8370  2.4838  0.9087
  106OSM   C17S10784   3.385   2.307   4.682 -0.3009 -0.1935 -0.2061
  106OSM   H17S10785   3.357   2.200   4.697  0.7685 -0.5817 -0.8192
  106OSM   H17T10786   3.461   2.310   4.601 -1.5596 -1.6293 -1.5267
  106OSM   C18S10787   3.260   2.390   4.641  0.7154  0.3031 -0.4928
  106OSM   H18S10788   3.180   2.384   4.718  0.3188  1.3557 -0.7982
  106OSM   H18T10789   3.213   2.345   4.552  1.1409 -2.0391  0.3962
  106OSM   H18U10790   3.287   2.497   4.624 -0.4566  0.6974  0.0390
  106OSM    C1F10791   3.854   2.401   6.258 -0.1183 -0.1547  0.8910
  106OSM     OF10792   3.927   2.347   6.341 -0.1932 -0.5229 -0.2298
  106OSM    C2F10793   3.886   2.530   6.189  0.4729 -0.6981 -0.0951
  106OSM    H2F10794   3.852   2.616   6.250  2.0335  0.2764 -0.5581
  106OSM    H2G10795   3.831   2.538   6.094  3.4543  0.1893 -1.8827
  106OSM    C3F10796   4.035   2.549   6.159 -0.8907  0.6213  0.2840
  106OSM    H3F10797   4.086   2.552   6.258  0.5951  1.5457 -0.4676
  106OSM    H3G10798   4.034   2.650   6.113 -0.0522 -0.0803 -1.3688
  106OSM    C4F10799   4.106   2.458   6.052  0.0357 -0.0638  0.4753
  106OSM    H4F10800   4.057   2.481   5.955 -0.5274  1.6308  1.1316
  106OSM    H4G10801   4.086   2.351   6.074  0.7842 -0.4383 -0.5760
  106OSM    C5F10802   4.261   2.481   6.057 -0.2981  0.7740  0.3704
  106OSM    H5F10803   4.296   2.378   6.036 -0.7780  0.6991 -0.0783
  106OSM    H5G10804   4.286   2.511   6.161  0.2827 -3.6726  1.6896
  106OSM    C6F10805   4.316   2.593   5.965  0.6582 -0.1951  0.3581
  106OSM    H6F10806   4.249   2.681   5.979 -0.3551 -0.9414  0.2729
  106OSM    H6G10807   4.295   2.576   5.858 -0.9318  1.8364  0.2796
  106OSM    C7F10808   4.459   2.621   5.980 -0.1128  0.0374 -1.1269
  106OSM    H7F10809   4.487   2.690   5.897  1.5828 -0.0022 -0.6074
  106OSM    H7G10810   4.512   2.525   5.965 -1.1948 -1.4365  3.1090
  106OSM    C8F10811   4.501   2.679   6.120  0.2814 -0.2732  0.9322
  106OSM    H8F10812   4.476   2.607   6.201  0.5456 -0.7378  0.6043
  106OSM    H8G10813   4.441   2.770   6.143 -0.9569 -1.0708  0.9045
  106OSM    C9F10814   4.653   2.686   6.129 -0.1682 -0.0539  0.2365
  106OSM    H9F10815   4.710   2.592   6.139 -1.5393 -0.9593 -0.2692
  106OSM   C10F10816   4.723   2.796   6.151  0.0952  0.1168  0.8294
  106OSM   H10F10817   4.832   2.796   6.165  0.3625  1.3370 -0.9117
  106OSM   C11F10818   4.672   2.941   6.158 -0.0161  0.3660 -0.1106
  106OSM   H11F10819   4.709   2.990   6.250  2.7009 -0.9952 -0.3512
  106OSM   H11G10820   4.562   2.948   6.148  0.0522 -0.0143 -1.2451
  106OSM   C12F10821   4.737   3.033   6.049 -0.6933  0.5432 -1.0537
  106OSM   H12F10822   4.847   3.021   6.061 -0.6147  0.3735 -1.8523
  106OSM   H12G10823   4.707   3.140   6.058  0.2934  0.6796  1.4094
  106OSM   C13F10824   4.717   2.980   5.909 -0.5724  0.6028 -0.0589
  106OSM   H13F10825   4.607   2.971   5.897 -0.5519  0.7226 -0.3523
  106OSM   H13G10826   4.764   2.880   5.896  1.0076  1.6783 -5.0606
  106OSM   C14F10827   4.789   3.085   5.817 -0.2432  0.2874 -0.2362
  106OSM   H14F10828   4.899   3.070   5.819  0.1261  2.5086 -1.0151
  106OSM   H14G10829   4.768   3.187   5.857 -0.9785  0.0506 -0.0068
  106OSM   C15F10830   4.745   3.060   5.674  0.3222  0.2021  0.4870
  106OSM   H15F10831   4.634   3.071   5.675  0.1305 -0.7327 -2.3707
  106OSM   H15G10832   4.762   2.951   5.661 -1.8328  0.0585 -1.9908
  106OSM   C16F10833   4.808   3.139   5.563 -0.3994  0.4088 -0.1933
  106OSM   H16F10834   4.918   3.126   5.554 -0.5716 -0.5979 -1.0419
  106OSM   H16G10835   4.796   3.249   5.574  0.3722  0.5651 -0.8023
  106OSM   C17F10836   4.757   3.102   5.429 -0.0307  0.3432 -1.0286
  106OSM   H17F10837   4.678   3.172   5.394 -2.3212 -1.1103  0.9569
  106OSM   H17G10838   4.704   3.006   5.444 -0.1380  0.7111  1.2112
  106OSM   C18F10839   4.853   3.083   5.309 -0.3699  0.6355  0.3350
  106OSM   H18F10840   4.801   3.047   5.218  1.0860 -0.8620  0.0525
  106OSM   H18G10841   4.925   3.002   5.330 -1.0222  0.4018  1.7931
  106OSM   H18H10842   4.916   3.172   5.286  1.2046 -0.0783  1.6864
  107OSM      N10843   6.038   1.274   6.798  0.4001  0.2358 -0.2346
  107OSM    C1510844   6.084   1.322   6.929 -0.7033 -1.0658  0.1161
  107OSM   H15A10845   6.020   1.303   7.014  1.8524 -2.7580  1.8082
  107OSM   H15B10846   6.092   1.428   6.912  1.4000 -1.4124 -1.4199
  107OSM   H15C10847   6.181   1.280   6.951  0.1351 -0.3506 -1.9415
  107OSM    C1410848   6.151   1.244   6.703  0.5578 -0.1964 -0.4433
  107OSM   H14A10849   6.229   1.189   6.754  1.3628  0.9354 -0.3947
  107OSM   H14B10850   6.200   1.332   6.664  0.8548  0.8162  2.0247
  107OSM   H14C10851   6.110   1.179   6.628 -1.0155 -2.2109  2.0238
  107OSM    C1310852   5.973   1.139   6.817  0.7633  0.4842  0.6496
  107OSM   H13A10853   5.883   1.162   6.872 -0.7629  1.5340 -2.1310
  107OSM   H13B10854   6.029   1.062   6.868 -0.0256 -1.9777 -1.9758
  107OSM   H13C10855   5.942   1.092   6.725 -0.8525 -2.5244  2.5745
  107OSM    C1210856   5.938   1.371   6.744 -0.1230  0.1317  0.3979
  107OSM   H12A10857   5.999   1.456   6.717 -2.0477  1.1108 -1.0694
  107OSM   H12B10858   5.864   1.410   6.812 -0.9479  1.0081 -0.9405
  107OSM    C1110859   5.849   1.345   6.616  0.0714 -0.1041 -0.6158
  107OSM   H11A10860   5.922   1.320   6.536  0.0113 -0.8505 -0.4395
  107OSM   H11B10861   5.796   1.437   6.584  1.2354  0.3074 -1.4517
  107OSM      P10862   5.628   1.257   6.722 -0.3524  0.3974 -0.1532
  107OSM    O1310863   5.605   1.130   6.795 -0.1016  0.2038 -0.1980
  107OSM    O1410864   5.644   1.380   6.799  0.2951 -0.0688 -0.1848
  107OSM    O1110865   5.520   1.287   6.606 -0.7410 -0.3368 -0.3013
  107OSM    O1210866   5.760   1.235   6.637 -0.0825 -0.3737  0.0720
  107OSM    C1S10867   5.547   1.322   6.471  1.2081 -0.7878 -0.7540
  107OSM    H1S10868   5.651   1.354   6.448  0.6912  2.0870  0.5175
  107OSM    H1T10869   5.485   1.407   6.435  0.3252 -1.0766  0.0361
  107OSM     NF10870   5.564   1.243   6.241  0.2104  0.1496 -0.0796
  107OSM    HNF10871   5.515   1.311   6.187 -1.3503  0.3474  1.5082
  107OSM    C2S10872   5.514   1.206   6.374  0.5362 -0.2935 -0.1942
  107OSM    H2S10873   5.570   1.122   6.420  1.6050 -0.7456 -2.2022
  107OSM    C3S10874   5.368   1.179   6.370 -0.2091 -0.4047  0.1665
  107OSM    H3S10875   5.325   1.280   6.352  0.4739 -0.0825  0.3180
  107OSM     O310876   5.303   1.125   6.488  0.0935 -0.1927  0.5087
  107OSM    HO310877   5.371   1.142   6.554 -0.7920 -0.2665  1.4776
  107OSM    C4S10878   5.328   1.086   6.258 -0.5831  0.4924 -0.4070
  107OSM    H4S10879   5.346   1.136   6.161  1.7426 -1.8177 -1.3013
  107OSM    C5S10880   5.307   0.951   6.260 -0.4293 -0.0486  0.4708
  107OSM    H5S10881   5.317   0.903   6.359  2.4690 -1.7256 -0.5194
  107OSM    C6S10882   5.296   0.856   6.142  0.6513 -0.1506 -0.0574
  107OSM    H6S10883   5.204   0.795   6.156 -0.9243  2.1079  0.0745
  107OSM    H6T10884   5.370   0.776   6.161  1.1515 -0.1218 -1.7028
  107OSM    C7S10885   5.319   0.915   6.000  0.2665  0.6202  0.0266
  107OSM    H7S10886   5.423   0.956   6.000  0.4983  0.0670  0.9976
  107OSM    H7T10887   5.250   1.001   5.984  0.3694  0.4241 -1.6305
  107OSM    C8S10888   5.300   0.828   5.876 -0.4994 -0.0632 -0.2939
  107OSM    H8S10889   5.195   0.791   5.879 -0.2415 -0.8458 -0.6658
  107OSM    H8T10890   5.369   0.742   5.889  0.3706  0.5977 -0.4998
  107OSM    C9S10891   5.326   0.898   5.746 -0.1313 -0.3860  0.4801
  107OSM    H9S10892   5.417   0.960   5.759 -0.1461 -0.0415 -0.8618
  107OSM    H9T10893   5.248   0.974   5.725  3.0482  3.0216 -0.1288
  107OSM   C10S10894   5.346   0.807   5.630  0.2004 -0.1616  0.2457
  107OSM   H10S10895   5.246   0.762   5.609  0.0137  0.1561  0.4415
  107OSM   H10T10896   5.421   0.731   5.660  1.3311  2.1622  4.0476
  107OSM   C11S10897   5.388   0.872   5.497 -0.1873  0.7011  0.2253
  107OSM   H11S10898   5.487   0.913   5.525  1.1599 -1.9915 -0.2622
  107OSM   H11T10899   5.324   0.957   5.465 -1.4436 -0.5775 -0.8367
  107OSM   C12S10900   5.415   0.764   5.385 -0.3314 -0.0339  0.4649
  107OSM   H12S10901   5.320   0.724   5.342 -1.4653  1.8591  1.0650
  107OSM   H12T10902   5.462   0.678   5.438 -0.7964 -0.0582  0.8464
  107OSM   C13S10903   5.521   0.805   5.281  0.1986 -0.8062 -0.1037
  107OSM   H13S10904   5.618   0.792   5.333 -0.0129 -1.2324  0.1869
  107OSM   H13T10905   5.516   0.910   5.243 -2.4458  0.1203  2.3657
  107OSM   C14S10906   5.524   0.727   5.152 -0.2457 -0.3628  0.0297
  107OSM   H14S10907   5.510   0.619   5.176 -3.2558 -0.7609 -2.8534
  107OSM   H14T10908   5.628   0.730   5.112 -0.0643 -0.8485  0.4537
  107OSM   C15S10909   5.413   0.766   5.053  0.1342  0.1066 -0.1852
  107OSM   H15S10910   5.412   0.875   5.032 -2.1734  0.0071 -0.8733
  107OSM   H15T10911   5.317   0.748   5.106  1.1704  0.4818  1.9225
  107OSM   C16S10912   5.421   0.705   4.913 -0.3989  0.4939 -0.2117
  107OSM   H16S10913   5.497   0.745   4.842 -0.2989 -0.0426 -0.4153
  107OSM   H16T10914   5.324   0.734   4.867 -0.4848 -0.6284 -0.7696
  107OSM   C17S10915   5.436   0.554   4.914  0.0165 -0.6149  0.3644
  107OSM   H17S10916   5.350   0.509   4.861  0.0514 -0.1428 -0.0949
  107OSM   H17T10917   5.443   0.515   5.018  1.6755  0.9879  0.9089
  107OSM   C18S10918   5.563   0.521   4.836  0.0150 -0.3420 -0.5843
  107OSM   H18S10919   5.557   0.561   4.733 -0.1697  1.6382  0.1695
  107OSM   H18T10920   5.574   0.410   4.825 -0.2761 -0.5686  1.1185
  107OSM   H18U10921   5.644   0.570   4.895 -2.0232  2.4070  0.0929
  107OSM    C1F10922   5.695   1.212   6.220 -0.0418 -0.6304  0.0877
  107OSM     OF10923   5.767   1.147   6.304 -0.2975  0.3325 -0.3415
  107OSM    C2F10924   5.763   1.262   6.094  0.5825 -0.3145  0.0798
  107OSM    H2F10925   5.710   1.352   6.054 -2.6148 -2.4667 -0.9609
  107OSM    H2G10926   5.735   1.177   6.028  1.1851 -0.2664 -0.2394
  107OSM    C3F10927   5.914   1.282   6.117 -0.5382 -0.2728  0.1177
  107OSM    H3F10928   5.971   1.189   6.138  1.9094  1.2034  0.4188
  107OSM    H3G10929   5.934   1.343   6.208 -0.2100 -1.0195  0.5557
  107OSM    C4F10930   5.979   1.359   5.991 -0.2178 -0.5831 -0.4147
  107OSM    H4F10931   6.080   1.382   6.030 -0.9313  1.7702  0.2245
  107OSM    H4G10932   5.928   1.455   5.968  1.8920  0.7944  0.3957
  107OSM    C5F10933   5.982   1.277   5.872 -0.0756  0.6516  0.4871
  107OSM    H5F10934   5.886   1.245   5.826  0.0348  0.0766  0.6414
  107OSM    H5G10935   6.035   1.183   5.902 -0.4332  0.5837  0.9074
  107OSM    C6F10936   6.055   1.355   5.761 -0.3774  0.8994  0.8316
  107OSM    H6F10937   6.095   1.281   5.689 -2.6325 -0.9523  1.3511
  107OSM    H6G10938   6.141   1.408   5.807  1.6486 -0.5505 -1.0659
  107OSM    C7F10939   5.967   1.456   5.689 -0.0532  0.3482  0.5203
  107OSM    H7F10940   5.917   1.529   5.756 -1.3586 -0.6559  0.6922
  107OSM    H7G10941   5.879   1.397   5.653  0.6971 -0.3122 -0.2707
  107OSM    C8F10942   6.026   1.530   5.572  0.3507  0.3902 -0.2422
  107OSM    H8F10943   6.069   1.455   5.502 -0.3076 -0.5275  0.3089
  107OSM    H8G10944   6.104   1.603   5.600  0.2261  1.5643 -2.7280
  107OSM    C9F10945   5.926   1.612   5.499  0.1701 -0.1847  0.6514
  107OSM    H9F10946   5.875   1.688   5.559 -1.1634 -0.6558  0.1498
  107OSM   C10F10947   5.895   1.616   5.367  0.8827 -0.2266  0.5361
  107OSM   H10F10948   5.816   1.685   5.333  1.5245 -0.9698 -2.8624
  107OSM   C11F10949   5.943   1.526   5.256  0.0406  0.4155  0.1410
  107OSM   H11F10950   5.867   1.517   5.176 -0.8263  0.0514  0.9934
  107OSM   H11G10951   5.940   1.420   5.290 -0.7284  0.1361 -0.7653
  107OSM   C12F10952   6.081   1.568   5.199 -0.2669  0.6052  0.3886
  107OSM   H12F10953   6.110   1.497   5.119 -1.7474  0.4120  0.0140
  107OSM   H12G10954   6.145   1.544   5.288 -2.2455 -2.6835  1.0868
  107OSM   C13F10955   6.101   1.714   5.147  0.5367  0.1331  0.0358
  107OSM   H13F10956   6.206   1.731   5.115  0.7942 -0.2036  0.6892
  107OSM   H13G10957   6.074   1.792   5.222 -1.4928  0.7373 -1.2443
  107OSM   C14F10958   6.011   1.741   5.027 -0.9033  0.3212  0.1237
  107OSM   H14F10959   5.904   1.741   5.057 -2.5484  0.2965 -4.7613
  107OSM   H14G10960   6.026   1.664   4.948 -0.7457  0.4374  0.0392
  107OSM   C15F10961   6.036   1.879   4.966  0.0632  0.2545 -0.9116
  107OSM   H15F10962   6.140   1.915   4.982 -0.5353  1.3571  0.7021
  107OSM   H15G10963   5.985   1.959   5.024  0.7708 -0.8764  1.3836
  107OSM   C16F10964   6.013   1.884   4.819  0.1882 -0.0916 -0.0627
  107OSM   H16F10965   5.911   1.850   4.793  0.4925 -0.6743 -0.5321
  107OSM   H16G10966   6.081   1.819   4.760  2.4937  1.8733  0.2648
  107OSM   C17F10967   6.017   2.029   4.759  0.4698 -0.3448 -0.2497
  107OSM   H17F10968   5.919   2.073   4.789 -0.4717 -3.1356  1.1940
  107OSM   H17G10969   6.000   2.011   4.651 -2.9923 -1.3498  0.3247
  107OSM   C18F10970   6.133   2.113   4.806  0.8337  0.0253  0.8637
  107OSM   H18F10971   6.148   2.123   4.916  2.5008  1.3337  0.5591
  107OSM   H18G10972   6.120   2.218   4.772 -3.6609 -1.3383 -2.5268
  107OSM   H18H10973   6.233   2.076   4.777 -0.0272 -0.1243 -2.2663
  108OSM      N10974   0.638   2.865   6.998  0.4848  0.3371  0.3077
  108OSM    C1510975   0.617   2.748   7.087 -1.1060 -0.8773  0.1527
  108OSM   H15A10976   0.515   2.714   7.085 -0.3843 -3.2536 -3.1896
  108OSM   H15B10977   0.643   2.776   7.188  0.5758  0.1129 -0.5108
  108OSM   H15C10978   0.672   2.660   7.060  0.6046  0.7232 -1.9502
  108OSM    C1410979   0.532   2.967   7.028 -0.3487  0.2434 -0.4377
  108OSM   H14A10980   0.436   2.924   7.005 -0.7945  1.2879 -0.5947
  108OSM   H14B10981   0.550   3.060   6.976  1.1253  1.0307  1.4081
  108OSM   H14C10982   0.534   2.983   7.134  0.4347  0.9418 -0.5453
  108OSM    C1310983   0.770   2.935   7.021  0.0271 -0.5420  0.0103
  108OSM   H13A10984   0.858   2.872   7.018  0.5916  0.2792 -1.7364
  108OSM   H13B10985   0.770   2.992   7.112 -0.5978  0.2561 -0.4756
  108OSM   H13C10986   0.787   3.000   6.936 -2.6406 -0.2687 -0.3954
  108OSM    C1210987   0.627   2.808   6.855  0.3172  0.2647  0.2245
  108OSM   H12A10988   0.639   2.889   6.785  3.0527  0.0049  0.3192
  108OSM   H12B10989   0.534   2.752   6.847  1.9438 -2.5029 -0.5675
  108OSM    C1110990   0.738   2.713   6.807 -0.2574  0.1771 -0.0684
  108OSM   H11A10991   0.841   2.750   6.827  0.5864 -1.1850 -1.5832
  108OSM   H11B10992   0.737   2.713   6.696  1.8183  2.9029 -0.1915
  108OSM      P10993   0.607   2.487   6.830 -0.7376  0.1043 -0.4694
  108OSM    O1310994   0.621   2.365   6.908  0.3343  0.4518  0.5584
  108OSM    O1410995   0.475   2.555   6.826  0.1127 -0.1860 -0.3171
  108OSM    O1110996   0.641   2.447   6.677  0.9572 -0.1437  0.4381
  108OSM    O1210997   0.729   2.587   6.873 -0.4459 -0.1938 -0.0058
  108OSM    C1S10998   0.772   2.409   6.636  0.1816  0.0831 -0.1062
  108OSM    H1S10999   0.799   2.313   6.685  0.7460  1.1469  1.7614
  108OSM    H1T11000   0.852   2.482   6.663  0.1107 -0.1907  0.8845
  108OSM     NF11001   0.896   2.321   6.447 -0.5809  0.3353 -0.8156
  108OSM    HNF11002   0.974   2.366   6.403  0.0849 -0.0487 -0.0578
  108OSM    C2S11003   0.779   2.401   6.479  0.0120  0.6407 -0.1720
  108OSM    H2S11004   0.693   2.345   6.438  2.8866 -1.7908 -3.5310
  108OSM    C3S11005   0.768   2.538   6.408 -0.4125 -0.7948 -0.3460
  108OSM    H3S11006   0.859   2.592   6.443 -2.0351  2.1409 -0.2934
  108OSM     O311007   0.666   2.617   6.460  0.4598  0.6318 -0.2374
  108OSM    HO311008   0.617   2.562   6.521  1.0395  0.1214 -0.2161
  108OSM    C4S11009   0.783   2.528   6.257  0.0373  0.4380 -0.2463
  108OSM    H4S11010   0.881   2.564   6.222 -0.7742  2.7760 -0.2348
  108OSM    C5S11011   0.701   2.487   6.157  0.0710  0.4028  0.2745
  108OSM    H5S11012   0.606   2.441   6.185  0.9730 -0.3283  2.2635
  108OSM    C6S11013   0.740   2.475   6.011 -0.1174  0.0237 -0.4607
  108OSM    H6S11014   0.715   2.376   5.968  1.2762 -0.0274 -1.2144
  108OSM    H6T11015   0.850   2.484   5.993  0.5515 -1.8785  2.1795
  108OSM    C7S11016   0.694   2.578   5.909  0.2423  0.0955 -0.7376
  108OSM    H7S11017   0.720   2.683   5.936 -0.5789  0.6066 -1.8131
  108OSM    H7T11018   0.583   2.575   5.915  0.2463 -2.9946 -0.4985
  108OSM    C8S11019   0.725   2.539   5.763  0.0684 -0.4022  0.5321
  108OSM    H8S11020   0.656   2.593   5.695 -0.7735 -0.3092  1.4452
  108OSM    H8T11021   0.718   2.428   5.758  1.7273 -0.5526  0.7683
  108OSM    C9S11022   0.870   2.577   5.726 -0.2314 -0.1284 -0.5095
  108OSM    H9S11023   0.941   2.530   5.796  1.3103  0.6449 -1.5051
  108OSM    H9T11024   0.882   2.685   5.752 -0.9792 -0.0536 -0.4407
  108OSM   C10S11025   0.892   2.554   5.579  0.2824 -0.0501  0.4980
  108OSM   H10S11026   0.840   2.469   5.530  1.6432  0.3511 -1.7556
  108OSM   H10T11027   1.000   2.551   5.555 -0.0451 -1.3341 -0.9886
  108OSM   C11S11028   0.849   2.668   5.483 -0.3272  0.8868 -0.5081
  108OSM   H11S11029   0.903   2.759   5.517 -0.9395  1.8316 -2.0143
  108OSM   H11T11030   0.742   2.695   5.484 -0.9089 -1.1835  0.9006
  108OSM   C12S11031   0.893   2.658   5.336 -0.1085 -0.3087  0.2574
  108OSM   H12S11032   0.846   2.562   5.304 -2.2269  0.8419 -0.3140
  108OSM   H12T11033   1.003   2.653   5.325 -0.1801 -0.6084 -0.3562
  108OSM   C13S11034   0.837   2.771   5.257 -0.0795 -0.4863  0.4523
  108OSM   H13S11035   0.869   2.868   5.300  1.6116 -0.9251  0.2741
  108OSM   H13T11036   0.727   2.763   5.251  0.1069 -2.5275 -2.0045
  108OSM   C14S11037   0.886   2.777   5.107 -0.3298  0.4727 -0.3751
  108OSM   H14S11038   0.854   2.680   5.063 -1.7019 -0.0719  1.6606
  108OSM   H14T11039   0.996   2.783   5.101 -0.0829  0.3588  2.4719
  108OSM   C15S11040   0.834   2.889   5.020 -0.5882 -0.1148  0.4078
  108OSM   H15S11041   0.726   2.875   4.999 -0.7470 -1.1223  1.6997
  108OSM   H15T11042   0.880   2.882   4.919 -2.3511  1.5896 -0.5745
  108OSM   C16S11043   0.877   3.026   5.070 -0.0284  0.1425 -0.3521
  108OSM   H16S11044   0.985   3.022   5.096 -0.0916 -0.6521 -0.1881
  108OSM   H16T11045   0.820   3.041   5.165  0.7356 -0.4847  0.2121
  108OSM   C17S11046   0.853   3.131   4.972 -0.0976  0.0006  0.2071
  108OSM   H17S11047   0.789   3.080   4.897 -1.2451 -1.5946  2.1567
  108OSM   H17T11048   0.946   3.155   4.916  1.7800 -1.0509  2.6853
  108OSM   C18S11049   0.789   3.258   5.020  0.4387 -0.1829 -0.0240
  108OSM   H18S11050   0.695   3.229   5.073  1.0550 -1.9561  0.1484
  108OSM   H18T11051   0.777   3.334   4.940 -2.3020  2.3244  2.4561
  108OSM   H18U11052   0.843   3.305   5.105  1.6459 -1.6551  0.0615
  108OSM    C1F11053   0.894   2.189   6.464 -0.0940 -0.3168 -0.2386
  108OSM     OF11054   0.796   2.132   6.512  0.6140 -0.4706 -0.0830
  108OSM    C2F11055   1.017   2.118   6.425 -0.6723 -0.3493 -0.5193
  108OSM    H2F11056   1.070   2.085   6.517 -0.2392  1.2093 -0.1843
  108OSM    H2G11057   1.075   2.187   6.360 -1.2173  1.0532  0.4508
  108OSM    C3F11058   0.985   1.984   6.351  0.0420 -0.1196  0.4810
  108OSM    H3F11059   0.950   1.921   6.435 -1.7283  2.0081  1.4590
  108OSM    H3G11060   1.077   1.945   6.304  0.5657  1.3387  0.2468
  108OSM    C4F11061   0.876   1.994   6.241  0.0398  0.6886 -0.7092
  108OSM    H4F11062   0.794   2.054   6.285  1.2367  2.0492 -0.2304
  108OSM    H4G11063   0.845   1.889   6.223  0.1180  0.3549  0.9084
  108OSM    C5F11064   0.924   2.050   6.110 -0.8268 -0.0944 -0.0368
  108OSM    H5F11065   1.021   2.000   6.091 -1.7094 -1.9985  0.3180
  108OSM    H5G11066   0.955   2.157   6.116  0.7987 -0.6201  1.5536
  108OSM    C6F11067   0.821   2.038   6.001 -0.1871 -0.5238  0.7439
  108OSM    H6F11068   0.738   2.108   6.022 -1.1531 -0.7919 -1.8388
  108OSM    H6G11069   0.772   1.939   5.995 -0.4244 -0.3571 -0.2139
  108OSM    C7F11070   0.885   2.088   5.868  0.1635  0.2486 -0.7700
  108OSM    H7F11071   0.966   2.015   5.845 -0.9372 -1.1167 -0.4603
  108OSM    H7G11072   0.906   2.196   5.881 -1.5333  0.4102  1.0429
  108OSM    C8F11073   0.791   2.073   5.751 -0.3642  0.3420  0.6018
  108OSM    H8F11074   0.830   2.140   5.673 -0.8757 -0.3716 -0.2902
  108OSM    H8G11075   0.695   2.116   5.787 -0.7553  0.2735 -0.3265
  108OSM    C9F11076   0.773   1.933   5.696  0.5897  0.1479 -0.0389
  108OSM    H9F11077   0.758   1.858   5.775 -0.4981  0.4155  0.0128
  108OSM   C10F11078   0.756   1.897   5.561 -0.3955  0.6296  0.0300
  108OSM   H10F11079   0.742   1.793   5.529  1.4502 -0.1579  1.5836
  108OSM   C11F11080   0.795   1.981   5.447  0.0433 -0.2349  0.1072
  108OSM   H11F11081   0.895   1.939   5.423 -0.0053 -1.6548  2.0982
  108OSM   H11G11082   0.793   2.090   5.468 -0.8510  0.0199 -1.1906
  108OSM   C12F11083   0.700   1.959   5.330  0.6803 -0.0016  0.7716
  108OSM   H12F11084   0.600   1.998   5.359  0.8606  0.2056  1.1303
  108OSM   H12G11085   0.697   1.849   5.316  0.9773 -0.4774  3.7787
  108OSM   C13F11086   0.764   2.019   5.201 -0.1139 -0.1406  0.1081
  108OSM   H13F11087   0.855   1.958   5.182 -0.1718 -0.4100  0.6824
  108OSM   H13G11088   0.786   2.125   5.221 -0.0988 -0.1397  0.0871
  108OSM   C14F11089   0.673   2.007   5.078  0.8453  0.4846  0.1815
  108OSM   H14F11090   0.571   2.050   5.090  0.0043 -1.8264  2.0022
  108OSM   H14G11091   0.661   1.897   5.070  0.8384  0.4989 -0.0122
  108OSM   C15F11092   0.735   2.070   4.951  0.3394 -0.3631 -0.2973
  108OSM   H15F11093   0.845   2.053   4.944  0.3972  0.0568 -0.4092
  108OSM   H15G11094   0.731   2.180   4.938  0.6981 -0.1775  0.9797
  108OSM   C16F11095   0.659   2.025   4.826 -0.3205  0.1222  0.8116
  108OSM   H16F11096   0.556   2.064   4.834 -0.7839 -1.0341  0.7548
  108OSM   H16G11097   0.644   1.915   4.828 -2.5637  0.3017 -1.3157
  108OSM   C17F11098   0.727   2.061   4.681  0.3157 -0.1407 -1.0643
  108OSM   H17F11099   0.717   2.172   4.677  1.8315  0.0009 -1.6845
  108OSM   H17G11100   0.659   2.020   4.604  2.0511 -3.0645 -1.1512
  108OSM   C18F11101   0.873   2.025   4.651  0.2008  0.0247 -0.5020
  108OSM   H18F11102   0.952   2.067   4.717  0.9694 -1.6651 -0.2829
  108OSM   H18G11103   0.887   2.055   4.545 -0.3517  0.7224 -0.3811
  108OSM   H18H11104   0.882   1.915   4.662  1.5787 -0.0594 -2.0290
  109OSM      N11105   3.716   2.693   6.756  0.1923  0.6455  0.3489
  109OSM    C1511106   3.572   2.731   6.783  0.1854  0.0478  0.3560
  109OSM   H15A11107   3.552   2.831   6.746  2.3087  0.7945  1.0402
  109OSM   H15B11108   3.547   2.725   6.888  1.5735 -0.4506  0.6819
  109OSM   H15C11109   3.508   2.672   6.719  0.6242  0.9832 -1.0035
  109OSM    C1411110   3.817   2.772   6.830 -0.2038  0.3067 -0.7685
  109OSM   H14A11111   3.917   2.743   6.800 -0.2955  0.6079 -1.3696
  109OSM   H14B11112   3.797   2.758   6.935  1.4444 -1.1879 -0.6039
  109OSM   H14C11113   3.797   2.875   6.804 -2.6647  0.9061  2.8012
  109OSM    C1311114   3.737   2.547   6.813  0.8446 -0.0435 -0.3650
  109OSM   H13A11115   3.687   2.476   6.748 -3.6211  2.3229  0.1330
  109OSM   H13B11116   3.709   2.540   6.917  0.4824 -1.3883 -0.5307
  109OSM   H13C11117   3.843   2.525   6.809  1.4203  1.6928  2.7464
  109OSM    C1211118   3.746   2.686   6.611 -0.4041  0.3892  0.2597
  109OSM   H12A11119   3.850   2.656   6.617 -0.5457 -0.0365  0.6686
  109OSM   H12B11120   3.749   2.781   6.560 -0.3180  0.1709 -0.1455
  109OSM    C1111121   3.662   2.590   6.521  0.1946 -0.2263  0.5132
  109OSM   H11A11122   3.649   2.490   6.568 -1.1548  0.3745  1.4531
  109OSM   H11B11123   3.721   2.584   6.427 -1.1419 -0.2943 -0.3373
  109OSM      P11124   3.406   2.592   6.466  0.1338  0.0194  0.6061
  109OSM    O1311125   3.399   2.467   6.539 -0.1688 -0.2993 -0.4311
  109OSM    O1411126   3.294   2.685   6.496 -0.9982 -0.0567  0.5902
  109OSM    O1111127   3.395   2.556   6.316 -0.2923  0.6036 -0.0215
  109OSM    O1211128   3.542   2.662   6.490 -0.0967 -0.3832  0.3077
  109OSM    C1S11129   3.462   2.630   6.209 -0.2383  0.6135  0.2550
  109OSM    H1S11130   3.568   2.597   6.210  0.2896  2.1509 -0.3744
  109OSM    H1T11131   3.467   2.739   6.232  1.7555 -0.0531  3.7570
  109OSM     NF11132   3.481   2.651   5.966  0.5556  0.0509 -0.4384
  109OSM    HNF11133   3.465   2.736   5.917 -0.0000 -0.4347 -1.1334
  109OSM    C2S11134   3.389   2.620   6.072  0.6600 -0.3089  0.0661
  109OSM    H2S11135   3.354   2.515   6.062 -0.6174  0.3320 -4.0992
  109OSM    C3S11136   3.260   2.714   6.073  0.1636 -0.1627  0.1520
  109OSM    H3S11137   3.314   2.810   6.083 -1.2371  0.4857  2.0069
  109OSM     O311138   3.176   2.701   6.180 -0.2417  0.4242  0.3534
  109OSM    HO311139   3.227   2.645   6.239  0.5108  0.3250 -0.3811
  109OSM    C4S11140   3.183   2.711   5.945 -0.0817 -0.7611  0.0844
  109OSM    H4S11141   3.182   2.803   5.885 -0.5620 -0.1792  0.9609
  109OSM    C5S11142   3.105   2.608   5.909  0.2461  0.3811 -0.1330
  109OSM    H5S11143   3.107   2.516   5.968  0.7281  0.0694 -0.6275
  109OSM    C6S11144   3.015   2.601   5.789  0.0450  0.3517  0.1730
  109OSM    H6S11145   2.914   2.607   5.835 -0.9169 -2.2338 -1.4033
  109OSM    H6T11146   3.025   2.501   5.741 -2.6066 -0.4041  0.9915
  109OSM    C7S11147   3.024   2.710   5.682  0.7367 -1.1921  0.3466
  109OSM    H7S11148   3.126   2.733   5.644  0.0627  1.2767 -0.1712
  109OSM    H7T11149   2.976   2.798   5.731 -2.6028 -2.7294  0.1068
  109OSM    C8S11150   2.954   2.664   5.553  0.1748  0.3922 -0.4751
  109OSM    H8S11151   2.850   2.631   5.572  0.9660 -2.1166 -0.2178
  109OSM    H8T11152   3.005   2.574   5.514 -0.5076 -1.3597  2.3956
  109OSM    C9S11153   2.947   2.765   5.432 -0.0889  0.2016 -0.6006
  109OSM    H9S11154   3.043   2.818   5.418 -1.0924  1.8568 -1.5651
  109OSM    H9T11155   2.870   2.838   5.466 -0.2450 -0.4715  0.5534
  109OSM   C10S11156   2.905   2.698   5.305  0.0794  0.0048  0.2633
  109OSM   H10S11157   2.810   2.643   5.320  0.6479 -2.1218 -2.8443
  109OSM   H10T11158   2.976   2.622   5.267 -1.1867  0.4295 -3.3376
  109OSM   C11S11159   2.879   2.803   5.197  1.1485 -1.1805  0.7205
  109OSM   H11S11160   2.976   2.822   5.146  1.7800  0.7783  2.5285
  109OSM   H11T11161   2.856   2.899   5.248  1.3052 -1.2876  0.9950
  109OSM   C12S11162   2.761   2.766   5.100  0.2683  0.6672 -0.3509
  109OSM   H12S11163   2.675   2.723   5.155  2.0948 -0.6699  1.6648
  109OSM   H12T11164   2.802   2.687   5.034  1.9062  0.9243  0.2933
  109OSM   C13S11165   2.708   2.892   5.026 -0.7750 -0.3005  0.4363
  109OSM   H13S11166   2.682   2.984   5.083 -1.8970 -0.1761 -0.2276
  109OSM   H13T11167   2.622   2.857   4.964 -1.5805 -0.1288  1.4184
  109OSM   C14S11168   2.816   2.938   4.931  0.0078  0.2539  0.7872
  109OSM   H14S11169   2.875   2.847   4.905 -2.3966 -1.9881  2.5455
  109OSM   H14T11170   2.875   3.021   4.974  1.0673  0.2248 -0.5443
  109OSM   C15S11171   2.747   2.984   4.807 -0.3283  0.3777 -0.3833
  109OSM   H15S11172   2.681   3.071   4.830 -0.9601 -0.5956  1.6512
  109OSM   H15T11173   2.681   2.902   4.773  0.9102 -1.1423  0.7767
  109OSM   C16S11174   2.829   3.005   4.679  0.5147 -0.0806  0.5139
  109OSM   H16S11175   2.865   2.903   4.655 -2.3821 -0.8748 -0.8770
  109OSM   H16T11176   2.912   3.073   4.709 -0.2950  1.7738 -1.2554
  109OSM   C17S11177   2.756   3.059   4.555 -0.4008 -0.4984  0.0253
  109OSM   H17S11178   2.737   3.165   4.582 -1.3124 -0.8925  0.9857
  109OSM   H17T11179   2.654   3.014   4.550 -2.0125  2.6828  1.4685
  109OSM   C18S11180   2.837   3.044   4.426  0.2868 -0.1478  0.2604
  109OSM   H18S11181   2.767   3.046   4.340 -0.0659  0.9743  0.5633
  109OSM   H18T11182   2.886   2.944   4.418  1.6721  0.5027  0.2758
  109OSM   H18U11183   2.920   3.113   4.401 -0.0424 -0.5252 -2.0889
  109OSM    C1F11184   3.584   2.573   5.935 -0.3422  0.8275  0.4333
  109OSM     OF11185   3.611   2.472   6.003  0.1887  0.0726  0.1417
  109OSM    C2F11186   3.665   2.626   5.818 -0.1643  0.5924 -0.2256
  109OSM    H2F11187   3.725   2.712   5.853  0.9905 -0.5063  0.5979
  109OSM    H2G11188   3.598   2.657   5.735 -2.0141 -0.2823  0.8772
  109OSM    C3F11189   3.750   2.510   5.762 -0.3510 -0.2396 -0.0065
  109OSM    H3F11190   3.673   2.436   5.729 -0.2049  0.5553 -2.3021
  109OSM    H3G11191   3.812   2.466   5.843  0.6347  0.1170 -0.5434
  109OSM    C4F11192   3.836   2.548   5.645  0.8870 -0.4200 -0.1221
  109OSM    H4F11193   3.890   2.453   5.627  2.3747  0.0940  1.3439
  109OSM    H4G11194   3.917   2.614   5.683  0.8284  0.1915 -1.0385
  109OSM    C5F11195   3.767   2.603   5.519 -0.5429  0.2620 -0.7187
  109OSM    H5F11196   3.717   2.694   5.559 -0.1459 -1.2121  3.6251
  109OSM    H5G11197   3.687   2.532   5.490 -0.6869 -0.5146  1.4353
  109OSM    C6F11198   3.867   2.639   5.407 -0.0736 -0.1798 -0.1782
  109OSM    H6F11199   3.908   2.546   5.362 -1.1116 -0.5294 -0.4354
  109OSM    H6G11200   3.946   2.701   5.456 -0.1849 -0.1736 -0.0054
  109OSM    C7F11201   3.812   2.730   5.295  0.0868  0.1648 -0.5127
  109OSM    H7F11202   3.761   2.659   5.226  1.0626 -0.5214 -0.5467
  109OSM    H7G11203   3.907   2.762   5.246  0.5329 -2.7419 -1.7820
  109OSM    C8F11204   3.725   2.848   5.343  0.1403 -0.8427  0.3984
  109OSM    H8F11205   3.780   2.915   5.412 -0.1097 -0.2202  0.0009
  109OSM    H8G11206   3.634   2.805   5.389  1.1530 -4.2455 -0.5016
  109OSM    C9F11207   3.686   2.922   5.212  0.6815 -0.1603  0.6365
  109OSM    H9F11208   3.642   2.858   5.133  0.0310 -0.1534  0.9944
  109OSM   C10F11209   3.727   3.040   5.174  0.1482 -0.4035  0.2620
  109OSM   H10F11210   3.692   3.083   5.079 -0.3596 -0.0140  0.6136
  109OSM   C11F11211   3.815   3.135   5.248  0.4215 -0.0330 -0.2472
  109OSM   H11F11212   3.816   3.113   5.357 -1.7608 -3.5667 -0.7948
  109OSM   H11G11213   3.776   3.238   5.230 -0.2999 -0.4714 -1.2735
  109OSM   C12F11214   3.968   3.142   5.188  0.0171  0.0839  0.2748
  109OSM   H12F11215   4.014   3.046   5.221  1.2396  0.8753  0.9868
  109OSM   H12G11216   4.029   3.220   5.239 -1.0552  1.2946 -0.2448
  109OSM   C13F11217   3.978   3.154   5.037 -0.0119  0.1004 -0.1689
  109OSM   H13F11218   3.930   3.253   5.022  3.1312  1.8385  0.3311
  109OSM   H13G11219   3.922   3.071   4.989  2.9477 -1.3671 -1.3386
  109OSM   C14F11220   4.125   3.161   4.979  0.2315 -0.3764  0.1135
  109OSM   H14F11221   4.184   3.080   5.024  1.1853 -0.4555 -1.2064
  109OSM   H14G11222   4.167   3.260   5.009  0.0157 -0.6304  1.2902
  109OSM   C15F11223   4.147   3.141   4.829 -0.3827 -0.0823  0.7588
  109OSM   H15F11224   4.107   3.221   4.763  0.3855  1.3164  1.9349
  109OSM   H15G11225   4.097   3.046   4.799  1.6082 -0.9098 -0.0803
  109OSM   C16F11226   4.293   3.138   4.791 -0.3236  0.3106 -1.3681
  109OSM   H16F11227   4.354   3.065   4.848  0.6241  2.0819 -0.0031
  109OSM   H16G11228   4.332   3.241   4.810 -1.0702  0.5289 -0.9945
  109OSM   C17F11229   4.304   3.117   4.641  0.3829  0.4492 -0.3242
  109OSM   H17F11230   4.258   3.182   4.563 -0.6440 -1.3453 -1.2875
  109OSM   H17G11231   4.259   3.017   4.623 -1.2510  0.9680  0.7174
  109OSM   C18F11232   4.456   3.118   4.600  0.2386 -0.2511 -0.1027
  109OSM   H18F11233   4.503   3.213   4.631 -3.3092  1.2632  1.2237
  109OSM   H18G11234   4.475   3.103   4.491 -2.6129  0.5539 -0.7928
  109OSM   H18H11235   4.511   3.039   4.655  0.1723  1.7009  2.9683
  110OSM      N11236   0.573   0.657   7.067  0.0112  0.0065  0.2713
  110OSM    C1511237   0.626   0.792   7.020 -0.3624  0.4761  0.8882
  110OSM   H15A11238   0.553   0.865   6.991 -1.6712 -0.6605  1.1747
  110OSM   H15B11239   0.706   0.784   6.948  2.9085  1.1878  4.1459
  110OSM   H15C11240   0.673   0.835   7.107  0.4340  1.3542  0.0444
  110OSM    C1411241   0.488   0.684   7.180 -0.1805 -0.3097 -0.5825
  110OSM   H14A11242   0.535   0.694   7.277 -1.2107 -2.8950  0.2678
  110OSM   H14B11243   0.425   0.597   7.193 -0.5592  0.3048  2.3980
  110OSM   H14C11244   0.421   0.769   7.172 -0.6439 -0.4878  1.0058
  110OSM    C1311245   0.486   0.595   6.964  0.1294 -0.3101 -0.1620
  110OSM   H13A11246   0.394   0.652   6.956 -1.2952 -2.5433 -0.4205
  110OSM   H13B11247   0.456   0.495   6.990  1.2972 -0.9850 -1.2759
  110OSM   H13C11248   0.529   0.597   6.865  0.0808  0.3341 -0.1752
  110OSM    C1211249   0.690   0.564   7.104  0.2363 -0.3864  0.6351
  110OSM   H12A11250   0.643   0.475   7.143 -1.8763 -0.4342 -1.7688
  110OSM   H12B11251   0.755   0.608   7.178 -0.6445  2.5360 -0.1618
  110OSM    C1111252   0.785   0.520   6.987  0.3209  0.6369 -0.1164
  110OSM   H11A11253   0.718   0.480   6.908 -1.0965 -0.2702  1.4763
  110OSM   H11B11254   0.846   0.434   7.020  1.4646  1.6168  0.3942
  110OSM      P11255   1.014   0.643   6.979  0.2649  0.0520  0.0968
  110OSM    O1311256   1.060   0.778   6.946  0.5504  0.2143  0.3579
  110OSM    O1411257   1.025   0.598   7.119  0.0195 -0.3016  0.0183
  110OSM    O1111258   1.085   0.537   6.896 -0.1081 -0.5048  0.1804
  110OSM    O1211259   0.871   0.620   6.932  0.0376 -0.3272 -0.0764
  110OSM    C1S11260   1.020   0.448   6.807 -0.1739  0.5946  0.5592
  110OSM    H1S11261   0.934   0.493   6.753 -0.7836  0.0942  1.0943
  110OSM    H1T11262   0.982   0.363   6.868  0.5598 -0.9835 -1.1013
  110OSM     NF11263   1.029   0.313   6.598 -0.5689  0.5575  0.5200
  110OSM    HNF11264   1.024   0.214   6.608  1.0923  0.4811  0.7800
  110OSM    C2S11265   1.112   0.389   6.694 -0.8574  0.9113  0.9449
  110OSM    H2S11266   1.155   0.478   6.645  1.2849 -1.0335 -0.8962
  110OSM    C3S11267   1.225   0.304   6.754 -0.8103  0.0283 -0.4602
  110OSM    H3S11268   1.185   0.208   6.793  0.6364 -0.3444  0.1495
  110OSM     O311269   1.310   0.364   6.850  0.2107 -0.5188 -0.3667
  110OSM    HO311270   1.254   0.432   6.888  2.0373  0.3953  0.8825
  110OSM    C4S11271   1.325   0.256   6.658 -0.5678  0.0826 -0.5527
  110OSM    H4S11272   1.329   0.146   6.657  2.9867  0.1116 -1.4834
  110OSM    C5S11273   1.407   0.326   6.578  0.4289 -0.3014  0.0356
  110OSM    H5S11274   1.386   0.434   6.565  0.0089 -0.2751  0.8858
  110OSM    C6S11275   1.497   0.266   6.471  0.2526  0.2574 -0.0650
  110OSM    H6S11276   1.594   0.230   6.510 -0.5787 -2.3825 -0.2272
  110OSM    H6T11277   1.527   0.339   6.393  0.0302  1.4164  0.8962
  110OSM    C7S11278   1.416   0.150   6.406  0.0922  0.1591 -0.0074
  110OSM    H7S11279   1.365   0.084   6.478 -1.4783 -0.2486 -1.4148
  110OSM    H7T11280   1.475   0.078   6.346 -0.7881  1.0044 -2.0229
  110OSM    C8S11281   1.314   0.202   6.303  0.0348  0.1966 -0.0349
  110OSM    H8S11282   1.365   0.244   6.214 -0.8548 -2.1235 -1.7482
  110OSM    H8T11283   1.263   0.288   6.353  0.8041  1.4080 -1.2592
  110OSM    C9S11284   1.224   0.088   6.249 -0.4278 -0.3234 -0.6984
  110OSM    H9S11285   1.148   0.064   6.327  0.5316  1.5866  0.8923
  110OSM    H9T11286   1.293   0.008   6.215  0.8401  1.8389 -3.7749
  110OSM   C10S11287   1.146   0.123   6.119 -0.3896  0.4294  0.7619
  110OSM   H10S11288   1.089   0.217   6.136 -0.1324  0.9769 -1.1592
  110OSM   H10T11289   1.074   0.040   6.104 -0.6412  1.1668 -3.5934
  110OSM   C11S11290   1.233   0.127   5.993  0.2609  0.6702  1.2914
  110OSM   H11S11291   1.295   0.036   5.982  0.5712  1.1169 -1.2132
  110OSM   H11T11292   1.301   0.214   5.989 -0.1002  0.9233  0.4365
  110OSM   C12S11293   1.151   0.139   5.870 -0.5217  0.2740  0.3063
  110OSM   H12S11294   1.088   0.225   5.903  0.9411  0.7856  1.8998
  110OSM   H12T11295   1.085   0.053   5.845  1.7571 -0.9415 -2.0380
  110OSM   C13S11296   1.227   0.178   5.735  0.1090 -0.4706 -0.3958
  110OSM   H13S11297   1.330   0.216   5.752  0.0589  0.4811 -2.0553
  110OSM   H13T11298   1.175   0.271   5.703  1.8541  1.8419  2.8850
  110OSM   C14S11299   1.229   0.064   5.628  0.5512  0.7896 -0.6480
  110OSM   H14S11300   1.125   0.046   5.595  0.1935 -0.3159  0.9460
  110OSM   H14T11301   1.271  -0.029   5.673  1.6994  1.1207 -1.0055
  110OSM   C15S11302   1.317   0.110   5.509  0.0800 -0.3348  0.1235
  110OSM   H15S11303   1.272   0.200   5.461 -2.0896 -2.2876 -1.7807
  110OSM   H15T11304   1.308   0.039   5.424 -0.7439  1.5460 -1.4502
  110OSM   C16S11305   1.469   0.120   5.539 -0.9142 -0.4687 -0.0680
  110OSM   H16S11306   1.501   0.029   5.594  0.1333 -0.8791 -1.3160
  110OSM   H16T11307   1.466   0.210   5.604 -1.8731 -0.8074  0.3904
  110OSM   C17S11308   1.545   0.160   5.412 -0.7272 -0.4086  1.2122
  110OSM   H17S11309   1.546   0.069   5.348 -1.0185  1.6229 -1.9374
  110OSM   H17T11310   1.644   0.196   5.448 -0.3129  0.2264 -0.4339
  110OSM   C18S11311   1.495   0.278   5.332 -0.3944 -0.0342  0.6634
  110OSM   H18S11312   1.400   0.252   5.281 -0.5980  0.4347  0.8022
  110OSM   H18T11313   1.561   0.291   5.243 -1.5197  1.0112 -0.0477
  110OSM   H18U11314   1.491   0.379   5.378 -1.4363  1.0921 -1.6975
  110OSM    C1F11315   0.942   0.364   6.508 -0.4347  0.5460  0.2797
  110OSM     OF11316   0.913   0.483   6.509  0.3768  0.0342 -0.0411
  110OSM    C2F11317   0.885   0.270   6.401 -0.4807  0.1014 -0.5846
  110OSM    H2F11318   0.828   0.192   6.456  2.8427  0.2617  3.6544
  110OSM    H2G11319   0.970   0.225   6.346 -0.8704  0.7393 -1.7355
  110OSM    C3F11320   0.798   0.334   6.294 -0.6224 -0.0716  0.0202
  110OSM    H3F11321   0.865   0.414   6.255 -1.1484  1.4297  2.0548
  110OSM    H3G11322   0.704   0.383   6.326 -1.2642 -1.8646  1.0300
  110OSM    C4F11323   0.757   0.237   6.184  0.2939  0.1276 -0.5983
  110OSM    H4F11324   0.690   0.155   6.219 -0.3384  0.4003 -1.1519
  110OSM    H4G11325   0.853   0.201   6.140 -0.0847 -0.7789 -0.7042
  110OSM    C5F11326   0.677   0.307   6.080  0.0795 -0.1207 -0.3528
  110OSM    H5F11327   0.721   0.407   6.057 -2.2179  1.0885  0.2111
  110OSM    H5G11328   0.572   0.326   6.112 -0.3604 -0.3344 -1.5869
  110OSM    C6F11329   0.663   0.224   5.953  0.2998 -0.2916  0.2427
  110OSM    H6F11330   0.594   0.140   5.977  0.6114 -0.3505  0.9565
  110OSM    H6G11331   0.765   0.183   5.936 -0.1719 -1.7604  0.8275
  110OSM    C7F11332   0.603   0.309   5.833 -0.9555 -0.1993 -0.5066
  110OSM    H7F11333   0.661   0.402   5.811  0.2308 -1.3267 -2.4925
  110OSM    H7G11334   0.506   0.342   5.877 -0.2618 -1.0065  1.7450
  110OSM    C8F11335   0.584   0.230   5.707 -0.6833  0.5532 -0.6038
  110OSM    H8F11336   0.557   0.306   5.631 -2.3302  1.9002  1.2595
  110OSM    H8G11337   0.503   0.155   5.723  0.5944 -0.8079 -0.3138
  110OSM    C9F11338   0.709   0.164   5.657  0.1097  0.0299 -0.0226
  110OSM    H9F11339   0.800   0.221   5.682 -0.6802  1.2743  0.1217
  110OSM   C10F11340   0.720   0.048   5.592  0.0607  0.7124  0.6104
  110OSM   H10F11341   0.817   0.003   5.567  0.4164  1.7666  0.0365
  110OSM   C11F11342   0.607  -0.030   5.537 -0.1136  0.0752  0.0101
  110OSM   H11F11343   0.507   0.018   5.535  0.6552  1.8326  0.9615
  110OSM   H11G11344   0.594  -0.124   5.594 -0.1834 -0.5893 -1.0927
  110OSM   C12F11345   0.632  -0.082   5.391 -0.0466 -0.4243  0.3883
  110OSM   H12F11346   0.548  -0.145   5.355  1.8051 -1.9729 -1.4687
  110OSM   H12G11347   0.727  -0.139   5.394  1.2254  1.4974 -0.7210
  110OSM   C13F11348   0.656   0.029   5.285 -0.1360  0.7225 -0.0316
  110OSM   H13F11349   0.662  -0.009   5.181  1.8961  0.1641  0.2542
  110OSM   H13G11350   0.752   0.080   5.307  0.4967  0.5952 -2.2992
  110OSM   C14F11351   0.533   0.121   5.286  0.0674 -0.5360  0.1178
  110OSM   H14F11352   0.532   0.201   5.363 -0.3211  2.2619 -2.6052
  110OSM   H14G11353   0.438   0.069   5.312 -1.5971  2.2034 -0.1669
  110OSM   C15F11354   0.510   0.199   5.149  0.1687 -0.5101  0.0471
  110OSM   H15F11355   0.417   0.258   5.165  1.4230  0.8362  3.2153
  110OSM   H15G11356   0.496   0.125   5.067 -0.6028 -3.6536  2.8266
  110OSM   C16F11357   0.630   0.283   5.109 -0.0527  0.2597 -0.1690
  110OSM   H16F11358   0.716   0.220   5.080  0.5900  0.0473  1.9903
  110OSM   H16G11359   0.649   0.333   5.207 -2.4142 -1.9929  1.5834
  110OSM   C17F11360   0.595   0.384   4.997 -0.1544  1.1205 -0.1151
  110OSM   H17F11361   0.523   0.451   5.048 -4.5583 -2.7603 -0.5491
  110OSM   H17G11362   0.541   0.329   4.916  2.8216 -0.1893 -1.3935
  110OSM   C18F11363   0.713   0.466   4.941 -0.6040 -0.0729 -0.5486
  110OSM   H18F11364   0.783   0.396   4.891 -0.8813  0.6131 -1.9370
  110OSM   H18G11365   0.757   0.518   5.029 -1.1571 -1.1912  0.4167
  110OSM   H18H11366   0.680   0.532   4.858  0.0178  0.1878 -0.5962
  111OSM      N11367   6.812   5.504   6.854  0.8659  0.0267  0.2030
  111OSM    C1511368   6.762   5.446   6.733  0.2140  0.4079  0.1886
  111OSM   H15A11369   6.678   5.506   6.703  0.9852  1.2833 -0.2550
  111OSM   H15B11370   6.721   5.348   6.752 -0.2447 -0.0094 -2.5409
  111OSM   H15C11371   6.827   5.432   6.648  0.3414  1.1427  0.1572
  111OSM    C1411372   6.923   5.420   6.906  0.3772  0.2464  0.2703
  111OSM   H14A11373   7.004   5.422   6.835  0.2830  0.3373  0.1653
  111OSM   H14B11374   6.887   5.320   6.924  2.5387 -0.4095  1.3222
  111OSM   H14C11375   6.953   5.467   6.999 -1.8182  3.2612 -0.3799
  111OSM    C1311376   6.860   5.643   6.815  0.3489 -0.2935 -0.7732
  111OSM   H13A11377   6.924   5.692   6.886 -0.9480  4.3176 -2.4293
  111OSM   H13B11378   6.784   5.718   6.800  0.3495 -0.5644 -2.3641
  111OSM   H13C11379   6.916   5.633   6.723 -1.0315 -0.6317 -1.6063
  111OSM    C1211380   6.701   5.509   6.952  0.3391 -0.3972 -0.4112
  111OSM   H12A11381   6.630   5.585   6.923  1.4952  0.8004 -0.1811
  111OSM   H12B11382   6.739   5.545   7.047  1.2217  1.1810 -1.3253
  111OSM    C1111383   6.631   5.379   7.002  0.5023  0.0714  0.7398
  111OSM   H11A11384   6.573   5.400   7.094 -0.0551  2.8401 -0.1398
  111OSM   H11B11385   6.708   5.300   7.016 -0.0687 -0.3580  1.4894
  111OSM      P11386   6.406   5.341   6.875 -0.1393  0.0300  0.5545
  111OSM    O1311387   6.336   5.268   6.984  0.1205 -0.3515 -0.3238
  111OSM    O1411388   6.375   5.485   6.859  0.0796 -0.8885 -0.1094
  111OSM    O1111389   6.377   5.273   6.734  0.4899  0.2130  0.4375
  111OSM    O1211390   6.551   5.319   6.901 -0.2553  0.0469  0.3356
  111OSM    C1S11391   6.478   5.284   6.634 -0.5020  0.0627  0.4834
  111OSM    H1S11392   6.565   5.225   6.671 -0.5168  1.2768  2.5659
  111OSM    H1T11393   6.511   5.389   6.624  0.7784 -0.3394  0.3390
  111OSM     NF11394   6.538   5.241   6.401 -0.4412  0.1338  0.5478
  111OSM    HNF11395   6.554   5.316   6.336  2.5875 -0.3578  0.5842
  111OSM    C2S11396   6.429   5.239   6.492 -0.6493 -0.5480  0.4924
  111OSM    H2S11397   6.390   5.136   6.507 -1.9055 -0.5229 -1.9957
  111OSM    C3S11398   6.301   5.321   6.439  0.7061  0.5519  0.3060
  111OSM    H3S11399   6.331   5.421   6.401 -1.3456  1.6227  1.3772
  111OSM     O311400   6.195   5.339   6.532  0.1179 -0.5456  0.0893
  111OSM    HO311401   6.245   5.317   6.612  1.8496  1.2820 -0.4215
  111OSM    C4S11402   6.251   5.241   6.326  0.7205  0.1473  0.9672
  111OSM    H4S11403   6.226   5.137   6.352  0.8638  0.1708  1.2026
  111OSM    C5S11404   6.237   5.293   6.205 -0.4361 -0.8602  0.2140
  111OSM    H5S11405   6.279   5.394   6.190 -2.8127  0.1960  0.1882
  111OSM    C6S11406   6.174   5.226   6.093  0.5868  0.0053  0.9655
  111OSM    H6S11407   6.077   5.274   6.068  0.3841 -1.5805 -1.6027
  111OSM    H6T11408   6.136   5.124   6.117 -1.8837  0.1086 -1.9420
  111OSM    C7S11409   6.258   5.210   5.963 -0.3679 -0.3441 -0.2038
  111OSM    H7S11410   6.350   5.154   5.988 -0.8266 -0.3127  1.7143
  111OSM    H7T11411   6.279   5.311   5.921  0.5503 -1.2724 -2.0768
  111OSM    C8S11412   6.178   5.135   5.857  0.4928  0.6573 -0.2659
  111OSM    H8S11413   6.076   5.175   5.839  0.5972  1.2309  0.4068
  111OSM    H8T11414   6.169   5.027   5.883 -1.4516  1.3612  2.2972
  111OSM    C9S11415   6.248   5.145   5.718 -0.2191 -0.3175 -0.5735
  111OSM    H9S11416   6.353   5.113   5.735 -0.1412  0.3450  0.2261
  111OSM    H9T11417   6.250   5.255   5.699  2.3641 -0.3210 -0.6713
  111OSM   C10S11418   6.173   5.069   5.613  0.9188  0.5803  0.3674
  111OSM   H10S11419   6.066   5.094   5.604 -0.1553 -3.5134 -0.2844
  111OSM   H10T11420   6.173   4.960   5.636 -2.5800  0.4921  0.4924
  111OSM   C11S11421   6.235   5.078   5.467  0.7292  0.1906  0.4612
  111OSM   H11S11422   6.186   5.006   5.400  0.5942  0.1982  0.5523
  111OSM   H11T11423   6.345   5.058   5.470  1.1920  2.3965  0.4611
  111OSM   C12S11424   6.221   5.215   5.403 -0.4334  0.5554 -0.6478
  111OSM   H12S11425   6.254   5.298   5.469  0.6350 -0.7844  0.5543
  111OSM   H12T11426   6.114   5.235   5.381 -1.3188 -1.0134  1.8292
  111OSM   C13S11427   6.300   5.232   5.274  0.1563  0.1676  0.4582
  111OSM   H13S11428   6.398   5.186   5.301 -0.2025  0.3214  2.1505
  111OSM   H13T11429   6.324   5.337   5.245  2.0939 -0.3548 -0.0081
  111OSM   C14S11430   6.245   5.159   5.147 -0.4945 -0.8953 -0.5544
  111OSM   H14S11431   6.225   5.051   5.158  2.1214 -1.1972  2.6646
  111OSM   H14T11432   6.322   5.177   5.069 -0.7487  1.0474 -0.4117
  111OSM   C15S11433   6.109   5.215   5.105  0.6549 -0.0445  0.2863
  111OSM   H15S11434   6.031   5.200   5.183  0.0624 -1.7670 -0.5960
  111OSM   H15T11435   6.078   5.148   5.023 -1.3278  0.3436  0.6702
  111OSM   C16S11436   6.099   5.358   5.046  0.2615 -0.6888  0.2304
  111OSM   H16S11437   6.141   5.420   5.128  0.4860 -0.8043  0.2054
  111OSM   H16T11438   5.995   5.392   5.029 -0.1909 -2.4949 -0.8681
  111OSM   C17S11439   6.176   5.370   4.914  0.3188  0.6060  0.1509
  111OSM   H17S11440   6.148   5.284   4.850  0.7847  0.1957  0.4866
  111OSM   H17T11441   6.282   5.352   4.942  0.6169 -0.5896 -1.5924
  111OSM   C18S11442   6.158   5.509   4.858  0.8943 -0.4417  0.5014
  111OSM   H18S11443   6.234   5.527   4.779  2.4277 -1.9689  1.5438
  111OSM   H18T11444   6.183   5.585   4.934 -0.8820  0.1320  0.5569
  111OSM   H18U11445   6.052   5.524   4.831 -0.3151 -2.8543  3.3166
  111OSM    C1F11446   6.646   5.167   6.419  0.0308 -0.2017 -0.0205
  111OSM     OF11447   6.647   5.074   6.500  0.0070 -0.3582 -0.7362
  111OSM    C2F11448   6.771   5.204   6.337  0.3389 -0.3366 -0.8500
  111OSM    H2F11449   6.847   5.236   6.412 -1.0525 -0.3571  0.6302
  111OSM    H2G11450   6.746   5.290   6.272 -0.4745  1.9207  2.1977
  111OSM    C3F11451   6.827   5.090   6.257 -0.4652 -0.1853 -0.4897
  111OSM    H3F11452   6.847   4.996   6.312 -0.9822  0.0186  0.0655
  111OSM    H3G11453   6.928   5.130   6.233  0.1343 -1.8345 -0.8399
  111OSM    C4F11454   6.757   5.067   6.118 -0.2489 -0.0671 -0.4789
  111OSM    H4F11455   6.647   5.072   6.128 -0.1865 -0.2841  0.3805
  111OSM    H4G11456   6.771   4.967   6.072 -3.8725 -1.8786  1.9129
  111OSM    C5F11457   6.801   5.171   6.012 -0.6536  0.1085 -0.0756
  111OSM    H5F11458   6.911   5.170   5.995 -0.6225  3.4698 -0.7277
  111OSM    H5G11459   6.777   5.275   6.045 -0.8441  0.0741 -0.1025
  111OSM    C6F11460   6.734   5.158   5.873 -0.3780 -0.5241  0.0512
  111OSM    H6F11461   6.625   5.179   5.880 -0.5684 -1.6719  0.9251
  111OSM    H6G11462   6.746   5.053   5.836 -0.2916 -1.3758  2.3618
  111OSM    C7F11463   6.802   5.238   5.763 -0.0599 -0.2340 -0.4474
  111OSM    H7F11464   6.913   5.235   5.766 -0.0048  1.5337  1.4187
  111OSM    H7G11465   6.788   5.348   5.776 -0.5397 -0.2079 -1.1087
  111OSM    C8F11466   6.761   5.201   5.621  1.3208  0.0442 -0.1101
  111OSM    H8F11467   6.650   5.201   5.613  1.0920 -0.8223  2.0892
  111OSM    H8G11468   6.782   5.094   5.605  0.1262 -0.2370  0.0945
  111OSM    C9F11469   6.808   5.300   5.520 -0.3160  0.9814 -0.3836
  111OSM    H9F11470   6.859   5.387   5.564 -1.2458  1.1239  0.4600
  111OSM   C10F11471   6.771   5.304   5.390 -0.0558  0.1221  0.1581
  111OSM   H10F11472   6.813   5.386   5.329  2.3495 -0.9481  0.2305
  111OSM   C11F11473   6.696   5.186   5.329  0.6697  0.2376 -0.8292
  111OSM   H11F11474   6.590   5.185   5.360  0.5613 -0.2925 -1.2104
  111OSM   H11G11475   6.733   5.084   5.353  1.8219  0.5842 -1.0522
  111OSM   C12F11476   6.692   5.184   5.174 -0.4171 -0.8485 -0.2545
  111OSM   H12F11477   6.681   5.288   5.138 -1.5648 -0.0833  2.1324
  111OSM   H12G11478   6.598   5.136   5.139  0.3648 -2.6388 -0.0525
  111OSM   C13F11479   6.811   5.129   5.095  0.3149  0.0422  1.2814
  111OSM   H13F11480   6.817   5.022   5.123 -0.6881 -0.0636  1.1308
  111OSM   H13G11481   6.898   5.193   5.120 -0.0994  0.4264  1.7327
  111OSM   C14F11482   6.806   5.125   4.938 -0.5244  0.0753  0.6527
  111OSM   H14F11483   6.727   5.056   4.904 -0.9815  1.5136 -1.4180
  111OSM   H14G11484   6.902   5.095   4.891 -0.3981  1.2142  0.1476
  111OSM   C15F11485   6.771   5.265   4.882 -0.7370  0.5308 -0.4425
  111OSM   H15F11486   6.662   5.282   4.893 -0.7697  0.5640 -0.7945
  111OSM   H15G11487   6.793   5.267   4.773 -1.2498 -0.4126 -0.5719
  111OSM   C16F11488   6.853   5.379   4.949 -0.4844  0.5985 -0.6620
  111OSM   H16F11489   6.959   5.361   4.923 -0.6329 -1.8216  0.1744
  111OSM   H16G11490   6.839   5.385   5.059 -3.8414 -0.0642 -0.9446
  111OSM   C17F11491   6.813   5.521   4.907 -0.6113  0.0564  0.3300
  111OSM   H17F11492   6.877   5.599   4.954  1.2655 -0.6044 -1.0385
  111OSM   H17G11493   6.704   5.545   4.916 -1.3706 -1.0924 -3.6661
  111OSM   C18F11494   6.833   5.532   4.748  0.5331 -0.2447 -0.0039
  111OSM   H18F11495   6.796   5.629   4.708 -0.9693 -0.4748  0.7750
  111OSM   H18G11496   6.764   5.462   4.697  2.4510 -1.8257 -0.5161
  111OSM   H18H11497   6.931   5.512   4.699 -0.1403  3.7442 -3.5558
  112OSM      N11498   4.085   1.914   6.777  0.5485  0.5400 -0.1377
  112OSM    C1511499   4.052   1.777   6.739 -0.0727 -0.0271 -0.5021
  112OSM   H15A11500   4.044   1.714   6.827  1.7952  1.4945  0.8309
  112OSM   H15B11501   4.128   1.736   6.675 -0.2303  1.8535 -1.9813
  112OSM   H15C11502   3.964   1.764   6.677  0.0223 -0.9636 -0.4593
  112OSM    C1411503   3.994   1.972   6.884 -0.0935 -0.3539  0.3516
  112OSM   H14A11504   4.004   1.918   6.977  0.4033 -0.2669  0.3492
  112OSM   H14B11505   3.894   2.001   6.852  0.3668  0.9641  0.0354
  112OSM   H14C11506   4.031   2.068   6.916 -2.3437  0.4427  0.7860
  112OSM    C1311507   4.218   1.913   6.850  1.1738  0.8751  0.2160
  112OSM   H13A11508   4.208   1.845   6.934  0.6191  0.4439 -0.1924
  112OSM   H13B11509   4.253   2.008   6.888 -0.2695  1.1216  1.0180
  112OSM   H13C11510   4.294   1.871   6.786 -0.0778 -0.1338 -0.6605
  112OSM    C1211511   4.086   2.015   6.662 -0.5923  0.1686 -0.3075
  112OSM   H12A11512   4.112   2.112   6.701 -0.3654 -0.4176  1.0578
  112OSM   H12B11513   3.985   2.024   6.624  0.2266  2.9119 -2.1373
  112OSM    C1111514   4.177   1.976   6.542 -0.3368 -0.0492 -0.2091
  112OSM   H11A11515   4.168   2.034   6.448 -3.1213 -0.2360 -0.1246
  112OSM   H11B11516   4.150   1.872   6.512  1.2372 -1.1225  1.8123
  112OSM      P11517   4.403   2.106   6.575  0.0183  0.0991  0.2149
  112OSM    O1311518   4.338   2.228   6.633 -0.0101 -0.6313 -0.5826
  112OSM    O1411519   4.542   2.072   6.614  0.1913 -0.2706 -0.0738
  112OSM    O1111520   4.402   2.121   6.414 -0.3574 -0.1470  0.5008
  112OSM    O1211521   4.312   1.975   6.594  0.5539 -0.5463  0.0308
  112OSM    C1S11522   4.468   2.012   6.338  0.1391 -0.0918 -1.3749
  112OSM    H1S11523   4.399   1.926   6.347 -0.2749  0.3502 -0.0687
  112OSM    H1T11524   4.570   2.000   6.382 -0.7001  0.4289  0.8505
  112OSM     NF11525   4.542   1.956   6.097 -0.3719 -0.0695 -0.3365
  112OSM    HNF11526   4.640   1.956   6.084 -0.0840 -0.0966  1.5359
  112OSM    C2S11527   4.482   2.057   6.185  0.0937  0.4483 -0.3876
  112OSM    H2S11528   4.379   2.084   6.153  1.5718  3.4238 -3.2481
  112OSM    C3S11529   4.567   2.179   6.175 -0.4094  0.5660 -0.2023
  112OSM    H3S11530   4.668   2.156   6.216  0.5032  1.8962 -1.6030
  112OSM     O311531   4.522   2.290   6.249  0.0162  0.1216  0.3652
  112OSM    HO311532   4.442   2.269   6.298 -0.5295  1.7240  0.2276
  112OSM    C4S11533   4.585   2.234   6.037  0.7654 -0.2959 -0.3978
  112OSM    H4S11534   4.487   2.244   5.988 -0.0977 -0.5561  1.2020
  112OSM    C5S11535   4.702   2.266   5.966  0.9380 -0.0184 -0.0449
  112OSM    H5S11536   4.804   2.244   6.002  1.0616 -1.3650 -1.0905
  112OSM    C6S11537   4.698   2.320   5.830 -0.2213  0.1883  0.2524
  112OSM    H6S11538   4.752   2.417   5.836  1.6917 -0.6204 -2.2677
  112OSM    H6T11539   4.596   2.338   5.790  0.2373 -0.0451 -1.0628
  112OSM    C7S11540   4.764   2.214   5.726 -0.2884  0.0250  0.1194
  112OSM    H7S11541   4.706   2.119   5.734 -0.8665  0.3574 -0.0707
  112OSM    H7T11542   4.868   2.198   5.762 -0.4610  0.6637  0.9228
  112OSM    C8S11543   4.764   2.265   5.577  0.7699  0.2711  0.3721
  112OSM    H8S11544   4.665   2.300   5.543 -0.3571 -3.3788 -0.5398
  112OSM    H8T11545   4.790   2.177   5.514 -1.4113 -0.6466  0.6933
  112OSM    C9S11546   4.855   2.388   5.535 -0.1757  0.0209 -0.0477
  112OSM    H9S11547   4.957   2.369   5.575 -1.2112  0.3612  3.0155
  112OSM    H9T11548   4.810   2.476   5.585 -1.6596 -0.8093  0.1275
  112OSM   C10S11549   4.847   2.425   5.387  0.2781  0.6621 -0.6655
  112OSM   H10S11550   4.739   2.422   5.363  0.1410  0.9427 -0.1020
  112OSM   H10T11551   4.893   2.345   5.324 -0.1360  0.2029 -0.3919
  112OSM   C11S11552   4.912   2.556   5.342  0.9823 -0.2209  0.6616
  112OSM   H11S11553   5.018   2.556   5.376  0.5099  1.4550  2.3375
  112OSM   H11T11554   4.855   2.632   5.400 -1.4820  0.0637 -1.9423
  112OSM   C12S11555   4.905   2.583   5.187 -0.1645  0.3355 -0.2349
  112OSM   H12S11556   4.960   2.500   5.137  0.7914  0.7643  0.0779
  112OSM   H12T11557   4.953   2.676   5.149  0.6849  0.5627  1.3278
  112OSM   C13S11558   4.760   2.584   5.139  0.3808 -0.3435 -0.6559
  112OSM   H13S11559   4.719   2.685   5.161 -0.6794 -1.1801  1.4921
  112OSM   H13T11560   4.690   2.526   5.203 -0.4522  0.4988 -0.7657
  112OSM   C14S11561   4.748   2.541   4.989 -0.3433  0.5315  0.3308
  112OSM   H14S11562   4.806   2.446   4.984 -0.1128  0.7098 -0.3862
  112OSM   H14T11563   4.786   2.615   4.916 -1.9627  3.0835  1.9203
  112OSM   C15S11564   4.600   2.514   4.951  0.3606  0.0174  0.3757
  112OSM   H15S11565   4.550   2.604   4.993 -3.6725 -1.4125 -0.8629
  112OSM   H15T11566   4.568   2.419   5.000 -1.8935 -1.5959 -3.7554
  112OSM   C16S11567   4.574   2.520   4.798  0.0752  0.1409 -0.1375
  112OSM   H16S11568   4.501   2.440   4.773  0.0088 -0.8048  2.7177
  112OSM   H16T11569   4.669   2.490   4.749 -0.3592 -1.3121 -0.1346
  112OSM   C17S11570   4.517   2.660   4.755  0.2621  0.2441 -0.0503
  112OSM   H17S11571   4.568   2.738   4.814 -1.9748  1.6337  0.1669
  112OSM   H17T11572   4.410   2.666   4.784  0.8395  3.5199  1.8638
  112OSM   C18S11573   4.530   2.682   4.605 -0.5217  0.6756  0.1190
  112OSM   H18S11574   4.455   2.627   4.544  0.7002  0.8171 -1.5782
  112OSM   H18T11575   4.630   2.659   4.561 -0.2476 -0.9765  1.4876
  112OSM   H18U11576   4.501   2.785   4.578 -2.4082  0.1554  0.0054
  112OSM    C1F11577   4.476   1.837   6.088 -0.6025 -0.1868 -0.2599
  112OSM     OF11578   4.360   1.839   6.112 -0.3597 -0.4095  0.6075
  112OSM    C2F11579   4.557   1.717   6.054  0.0515  0.5457  0.0260
  112OSM    H2F11580   4.613   1.690   6.146 -1.5116  0.9503  1.1492
  112OSM    H2G11581   4.634   1.748   5.981 -0.1493 -2.4516 -1.6362
  112OSM    C3F11582   4.460   1.615   5.994 -0.8712  0.1609 -0.2634
  112OSM    H3F11583   4.399   1.660   5.913  0.2434 -0.7664 -1.6700
  112OSM    H3G11584   4.392   1.572   6.071 -1.3926 -0.4854 -1.0629
  112OSM    C4F11585   4.525   1.482   5.930 -0.1351  0.3217  0.7904
  112OSM    H4F11586   4.447   1.426   5.875 -0.0429 -1.4677  2.3638
  112OSM    H4G11587   4.558   1.412   6.010 -0.0152 -0.8827 -0.2924
  112OSM    C5F11588   4.645   1.501   5.840  0.4202 -0.0207  0.5859
  112OSM    H5F11589   4.678   1.401   5.803 -0.5637 -0.5028  0.9748
  112OSM    H5G11590   4.735   1.521   5.901  1.3131 -2.3596  0.1631
  112OSM    C6F11591   4.620   1.589   5.717 -0.2574 -0.5675 -0.0429
  112OSM    H6F11592   4.710   1.574   5.653  1.4496 -0.8528  2.3185
  112OSM    H6G11593   4.606   1.696   5.742  0.2747  0.1739 -2.5735
  112OSM    C7F11594   4.494   1.542   5.644 -0.4679  0.1166 -0.2722
  112OSM    H7F11595   4.402   1.579   5.693 -0.4579  0.0186 -0.1806
  112OSM    H7G11596   4.492   1.435   5.617  3.3109 -0.0828 -0.3370
  112OSM    C8F11597   4.498   1.622   5.512 -0.5247 -0.0253  0.2655
  112OSM    H8F11598   4.430   1.583   5.433 -0.7100 -0.6135  0.7126
  112OSM    H8G11599   4.599   1.605   5.468 -1.4362  1.2476 -2.5900
  112OSM    C9F11600   4.477   1.769   5.543  0.0266 -0.1818  0.3948
  112OSM    H9F11601   4.426   1.796   5.637 -2.6903 -0.5640 -0.8892
  112OSM   C10F11602   4.541   1.866   5.485 -0.6333 -0.1277  0.4830
  112OSM   H10F11603   4.531   1.971   5.517  1.1479  1.0872 -2.5220
  112OSM   C11F11604   4.626   1.867   5.356 -0.2023 -0.2527  0.4765
  112OSM   H11F11605   4.658   1.766   5.324 -0.1047 -0.6306  1.7004
  112OSM   H11G11606   4.718   1.925   5.378 -0.5577  1.1018 -1.3767
  112OSM   C12F11607   4.565   1.949   5.237 -0.1806  0.9675 -0.1862
  112OSM   H12F11608   4.584   2.054   5.267  0.2368  0.7816  0.1995
  112OSM   H12G11609   4.459   1.918   5.229  0.2729 -0.7475 -0.0107
  112OSM   C13F11610   4.633   1.939   5.100  0.1320  0.3499  0.6522
  112OSM   H13F11611   4.742   1.924   5.113 -0.2075 -0.6239  2.9279
  112OSM   H13G11612   4.610   2.030   5.040  0.4480 -0.7260 -1.1806
  112OSM   C14F11613   4.566   1.827   5.021 -0.6750  0.5463  0.7022
  112OSM   H14F11614   4.563   1.734   5.082  1.3127  0.8439  1.3147
  112OSM   H14G11615   4.637   1.818   4.936  1.2007  1.1626  2.1423
  112OSM   C15F11616   4.424   1.852   4.965  0.0021 -0.7081  0.5822
  112OSM   H15F11617   4.369   1.904   5.046 -0.6473  0.0996 -0.3536
  112OSM   H15G11618   4.386   1.749   4.950  0.1762 -0.8845  1.3089
  112OSM   C16F11619   4.419   1.924   4.829  0.0974  0.9358 -0.8853
  112OSM   H16F11620   4.321   1.902   4.782  0.2669  0.2108 -0.9191
  112OSM   H16G11621   4.494   1.884   4.757 -1.2121 -0.4546 -1.5273
  112OSM   C17F11622   4.441   2.075   4.843  1.0313  0.0679 -0.1571
  112OSM   H17F11623   4.538   2.111   4.884  0.9457 -0.7132  0.7738
  112OSM   H17G11624   4.360   2.120   4.905 -1.6901 -2.9776 -1.1919
  112OSM   C18F11625   4.416   2.137   4.708 -0.0392  0.2509  0.8370
  112OSM   H18F11626   4.411   2.248   4.701 -2.0820  0.1367  0.0598
  112OSM   H18G11627   4.335   2.089   4.651 -1.5228  2.1683  1.2234
  112OSM   H18H11628   4.503   2.100   4.650 -2.1152 -1.3748 -1.4344
  113OSM      N11629   1.208   3.492   6.928  1.2263 -0.1456 -0.2441
  113OSM    C1511630   1.199   3.553   6.794 -0.8831  0.3362 -0.3898
  113OSM   H15A11631   1.183   3.659   6.803 -0.0568  0.4047  0.5352
  113OSM   H15B11632   1.123   3.508   6.732 -1.3594 -1.2375  1.2404
  113OSM   H15C11633   1.288   3.532   6.737 -0.0989 -1.2178  1.3032
  113OSM    C1411634   1.230   3.340   6.906 -0.1386 -0.7966  0.8460
  113OSM   H14A11635   1.168   3.301   6.827  0.8949  0.0407 -0.4278
  113OSM   H14B11636   1.244   3.278   6.993  0.9009 -0.5455  0.8758
  113OSM   H14C11637   1.329   3.330   6.863  0.3613 -0.8160  1.9766
  113OSM    C1311638   1.325   3.553   7.004 -0.0979  0.2981 -0.3162
  113OSM   H13A11639   1.305   3.659   7.002 -2.8951 -0.1669 -1.2570
  113OSM   H13B11640   1.423   3.520   6.975  0.0370 -0.7136  1.1823
  113OSM   H13C11641   1.320   3.527   7.109 -0.7861  2.6994  0.3001
  113OSM    C1211642   1.075   3.529   6.998 -0.3548  0.3534  0.4014
  113OSM   H12A11643   1.080   3.467   7.087  2.4105 -1.5716 -0.9423
  113OSM   H12B11644   0.989   3.489   6.946 -2.2991  4.6177 -0.0690
  113OSM    C1111645   1.052   3.675   7.035  0.4533  0.9900  0.7487
  113OSM   H11A11646   1.139   3.708   7.095  0.4876 -0.1404  1.3417
  113OSM   H11B11647   0.959   3.695   7.093  0.0379 -0.6252  0.6799
  113OSM      P11648   1.071   3.900   6.901 -0.0710  0.2368  0.3981
  113OSM    O1311649   0.991   3.965   7.007 -0.3269 -0.4952  0.0011
  113OSM    O1411650   1.217   3.927   6.893 -0.2596  0.0202  0.2599
  113OSM    O1111651   1.008   3.938   6.761 -0.1952 -0.6885 -0.2629
  113OSM    O1211652   1.039   3.748   6.906 -0.1593  0.2703  0.0017
  113OSM    C1S11653   1.034   3.867   6.639 -0.8134  0.1236  0.5306
  113OSM    H1S11654   0.974   3.774   6.637 -0.3158 -0.2046  0.6747
  113OSM    H1T11655   1.141   3.839   6.625 -1.2493 -1.0580 -0.5762
  113OSM     NF11656   1.059   3.877   6.393  0.2726  0.3208  0.5144
  113OSM    HNF11657   1.140   3.903   6.340  0.1227 -1.3288 -0.5769
  113OSM    C2S11658   1.007   3.949   6.505 -0.3542  0.0678 -0.6152
  113OSM    H2S11659   0.897   3.952   6.491 -0.4633 -1.6382 -0.3148
  113OSM    C3S11660   1.055   4.092   6.509  0.5992 -0.3737  0.2907
  113OSM    H3S11661   1.165   4.087   6.518  0.6988 -0.4388 -0.8813
  113OSM     O311662   1.000   4.163   6.621 -0.0232  1.0516 -1.1587
  113OSM    HO311663   0.943   4.100   6.665 -1.0451  1.8656 -1.2757
  113OSM    C4S11664   1.030   4.176   6.380 -0.5271  1.0368  0.0689
  113OSM    H4S11665   1.098   4.151   6.297 -0.5049 -1.0292  0.6477
  113OSM    C5S11666   0.934   4.263   6.350  0.0951  0.1617  0.3093
  113OSM    H5S11667   0.857   4.283   6.425 -1.6011 -1.1681 -0.9792
  113OSM    C6S11668   0.914   4.334   6.217 -0.0198  0.2596 -0.0444
  113OSM    H6S11669   0.991   4.410   6.196  1.2157 -1.1517 -0.8176
  113OSM    H6T11670   0.816   4.385   6.226  1.1796  2.3731  1.9637
  113OSM    C7S11671   0.895   4.241   6.092  0.0975  0.5945  0.7111
  113OSM    H7S11672   0.830   4.153   6.110  1.2499 -0.8866 -1.7980
  113OSM    H7T11673   0.988   4.184   6.069  0.4204  1.8401 -1.3600
  113OSM    C8S11674   0.853   4.318   5.965 -0.2233  0.8350 -0.8124
  113OSM    H8S11675   0.919   4.408   5.957 -1.7019  1.9904 -0.3958
  113OSM    H8T11676   0.748   4.352   5.978  0.2846  3.1173 -2.0933
  113OSM    C9S11677   0.864   4.240   5.838 -0.2192  0.3487 -0.7635
  113OSM    H9S11678   0.793   4.155   5.831 -1.1083  1.0412 -0.3500
  113OSM    H9T11679   0.969   4.214   5.813 -0.7715 -0.1237 -2.7739
  113OSM   C10S11680   0.819   4.335   5.728 -0.2680 -0.0586  0.0143
  113OSM   H10S11681   0.904   4.405   5.714  0.1912 -0.3395  1.2240
  113OSM   H10T11682   0.729   4.386   5.768  1.2049  1.5421  1.4524
  113OSM   C11S11683   0.778   4.281   5.595 -0.4009 -0.0389  0.3188
  113OSM   H11S11684   0.746   4.368   5.534  1.7391  0.8347  0.3461
  113OSM   H11T11685   0.697   4.205   5.602 -0.7858  0.4950  2.1657
  113OSM   C12S11686   0.898   4.201   5.528  0.0908 -0.7215  0.5442
  113OSM   H12S11687   0.928   4.117   5.594 -0.0693 -1.7391 -0.6510
  113OSM   H12T11688   0.984   4.271   5.529 -0.2633 -0.1888 -1.5495
  113OSM   C13S11689   0.865   4.151   5.384 -0.3620  0.4179  0.6537
  113OSM   H13S11690   0.757   4.128   5.370 -0.3312  0.9554 -0.6480
  113OSM   H13T11691   0.931   4.064   5.364  0.2816  0.7432  1.3126
  113OSM   C14S11692   0.897   4.255   5.270  0.7636  0.2727  0.0979
  113OSM   H14S11693   0.988   4.304   5.312  1.9839 -1.1939 -0.7164
  113OSM   H14T11694   0.812   4.326   5.257  0.0759 -0.5935 -0.2212
  113OSM   C15S11695   0.932   4.195   5.135 -0.0566  0.2181  0.4569
  113OSM   H15S11696   0.845   4.141   5.092  0.3619  1.5859 -2.3111
  113OSM   H15T11697   1.025   4.134   5.150  1.1356  1.6010 -0.9921
  113OSM   C16S11698   0.965   4.298   5.028 -0.5626  0.6526  0.1606
  113OSM   H16S11699   1.031   4.376   5.070 -3.1089  1.7947  2.3746
  113OSM   H16T11700   0.873   4.346   4.986 -0.5140  0.7416  0.1570
  113OSM   C17S11701   1.020   4.239   4.893 -0.4509 -0.7246 -0.5236
  113OSM   H17S11702   1.122   4.200   4.914  0.1271  1.2254  0.4637
  113OSM   H17T11703   1.011   4.326   4.825 -2.3730 -0.4424  0.0468
  113OSM   C18S11704   0.936   4.122   4.857  0.2677  0.5754  0.5758
  113OSM   H18S11705   0.928   4.044   4.935 -0.1568  0.5933  0.5503
  113OSM   H18T11706   0.974   4.080   4.762  0.6038  0.0385  0.9415
  113OSM   H18U11707   0.836   4.165   4.837  0.9213  1.0212 -2.0876
  113OSM    C1F11708   1.009   3.761   6.362  0.3065 -0.1610 -0.2920
  113OSM     OF11709   0.893   3.728   6.409 -0.3462 -0.2241  0.0555
  113OSM    C2F11710   1.081   3.681   6.257  0.1853 -0.0051 -0.1374
  113OSM    H2F11711   1.187   3.683   6.289 -0.1815  0.0146  1.1715
  113OSM    H2G11712   1.072   3.731   6.159 -0.7802  0.7336  0.3047
  113OSM    C3F11713   1.037   3.537   6.246 -0.8147 -0.4228  0.2299
  113OSM    H3F11714   0.927   3.543   6.234 -1.0880 -2.9772  0.7656
  113OSM    H3G11715   1.058   3.490   6.345  2.4837 -0.6694 -0.4832
  113OSM    C4F11716   1.112   3.444   6.144  0.0860 -0.7350  0.3413
  113OSM    H4F11717   1.089   3.340   6.175 -1.1473 -0.1638  1.4554
  113OSM    H4G11718   1.222   3.455   6.157  0.4814 -1.5049 -1.9235
  113OSM    C5F11719   1.076   3.469   5.996  0.4835 -0.1491  0.6744
  113OSM    H5F11720   1.153   3.406   5.946  1.6942  1.8114 -0.0836
  113OSM    H5G11721   1.102   3.573   5.965  0.4300 -0.2854  0.1576
  113OSM    C6F11722   0.934   3.438   5.949  0.2733 -0.3901 -0.1162
  113OSM    H6F11723   0.922   3.443   5.839  0.9796  3.3689 -0.1620
  113OSM    H6G11724   0.863   3.507   6.001  1.5426  0.5887  0.3687
  113OSM    C7F11725   0.884   3.291   5.979 -0.1939 -0.8034  0.2691
  113OSM    H7F11726   0.900   3.283   6.089 -1.3533 -0.7912  0.4516
  113OSM    H7G11727   0.948   3.215   5.930  1.5456  0.9982 -0.3835
  113OSM    C8F11728   0.734   3.266   5.946 -0.1865 -0.3691 -0.2768
  113OSM    H8F11729   0.715   3.291   5.840 -3.1890  2.1221  0.6726
  113OSM    H8G11730   0.669   3.329   6.011  0.4097 -1.6050  1.6034
  113OSM    C9F11731   0.685   3.125   5.966 -0.3070  0.0348  0.6394
  113OSM    H9F11732   0.719   3.079   6.060  0.3044  0.3596  0.5767
  113OSM   C10F11733   0.592   3.051   5.893 -1.0892 -0.0099 -0.8266
  113OSM   H10F11734   0.563   2.954   5.934  2.3876 -1.4500 -1.4482
  113OSM   C11F11735   0.526   3.088   5.764 -1.1270 -0.6476  0.0510
  113OSM   H11F11736   0.532   3.198   5.749  0.7204 -0.4300  1.8502
  113OSM   H11G11737   0.421   3.058   5.779 -1.2104 -0.5364 -0.3067
  113OSM   C12F11738   0.580   3.014   5.638 -0.4332  0.1034  0.1715
  113OSM   H12F11739   0.504   3.013   5.557 -1.3994  0.9347  1.0429
  113OSM   H12G11740   0.584   2.906   5.664  0.2725  0.1417  0.2369
  113OSM   C13F11741   0.729   3.061   5.599 -0.1076 -0.6938  0.2304
  113OSM   H13F11742   0.778   2.974   5.549 -2.0309 -1.9779  0.4814
  113OSM   H13G11743   0.783   3.072   5.696  1.2715  1.3205 -0.7133
  113OSM   C14F11744   0.716   3.193   5.521  0.8957  0.3942 -0.4755
  113OSM   H14F11745   0.655   3.261   5.583  1.3176  0.8061 -0.5045
  113OSM   H14G11746   0.649   3.184   5.433  0.0324 -0.4837  0.2454
  113OSM   C15F11747   0.851   3.249   5.477 -0.1815  0.5947  0.4289
  113OSM   H15F11748   0.834   3.316   5.390 -2.7883  1.4032  1.4748
  113OSM   H15G11749   0.921   3.172   5.438 -1.3888 -0.6547  0.6186
  113OSM   C16F11750   0.924   3.317   5.586  0.6214  0.1265 -0.1534
  113OSM   H16F11751   0.946   3.241   5.664 -0.3523  0.2137  0.2165
  113OSM   H16G11752   0.868   3.403   5.629  1.1729 -0.3278  1.5511
  113OSM   C17F11753   1.054   3.391   5.538 -0.4789  0.2352 -0.0860
  113OSM   H17F11754   1.025   3.486   5.490  1.2585  0.8437  0.0216
  113OSM   H17G11755   1.103   3.321   5.467 -0.5407 -0.9401  0.9916
  113OSM   C18F11756   1.146   3.426   5.648 -0.1829  0.1375 -0.0380
  113OSM   H18F11757   1.254   3.431   5.624 -0.4754  0.1404 -1.4319
  113OSM   H18G11758   1.133   3.353   5.731  0.3779 -1.7105 -1.4911
  113OSM   H18H11759   1.111   3.518   5.701 -0.0993 -0.5666  1.2931
  114OSM      N11760   1.720   1.571   7.438  0.4164 -0.3191  0.6076
  114OSM    C1511761   1.706   1.576   7.585 -0.6201  0.1228 -0.1590
  114OSM   H15A11762   1.730   1.478   7.624  1.4856 -0.3044 -2.3065
  114OSM   H15B11763   1.601   1.590   7.609 -1.2424 -0.9014 -2.0701
  114OSM   H15C11764   1.765   1.650   7.637 -4.2387  2.4662  1.0715
  114OSM    C1411765   1.864   1.543   7.399 -0.5160 -0.2157 -0.4556
  114OSM   H14A11766   1.892   1.445   7.433 -0.5271  0.3181  1.2052
  114OSM   H14B11767   1.930   1.610   7.454  1.2065 -2.6953  0.6866
  114OSM   H14C11768   1.884   1.565   7.296  2.6190  0.7846  0.2471
  114OSM    C1311769   1.639   1.445   7.393 -0.6107 -0.9268  0.4879
  114OSM   H13A11770   1.653   1.353   7.449 -2.0287 -2.0440 -0.8867
  114OSM   H13B11771   1.653   1.428   7.287 -0.5005  2.1368 -0.0770
  114OSM   H13C11772   1.534   1.457   7.416 -0.5460  0.0092  0.3256
  114OSM    C1211773   1.663   1.698   7.375 -0.1324  0.9590  0.2676
  114OSM   H12A11774   1.713   1.774   7.432 -1.0639  1.4179  0.4905
  114OSM   H12B11775   1.557   1.703   7.396  0.0445  1.5219  1.0511
  114OSM    C1111776   1.694   1.721   7.225  0.7142  0.2747  0.5342
  114OSM   H11A11777   1.617   1.789   7.184  1.1035  0.8652  0.7706
  114OSM   H11B11778   1.685   1.624   7.172 -2.3559  1.3564 -1.1958
  114OSM      P11779   1.860   1.920   7.258  0.0072  0.6863  0.1283
  114OSM    O1311780   1.763   1.970   7.357  0.2075 -0.6171  0.1723
  114OSM    O1411781   2.003   1.921   7.295 -0.4907  0.4843  0.6328
  114OSM    O1111782   1.831   1.981   7.123  0.5884  0.0869  0.0946
  114OSM    O1211783   1.828   1.765   7.211  0.2536  0.0426  0.1240
  114OSM    C1S11784   1.905   1.975   7.004  0.5298 -0.0351  0.1919
  114OSM    H1S11785   1.958   1.878   6.993 -1.2120 -0.9026 -0.9727
  114OSM    H1T11786   1.982   2.056   6.997  0.0459  0.3686 -0.5594
  114OSM     NF11787   1.869   1.976   6.759 -0.5503 -0.5793 -0.0595
  114OSM    HNF11788   1.902   2.054   6.707  0.9542 -0.2571  1.2863
  114OSM    C2S11789   1.809   1.997   6.888  0.7247 -0.1483 -0.5714
  114OSM    H2S11790   1.735   1.915   6.890  1.3239 -0.6819  0.2136
  114OSM    C3S11791   1.723   2.127   6.901  0.2524  0.1174 -0.2781
  114OSM    H3S11792   1.788   2.217   6.896  0.7491 -0.2639 -0.7158
  114OSM     O311793   1.637   2.139   7.019  0.4353  0.1592  0.2825
  114OSM    HO311794   1.664   2.064   7.072  0.5761 -1.3438 -1.7938
  114OSM    C4S11795   1.625   2.128   6.779  0.2559  0.8893 -0.1049
  114OSM    H4S11796   1.563   2.038   6.776  0.8819  0.3806  1.1731
  114OSM    C5S11797   1.607   2.227   6.685  0.5755 -0.1959 -0.5984
  114OSM    H5S11798   1.666   2.320   6.693 -0.4520  0.4348 -0.1096
  114OSM    C6S11799   1.505   2.220   6.576 -0.3824 -0.0722 -0.1716
  114OSM    H6S11800   1.476   2.324   6.548  1.1443  0.3856 -0.1276
  114OSM    H6T11801   1.409   2.177   6.612 -0.5376 -0.6776 -1.2732
  114OSM    C7S11802   1.560   2.146   6.451  0.4134 -0.6539  0.1421
  114OSM    H7S11803   1.607   2.047   6.472  2.2923  0.0814 -0.4245
  114OSM    H7T11804   1.652   2.196   6.414  1.8599 -2.5091  1.0559
  114OSM    C8S11805   1.448   2.135   6.349  0.1795 -0.5334 -1.0250
  114OSM    H8S11806   1.403   2.236   6.338 -3.4168 -1.9401 -0.6435
  114OSM    H8T11807   1.375   2.064   6.393  0.8385 -0.0569  0.9431
  114OSM    C9S11808   1.487   2.080   6.212  0.4124 -0.1033  0.6118
  114OSM    H9S11809   1.535   1.985   6.243 -1.7832 -0.5366  2.9929
  114OSM    H9T11810   1.557   2.154   6.167  0.1165 -1.1869 -1.7774
  114OSM   C10S11811   1.363   2.062   6.120  0.0807  0.4106 -0.8041
  114OSM   H10S11812   1.307   2.157   6.110 -1.5499 -0.4028  0.2112
  114OSM   H10T11813   1.300   1.991   6.178 -0.8209  0.3330 -1.8469
  114OSM   C11S11814   1.401   1.998   5.987  0.3280 -0.0291 -0.5029
  114OSM   H11S11815   1.463   1.909   6.011  0.0027  0.1804  1.2830
  114OSM   H11T11816   1.457   2.075   5.929 -1.3662  0.6361 -1.3085
  114OSM   C12S11817   1.280   1.950   5.910  0.0843 -0.6633  1.0161
  114OSM   H12S11818   1.203   2.030   5.897 -0.1571 -0.8296  1.4212
  114OSM   H12T11819   1.242   1.865   5.970 -2.4840  0.0148  0.5045
  114OSM   C13S11820   1.327   1.918   5.769  0.1073  0.1936  0.1179
  114OSM   H13S11821   1.429   1.874   5.770 -0.2810 -0.7288  0.3344
  114OSM   H13T11822   1.330   2.014   5.713  0.4050  0.9755  1.4369
  114OSM   C14S11823   1.241   1.822   5.688 -0.7467 -0.5185  0.0662
  114OSM   H14S11824   1.134   1.853   5.687 -0.5628  0.1273 -0.2823
  114OSM   H14T11825   1.242   1.718   5.728 -0.8299 -1.0418 -1.2515
  114OSM   C15S11826   1.284   1.812   5.547 -0.1434 -0.1491 -0.1454
  114OSM   H15S11827   1.394   1.807   5.536  0.0695  0.9481  1.2074
  114OSM   H15T11828   1.257   1.906   5.494 -0.1594 -2.1060 -3.9650
  114OSM   C16S11829   1.215   1.701   5.465 -0.3500 -0.5884 -0.0116
  114OSM   H16S11830   1.105   1.716   5.470 -0.3248 -0.6500  0.8505
  114OSM   H16T11831   1.242   1.611   5.524 -0.5321 -0.3306  0.4709
  114OSM   C17S11832   1.257   1.690   5.318 -0.1490  0.8752 -0.3644
  114OSM   H17S11833   1.368   1.682   5.316 -0.1521  0.8782 -1.4343
  114OSM   H17T11834   1.241   1.773   5.245  0.3665  1.8504  0.6006
  114OSM   C18S11835   1.207   1.559   5.258 -0.1216  0.1248  0.3240
  114OSM   H18S11836   1.098   1.566   5.234 -0.3288 -0.3379  1.0996
  114OSM   H18T11837   1.223   1.471   5.323 -1.5175  0.2378  0.8558
  114OSM   H18U11838   1.257   1.533   5.162 -0.4437  1.2314 -0.1630
  114OSM    C1F11839   1.904   1.861   6.700 -0.1330 -0.0569  0.0581
  114OSM     OF11840   1.918   1.757   6.765 -0.5709 -0.3639  0.2364
  114OSM    C2F11841   1.946   1.878   6.552  0.2353  0.2727 -0.6442
  114OSM    H2F11842   2.057   1.885   6.541  0.2012  1.9907 -0.2385
  114OSM    H2G11843   1.918   1.980   6.515 -1.3195  0.7316  1.6321
  114OSM    C3F11844   1.881   1.770   6.464  0.5595  0.1028 -0.7430
  114OSM    H3F11845   1.892   1.665   6.498  2.1674  0.2343 -0.7717
  114OSM    H3G11846   1.931   1.780   6.365  3.1042  2.0550  0.5920
  114OSM    C4F11847   1.745   1.825   6.434 -0.0436 -0.3249  0.5650
  114OSM    H4F11848   1.746   1.916   6.371  2.7725 -0.2341  0.6418
  114OSM    H4G11849   1.679   1.843   6.522  0.3525 -0.8191  0.9702
  114OSM    C5F11850   1.671   1.729   6.343 -0.3702  0.6182  0.2539
  114OSM    H5F11851   1.569   1.772   6.344 -0.6273  0.0088  0.8238
  114OSM    H5G11852   1.672   1.632   6.398 -0.3685  0.9000  0.7604
  114OSM    C6F11853   1.714   1.713   6.200 -0.2130 -0.3615 -0.1580
  114OSM    H6F11854   1.803   1.647   6.192  1.3478  1.5098  0.7099
  114OSM    H6G11855   1.757   1.808   6.160  0.2597 -0.8873 -0.9310
  114OSM    C7F11856   1.596   1.673   6.102  0.0003  0.1110 -0.3162
  114OSM    H7F11857   1.516   1.747   6.124  2.1828  2.5373 -0.1104
  114OSM    H7G11858   1.562   1.574   6.140 -0.2101  0.6162  0.8554
  114OSM    C8F11859   1.632   1.668   5.958  1.3774 -0.5061  0.5055
  114OSM    H8F11860   1.697   1.756   5.938  1.8565 -1.1599 -1.0318
  114OSM    H8G11861   1.546   1.685   5.891 -0.0404 -2.1345  1.8279
  114OSM    C9F11862   1.710   1.543   5.927 -0.1852  0.8614 -0.2549
  114OSM    H9F11863   1.784   1.505   5.999 -0.4641  0.0610 -0.3848
  114OSM   C10F11864   1.705   1.471   5.816  0.3064 -0.9883  0.0851
  114OSM   H10F11865   1.768   1.381   5.811  2.1580  0.0394  2.7514
  114OSM   C11F11866   1.622   1.508   5.701  0.0433  0.1196  0.0271
  114OSM   H11F11867   1.592   1.615   5.701  2.1864  0.7758  0.3600
  114OSM   H11G11868   1.534   1.441   5.692  0.1314  0.1636 -1.5866
  114OSM   C12F11869   1.685   1.472   5.572 -0.1813 -0.8386 -0.6780
  114OSM   H12F11870   1.712   1.365   5.582  0.8084 -0.5001  0.4242
  114OSM   H12G11871   1.775   1.536   5.556  0.4558 -1.6540 -0.3833
  114OSM   C13F11872   1.603   1.496   5.448  1.7269 -1.3457 -0.2865
  114OSM   H13F11873   1.571   1.602   5.449 -0.0062 -1.8302 -0.3276
  114OSM   H13G11874   1.507   1.439   5.454  0.0310  1.4946  3.0861
  114OSM   C14F11875   1.676   1.467   5.319 -0.4322  0.1725 -0.0832
  114OSM   H14F11876   1.681   1.359   5.296 -1.8083  0.2211 -0.6616
  114OSM   H14G11877   1.780   1.505   5.328 -0.1093 -0.1329 -2.0911
  114OSM   C15F11878   1.614   1.543   5.199 -0.0645 -0.5422  0.3037
  114OSM   H15F11879   1.599   1.649   5.230 -0.2050 -0.2614 -0.7166
  114OSM   H15G11880   1.511   1.505   5.182 -0.0241 -1.3120  1.5725
  114OSM   C16F11881   1.679   1.535   5.063  0.0132  0.5279  0.3746
  114OSM   H16F11882   1.674   1.433   5.021 -0.3634  0.7267 -0.0669
  114OSM   H16G11883   1.785   1.567   5.075 -0.0711  1.3313 -0.8507
  114OSM   C17F11884   1.630   1.632   4.961  0.5967  0.5368  0.1875
  114OSM   H17F11885   1.690   1.639   4.867 -0.7561  1.1909 -0.6624
  114OSM   H17G11886   1.628   1.732   5.010 -0.5019  0.1211  1.0248
  114OSM   C18F11887   1.496   1.592   4.905  0.5356  0.1169  0.8210
  114OSM   H18F11888   1.457   1.682   4.853 -0.0516 -0.3012  0.5402
  114OSM   H18G11889   1.421   1.564   4.982  0.0284  0.0812  0.3171
  114OSM   H18H11890   1.506   1.516   4.824 -2.4502 -0.6763  1.0880
  115OSM      N11891   5.483   3.856   6.649 -0.7931 -0.5344  0.7908
  115OSM    C1511892   5.508   3.791   6.519  0.9301 -0.4434 -0.0361
  115OSM   H15A11893   5.459   3.696   6.534  1.3330 -0.5738  0.4617
  115OSM   H15B11894   5.614   3.774   6.507  0.7128 -1.1280 -1.1918
  115OSM   H15C11895   5.467   3.856   6.442  1.3065  1.8672  1.6111
  115OSM    C1411896   5.342   3.832   6.688  0.3788  0.8400  0.6434
  115OSM   H14A11897   5.274   3.872   6.615  0.1026 -0.2983  0.2488
  115OSM   H14B11898   5.315   3.863   6.788  2.0923 -1.3508  1.8817
  115OSM   H14C11899   5.310   3.730   6.670 -3.0216  1.9090 -0.1214
  115OSM    C1311900   5.572   3.791   6.760  0.2802  0.4842  1.0614
  115OSM   H13A11901   5.553   3.836   6.856  1.1200 -0.9022  1.9171
  115OSM   H13B11902   5.675   3.808   6.732 -0.5770  0.1685 -2.8215
  115OSM   H13C11903   5.549   3.686   6.757 -1.1390  0.7445 -3.1464
  115OSM    C1211904   5.514   4.011   6.636  0.4665  0.2201  0.3897
  115OSM   H12A11905   5.484   4.062   6.726  0.6705  0.7763  0.1486
  115OSM   H12B11906   5.448   4.057   6.563  0.8724 -0.1960 -0.2518
  115OSM    C1111907   5.658   4.055   6.595 -0.2078 -0.2387 -0.3867
  115OSM   H11A11908   5.680   4.162   6.573  2.4439 -0.5383  0.3811
  115OSM   H11B11909   5.670   4.003   6.497 -1.2404  0.4171 -0.8813
  115OSM      P11910   5.776   4.090   6.824 -0.4497  0.3525  0.0625
  115OSM    O1311911   5.648   4.139   6.871  0.2886  0.4883  0.0345
  115OSM    O1411912   5.860   4.015   6.918 -0.6654  0.4592 -0.3396
  115OSM    O1111913   5.855   4.216   6.773  0.1029 -0.0361  0.1790
  115OSM    O1211914   5.756   4.012   6.688 -0.8219  0.4925 -0.4860
  115OSM    C1S11915   5.990   4.216   6.726 -0.0175 -0.2563  0.0993
  115OSM    H1S11916   6.028   4.112   6.713  0.4585 -0.1820  0.8088
  115OSM    H1T11917   6.057   4.256   6.806 -0.0220 -2.6618  1.4137
  115OSM     NF11918   6.128   4.263   6.526 -0.5351  0.3830  0.1345
  115OSM    HNF11919   6.204   4.327   6.534  0.6156 -0.9649  0.3747
  115OSM    C2S11920   6.002   4.284   6.586  0.5111 -0.0430 -0.6416
  115OSM    H2S11921   5.933   4.229   6.519 -1.3186  2.3953 -0.8882
  115OSM    C3S11922   5.969   4.435   6.597  0.1823  0.4883 -0.4888
  115OSM    H3S11923   6.041   4.479   6.670  0.6163 -0.7344 -0.1508
  115OSM     O311924   5.839   4.459   6.660 -0.6257  0.6666  0.2137
  115OSM    HO311925   5.818   4.372   6.695  1.3676  0.0264 -0.0580
  115OSM    C4S11926   5.983   4.512   6.470 -0.7635  0.1357 -0.3270
  115OSM    H4S11927   6.079   4.565   6.456 -1.1856  0.3036 -3.3422
  115OSM    C5S11928   5.893   4.521   6.374  0.1178 -0.4225  0.4796
  115OSM    H5S11929   5.794   4.474   6.381 -0.7569  1.1306 -0.7881
  115OSM    C6S11930   5.906   4.581   6.239  0.9574 -0.1156 -0.0325
  115OSM    H6S11931   5.845   4.512   6.177  0.3359  0.0204  0.4256
  115OSM    H6T11932   6.011   4.562   6.207  1.3492  0.6742  0.7369
  115OSM    C7S11933   5.894   4.741   6.213 -0.1771  1.3103 -0.1422
  115OSM    H7S11934   5.946   4.787   6.300 -0.0446  1.5621 -0.3517
  115OSM    H7T11935   5.785   4.763   6.220 -0.4986 -0.5453  1.7682
  115OSM    C8S11936   5.972   4.782   6.088  0.3075 -0.4296  0.2718
  115OSM    H8S11937   6.079   4.758   6.098  0.0361 -2.8761 -1.7811
  115OSM    H8T11938   5.971   4.892   6.072 -0.9583  0.1790  3.6305
  115OSM    C9S11939   5.909   4.719   5.963  0.2373  0.2837  0.2310
  115OSM    H9S11940   5.802   4.749   5.957 -0.4263 -2.0542 -0.9479
  115OSM    H9T11941   5.903   4.608   5.963 -1.3762  0.2830 -2.4306
  115OSM   C10S11942   5.974   4.774   5.835  0.0018  0.5730  0.1119
  115OSM   H10S11943   6.084   4.760   5.840  0.1268  1.7938  1.4657
  115OSM   H10T11944   5.955   4.883   5.825 -0.4086  0.5283  0.4083
  115OSM   C11S11945   5.916   4.695   5.709 -0.0143 -0.2414  0.1525
  115OSM   H11S11946   5.805   4.705   5.702  0.0506  0.1132 -0.4909
  115OSM   H11T11947   5.932   4.586   5.722 -0.0220 -0.1091  1.3291
  115OSM   C12S11948   5.991   4.748   5.582 -0.1267  0.0640  0.0324
  115OSM   H12S11949   6.100   4.729   5.593 -0.4600 -1.9102  0.1527
  115OSM   H12T11950   5.975   4.858   5.571 -1.5512 -0.2850 -1.7529
  115OSM   C13S11951   5.936   4.688   5.448  0.3205 -0.5446 -0.7421
  115OSM   H13S11952   5.829   4.717   5.440  0.0342 -1.9890 -3.1515
  115OSM   H13T11953   5.942   4.577   5.456 -0.7816 -0.4915  1.7271
  115OSM   C14S11954   6.012   4.728   5.327 -0.8427  0.6707  0.7822
  115OSM   H14S11955   6.121   4.723   5.347 -0.7161 -1.1295 -0.1961
  115OSM   H14T11956   5.978   4.830   5.298  2.2404  1.4368 -0.5510
  115OSM   C15S11957   6.009   4.625   5.210 -0.5055 -0.5025 -0.3461
  115OSM   H15S11958   5.903   4.593   5.197 -0.7464 -0.7698  1.8831
  115OSM   H15T11959   6.070   4.540   5.248  2.2219  0.3314 -2.5046
  115OSM   C16S11960   6.053   4.687   5.077 -0.5187 -0.4671 -0.1112
  115OSM   H16S11961   6.138   4.756   5.095 -1.6302  1.1757 -0.9460
  115OSM   H16T11962   5.966   4.751   5.049  0.9927  1.5372 -0.4344
  115OSM   C17S11963   6.098   4.587   4.966  0.3591  0.0500 -0.8529
  115OSM   H17S11964   6.200   4.551   4.992 -0.4297 -1.7202 -0.0711
  115OSM   H17T11965   6.099   4.647   4.872  1.2983  1.2595 -0.1029
  115OSM   C18S11966   5.997   4.472   4.950  0.7421  0.2520 -0.3976
  115OSM   H18S11967   5.990   4.410   5.042 -0.2764 -2.8341 -2.4046
  115OSM   H18T11968   6.030   4.396   4.877 -0.9114  0.0518 -0.9884
  115OSM   H18U11969   5.894   4.504   4.921  0.8689  0.6609 -0.4030
  115OSM    C1F11970   6.161   4.140   6.463 -0.1607  0.2096  0.4902
  115OSM     OF11971   6.096   4.037   6.482 -0.7875 -0.2255  0.5704
  115OSM    C2F11972   6.291   4.132   6.379 -0.0326 -0.1444 -0.3659
  115OSM    H2F11973   6.327   4.028   6.383  0.9094  0.1473 -0.9496
  115OSM    H2G11974   6.358   4.205   6.429 -1.7748  1.3174 -0.0373
  115OSM    C3F11975   6.260   4.166   6.232  0.2107 -0.8301  0.4974
  115OSM    H3F11976   6.209   4.265   6.234 -0.2998 -1.0982  0.6930
  115OSM    H3G11977   6.198   4.081   6.198 -0.8110  0.0714  0.0292
  115OSM    C4F11978   6.390   4.173   6.150 -0.5074  0.3830 -0.6080
  115OSM    H4F11979   6.475   4.177   6.222 -1.1900 -0.6604  0.2937
  115OSM    H4G11980   6.392   4.270   6.096 -0.1256 -0.2109 -1.6883
  115OSM    C5F11981   6.402   4.061   6.038 -0.1237 -0.4320  0.3547
  115OSM    H5F11982   6.309   4.055   5.978 -0.1539  1.9131  0.0636
  115OSM    H5G11983   6.391   3.958   6.079 -0.5739 -2.7641 -4.8613
  115OSM    C6F11984   6.528   4.075   5.956 -0.2077 -0.1582  0.2392
  115OSM    H6F11985   6.598   4.013   6.017 -0.1535 -0.5486 -0.2145
  115OSM    H6G11986   6.569   4.179   5.953 -0.1074 -0.0499  2.8354
  115OSM    C7F11987   6.506   4.024   5.814 -0.4809 -0.0496 -0.7451
  115OSM    H7F11988   6.601   4.032   5.757 -0.4757  0.0666 -0.7200
  115OSM    H7G11989   6.430   4.084   5.759  0.9548  1.8249 -0.7795
  115OSM    C8F11990   6.459   3.877   5.813 -0.2726  0.7942 -0.3171
  115OSM    H8F11991   6.350   3.866   5.832 -0.4113  1.1586 -0.8874
  115OSM    H8G11992   6.511   3.830   5.899  0.8980  3.0137  0.2515
  115OSM    C9F11993   6.502   3.793   5.691 -0.1459 -0.0402  0.2051
  115OSM    H9F11994   6.451   3.821   5.598 -2.5168  0.5118  1.6030
  115OSM   C10F11995   6.578   3.687   5.678 -0.7359 -0.5895 -0.0431
  115OSM   H10F11996   6.590   3.641   5.579  1.1282 -0.5725  0.1478
  115OSM   C11F11997   6.656   3.627   5.796  0.5183  0.3271  0.1621
  115OSM   H11F11998   6.692   3.711   5.859 -1.8990  2.1087 -0.6864
  115OSM   H11G11999   6.735   3.566   5.747  0.4268  1.7226 -1.8495
  115OSM   C12F12000   6.575   3.540   5.885  0.4490 -0.2333 -0.9551
  115OSM   H12F12001   6.485   3.595   5.918  0.7123 -0.6755  0.5648
  115OSM   H12G12002   6.640   3.524   5.974 -1.4021 -1.0916  0.3056
  115OSM   C13F12003   6.529   3.409   5.822 -0.0938  0.2849 -0.1592
  115OSM   H13F12004   6.616   3.344   5.801 -0.0591 -0.1554  1.2699
  115OSM   H13G12005   6.477   3.432   5.727  1.6219 -1.7135 -1.6815
  115OSM   C14F12006   6.439   3.328   5.919  0.3366  0.2688  0.5181
  115OSM   H14F12007   6.350   3.385   5.953 -0.3441 -0.7491  0.5011
  115OSM   H14G12008   6.495   3.289   6.006  0.0540 -2.0344 -0.2725
  115OSM   C15F12009   6.370   3.203   5.850  0.2522 -0.2330  0.0511
  115OSM   H15F12010   6.317   3.150   5.932  1.7651 -0.4762  0.9153
  115OSM   H15G12011   6.450   3.136   5.813  1.0286 -0.7491  2.4408
  115OSM   C16F12012   6.273   3.246   5.740 -0.3399  0.4725  0.6889
  115OSM   H16F12013   6.329   3.305   5.665  0.0331 -0.1546  0.4688
  115OSM   H16G12014   6.195   3.317   5.774  1.0775  2.9703 -0.9213
  115OSM   C17F12015   6.204   3.133   5.663  0.8845  0.2369  0.2855
  115OSM   H17F12016   6.170   3.050   5.729 -0.1101  1.7599  1.7645
  115OSM   H17G12017   6.269   3.091   5.584  1.0611 -0.1686  0.6427
  115OSM   C18F12018   6.082   3.173   5.570 -0.4883 -0.2923 -0.0541
  115OSM   H18F12019   6.046   3.083   5.515  2.4430 -1.7093  0.1486
  115OSM   H18G12020   6.115   3.250   5.497 -0.4184  0.1688  0.4593
  115OSM   H18H12021   6.002   3.225   5.627 -2.7026 -1.5126 -1.8556
  116OSM      N12022   2.308   2.698   6.986  0.8093  0.6330 -0.2345
  116OSM    C1512023   2.336   2.741   6.849 -0.5332 -0.3768 -0.6122
  116OSM   H15A12024   2.312   2.669   6.772  1.4913  1.8695 -3.6050
  116OSM   H15B12025   2.442   2.761   6.851 -0.6894  0.5237  2.3444
  116OSM   H15C12026   2.288   2.836   6.828 -0.0235  0.1272  0.4187
  116OSM    C1412027   2.387   2.568   7.003 -0.1134 -1.3192 -0.4738
  116OSM   H14A12028   2.362   2.535   7.103 -3.2263 -3.3230 -1.7667
  116OSM   H14B12029   2.494   2.582   6.993 -0.3024  0.6358 -0.0230
  116OSM   H14C12030   2.354   2.485   6.941  0.4428 -1.3752 -0.7011
  116OSM    C1312031   2.360   2.802   7.085 -0.2030  0.5704  0.0288
  116OSM   H13A12032   2.369   2.755   7.182 -0.3246 -0.9918 -0.6956
  116OSM   H13B12033   2.296   2.889   7.080  0.1757  0.8024 -1.0488
  116OSM   H13C12034   2.458   2.839   7.057  0.4084  1.0677  2.5647
  116OSM    C1212035   2.158   2.682   7.010 -0.0243 -0.2677 -0.2717
  116OSM   H12A12036   2.112   2.620   6.936 -0.2653  0.7515 -0.9988
  116OSM   H12B12037   2.119   2.783   7.009  1.2279  0.2844  1.2157
  116OSM    C1112038   2.116   2.613   7.150 -0.7339 -0.1553  0.1053
  116OSM   H11A12039   2.006   2.617   7.156 -0.8954 -1.2972 -1.3320
  116OSM   H11B12040   2.167   2.665   7.234 -0.8879  1.6634 -0.8884
  116OSM      P12041   2.075   2.353   7.135 -0.2074  0.1864 -0.1695
  116OSM    O1312042   2.165   2.231   7.132  0.3811 -0.3713  0.2068
  116OSM    O1412043   1.977   2.355   7.242  0.0163 -0.1373 -0.2928
  116OSM    O1112044   2.009   2.371   6.989  0.2577 -0.1768 -0.5718
  116OSM    O1212045   2.163   2.476   7.155  0.1371 -0.1292 -0.6576
  116OSM    C1S12046   2.090   2.362   6.874 -0.4998  0.2248  0.2571
  116OSM    H1S12047   2.137   2.261   6.866  0.7373  0.7926  0.1265
  116OSM    H1T12048   2.175   2.434   6.874 -0.9739  0.8332 -1.2724
  116OSM     NF12049   2.083   2.362   6.619  0.4541 -0.5933  0.5710
  116OSM    HNF12050   2.135   2.433   6.572 -2.8635  2.0709  0.4805
  116OSM    C2S12051   2.013   2.403   6.743  0.3070  0.5279  0.1424
  116OSM    H2S12052   1.918   2.345   6.748  1.3314 -1.4468 -1.6313
  116OSM    C3S12053   1.979   2.552   6.745  0.0142 -0.3605  0.0222
  116OSM    H3S12054   2.073   2.611   6.742  0.5647 -1.1431  1.1092
  116OSM     O312055   1.918   2.604   6.866 -0.8226  0.2706  0.0001
  116OSM    HO312056   1.915   2.522   6.915 -1.5182 -0.9591 -1.9543
  116OSM    C4S12057   1.893   2.583   6.624 -0.3670 -0.1187 -0.4361
  116OSM    H4S12058   1.948   2.638   6.545 -0.2494  1.4287  0.6686
  116OSM    C5S12059   1.760   2.560   6.621 -0.8573 -0.5600  0.3797
  116OSM    H5S12060   1.710   2.548   6.719 -2.0425  2.4031  0.2425
  116OSM    C6S12061   1.652   2.588   6.517  0.1765 -0.6129  0.5740
  116OSM    H6S12062   1.578   2.666   6.545  1.3318  0.5564  0.4919
  116OSM    H6T12063   1.601   2.500   6.473  1.4721 -0.3127 -1.6816
  116OSM    C7S12064   1.722   2.657   6.394  0.3016  0.1674  0.2048
  116OSM    H7S12065   1.802   2.590   6.356  0.4978  0.0848  0.7511
  116OSM    H7T12066   1.794   2.737   6.423  0.5420 -0.5894  1.8374
  116OSM    C8S12067   1.628   2.693   6.279 -0.2727 -0.0603 -0.2092
  116OSM    H8S12068   1.597   2.797   6.305 -1.3874 -0.2919 -0.5865
  116OSM    H8T12069   1.547   2.620   6.262  1.8439 -2.1140 -2.3135
  116OSM    C9S12070   1.713   2.679   6.152  0.3947 -0.6377 -0.8533
  116OSM    H9S12071   1.712   2.569   6.134 -1.2180 -0.6023 -1.1678
  116OSM    H9T12072   1.817   2.710   6.174  0.1485 -0.0144 -0.5595
  116OSM   C10S12073   1.643   2.750   6.041  0.5736  0.0432  0.4593
  116OSM   H10S12074   1.668   2.858   6.044  0.9416 -0.0672  2.1688
  116OSM   H10T12075   1.533   2.737   6.055  0.7545 -1.4386  0.6140
  116OSM   C11S12076   1.685   2.694   5.896  0.2891 -0.6707  0.0871
  116OSM   H11S12077   1.668   2.584   5.899  1.5960 -0.8712  1.7015
  116OSM   H11T12078   1.794   2.714   5.888  0.1040  0.6919  0.7642
  116OSM   C12S12079   1.595   2.742   5.782  0.1016 -0.2567  0.1812
  116OSM   H12S12080   1.606   2.851   5.765 -4.5609 -0.0176 -3.4617
  116OSM   H12T12081   1.489   2.729   5.810  0.2314 -1.0074  0.3511
  116OSM   C13S12082   1.636   2.667   5.653 -0.1268 -0.2469 -0.3164
  116OSM   H13S12083   1.633   2.557   5.667 -0.0131 -0.1872  0.1955
  116OSM   H13T12084   1.739   2.689   5.618  0.6450 -2.1036  0.6932
  116OSM   C14S12085   1.525   2.687   5.546 -0.1555 -0.6318 -0.1755
  116OSM   H14S12086   1.549   2.786   5.501  0.9970 -0.6787  0.2912
  116OSM   H14T12087   1.428   2.676   5.599 -0.4337 -0.7315 -0.6990
  116OSM   C15S12088   1.533   2.599   5.418  0.5243  0.5786 -0.5451
  116OSM   H15S12089   1.535   2.490   5.442 -0.9261  0.1768 -2.0262
  116OSM   H15T12090   1.624   2.616   5.357 -0.2480  1.3554 -1.5167
  116OSM   C16S12091   1.412   2.640   5.334 -0.3557  0.4315 -0.1749
  116OSM   H16S12092   1.383   2.745   5.354 -1.0259  0.0131  1.1857
  116OSM   H16T12093   1.330   2.572   5.364 -0.9770  0.4807 -1.6687
  116OSM   C17S12094   1.432   2.610   5.187 -0.8495 -0.1801  0.0373
  116OSM   H17S12095   1.527   2.657   5.153 -0.2603 -2.4030 -1.5810
  116OSM   H17T12096   1.345   2.649   5.129  1.2781  1.0295 -2.5673
  116OSM   C18S12097   1.443   2.465   5.155  0.2600 -0.1455 -0.1282
  116OSM   H18S12098   1.368   2.400   5.205  1.1623 -0.7492  0.4694
  116OSM   H18T12099   1.538   2.426   5.198 -0.3202 -0.5269  0.8567
  116OSM   H18U12100   1.438   2.460   5.044  3.0803  0.9368 -0.3835
  116OSM    C1F12101   2.106   2.236   6.580 -0.2866  0.2731  0.0808
  116OSM     OF12102   2.067   2.136   6.639 -0.5625 -0.7407  0.2003
  116OSM    C2F12103   2.191   2.214   6.456 -0.0842  0.8177  0.3409
  116OSM    H2F12104   2.248   2.119   6.467  0.9200  0.9133 -2.8829
  116OSM    H2G12105   2.265   2.292   6.429 -1.0149  1.1929 -1.2881
  116OSM    C3F12106   2.090   2.181   6.328  0.3144  0.2511 -0.6285
  116OSM    H3F12107   2.031   2.093   6.363  3.7632 -1.8291  0.5019
  116OSM    H3G12108   2.157   2.154   6.243  0.9321 -0.1760 -0.0238
  116OSM    C4F12109   1.997   2.295   6.289 -0.1596  0.2974 -0.5767
  116OSM    H4F12110   2.064   2.383   6.300  1.1957 -0.5386 -1.8321
  116OSM    H4G12111   1.911   2.307   6.358 -0.0504  1.3052 -0.6076
  116OSM    C5F12112   1.950   2.280   6.145  0.4251 -0.2766  0.5433
  116OSM    H5F12113   2.034   2.281   6.072 -0.6695  0.6732 -0.7595
  116OSM    H5G12114   1.894   2.371   6.115 -0.4117 -1.0388 -0.3127
  116OSM    C6F12115   1.862   2.156   6.119  0.2425  0.0811 -0.1103
  116OSM    H6F12116   1.780   2.162   6.194  0.3278  2.4083 -0.1294
  116OSM    H6G12117   1.917   2.062   6.143 -0.3129  0.0445  1.1082
  116OSM    C7F12118   1.797   2.172   5.982 -0.3941 -0.2260  0.2335
  116OSM    H7F12119   1.870   2.220   5.913  0.3749 -0.2641  1.0113
  116OSM    H7G12120   1.712   2.242   5.990 -1.4219 -1.3040 -0.7438
  116OSM    C8F12121   1.744   2.044   5.923 -0.2156  0.2479 -0.4416
  116OSM    H8F12122   1.671   2.071   5.844 -2.2059 -1.3455  0.7574
  116OSM    H8G12123   1.692   1.987   6.003 -1.2268  2.0147  0.2012
  116OSM    C9F12124   1.842   1.954   5.855 -0.0528  0.2447 -0.6074
  116OSM    H9F12125   1.914   1.901   5.919  0.2611 -0.6267 -1.6433
  116OSM   C10F12126   1.853   1.922   5.728  0.6261 -0.0659 -0.0030
  116OSM   H10F12127   1.928   1.845   5.703  1.4677  0.6810  0.1472
  116OSM   C11F12128   1.775   1.980   5.608 -0.1594  0.6608  0.0509
  116OSM   H11F12129   1.841   2.039   5.540 -2.3155  0.4920 -2.3203
  116OSM   H11G12130   1.687   2.041   5.636 -1.6642 -1.4183  0.0527
  116OSM   C12F12131   1.729   1.854   5.525  0.2091 -0.3452 -0.1603
  116OSM   H12F12132   1.649   1.801   5.581 -0.1548 -1.1085 -1.3721
  116OSM   H12G12133   1.814   1.788   5.497  1.6182  0.6204  1.6715
  116OSM   C13F12134   1.675   1.903   5.391  0.5969  0.1730 -0.5943
  116OSM   H13F12135   1.607   1.827   5.348 -0.2018  0.1855  0.6124
  116OSM   H13G12136   1.761   1.920   5.322  1.1220 -0.3265 -0.0745
  116OSM   C14F12137   1.598   2.036   5.365  0.0030 -0.0546 -0.1017
  116OSM   H14F12138   1.649   2.131   5.388  1.7343 -0.6379 -1.3235
  116OSM   H14G12139   1.512   2.048   5.434 -0.7809  3.1042 -1.4700
  116OSM   C15F12140   1.537   2.045   5.219 -0.4149  0.1284  0.4100
  116OSM   H15F12141   1.442   2.101   5.231 -0.4981  0.5230 -1.6662
  116OSM   H15G12142   1.523   1.946   5.170 -1.0321  0.8823 -1.0159
  116OSM   C16F12143   1.613   2.127   5.121  0.4336  0.1714  0.8777
  116OSM   H16F12144   1.723   2.110   5.121  0.4560  0.1776 -0.6463
  116OSM   H16G12145   1.594   2.229   5.161  0.6715  0.1107  1.1566
  116OSM   C17F12146   1.571   2.129   4.968 -0.0704  0.0683  0.0472
  116OSM   H17F12147   1.460   2.138   4.963 -0.0491 -0.2813 -2.6615
  116OSM   H17G12148   1.609   2.038   4.917 -0.3063 -0.7684  1.3271
  116OSM   C18F12149   1.633   2.251   4.897 -0.0880  0.4757 -0.1438
  116OSM   H18F12150   1.602   2.248   4.790  0.6781  0.0326 -0.3623
  116OSM   H18G12151   1.743   2.240   4.899 -0.2144 -1.0903 -0.4820
  116OSM   H18H12152   1.602   2.339   4.957  1.0434  1.3970 -0.8757
  117OSM      N12153   6.250   5.751   7.109  1.0226 -0.0091  0.5449
  117OSM    C1512154   6.121   5.818   7.146 -0.0741 -0.0162  0.4312
  117OSM   H15A12155   6.125   5.925   7.159 -2.3190  0.1429  0.2421
  117OSM   H15B12156   6.089   5.775   7.240  0.6275  2.7012  2.0412
  117OSM   H15C12157   6.044   5.796   7.074 -1.9284  1.8634  1.7072
  117OSM    C1412158   6.349   5.775   7.221 -0.1594 -0.5195  0.4225
  117OSM   H14A12159   6.434   5.710   7.209  0.1207  0.0791 -1.1359
  117OSM   H14B12160   6.301   5.743   7.312  0.1434  0.7083  1.0356
  117OSM   H14C12161   6.379   5.879   7.217  1.2947 -0.9411 -0.0596
  117OSM    C1312162   6.217   5.602   7.114 -0.0864 -0.2413  0.0595
  117OSM   H13A12163   6.302   5.537   7.123  0.7715  0.4966 -2.1331
  117OSM   H13B12164   6.153   5.571   7.033 -1.0549  1.5576  0.0675
  117OSM   H13C12165   6.164   5.580   7.205  0.8150 -2.2760  0.1324
  117OSM    C1212166   6.303   5.793   6.972 -0.2555 -0.3266  0.2496
  117OSM   H12A12167   6.232   5.765   6.896  1.1139  1.2930 -1.7411
  117OSM   H12B12168   6.395   5.739   6.954 -0.2557 -2.3787  4.9537
  117OSM    C1112169   6.316   5.951   6.947 -0.6007 -0.1087  0.5530
  117OSM   H11A12170   6.236   6.005   7.003 -0.4880 -0.0895  0.6963
  117OSM   H11B12171   6.291   5.985   6.844 -1.5159  2.1083  1.4264
  117OSM      P12172   6.570   5.959   6.879 -0.2262  0.2211  0.1556
  117OSM    O1312173   6.673   6.065   6.906  0.0079 -0.0374  0.3809
  117OSM    O1412174   6.609   5.820   6.895 -0.7000  1.0207 -0.3582
  117OSM    O1112175   6.487   5.986   6.734 -0.4044 -0.6030 -0.4425
  117OSM    O1212176   6.451   5.986   6.982 -0.3854 -0.2632 -0.0455
  117OSM    C1S12177   6.582   5.996   6.625 -0.1479 -0.8749 -0.2716
  117OSM    H1S12178   6.624   5.898   6.595 -2.0097 -1.9295  0.3540
  117OSM    H1T12179   6.666   6.057   6.663 -0.6145 -0.8999  0.8481
  117OSM     NF12180   6.656   6.092   6.421  0.7065  0.1133  0.0521
  117OSM    HNF12181   6.702   6.178   6.441 -1.3188  1.0364  1.0398
  117OSM    C2S12182   6.531   6.070   6.500  0.1629  0.0391  0.1903
  117OSM    H2S12183   6.453   6.011   6.449 -1.7674  1.5973  1.1957
  117OSM    C3S12184   6.470   6.207   6.535  0.1588  1.1440 -0.6404
  117OSM    H3S12185   6.549   6.268   6.583  0.1323  1.1657 -0.6238
  117OSM     O312186   6.378   6.214   6.644 -0.3232 -0.5059  0.0013
  117OSM    HO312187   6.367   6.130   6.690 -1.6609 -0.4476 -0.1587
  117OSM    C4S12188   6.416   6.277   6.416  0.6195  0.7712 -0.0789
  117OSM    H4S12189   6.348   6.217   6.354  0.2010  0.4646  0.6658
  117OSM    C5S12190   6.445   6.404   6.374 -0.1748  0.7235  0.6772
  117OSM    H5S12191   6.513   6.471   6.428 -0.1193  1.6469 -0.4819
  117OSM    C6S12192   6.379   6.464   6.242  0.3678 -0.4209  0.0565
  117OSM    H6S12193   6.457   6.508   6.177  0.7932  2.4644  2.2951
  117OSM    H6T12194   6.321   6.554   6.272  0.9810  0.2813 -0.8086
  117OSM    C7S12195   6.272   6.381   6.158 -0.1228 -0.9572  0.5150
  117OSM    H7S12196   6.181   6.373   6.223 -1.1364 -2.3546 -0.9976
  117OSM    H7T12197   6.304   6.275   6.148  2.2443 -0.3806  1.3928
  117OSM    C8S12198   6.239   6.452   6.024 -0.1382  0.4775 -0.2297
  117OSM    H8S12199   6.334   6.442   5.968  0.5654 -1.4420  1.2160
  117OSM    H8T12200   6.223   6.558   6.054  0.2381  0.0958  1.4204
  117OSM    C9S12201   6.117   6.409   5.944  0.3698 -0.5571  0.6785
  117OSM    H9S12202   6.034   6.418   6.017  0.7675 -0.5212  1.1317
  117OSM    H9T12203   6.135   6.306   5.906 -2.7958 -0.2918 -2.0122
  117OSM   C10S12204   6.094   6.496   5.817  0.1541  0.5725 -0.2167
  117OSM   H10S12205   6.195   6.498   5.771  1.4052 -3.1835  1.9105
  117OSM   H10T12206   6.063   6.599   5.846 -0.9131 -0.2133  1.5714
  117OSM   C11S12207   6.005   6.428   5.718  0.5036  0.3757 -0.2838
  117OSM   H11S12208   5.906   6.413   5.767  1.1974 -1.0324  0.7450
  117OSM   H11T12209   6.047   6.334   5.675  1.5687  0.2662  0.9457
  117OSM   C12S12210   5.979   6.511   5.591 -0.5602  0.5360 -0.0558
  117OSM   H12S12211   6.084   6.534   5.561 -0.5569  3.1324  1.6128
  117OSM   H12T12212   5.933   6.609   5.614 -0.1290  0.7413 -0.0516
  117OSM   C13S12213   5.902   6.443   5.476 -0.1999 -0.2077  0.5532
  117OSM   H13S12214   5.809   6.399   5.517 -0.1598  0.6912  1.6918
  117OSM   H13T12215   5.969   6.369   5.428 -0.0125  1.8378 -2.6409
  117OSM   C14S12216   5.868   6.551   5.364 -0.0848  0.4080  0.0998
  117OSM   H14S12217   5.964   6.598   5.331  0.6634 -1.8807 -1.2113
  117OSM   H14T12218   5.809   6.635   5.405  0.3464  0.1135  1.3822
  117OSM   C15S12219   5.798   6.488   5.246 -0.0350  0.1809  0.1749
  117OSM   H15S12220   5.709   6.430   5.280 -0.6417  1.1080  0.2165
  117OSM   H15T12221   5.865   6.406   5.212 -0.4800  0.1871 -0.7519
  117OSM   C16S12222   5.755   6.579   5.139  0.1560 -0.1021  0.5274
  117OSM   H16S12223   5.844   6.629   5.096  0.0319 -0.3981 -0.0817
  117OSM   H16T12224   5.703   6.665   5.187 -0.5507 -0.3100  0.1426
  117OSM   C17S12225   5.679   6.503   5.027  0.2272  0.0908 -0.1235
  117OSM   H17S12226   5.604   6.441   5.078  0.2157 -1.2392 -1.6729
  117OSM   H17T12227   5.749   6.440   4.968  0.8482 -0.0699  0.7686
  117OSM   C18S12228   5.600   6.594   4.927 -0.2423  0.3109 -0.1609
  117OSM   H18S12229   5.519   6.536   4.878 -0.5724 -1.9958  2.8198
  117OSM   H18T12230   5.683   6.644   4.872  1.6709  0.8377  2.9464
  117OSM   H18U12231   5.557   6.672   4.993 -1.3281 -1.2449  1.0369
  117OSM    C1F12232   6.718   5.985   6.361  0.2066  0.0790  0.2661
  117OSM     OF12233   6.675   5.867   6.375  0.5234 -0.2519  0.2761
  117OSM    C2F12234   6.841   6.011   6.284  0.0206  0.0229 -0.0344
  117OSM    H2F12235   6.935   6.008   6.342  0.6654 -1.3161 -1.0996
  117OSM    H2G12236   6.827   6.114   6.246 -3.7104 -0.9154 -1.7032
  117OSM    C3F12237   6.857   5.915   6.162 -0.1089 -0.5594 -0.5419
  117OSM    H3F12238   6.765   5.931   6.103 -0.6764 -0.1145  0.4431
  117OSM    H3G12239   6.868   5.806   6.184  2.7803  0.2241  3.0723
  117OSM    C4F12240   6.986   5.948   6.089 -0.4776 -0.6934  0.3195
  117OSM    H4F12241   7.031   5.851   6.058 -2.0950 -1.0451 -0.9891
  117OSM    H4G12242   7.063   5.986   6.160  0.1890 -2.2152  0.4487
  117OSM    C5F12243   6.963   6.025   5.959  0.5391 -0.2673 -0.3831
  117OSM    H5F12244   6.950   6.134   5.974  3.1002  0.1486 -0.7794
  117OSM    H5G12245   6.872   5.985   5.910  0.9860 -2.7503  0.6568
  117OSM    C6F12246   7.075   6.009   5.862  0.3033  0.0681 -0.1751
  117OSM    H6F12247   7.086   5.908   5.816 -2.6712 -0.2222 -0.4493
  117OSM    H6G12248   7.174   6.016   5.911  1.3223  0.4104 -2.2111
  117OSM    C7F12249   7.066   6.115   5.748 -0.0732 -0.4642 -0.4727
  117OSM    H7F12250   7.165   6.106   5.699 -0.1704  1.6026 -1.1414
  117OSM    H7G12251   7.050   6.218   5.785 -2.4652 -0.8734 -0.1825
  117OSM    C8F12252   6.959   6.082   5.648  0.4793 -0.2001  0.2764
  117OSM    H8F12253   6.863   6.100   5.700  0.1215  0.7194 -0.6608
  117OSM    H8G12254   6.965   5.974   5.623  2.4502  0.6272 -3.9114
  117OSM    C9F12255   6.975   6.158   5.517 -0.1148 -0.9933 -0.8198
  117OSM    H9F12256   6.939   6.260   5.533  1.7678 -0.7361  2.7239
  117OSM   C10F12257   7.059   6.115   5.426 -0.2082  0.2293  1.0358
  117OSM   H10F12258   7.066   6.184   5.341 -1.5433 -0.5119  0.2922
  117OSM   C11F12259   7.129   5.987   5.403 -0.4114  0.4208  0.1282
  117OSM   H11F12260   7.057   5.904   5.426  0.6778 -0.1505  1.6773
  117OSM   H11G12261   7.217   5.995   5.470  1.1142  0.3644 -1.8033
  117OSM   C12F12262   7.182   5.964   5.257 -0.5381  0.2492 -0.5806
  117OSM   H12F12263   7.225   5.863   5.269  0.9716  1.2188  3.8848
  117OSM   H12G12264   7.268   6.031   5.235 -0.1250 -0.1980 -0.3305
  117OSM   C13F12265   7.073   5.967   5.153  0.1841 -0.3252 -0.3583
  117OSM   H13F12266   7.054   6.075   5.135  1.2467  0.2459  1.6267
  117OSM   H13G12267   6.984   5.913   5.191  1.0026 -1.3254  0.1725
  117OSM   C14F12268   7.120   5.912   5.016  0.1948 -0.0151 -0.4629
  117OSM   H14F12269   7.148   5.805   5.033  1.2193  0.2935 -0.1212
  117OSM   H14G12270   7.219   5.954   4.986  1.3045 -0.7154  1.9702
  117OSM   C15F12271   7.019   5.916   4.898 -0.1386  0.2758  0.3802
  117OSM   H15F12272   6.978   6.018   4.890 -2.7852 -0.7546 -0.1968
  117OSM   H15G12273   6.927   5.861   4.929 -0.3274  0.4402  0.1057
  117OSM   C16F12274   7.075   5.861   4.769 -0.3719 -0.1543  0.4106
  117OSM   H16F12275   7.087   5.751   4.776 -3.2602 -0.5822 -0.3699
  117OSM   H16G12276   7.176   5.905   4.755 -1.1966  2.7119  2.5736
  117OSM   C17F12277   6.980   5.890   4.650  0.0226 -0.2588  0.2492
  117OSM   H17F12278   6.960   5.998   4.638  2.0456  0.4760  2.5573
  117OSM   H17G12279   6.884   5.844   4.683 -1.9599  4.5414  2.1823
  117OSM   C18F12280   7.029   5.807   4.527 -0.4189 -0.1835  0.7306
  117OSM   H18F12281   7.041   5.701   4.557  0.9395  0.5348  2.9255
  117OSM   H18G12282   7.131   5.844   4.507 -1.4224  1.1933 -2.5915
  117OSM   H18H12283   6.964   5.823   4.438 -1.2160  0.4762  1.4115
  118OSM      N12284   0.756   4.353   6.914 -0.5764  0.5367 -0.3037
  118OSM    C1512285   0.613   4.385   6.881 -0.0486 -0.4611  0.0377
  118OSM   H15A12286   0.550   4.395   6.969  1.8936 -1.4658  1.6213
  118OSM   H15B12287   0.563   4.312   6.819 -0.8884  0.3748 -0.2953
  118OSM   H15C12288   0.606   4.473   6.818 -3.5825 -0.6154 -0.0003
  118OSM    C1412289   0.810   4.461   7.004 -0.2323 -0.2724  0.3460
  118OSM   H14A12290   0.905   4.422   7.037 -0.4293  0.1134  1.4124
  118OSM   H14B12291   0.746   4.488   7.087 -0.0351  2.6977 -0.3439
  118OSM   H14C12292   0.818   4.556   6.952 -0.3250 -0.0560  0.7231
  118OSM    C1312293   0.766   4.218   6.975  0.2540  0.1354  0.8949
  118OSM   H13A12294   0.692   4.218   7.054 -1.0448  1.1152 -0.2793
  118OSM   H13B12295   0.863   4.197   7.018  0.4118 -0.0927  0.4342
  118OSM   H13C12296   0.734   4.141   6.907 -0.7314 -0.2015  1.7179
  118OSM    C1212297   0.831   4.353   6.781 -0.4657  0.5101  0.0375
  118OSM   H12A12298   0.779   4.279   6.722 -1.6047 -0.2306  1.8596
  118OSM   H12B12299   0.934   4.331   6.804 -0.7867 -0.8277  0.2911
  118OSM    C1112300   0.849   4.492   6.699 -0.0795  0.4658  0.4504
  118OSM   H11A12301   0.877   4.458   6.597 -2.2852 -0.4703  0.1064
  118OSM   H11B12302   0.928   4.544   6.757 -2.0347  1.5054  2.3338
  118OSM      P12303   0.735   4.715   6.676  0.9326 -0.2788  0.2896
  118OSM    O1312304   0.610   4.782   6.625  0.3266  0.6031 -0.4041
  118OSM    O1412305   0.795   4.768   6.803 -0.8570 -0.0924 -0.2241
  118OSM    O1112306   0.842   4.737   6.565 -0.0276 -0.3706  0.2933
  118OSM    O1212307   0.721   4.564   6.687  0.0260 -0.4156 -0.6081
  118OSM    C1S12308   0.822   4.697   6.427 -0.0908 -0.1395  0.3412
  118OSM    H1S12309   0.715   4.669   6.417  0.0636 -0.9572  0.9441
  118OSM    H1T12310   0.885   4.609   6.404  0.4572  0.6566 -1.4290
  118OSM     NF12311   0.850   4.771   6.190 -0.1311  0.3787  0.7228
  118OSM    HNF12312   0.928   4.746   6.134 -1.0415  0.8722 -0.8085
  118OSM    C2S12313   0.871   4.814   6.325 -0.1904 -0.0315 -0.7982
  118OSM    H2S12314   0.803   4.899   6.348  0.9861  0.4939  0.9911
  118OSM    C3S12315   1.019   4.858   6.357 -0.1361 -0.3281  0.4657
  118OSM    H3S12316   1.078   4.766   6.333  0.8512  0.7313 -1.4099
  118OSM     O312317   1.049   4.887   6.501  0.3018  0.3214 -0.3555
  118OSM    HO312318   0.971   4.843   6.536  1.3460 -0.8529  0.5743
  118OSM    C4S12319   1.077   4.960   6.265 -0.4879 -0.4080 -0.0990
  118OSM    H4S12320   1.113   4.903   6.177  2.0743 -1.0111  1.2577
  118OSM    C5S12321   1.089   5.093   6.285 -0.1767 -0.4514 -0.2020
  118OSM    H5S12322   1.057   5.136   6.382  0.4610 -0.7329  0.1427
  118OSM    C6S12323   1.146   5.189   6.186  0.5997 -0.6253  0.0820
  118OSM    H6S12324   1.233   5.236   6.238 -1.8487  1.2367  2.8483
  118OSM    H6T12325   1.069   5.268   6.175  0.3123 -0.7384  1.1203
  118OSM    C7S12326   1.176   5.133   6.052  0.2075 -0.1563 -0.8597
  118OSM    H7S12327   1.082   5.093   6.010 -0.2975 -0.7952  0.7858
  118OSM    H7T12328   1.236   5.039   6.055 -0.4792 -0.6308 -1.7256
  118OSM    C8S12329   1.242   5.239   5.968 -0.7146  0.0184 -0.0530
  118OSM    H8S12330   1.346   5.248   6.009 -0.4591 -1.4085 -0.3188
  118OSM    H8T12331   1.180   5.329   5.985 -0.1118  0.4373 -0.0291
  118OSM    C9S12332   1.246   5.201   5.814  0.2178 -0.0349 -0.0257
  118OSM    H9S12333   1.145   5.223   5.774  0.0047 -2.6331 -1.0718
  118OSM    H9T12334   1.264   5.092   5.818 -1.2104 -0.2760  0.3989
  118OSM   C10S12335   1.338   5.285   5.729  0.2958  0.4351 -0.8231
  118OSM   H10S12336   1.446   5.275   5.753  0.3886 -0.2147 -1.4745
  118OSM   H10T12337   1.302   5.389   5.720  0.8033  0.4575 -3.5133
  118OSM   C11S12338   1.336   5.233   5.590  0.0833  0.7333  0.8602
  118OSM   H11S12339   1.232   5.229   5.551  0.9439 -1.6217 -1.4972
  118OSM   H11T12340   1.358   5.124   5.592 -4.0875 -0.3629 -0.9262
  118OSM   C12S12341   1.415   5.310   5.484 -0.5683  0.1474  0.8387
  118OSM   H12S12342   1.520   5.283   5.511 -0.5198  0.5107  1.0196
  118OSM   H12T12343   1.396   5.419   5.484 -2.9987 -0.1850 -1.6637
  118OSM   C13S12344   1.375   5.281   5.335 -0.3742 -0.1866 -0.2279
  118OSM   H13S12345   1.265   5.295   5.325 -0.6672 -0.7912  1.7019
  118OSM   H13T12346   1.405   5.175   5.319 -0.2684 -0.1053 -0.5781
  118OSM   C14S12347   1.435   5.368   5.231  0.0891 -0.3217  0.1038
  118OSM   H14S12348   1.546   5.363   5.230  0.0980 -1.5787  1.8592
  118OSM   H14T12349   1.423   5.471   5.271 -1.1017 -0.0397 -0.9002
  118OSM   C15S12350   1.371   5.364   5.092  0.4204 -0.4524  0.4601
  118OSM   H15S12351   1.406   5.459   5.045 -0.8832  0.0149  0.3795
  118OSM   H15T12352   1.260   5.372   5.089  0.3816 -0.9223  0.6670
  118OSM   C16S12353   1.411   5.247   4.999  0.3516  0.1069 -0.9844
  118OSM   H16S12354   1.354   5.156   5.027  1.1191 -0.6702 -1.8673
  118OSM   H16T12355   1.517   5.227   5.027  0.1465 -0.8421 -0.8452
  118OSM   C17S12356   1.392   5.282   4.848 -0.0285  0.1641 -0.2722
  118OSM   H17S12357   1.445   5.377   4.824 -1.0103  0.8177  0.1178
  118OSM   H17T12358   1.285   5.306   4.835 -0.3547 -0.1856  1.5480
  118OSM   C18S12359   1.438   5.170   4.758 -0.0324 -0.7201  0.4576
  118OSM   H18S12360   1.464   5.197   4.654 -0.6200 -1.6185  0.0593
  118OSM   H18T12361   1.368   5.084   4.750 -0.0806 -0.4930 -2.3866
  118OSM   H18U12362   1.534   5.126   4.794  0.6553 -0.2366 -0.7506
  118OSM    C1F12363   0.732   4.734   6.150  0.0456  0.2642 -0.1061
  118OSM     OF12364   0.633   4.743   6.225 -0.2689 -0.5555 -0.2341
  118OSM    C2F12365   0.711   4.676   6.012 -0.6035 -0.2537 -0.0651
  118OSM    H2F12366   0.615   4.620   6.010 -1.9115  1.8691 -0.2099
  118OSM    H2G12367   0.788   4.599   5.991 -2.0546 -1.5780 -0.7187
  118OSM    C3F12368   0.706   4.780   5.900 -0.3321 -0.5856  0.0375
  118OSM    H3F12369   0.795   4.846   5.897 -0.9585  0.2487 -0.4761
  118OSM    H3G12370   0.620   4.848   5.913  0.2643  0.7644 -2.4069
  118OSM    C4F12371   0.685   4.709   5.763 -0.3388 -0.1850  0.2475
  118OSM    H4F12372   0.588   4.656   5.771  0.6681 -2.0903  0.5271
  118OSM    H4G12373   0.763   4.630   5.753 -2.3124 -2.5225  2.1226
  118OSM    C5F12374   0.686   4.816   5.655 -0.4428 -0.2005 -0.2824
  118OSM    H5F12375   0.781   4.873   5.660 -0.2424 -0.5623  0.1540
  118OSM    H5G12376   0.602   4.886   5.669  1.7537  3.0552 -2.0723
  118OSM    C6F12377   0.666   4.763   5.512  0.7729 -0.0614 -0.4771
  118OSM    H6F12378   0.641   4.853   5.451 -1.4597 -0.0270  0.3839
  118OSM    H6G12379   0.577   4.698   5.493 -0.3784  1.2928  0.0479
  118OSM    C7F12380   0.788   4.693   5.453  0.1584  0.6575  0.8771
  118OSM    H7F12381   0.787   4.593   5.503 -3.2558 -0.9087 -1.8638
  118OSM    H7G12382   0.876   4.748   5.492 -0.0376 -0.1184  2.5158
  118OSM    C8F12383   0.812   4.700   5.309  1.0198  0.2283  0.1081
  118OSM    H8F12384   0.908   4.646   5.295  0.9998  0.2912 -0.2910
  118OSM    H8G12385   0.821   4.803   5.268  1.5341  0.6176  1.1504
  118OSM    C9F12386   0.707   4.626   5.220 -0.9352 -0.4651 -0.4390
  118OSM    H9F12387   0.666   4.538   5.271  0.2760  0.5771  2.5507
  118OSM   C10F12388   0.661   4.670   5.104  0.4713 -0.0075  0.1925
  118OSM   H10F12389   0.584   4.607   5.057  1.3058  0.3640 -1.7968
  118OSM   C11F12390   0.717   4.787   5.026 -0.6132 -0.2467  0.3723
  118OSM   H11F12391   0.824   4.806   5.050 -0.6341  1.9456 -1.0275
  118OSM   H11G12392   0.663   4.883   5.041 -1.0450 -0.3924 -0.1944
  118OSM   C12F12393   0.714   4.765   4.876  0.1938  0.3589 -0.4955
  118OSM   H12F12394   0.734   4.861   4.822  2.7743 -0.1033 -0.5015
  118OSM   H12G12395   0.615   4.720   4.854  0.0556 -0.3024  1.3184
  118OSM   C13F12396   0.825   4.668   4.830 -0.2076 -0.2854  0.4546
  118OSM   H13F12397   0.814   4.568   4.877 -0.0306 -0.9602 -0.9083
  118OSM   H13G12398   0.923   4.717   4.851 -1.1406  1.4766  0.9129
  118OSM   C14F12399   0.820   4.645   4.676  0.1131  0.4827 -0.4050
  118OSM   H14F12400   0.720   4.604   4.653  1.1506 -1.9564 -0.9554
  118OSM   H14G12401   0.903   4.575   4.649  1.2399  1.6197 -0.0111
  118OSM   C15F12402   0.844   4.776   4.588  0.6031  0.0381  0.4343
  118OSM   H15F12403   0.940   4.818   4.623  0.8592 -0.3653  0.2218
  118OSM   H15G12404   0.763   4.848   4.612  1.4387  1.3315 -0.5505
  118OSM   C16F12405   0.842   4.754   4.435  0.2538  0.2843 -0.2344
  118OSM   H16F12406   0.869   4.846   4.380  2.0086  0.6981  1.2390
  118OSM   H16G12407   0.746   4.713   4.396  1.5667 -1.8094 -1.4964
  118OSM   C17F12408   0.945   4.653   4.389  0.1576 -0.6550 -0.1713
  118OSM   H17F12409   0.918   4.553   4.431 -3.9007  0.4195  0.1791
  118OSM   H17G12410   1.044   4.698   4.409  0.1015  0.2004 -1.7148
  118OSM   C18F12411   0.941   4.631   4.237  0.7458  0.1413 -0.4662
  118OSM   H18F12412   0.951   4.726   4.179  1.6483 -0.2699 -1.0160
  118OSM   H18G12413   0.847   4.585   4.200  0.0893  0.4470  0.7687
  118OSM   H18H12414   1.035   4.576   4.214  0.7207 -0.4957  0.8621
  119OSM      N12415   4.485   0.678   6.706 -0.0071  0.0999  0.2807
  119OSM    C1512416   4.345   0.703   6.663  0.3524  0.2681 -0.0760
  119OSM   H15A12417   4.339   0.792   6.602  1.5442  0.1997 -0.3135
  119OSM   H15B12418   4.290   0.737   6.749  2.8481  0.9516  1.3113
  119OSM   H15C12419   4.303   0.621   6.605  1.2508  0.3100 -0.8128
  119OSM    C1412420   4.517   0.804   6.779  0.6742 -0.0742 -0.1916
  119OSM   H14A12421   4.450   0.816   6.863 -0.4435 -2.4660 -0.6307
  119OSM   H14B12422   4.499   0.892   6.719  0.3703  1.5261  2.1298
  119OSM   H14C12423   4.621   0.804   6.808  1.1825 -1.3891 -1.8625
  119OSM    C1312424   4.487   0.575   6.811  0.5771 -0.0020  0.2101
  119OSM   H13A12425   4.581   0.528   6.834  0.8642 -0.0078 -0.9095
  119OSM   H13B12426   4.417   0.499   6.780  0.5673 -0.7444  1.9779
  119OSM   H13C12427   4.445   0.613   6.903 -1.8201 -1.2287 -0.2857
  119OSM    C1212428   4.584   0.654   6.592  0.9423  0.6841  0.2434
  119OSM   H12A12429   4.683   0.647   6.637 -0.0302 -0.7838  2.3485
  119OSM   H12B12430   4.594   0.733   6.519 -0.2727  0.6725  0.0502
  119OSM    C1112431   4.567   0.515   6.516 -0.0635 -0.5284 -0.5355
  119OSM   H11A12432   4.649   0.508   6.442  1.6584 -0.4455  1.3006
  119OSM   H11B12433   4.469   0.526   6.464  0.0510  1.6433 -0.4033
  119OSM      P12434   4.699   0.345   6.660  0.0045  0.5670  0.0666
  119OSM    O1312435   4.750   0.433   6.759  0.3635 -0.3616 -0.3011
  119OSM    O1412436   4.674   0.208   6.706 -0.0581  0.3193  0.1997
  119OSM    O1112437   4.790   0.342   6.530 -0.1593 -0.1297  0.3865
  119OSM    O1212438   4.559   0.402   6.604  0.0853  0.9281  0.5995
  119OSM    C1S12439   4.758   0.247   6.426 -0.7372 -0.1540  0.0336
  119OSM    H1S12440   4.669   0.282   6.370 -1.3222 -0.4351  0.7613
  119OSM    H1T12441   4.744   0.144   6.466 -1.2786  0.2545  0.9457
  119OSM     NF12442   4.824   0.176   6.200 -0.0597 -0.5264 -0.1673
  119OSM    HNF12443   4.863   0.085   6.194  0.7503 -0.0935 -2.1824
  119OSM    C2S12444   4.870   0.242   6.325 -0.5688 -0.2711  0.7216
  119OSM    H2S12445   4.894   0.349   6.306 -1.3675 -0.1204  0.5310
  119OSM    C3S12446   5.001   0.188   6.383 -0.5222  0.4424  0.1711
  119OSM    H3S12447   4.989   0.083   6.417  2.5297  0.5966  2.0730
  119OSM     O312448   5.025   0.238   6.513  0.4814 -0.1977 -0.1117
  119OSM    HO312449   4.942   0.283   6.530 -0.3131 -1.6172 -0.1244
  119OSM    C4S12450   5.123   0.203   6.298  0.2479  0.2947  0.8285
  119OSM    H4S12451   5.128   0.119   6.228 -1.5992  0.3452  0.5847
  119OSM    C5S12452   5.228   0.287   6.310  0.0252  0.3102  0.5578
  119OSM    H5S12453   5.228   0.365   6.388  1.6331  2.2696 -1.2701
  119OSM    C6S12454   5.349   0.291   6.216  0.5176 -0.1561 -0.1438
  119OSM    H6S12455   5.370   0.184   6.196  0.1297 -0.1390 -0.6676
  119OSM    H6T12456   5.436   0.323   6.277  0.9683 -0.2544 -0.7357
  119OSM    C7S12457   5.342   0.382   6.090  0.6903  0.6656 -1.1829
  119OSM    H7S12458   5.333   0.489   6.119  0.4132  0.4975 -0.6378
  119OSM    H7T12459   5.250   0.356   6.033 -0.5340  1.7147  0.2157
  119OSM    C8S12460   5.469   0.358   6.009 -0.0192 -0.5181  0.5739
  119OSM    H8S12461   5.475   0.250   5.986 -0.9061 -0.9485  2.1582
  119OSM    H8T12462   5.557   0.392   6.069 -0.3590  0.7205  0.4006
  119OSM    C9S12463   5.477   0.442   5.877 -0.4370  0.6298  0.1692
  119OSM    H9S12464   5.462   0.551   5.892 -1.8704  0.6020 -0.9126
  119OSM    H9T12465   5.394   0.412   5.810 -1.1657  2.3106  0.2646
  119OSM   C10S12466   5.624   0.436   5.812 -0.1881  0.6540 -0.7810
  119OSM   H10S12467   5.619   0.338   5.760 -0.8276  0.9200 -1.2429
  119OSM   H10T12468   5.710   0.443   5.882  1.6098  0.0237 -2.8249
  119OSM   C11S12469   5.649   0.534   5.695  0.1828  0.2173 -0.5362
  119OSM   H11S12470   5.709   0.615   5.740  0.4446 -1.4778  2.3946
  119OSM   H11T12471   5.547   0.566   5.665 -0.8627 -1.3440  1.1223
  119OSM   C12S12472   5.733   0.472   5.591 -0.5424 -0.5515 -0.3174
  119OSM   H12S12473   5.672   0.401   5.532  0.4363 -1.0573 -0.7424
  119OSM   H12T12474   5.818   0.413   5.631  0.8979  2.0866  0.7488
  119OSM   C13S12475   5.787   0.583   5.498  0.1398 -0.5643 -0.1246
  119OSM   H13S12476   5.870   0.639   5.546  0.1712 -1.8591  1.4442
  119OSM   H13T12477   5.712   0.663   5.481  1.1658  0.2609 -0.9721
  119OSM   C14S12478   5.836   0.534   5.366 -0.5063  0.3572  0.0493
  119OSM   H14S12479   5.758   0.480   5.309 -0.7716  4.2768 -3.8236
  119OSM   H14T12480   5.921   0.465   5.386 -0.7148  0.0034 -0.2749
  119OSM   C15S12481   5.892   0.644   5.277  0.8498 -0.0157 -0.8482
  119OSM   H15S12482   5.953   0.718   5.332 -4.0779  2.2121  2.3487
  119OSM   H15T12483   5.800   0.698   5.247  0.3408 -0.5824 -0.3404
  119OSM   C16S12484   5.954   0.591   5.149 -0.2766  0.2848  0.6833
  119OSM   H16S12485   5.897   0.499   5.122 -1.1291  0.5007  1.6675
  119OSM   H16T12486   6.061   0.563   5.157 -0.7089 -2.1131 -0.9431
  119OSM   C17S12487   5.958   0.695   5.028  0.5421 -0.1379  0.0116
  119OSM   H17S12488   6.029   0.776   5.056  0.8823 -0.0426 -1.0883
  119OSM   H17T12489   5.864   0.750   5.007 -0.1512 -1.0907  0.5347
  119OSM   C18S12490   6.015   0.632   4.903  0.0080  0.3078 -0.3171
  119OSM   H18S12491   6.124   0.622   4.920 -0.1047  0.4215  0.4776
  119OSM   H18T12492   5.991   0.681   4.806 -0.4050 -0.1487 -0.4471
  119OSM   H18U12493   5.972   0.531   4.884  0.3385  0.5607 -2.8441
  119OSM    C1F12494   4.730   0.212   6.118  0.0413  0.1067  0.5986
  119OSM     OF12495   4.682   0.328   6.124 -0.0304 -0.6108 -0.4913
  119OSM    C2F12496   4.668   0.119   6.015  0.0495  0.5636  0.6428
  119OSM    H2F12497   4.558   0.110   6.031 -0.0941  0.5192 -0.3071
  119OSM    H2G12498   4.706   0.017   6.036 -3.2348 -0.7695  0.7930
  119OSM    C3F12499   4.719   0.148   5.876  0.2927  0.1817  0.1927
  119OSM    H3F12500   4.829   0.152   5.890  0.2575 -2.9145  2.1838
  119OSM    H3G12501   4.678   0.243   5.836  1.4113  0.1428 -1.1315
  119OSM    C4F12502   4.697   0.020   5.791  0.0970 -0.0095 -0.4218
  119OSM    H4F12503   4.595  -0.018   5.772 -0.2718  0.8041 -0.1191
  119OSM    H4G12504   4.745  -0.062   5.849 -2.5999 -0.3745  1.4725
  119OSM    C5F12505   4.782   0.052   5.670  0.3885 -0.1043  0.6477
  119OSM    H5F12506   4.884   0.082   5.699  0.4061  3.1768 -2.1670
  119OSM    H5G12507   4.749   0.145   5.618  0.2151 -1.1920 -1.2900
  119OSM    C6F12508   4.787  -0.062   5.562  0.0781 -0.4549  0.2587
  119OSM    H6F12509   4.685  -0.086   5.524 -0.3486  1.8807 -0.2295
  119OSM    H6G12510   4.841  -0.146   5.610  2.7130  1.2643  0.4560
  119OSM    C7F12511   4.873  -0.026   5.437 -0.1400 -0.2719  0.5181
  119OSM    H7F12512   4.973   0.000   5.477  1.0664  0.9593 -2.9645
  119OSM    H7G12513   4.815   0.052   5.383 -1.2835 -1.9241 -0.7478
  119OSM    C8F12514   4.914  -0.148   5.348  0.2259 -0.3909  0.3983
  119OSM    H8F12515   4.956  -0.235   5.403  0.5661 -0.5916 -0.1758
  119OSM    H8G12516   4.993  -0.108   5.282 -0.5639  0.0464 -0.3093
  119OSM    C9F12517   4.798  -0.185   5.266  0.6072  0.6996 -0.3036
  119OSM    H9F12518   4.781  -0.120   5.179  0.0615  1.4079  0.3158
  119OSM   C10F12519   4.715  -0.289   5.285  0.1215  0.4385 -0.6459
  119OSM   H10F12520   4.626  -0.306   5.224  0.3405 -2.0176 -0.3825
  119OSM   C11F12521   4.732  -0.388   5.404 -0.3243  0.0474 -0.2240
  119OSM   H11F12522   4.632  -0.425   5.435  0.4083 -1.5230  0.3684
  119OSM   H11G12523   4.791  -0.353   5.491 -0.4323 -1.6477  0.5671
  119OSM   C12F12524   4.806  -0.522   5.358  0.0391  0.3650 -0.2551
  119OSM   H12F12525   4.909  -0.487   5.336 -0.0996  0.0907 -1.4494
  119OSM   H12G12526   4.769  -0.580   5.270  1.3339 -1.1085  0.1263
  119OSM   C13F12527   4.816  -0.616   5.481  0.1326 -0.6974  0.0622
  119OSM   H13F12528   4.715  -0.635   5.523 -0.0326  2.9820  1.7427
  119OSM   H13G12529   4.865  -0.560   5.564 -1.9051 -0.1307  0.9452
  119OSM   C14F12530   4.887  -0.747   5.449 -0.3049  0.5291  0.0641
  119OSM   H14F12531   4.990  -0.728   5.412  0.1617 -0.7276  0.6788
  119OSM   H14G12532   4.834  -0.794   5.364 -0.7687 -0.5246  0.9053
  119OSM   C15F12533   4.881  -0.831   5.579  0.7409  0.2298  0.7945
  119OSM   H15F12534   4.779  -0.833   5.623 -0.3931 -2.9960 -1.5763
  119OSM   H15G12535   4.965  -0.810   5.649  0.5011  1.2461  0.7911
  119OSM   C16F12536   4.916  -0.986   5.560  0.3081 -0.1976 -0.0659
  119OSM   H16F12537   4.924  -1.019   5.665 -1.5567  1.3948  0.6419
  119OSM   H16G12538   5.009  -1.003   5.502  0.0222  0.8056 -0.8595
  119OSM   C17F12539   4.807  -1.083   5.509  0.0380  0.6824 -0.7388
  119OSM   H17F12540   4.793  -1.052   5.403  3.2800 -0.4182 -1.5899
  119OSM   H17G12541   4.712  -1.079   5.567  0.8993 -2.5407  1.0923
  119OSM   C18F12542   4.858  -1.230   5.515  0.2953  0.4330 -0.1868
  119OSM   H18F12543   4.794  -1.298   5.454  2.5050  0.5060 -2.7830
  119OSM   H18G12544   4.850  -1.264   5.620 -2.2323  0.9617 -0.1426
  119OSM   H18H12545   4.964  -1.242   5.483 -0.0696 -0.2054 -1.2027
  120OSM      N12546   6.578   6.553   6.845  0.1682  0.1782  0.5301
  120OSM    C1512547   6.716   6.561   6.904 -0.0049 -0.0854  0.3452
  120OSM   H15A12548   6.793   6.506   6.853 -0.0908  1.5094 -1.6506
  120OSM   H15B12549   6.717   6.522   7.004  1.7955 -0.8160  0.0734
  120OSM   H15C12550   6.748   6.664   6.892 -0.9322 -0.0680 -3.6367
  120OSM    C1412551   6.496   6.653   6.924  0.9150  0.8017  0.6878
  120OSM   H14A12552   6.392   6.638   6.900  1.4504 -0.0531 -1.2726
  120OSM   H14B12553   6.535   6.753   6.915  2.0729  0.2508 -0.8465
  120OSM   H14C12554   6.487   6.620   7.027  1.8379 -1.1605  0.1924
  120OSM    C1312555   6.597   6.599   6.702  0.4912 -0.7576 -0.1804
  120OSM   H13A12556   6.659   6.686   6.687  1.4961 -1.7800 -2.3599
  120OSM   H13B12557   6.501   6.623   6.657  0.8006  1.1409  0.1019
  120OSM   H13C12558   6.654   6.528   6.644  2.2943  0.6445 -0.1919
  120OSM    C1212559   6.514   6.417   6.846 -0.3217  0.6433  0.6149
  120OSM   H12A12560   6.584   6.350   6.799  0.6101  1.5884  0.6189
  120OSM   H12B12561   6.424   6.408   6.788 -0.3775  0.6237  0.7034
  120OSM    C1112562   6.492   6.332   6.981 -0.0494  0.3920 -0.6000
  120OSM   H11A12563   6.593   6.314   7.024 -0.3235  0.4845  0.1003
  120OSM   H11B12564   6.448   6.233   6.954 -0.2802 -0.2256  1.8020
  120OSM      P12565   6.263   6.439   7.063 -0.1389  0.2318  0.1832
  120OSM    O1312566   6.179   6.347   7.141  0.0260  0.0393  0.3949
  120OSM    O1412567   6.241   6.577   7.101 -0.3503 -0.7690 -0.0894
  120OSM    O1112568   6.227   6.418   6.909 -0.2557  0.8409  0.1498
  120OSM    O1212569   6.412   6.402   7.079 -0.0270 -0.1865 -0.1385
  120OSM    C1S12570   6.141   6.499   6.828 -0.2429 -0.4516  0.5376
  120OSM    H1S12571   6.202   6.577   6.777 -1.8398  0.8449  0.5457
  120OSM    H1T12572   6.064   6.553   6.888  0.8141  1.7288  0.0261
  120OSM     NF12573   5.997   6.500   6.616  0.1895 -0.1076  0.0487
  120OSM    HNF12574   5.898   6.498   6.628 -0.1010  1.6874 -1.5098
  120OSM    C2S12575   6.079   6.421   6.710 -0.3096 -0.6736  0.0595
  120OSM    H2S12576   6.167   6.382   6.655 -0.3563 -2.3754  1.0934
  120OSM    C3S12577   6.009   6.287   6.758  0.0665 -0.2974  0.4493
  120OSM    H3S12578   5.908   6.314   6.795 -1.6971 -1.2629 -3.2060
  120OSM     O312579   6.063   6.207   6.852 -0.4463 -0.4218  0.1394
  120OSM    HO312580   6.146   6.252   6.869  0.0104 -0.6561 -1.3028
  120OSM    C4S12581   5.982   6.202   6.637  0.1088  0.2769  0.5775
  120OSM    H4S12582   6.069   6.181   6.573 -0.3782 -2.4927  0.7170
  120OSM    C5S12583   5.853   6.163   6.601  0.2388 -0.5713  0.2254
  120OSM    H5S12584   5.770   6.192   6.667  0.2332  1.5795 -0.6327
  120OSM    C6S12585   5.826   6.090   6.473 -0.3056 -0.1699 -0.6300
  120OSM    H6S12586   5.716   6.097   6.466 -0.3780  0.0355  0.4274
  120OSM    H6T12587   5.854   5.983   6.480  0.0163  0.0011  1.0881
  120OSM    C7S12588   5.902   6.149   6.354  0.5677 -0.1706  0.3611
  120OSM    H7S12589   6.011   6.162   6.372  0.8737 -1.0148 -0.7687
  120OSM    H7T12590   5.858   6.250   6.340  0.9347 -0.2831 -1.8368
  120OSM    C8S12591   5.868   6.065   6.236  0.5106  0.3400  0.1912
  120OSM    H8S12592   5.757   6.056   6.235  0.3980  0.0613  3.5640
  120OSM    H8T12593   5.905   5.961   6.235 -2.6197 -0.8785 -1.4207
  120OSM    C9S12594   5.915   6.126   6.099 -0.1515 -0.7169  0.1604
  120OSM    H9S12595   6.026   6.132   6.097 -0.0618 -1.6686  1.0137
  120OSM    H9T12596   5.894   6.235   6.098 -1.5847 -0.9764  0.3480
  120OSM   C10S12597   5.861   6.047   5.973  0.5523 -0.5724  0.9316
  120OSM   H10S12598   5.753   6.022   5.987 -0.0240 -1.1041 -3.1346
  120OSM   H10T12599   5.909   5.947   5.974 -1.0192 -1.3634 -0.1133
  120OSM   C11S12600   5.873   6.114   5.832  0.3511  1.3008  0.2167
  120OSM   H11S12601   5.980   6.129   5.803  0.9927 -2.2162  0.2766
  120OSM   H11T12602   5.821   6.210   5.848 -1.8003  0.1881  0.2163
  120OSM   C12S12603   5.817   6.020   5.721  0.6607  0.6725  0.2796
  120OSM   H12S12604   5.712   6.005   5.752  0.4284  2.1574  0.3056
  120OSM   H12T12605   5.888   5.935   5.728  0.6999  0.7974  1.7782
  120OSM   C13S12606   5.822   6.098   5.587 -0.2612  0.4270  0.4050
  120OSM   H13S12607   5.932   6.110   5.575  0.0709 -1.8569  0.5627
  120OSM   H13T12608   5.762   6.191   5.583 -1.8663 -0.5713  0.4539
  120OSM   C14S12609   5.780   6.012   5.463  0.5705 -0.0796 -0.2027
  120OSM   H14S12610   5.672   5.988   5.473  0.2256  1.5476  0.2137
  120OSM   H14T12611   5.836   5.916   5.454 -0.0302 -0.8139  2.7403
  120OSM   C15S12612   5.793   6.090   5.332 -0.8687 -0.2282  0.3123
  120OSM   H15S12613   5.902   6.099   5.312 -1.2324  0.1525 -1.6935
  120OSM   H15T12614   5.746   6.190   5.342  0.6762  0.8089 -1.9910
  120OSM   C16S12615   5.721   6.021   5.214 -0.1883 -0.1690 -0.0620
  120OSM   H16S12616   5.614   6.030   5.241  0.3525 -0.5695  2.5126
  120OSM   H16T12617   5.748   5.915   5.195  2.1468  0.5607 -1.2267
  120OSM   C17S12618   5.756   6.099   5.078 -0.5349 -0.3550  0.0151
  120OSM   H17S12619   5.864   6.121   5.094 -0.5987 -1.8936  3.5024
  120OSM   H17T12620   5.714   6.202   5.079 -0.3878 -0.2797 -1.0018
  120OSM   C18S12621   5.737   6.030   4.945 -0.8345 -0.4569  0.2142
  120OSM   H18S12622   5.780   5.928   4.942 -1.9250 -0.9187 -0.0276
  120OSM   H18T12623   5.785   6.102   4.875 -0.6822  2.7942  3.3490
  120OSM   H18U12624   5.628   6.015   4.928 -0.5809 -2.2970  0.0368
  120OSM    C1F12625   6.036   6.589   6.526 -0.8261  0.8986 -1.1898
  120OSM     OF12626   6.146   6.637   6.544 -0.2742 -0.7933 -0.5568
  120OSM    C2F12627   5.940   6.629   6.424 -0.5609 -0.2070  0.3640
  120OSM    H2F12628   5.860   6.686   6.475  1.4436  2.4544  0.7739
  120OSM    H2G12629   5.896   6.537   6.382  0.1840  0.9414 -3.3095
  120OSM    C3F12630   5.997   6.705   6.301  0.5716 -0.0459  0.3039
  120OSM    H3F12631   5.923   6.727   6.221  1.5472  3.7110  0.2515
  120OSM    H3G12632   6.067   6.637   6.247  2.1820  1.7985 -0.0358
  120OSM    C4F12633   6.089   6.827   6.341 -0.0880  0.2038 -0.4187
  120OSM    H4F12634   6.182   6.794   6.392 -0.8960 -3.0159 -0.8200
  120OSM    H4G12635   6.050   6.897   6.418  0.4511  1.2334 -1.0466
  120OSM    C5F12636   6.137   6.908   6.224 -0.7143 -0.3157  0.8764
  120OSM    H5F12637   6.204   6.994   6.245  2.4471 -1.1731 -4.0750
  120OSM    H5G12638   6.041   6.943   6.180  0.3867 -0.3842 -1.7702
  120OSM    C6F12639   6.210   6.832   6.113  0.3482  0.3348 -0.4776
  120OSM    H6F12640   6.134   6.772   6.059  0.4250 -0.1975 -0.0014
  120OSM    H6G12641   6.278   6.756   6.157 -0.4386 -0.6719 -0.9559
  120OSM    C7F12642   6.288   6.924   6.020  0.5104 -0.0702 -0.2209
  120OSM    H7F12643   6.386   6.952   6.062  0.3804 -2.2670  1.7556
  120OSM    H7G12644   6.219   7.006   5.991 -1.3708 -2.0517 -1.6762
  120OSM    C8F12645   6.310   6.861   5.879 -0.2842 -0.9555 -0.2314
  120OSM    H8F12646   6.353   6.945   5.822  0.0536 -0.5724  0.5691
  120OSM    H8G12647   6.214   6.819   5.841 -0.5575 -0.8319  0.2985
  120OSM    C9F12648   6.417   6.753   5.892 -0.2263 -0.3988 -0.7777
  120OSM    H9F12649   6.388   6.661   5.946  3.5108 -0.8647  0.7599
  120OSM   C10F12650   6.539   6.756   5.826  0.2248  0.7089 -0.3852
  120OSM   H10F12651   6.594   6.662   5.843 -1.4500 -0.1976  0.2366
  120OSM   C11F12652   6.592   6.859   5.733 -0.7355  0.1116 -0.0887
  120OSM   H11F12653   6.699   6.876   5.757 -1.0157  0.4830  0.9101
  120OSM   H11G12654   6.550   6.958   5.761  0.3256  0.6460 -0.3392
  120OSM   C12F12655   6.582   6.831   5.577 -0.1630  0.4839  0.2024
  120OSM   H12F12656   6.633   6.736   5.551  0.0500  0.3489  1.0728
  120OSM   H12G12657   6.632   6.915   5.525  0.1071  0.5431  0.5516
  120OSM   C13F12658   6.433   6.826   5.523  0.2779  0.3650  0.4785
  120OSM   H13F12659   6.404   6.930   5.499  1.5537  0.4362 -0.9170
  120OSM   H13G12660   6.367   6.784   5.601  0.1374  0.0827  0.2107
  120OSM   C14F12661   6.405   6.752   5.387 -0.5893 -0.5441  0.3262
  120OSM   H14F12662   6.413   6.642   5.392  0.8206 -0.4389  0.8252
  120OSM   H14G12663   6.484   6.776   5.313 -0.1003 -0.8027  0.7536
  120OSM   C15F12664   6.261   6.769   5.339 -0.9151 -0.4336 -0.3287
  120OSM   H15F12665   6.246   6.879   5.336  2.7949  0.3826  2.7896
  120OSM   H15G12666   6.199   6.709   5.409 -0.3393 -0.8526 -0.1719
  120OSM   C16F12667   6.249   6.697   5.199 -0.0253  0.0850 -0.1894
  120OSM   H16F12668   6.248   6.587   5.213  1.3225 -0.0590 -1.0589
  120OSM   H16G12669   6.336   6.709   5.132  1.8633  0.2013  2.1581
  120OSM   C17F12670   6.126   6.754   5.124 -0.1001 -0.5089  0.1744
  120OSM   H17F12671   6.160   6.858   5.103  0.1990 -0.4861  0.7519
  120OSM   H17G12672   6.032   6.749   5.182  0.3217 -1.7702  0.7830
  120OSM   C18F12673   6.094   6.687   4.990 -0.3597  0.4184 -0.6444
  120OSM   H18F12674   6.079   6.578   5.005 -0.7147  0.4563 -0.7404
  120OSM   H18G12675   6.182   6.718   4.929 -0.3537  0.2236 -0.7350
  120OSM   H18H12676   6.011   6.737   4.937 -0.1388  1.0269 -0.4232
  121OSM      N12677   0.644   3.698   6.806 -0.0838  0.0647 -0.6410
  121OSM    C1512678   0.607   3.792   6.696 -0.2328 -0.1460 -0.4010
  121OSM   H15A12679   0.551   3.876   6.734  0.1290  0.5676 -1.3957
  121OSM   H15B12680   0.557   3.733   6.620  0.8829  1.3540 -2.3917
  121OSM   H15C12681   0.685   3.834   6.633 -1.5486  2.4767 -0.3898
  121OSM    C1412682   0.736   3.590   6.767  0.2810 -0.0617  0.4338
  121OSM   H14A12683   0.689   3.528   6.692 -2.3166  1.7653  0.4217
  121OSM   H14B12684   0.756   3.526   6.852 -2.5003 -2.2742 -0.4272
  121OSM   H14C12685   0.823   3.630   6.716 -0.3747  3.1500  1.6106
  121OSM    C1312686   0.718   3.787   6.899 -0.2697 -0.1285  0.4041
  121OSM   H13A12687   0.673   3.883   6.921  3.9167  2.3355 -0.4439
  121OSM   H13B12688   0.814   3.810   6.854  0.1586 -0.5468  1.0902
  121OSM   H13C12689   0.736   3.738   6.993 -1.7024 -0.5767  0.4586
  121OSM    C1212690   0.517   3.646   6.875 -0.0172  0.3131 -0.4314
  121OSM   H12A12691   0.466   3.729   6.923 -0.3386 -1.2840  2.1433
  121OSM   H12B12692   0.542   3.571   6.948  0.6882  0.3247 -0.6542
  121OSM    C1112693   0.412   3.579   6.780  0.0084 -0.1663  0.1745
  121OSM   H11A12694   0.388   3.653   6.701  2.3102  1.1795  0.6297
  121OSM   H11B12695   0.320   3.563   6.840  1.2169  0.0068  2.1755
  121OSM      P12696   0.477   3.332   6.801 -0.0647 -0.2903  0.4328
  121OSM    O1312697   0.584   3.344   6.904 -0.0651  0.1320  0.9351
  121OSM    O1412698   0.349   3.281   6.846  0.3377 -0.1509  0.2184
  121OSM    O1112699   0.539   3.230   6.692  0.0972 -0.0765 -0.2739
  121OSM    O1212700   0.456   3.465   6.720 -0.1255  0.7766  0.0779
  121OSM    C1S12701   0.480   3.218   6.561  0.5412  1.0797  0.3626
  121OSM    H1S12702   0.467   3.322   6.525  1.7640  0.2497 -2.7921
  121OSM    H1T12703   0.383   3.165   6.568  0.7695  0.6616  0.3921
  121OSM     NF12704   0.492   3.130   6.328  0.0854  0.2095  0.1504
  121OSM    HNF12705   0.472   3.034   6.307 -2.5184  0.6754  0.1085
  121OSM    C2S12706   0.569   3.151   6.452  0.1725 -0.7840  0.1538
  121OSM    H2S12707   0.652   3.222   6.430 -0.1451 -0.9245 -1.7453
  121OSM    C3S12708   0.642   3.019   6.511  0.7447 -0.2988  0.1272
  121OSM    H3S12709   0.573   2.932   6.524  0.1130  0.3829  1.4859
  121OSM     O312710   0.710   3.025   6.630  0.0326  0.1514  0.0749
  121OSM    HO312711   0.676   3.109   6.662 -2.9368 -0.8148 -0.2716
  121OSM    C4S12712   0.734   2.983   6.405  0.4149 -0.7880  0.6163
  121OSM    H4S12713   0.705   2.890   6.354 -0.0527 -0.7124  0.7418
  121OSM    C5S12714   0.847   3.052   6.373 -0.0284 -0.0648  0.2942
  121OSM    H5S12715   0.859   3.148   6.426 -3.1048 -0.9745  2.9326
  121OSM    C6S12716   0.940   3.007   6.260  0.2778  0.0468  0.5597
  121OSM    H6S12717   1.045   2.998   6.295  1.4996 -0.1462 -2.8392
  121OSM    H6T12718   0.943   3.077   6.175  0.5577  1.1497  1.4566
  121OSM    C7S12719   0.894   2.875   6.190  0.7609 -0.0527 -0.3765
  121OSM    H7S12720   0.789   2.889   6.156  0.8898 -0.0765 -0.7972
  121OSM    H7T12721   0.890   2.791   6.263 -1.8261 -0.1922 -0.6039
  121OSM    C8S12722   0.994   2.822   6.083 -0.6255 -0.4592  0.7514
  121OSM    H8S12723   0.977   2.717   6.051 -1.3661 -0.6267  1.6420
  121OSM    H8T12724   1.095   2.810   6.130  0.1211  1.1357 -0.3493
  121OSM    C9S12725   1.017   2.908   5.949  1.0631  0.6859 -0.2261
  121OSM    H9S12726   1.055   3.008   5.980 -1.9837  1.0225  3.2025
  121OSM    H9T12727   0.920   2.924   5.897  0.9360 -1.3938 -0.6935
  121OSM   C10S12728   1.119   2.839   5.856  0.2555  0.6340 -0.1386
  121OSM   H10S12729   1.088   2.733   5.841  1.2735  0.0245  1.8106
  121OSM   H10T12730   1.218   2.828   5.903 -0.1550 -0.9162  0.3988
  121OSM   C11S12731   1.108   2.920   5.724  0.3595  0.3164 -0.5328
  121OSM   H11S12732   1.141   3.026   5.731  1.8532 -0.1707  0.2460
  121OSM   H11T12733   1.000   2.928   5.699  0.4590  1.0346 -0.7569
  121OSM   C12S12734   1.183   2.854   5.609 -0.0791  0.5574 -0.0290
  121OSM   H12S12735   1.148   2.753   5.580  1.8400  0.6166 -2.9860
  121OSM   H12T12736   1.287   2.840   5.645 -0.5664 -0.0202  1.2097
  121OSM   C13S12737   1.192   2.948   5.482 -0.5875  0.6499  0.0664
  121OSM   H13S12738   1.115   3.027   5.498  0.8529  1.8563  1.2358
  121OSM   H13T12739   1.168   2.889   5.390 -0.4657  0.5703  0.0859
  121OSM   C14S12740   1.316   3.038   5.465 -0.0701  0.4940 -0.3847
  121OSM   H14S12741   1.405   2.971   5.452 -1.9044 -1.9766 -0.9805
  121OSM   H14T12742   1.332   3.090   5.561  3.0017 -0.1305 -0.4455
  121OSM   C15S12743   1.292   3.127   5.350  0.2508  0.2231  0.5964
  121OSM   H15S12744   1.333   3.230   5.359 -0.2157  0.6665 -1.7195
  121OSM   H15T12745   1.185   3.131   5.318  0.3224 -0.3225  0.2764
  121OSM   C16S12746   1.371   3.086   5.226 -0.3169 -0.8305 -0.2475
  121OSM   H16S12747   1.336   2.986   5.194  0.9801 -1.3300 -0.1825
  121OSM   H16T12748   1.478   3.066   5.250  1.1590  3.6071 -1.9521
  121OSM   C17S12749   1.372   3.191   5.116 -0.0450  0.3606  0.1402
  121OSM   H17S12750   1.446   3.164   5.038 -0.7029  0.3452 -0.4853
  121OSM   H17T12751   1.406   3.285   5.165 -0.5562  0.1884  0.8462
  121OSM   C18S12752   1.237   3.211   5.045 -0.4766 -0.7737 -0.3624
  121OSM   H18S12753   1.244   3.297   4.976  1.7347 -1.5641 -1.1961
  121OSM   H18T12754   1.164   3.242   5.123  0.7378  0.6943  0.2282
  121OSM   H18U12755   1.197   3.116   5.002 -2.5378 -0.4321  0.6424
  121OSM    C1F12756   0.443   3.234   6.257 -0.1948 -0.4131  0.0328
  121OSM     OF12757   0.467   3.349   6.289 -0.3995 -0.3894 -0.2239
  121OSM    C2F12758   0.346   3.198   6.146 -0.0277 -0.5477  0.2470
  121OSM    H2F12759   0.252   3.158   6.189 -1.1028  0.9872 -0.5630
  121OSM    H2G12760   0.395   3.120   6.083  1.5760  0.4437  0.2075
  121OSM    C3F12761   0.313   3.313   6.049 -0.4062 -0.5538 -0.2971
  121OSM    H3F12762   0.405   3.343   5.993 -0.4982  2.6618  1.0317
  121OSM    H3G12763   0.276   3.407   6.096 -1.0729 -1.0766  0.2265
  121OSM    C4F12764   0.213   3.266   5.947 -0.3398  1.0476  0.4108
  121OSM    H4F12765   0.125   3.226   6.001 -1.1250 -1.2493 -2.3100
  121OSM    H4G12766   0.254   3.188   5.880  2.8063  2.3079  0.6483
  121OSM    C5F12767   0.159   3.373   5.859 -1.2630 -0.1904  0.2777
  121OSM    H5F12768   0.233   3.426   5.796 -0.9977  0.2414  0.9434
  121OSM    H5G12769   0.123   3.455   5.925 -2.4437 -1.6550  1.5314
  121OSM    C6F12770   0.037   3.326   5.774  0.2093 -0.6973 -0.1614
  121OSM    H6F12771  -0.009   3.414   5.724 -0.0411 -1.0615 -0.5791
  121OSM    H6G12772  -0.044   3.279   5.832  1.4465  0.0130  2.2829
  121OSM    C7F12773   0.076   3.254   5.645 -0.4641  0.0099 -0.1176
  121OSM    H7F12774   0.115   3.154   5.674  0.1940  0.5834  1.0132
  121OSM    H7G12775   0.161   3.310   5.601  1.3693 -2.8577 -0.5246
  121OSM    C8F12776  -0.023   3.242   5.528 -0.0374 -0.2171 -0.3206
  121OSM    H8F12777   0.030   3.186   5.448 -0.9302  1.8137 -2.4856
  121OSM    H8G12778  -0.046   3.344   5.488 -0.4257  0.8164  2.3687
  121OSM    C9F12779  -0.147   3.160   5.563 -0.2263  0.3633 -0.5180
  121OSM    H9F12780  -0.126   3.069   5.622  1.2938  1.2466  0.3712
  121OSM   C10F12781  -0.272   3.176   5.522  0.5706 -0.3147 -0.0666
  121OSM   H10F12782  -0.348   3.117   5.575 -0.9911  2.3584  0.8897
  121OSM   C11F12783  -0.331   3.295   5.448 -0.0415  0.0077  0.0603
  121OSM   H11F12784  -0.250   3.369   5.429  2.9255 -3.2146 -0.7765
  121OSM   H11G12785  -0.414   3.327   5.514 -1.1468 -0.3942 -1.0996
  121OSM   C12F12786  -0.372   3.243   5.302  0.1598  0.2013  0.2121
  121OSM   H12F12787  -0.287   3.194   5.250 -2.0424 -1.8541 -1.6776
  121OSM   H12G12788  -0.395   3.336   5.245 -0.6956  0.1708  0.5049
  121OSM   C13F12789  -0.501   3.158   5.312 -0.7097  0.6918 -0.3687
  121OSM   H13F12790  -0.584   3.223   5.348  0.9047  3.1461 -0.8504
  121OSM   H13G12791  -0.486   3.082   5.391  1.8833  1.2336 -0.2667
  121OSM   C14F12792  -0.531   3.089   5.178 -0.1534  0.1667  0.2439
  121OSM   H14F12793  -0.440   3.028   5.157 -0.6648 -1.0233  1.3958
  121OSM   H14G12794  -0.548   3.156   5.090 -0.3588 -2.1024 -1.5487
  121OSM   C15F12795  -0.657   3.004   5.188  0.4575 -0.1877  0.0002
  121OSM   H15F12796  -0.741   3.074   5.207 -0.0783 -0.9902  0.6711
  121OSM   H15G12797  -0.649   2.930   5.270 -0.0541 -0.5179 -0.2413
  121OSM   C16F12798  -0.696   2.916   5.070 -0.2106 -0.0287  0.7340
  121OSM   H16F12799  -0.733   2.972   4.982  1.8460 -0.5377 -0.5298
  121OSM   H16G12800  -0.779   2.851   5.107  0.4273 -0.6051  1.1925
  121OSM   C17F12801  -0.592   2.828   4.999 -0.0443  0.5286 -0.0134
  121OSM   H17F12802  -0.509   2.814   5.072  1.2862 -2.1976 -1.8603
  121OSM   H17G12803  -0.550   2.890   4.916 -2.2916  0.4714 -1.2607
  121OSM   C18F12804  -0.650   2.709   4.929  0.5742 -0.1938 -0.1722
  121OSM   H18F12805  -0.738   2.734   4.867  0.9720 -0.0766 -0.6910
  121OSM   H18G12806  -0.677   2.625   4.997  2.5608 -2.4667 -1.9656
  121OSM   H18H12807  -0.575   2.671   4.856  0.7139 -1.9553  0.8092
  122OSM      N12808   5.903   4.981   7.038  0.4479 -0.3025  0.0664
  122OSM    C1512809   5.917   4.943   7.184 -0.1008 -0.4199  0.2335
  122OSM   H15A12810   5.860   4.855   7.209  1.0767 -1.4633 -0.6584
  122OSM   H15B12811   5.878   5.027   7.241 -0.3531 -0.0904 -0.4152
  122OSM   H15C12812   6.022   4.927   7.202  0.2468 -0.7685 -1.8347
  122OSM    C1412813   5.974   4.888   6.947 -0.3646  0.6209 -0.5925
  122OSM   H14A12814   6.079   4.890   6.973 -0.6014 -0.2210  0.4700
  122OSM   H14B12815   5.973   4.925   6.845  1.6787  2.4284 -0.0238
  122OSM   H14C12816   5.923   4.794   6.962  2.3481 -1.0181 -1.1009
  122OSM    C1312817   5.757   4.984   7.014 -0.4616 -0.0321  0.4152
  122OSM   H13A12818   5.697   5.060   7.061 -1.4853 -0.2104 -0.5572
  122OSM   H13B12819   5.716   4.890   7.048 -0.5006 -0.6274 -1.1822
  122OSM   H13C12820   5.738   4.993   6.908 -0.8774  0.7204  0.5502
  122OSM    C1212821   5.966   5.117   7.012 -0.1971 -0.3672  0.1950
  122OSM   H12A12822   5.953   5.146   6.909  0.0606  0.4175  0.3781
  122OSM   H12B12823   6.072   5.100   7.017 -0.4276 -2.8048 -1.2035
  122OSM    C1112824   5.924   5.232   7.104  0.4046  0.1487  0.1696
  122OSM   H11A12825   5.999   5.313   7.093 -0.1743  0.7298  0.4702
  122OSM   H11B12826   5.942   5.209   7.212  0.1635  2.2232  0.6915
  122OSM      P12827   5.758   5.424   7.076  0.4241 -0.2439  0.2786
  122OSM    O1312828   5.630   5.442   7.008 -0.3479 -0.3379 -0.3559
  122OSM    O1412829   5.776   5.476   7.212 -1.1770  0.2227 -0.8560
  122OSM    O1112830   5.870   5.486   6.989  0.3633  0.0813  0.3977
  122OSM    O1212831   5.789   5.273   7.078  0.0677  0.0989 -0.1225
  122OSM    C1S12832   5.902   5.428   6.858  0.3257 -1.0888 -0.3316
  122OSM    H1S12833   5.835   5.343   6.835  0.2648 -0.8209 -1.1544
  122OSM    H1T12834   6.006   5.389   6.853  0.8893  0.2718  0.2784
  122OSM     NF12835   5.895   5.476   6.618  0.7260  0.0498 -0.2253
  122OSM    HNF12836   5.978   5.485   6.564  0.2559 -0.4801 -1.0480
  122OSM    C2S12837   5.892   5.540   6.749  0.1315  0.0478 -0.0243
  122OSM    H2S12838   5.802   5.605   6.752  0.2315  0.2697 -1.1858
  122OSM    C3S12839   6.006   5.643   6.770 -0.1869  0.4982 -0.0156
  122OSM    H3S12840   6.103   5.590   6.781 -0.1243  0.8343  1.0755
  122OSM     O312841   5.988   5.715   6.887  0.0629 -0.0031  0.0993
  122OSM    HO312842   5.911   5.672   6.925 -0.8240  1.7147  0.3724
  122OSM    C4S12843   6.017   5.739   6.646  0.1419 -0.1869 -0.6645
  122OSM    H4S12844   5.931   5.806   6.630  0.0325 -0.3073 -0.5773
  122OSM    C5S12845   6.138   5.752   6.581  1.6929 -0.1223  0.3280
  122OSM    H5S12846   6.225   5.689   6.603  0.2325 -2.3898 -0.0810
  122OSM    C6S12847   6.174   5.867   6.486 -0.0593 -0.0995 -0.9069
  122OSM    H6S12848   6.282   5.884   6.506  0.0561 -1.8535  0.1408
  122OSM    H6T12849   6.122   5.962   6.509  0.2396 -0.7420  3.1303
  122OSM    C7S12850   6.174   5.817   6.341 -1.0174 -0.2077  0.3765
  122OSM    H7S12851   6.070   5.804   6.306 -1.5128  0.0883  1.6744
  122OSM    H7T12852   6.228   5.720   6.331 -1.3576 -0.6984  2.6567
  122OSM    C8S12853   6.240   5.920   6.253 -0.0589 -0.0606 -0.1221
  122OSM    H8S12854   6.346   5.930   6.287 -0.2421 -0.8426  0.7098
  122OSM    H8T12855   6.202   6.022   6.275 -0.5466  0.2855 -2.3119
  122OSM    C9S12856   6.228   5.884   6.103  0.0974 -0.6843  0.0267
  122OSM    H9S12857   6.119   5.887   6.082  0.0752 -1.3953  0.0093
  122OSM    H9T12858   6.267   5.783   6.079  1.7318  0.0941 -0.7144
  122OSM   C10S12859   6.290   5.989   6.006 -0.2395  0.1050 -0.8192
  122OSM   H10S12860   6.401   5.982   6.014 -0.0852 -3.3790 -3.7276
  122OSM   H10T12861   6.255   6.091   6.032 -0.1834  0.0552 -0.5464
  122OSM   C11S12862   6.243   5.958   5.864  0.3123 -0.7862  0.4304
  122OSM   H11S12863   6.133   5.975   5.859  0.4887  0.0135 -1.2874
  122OSM   H11T12864   6.259   5.852   5.835 -0.7222 -0.9522  0.4087
  122OSM   C12S12865   6.315   6.062   5.779  0.3107 -0.8361 -0.1995
  122OSM   H12S12866   6.422   6.031   5.776  1.1145  1.8020 -2.0634
  122OSM   H12T12867   6.315   6.161   5.831  1.0666 -0.7052 -0.4451
  122OSM   C13S12868   6.255   6.061   5.642 -0.3496 -0.6874  0.3198
  122OSM   H13S12869   6.145   6.062   5.657 -0.4994  1.2468 -0.6628
  122OSM   H13T12870   6.295   5.966   5.600  3.7772 -0.2981  2.8268
  122OSM   C14S12871   6.287   6.176   5.538  0.3484  0.0498 -0.7233
  122OSM   H14S12872   6.396   6.176   5.515  0.8520 -3.6505  0.9655
  122OSM   H14T12873   6.267   6.271   5.592  1.5722  1.3136 -2.3712
  122OSM   C15S12874   6.202   6.178   5.418 -0.2217 -0.4150 -0.0090
  122OSM   H15S12875   6.099   6.214   5.442  0.4974  0.3595  2.1586
  122OSM   H15T12876   6.192   6.077   5.373  0.8724 -0.9441  0.8868
  122OSM   C16S12877   6.256   6.268   5.301 -0.6005 -0.1144 -0.1655
  122OSM   H16S12878   6.354   6.226   5.271  0.2585  1.2380  0.6394
  122OSM   H16T12879   6.278   6.373   5.329  0.3683 -0.2126 -0.5220
  122OSM   C17S12880   6.163   6.270   5.177 -0.0573  0.1100  0.8258
  122OSM   H17S12881   6.081   6.342   5.194  0.6282  1.4564 -1.2548
  122OSM   H17T12882   6.113   6.171   5.177  3.1678 -1.6598  0.1177
  122OSM   C18S12883   6.242   6.300   5.046 -0.1023 -0.0992 -0.4081
  122OSM   H18S12884   6.274   6.407   5.049  0.6604 -0.2803 -1.6312
  122OSM   H18T12885   6.184   6.283   4.953  1.1973  0.7259 -1.3948
  122OSM   H18U12886   6.335   6.240   5.055 -0.7667 -1.2344 -0.9157
  122OSM    C1F12887   5.795   5.401   6.583 -0.0960  1.4152 -0.0319
  122OSM     OF12888   5.686   5.394   6.634  0.4575  0.3374 -0.0329
  122OSM    C2F12889   5.835   5.315   6.470  0.6002 -0.1742 -0.0284
  122OSM    H2F12890   5.890   5.229   6.512  1.4914 -0.4249 -1.6552
  122OSM    H2G12891   5.905   5.377   6.410  1.9068 -1.6757 -0.1089
  122OSM    C3F12892   5.725   5.272   6.374  0.5326 -0.3574  0.4688
  122OSM    H3F12893   5.682   5.359   6.319 -2.3616 -1.9542 -0.0030
  122OSM    H3G12894   5.642   5.224   6.429 -0.7294 -0.9406 -1.8087
  122OSM    C4F12895   5.774   5.157   6.271  0.3471 -0.1111 -0.3142
  122OSM    H4F12896   5.808   5.069   6.330 -1.4441 -0.8985 -0.4157
  122OSM    H4G12897   5.856   5.199   6.209  0.7246  1.5179  1.1869
  122OSM    C5F12898   5.655   5.114   6.173 -0.8909 -0.0276  0.1312
  122OSM    H5F12899   5.582   5.198   6.173  0.5123  1.2461  0.0219
  122OSM    H5G12900   5.615   5.017   6.208  1.3978 -0.8866  0.5359
  122OSM    C6F12901   5.699   5.085   6.030 -0.1570  0.1412 -0.1735
  122OSM    H6F12902   5.633   5.013   5.978 -0.7985  0.7074 -0.1536
  122OSM    H6G12903   5.801   5.042   6.043 -0.7204 -1.1245  0.2154
  122OSM    C7F12904   5.696   5.204   5.933  0.2954  0.4870 -0.7350
  122OSM    H7F12905   5.726   5.296   5.988 -1.1650  0.0593  0.8807
  122OSM    H7G12906   5.588   5.223   5.911  0.2703  0.6760 -0.4609
  122OSM    C8F12907   5.752   5.179   5.791 -0.1630  0.6592  0.1410
  122OSM    H8F12908   5.858   5.167   5.824 -0.0074  0.7800 -0.3068
  122OSM    H8G12909   5.726   5.270   5.733 -0.5118  1.0505  0.8987
  122OSM    C9F12910   5.717   5.048   5.717 -0.8729 -0.1208  0.0693
  122OSM    H9F12911   5.715   4.963   5.787  2.6393 -1.7640 -1.5722
  122OSM   C10F12912   5.686   5.039   5.588  0.2542  0.0311  0.2180
  122OSM   H10F12913   5.664   4.940   5.544 -0.4785 -0.2717  1.2255
  122OSM   C11F12914   5.691   5.148   5.483 -0.6828 -0.3627  0.2453
  122OSM   H11F12915   5.732   5.242   5.528 -0.3680 -0.9538  1.2396
  122OSM   H11G12916   5.597   5.160   5.425 -0.2138  1.6762 -0.1821
  122OSM   C12F12917   5.801   5.127   5.375  0.1798  1.0301 -0.3258
  122OSM   H12F12918   5.883   5.088   5.439  0.4922  1.3649 -0.5183
  122OSM   H12G12919   5.835   5.223   5.330  0.7610  1.3030  0.6747
  122OSM   C13F12920   5.774   5.024   5.259 -0.3250 -0.7119 -0.1881
  122OSM   H13F12921   5.752   4.920   5.292 -0.9314 -0.5537 -0.0837
  122OSM   H13G12922   5.875   5.020   5.214 -0.6991  1.2405 -1.3081
  122OSM   C14F12923   5.678   5.081   5.153  0.5478  0.7745  0.0389
  122OSM   H14F12924   5.707   5.186   5.128  0.0185  1.0940  0.7217
  122OSM   H14G12925   5.577   5.090   5.199  0.3506 -1.8087  0.2513
  122OSM   C15F12926   5.665   4.980   5.035 -1.0452 -0.2107  0.3714
  122OSM   H15F12927   5.571   4.994   4.977  0.0975 -0.5302 -1.6190
  122OSM   H15G12928   5.651   4.874   5.065 -0.9624 -0.1507  0.6243
  122OSM   C16F12929   5.791   4.993   4.950 -0.7099  0.0434 -0.5907
  122OSM   H16F12930   5.875   4.951   5.010 -0.9954 -0.1560 -0.3284
  122OSM   H16G12931   5.807   5.103   4.940 -0.0932  0.1582  1.2690
  122OSM   C17F12932   5.764   4.929   4.819 -0.5703  0.3152  0.9148
  122OSM   H17F12933   5.697   5.004   4.771 -0.1046  0.5212  0.5778
  122OSM   H17G12934   5.705   4.835   4.826  0.6041 -0.3328  2.7061
  122OSM   C18F12935   5.879   4.906   4.716  0.1571 -0.2906 -0.3809
  122OSM   H18F12936   5.832   4.866   4.623 -2.2195 -1.7732  1.3607
  122OSM   H18G12937   5.953   4.837   4.761  0.5230  1.2450  1.4924
  122OSM   H18H12938   5.940   4.996   4.693 -1.0834  0.5673 -0.4170
  123OSM      N12939   2.119   3.434   2.232  0.2264 -0.3810 -0.4599
  123OSM    C1512940   2.141   3.310   2.309  0.2021 -0.1490  0.1731
  123OSM   H15A12941   2.212   3.324   2.389 -2.4895  1.4989  2.4046
  123OSM   H15B12942   2.192   3.235   2.250  1.4758 -0.6333  1.8276
  123OSM   H15C12943   2.051   3.267   2.349  0.3379  1.8798  2.8919
  123OSM    C1412944   2.246   3.517   2.227  0.0968 -0.3630 -0.4427
  123OSM   H14A12945   2.277   3.573   2.314 -1.4993  0.3173 -0.2724
  123OSM   H14B12946   2.239   3.600   2.157 -0.0700  2.2551  2.4479
  123OSM   H14C12947   2.326   3.463   2.180  0.5687  1.2175 -1.5591
  123OSM    C1312948   2.080   3.393   2.094  0.5561 -0.7204  0.0569
  123OSM   H13A12949   2.012   3.309   2.104  1.1429 -1.0978  1.0428
  123OSM   H13B12950   2.168   3.360   2.041  1.0797  0.4206  0.2105
  123OSM   H13C12951   2.040   3.476   2.039  1.4295  0.6988  1.4852
  123OSM    C1212952   2.007   3.523   2.305 -0.3914 -0.1995  0.2356
  123OSM   H12A12953   2.004   3.619   2.255  0.0723 -0.9722 -1.3578
  123OSM   H12B12954   2.040   3.542   2.406  3.4687 -0.6139 -0.7681
  123OSM    C1112955   1.859   3.484   2.309  0.3733  0.7352 -0.0335
  123OSM   H11A12956   1.821   3.466   2.206 -0.4904 -2.7704  0.7396
  123OSM   H11B12957   1.806   3.569   2.357  0.6088  0.7331  0.2314
  123OSM      P12958   1.744   3.255   2.342  0.0664 -0.5048  0.2311
  123OSM    O1312959   1.609   3.319   2.330 -0.5424  0.4008  0.0603
  123OSM    O1412960   1.785   3.178   2.225 -0.2432  0.5355  0.4069
  123OSM    O1112961   1.744   3.164   2.471  0.3955  0.0082 -0.5600
  123OSM    O1212962   1.850   3.362   2.390  0.3630 -0.1045  0.0089
  123OSM    C1S12963   1.763   3.227   2.599 -0.4961  0.6807  0.8170
  123OSM    H1S12964   1.711   3.325   2.605  0.1510  1.2426 -1.7123
  123OSM    H1T12965   1.869   3.243   2.626 -0.6519 -0.1464  2.0465
  123OSM     NF12966   1.701   3.223   2.843  0.1515  0.2626 -0.0348
  123OSM    HNF12967   1.772   3.225   2.913  0.1356 -1.1709  0.0589
  123OSM    C2S12968   1.725   3.139   2.722 -0.3039  0.3905 -0.1724
  123OSM    H2S12969   1.637   3.074   2.704  0.1704  0.0360 -1.2862
  123OSM    C3S12970   1.835   3.025   2.740 -0.1512 -0.1154  0.0287
  123OSM    H3S12971   1.932   3.074   2.761  1.9258 -2.9686 -2.0809
  123OSM     O312972   1.858   2.953   2.616  0.2254  0.4331  0.2980
  123OSM    HO312973   1.818   3.007   2.547 -0.0845 -0.7955 -0.5230
  123OSM    C4S12974   1.805   2.929   2.859  0.0970 -0.2118  0.1419
  123OSM    H4S12975   1.806   2.989   2.951  0.5116 -0.7849  0.5239
  123OSM    C5S12976   1.768   2.793   2.859  0.1178  0.1804 -0.4743
  123OSM    H5S12977   1.733   2.747   2.766 -1.0819  0.2170 -0.0535
  123OSM    C6S12978   1.738   2.713   2.986 -0.7188  0.4692 -0.0342
  123OSM    H6S12979   1.833   2.667   3.022 -0.4760  0.5818 -0.5157
  123OSM    H6T12980   1.672   2.629   2.959 -0.3741  0.2394 -0.1723
  123OSM    C7S12981   1.706   2.794   3.120  0.4435 -0.1546  0.2590
  123OSM    H7S12982   1.608   2.842   3.103  0.9349  0.7235 -0.1386
  123OSM    H7T12983   1.790   2.864   3.138  0.2578 -0.4321  2.5469
  123OSM    C8S12984   1.705   2.707   3.250 -0.3787 -0.2819  0.1176
  123OSM    H8S12985   1.783   2.745   3.319  2.5765 -2.8692 -1.5612
  123OSM    H8T12986   1.729   2.601   3.228  1.1439 -0.0655  0.6457
  123OSM    C9S12987   1.562   2.703   3.301 -0.2077 -0.4487  0.3157
  123OSM    H9S12988   1.495   2.683   3.215 -1.0201  2.5196  0.1749
  123OSM    H9T12989   1.537   2.801   3.345  1.1405 -0.0924  0.3451
  123OSM   C10S12990   1.538   2.584   3.390  0.5654  0.2326  0.1464
  123OSM   H10S12991   1.613   2.607   3.469  0.2343  2.8212 -0.2211
  123OSM   H10T12992   1.564   2.488   3.339  0.8074  0.9076 -1.0325
  123OSM   C11S12993   1.396   2.578   3.451 -0.1139 -0.1179 -0.5278
  123OSM   H11S12994   1.330   2.534   3.373  0.4004  0.5064 -1.3288
  123OSM   H11T12995   1.379   2.685   3.476  1.9085 -0.0033  0.5796
  123OSM   C12S12996   1.399   2.491   3.576 -0.3495 -0.2348 -0.0120
  123OSM   H12S12997   1.475   2.521   3.651 -1.0299  1.3600  0.0663
  123OSM   H12T12998   1.412   2.382   3.556  1.4301  0.3438 -2.5950
  123OSM   C13S12999   1.274   2.513   3.650  0.1146  0.1650  0.1601
  123OSM   H13S13000   1.191   2.467   3.592  0.6376  1.9017 -2.0847
  123OSM   H13T13001   1.260   2.621   3.672  0.0050  0.0494  0.6862
  123OSM   C14S13002   1.272   2.445   3.789  0.8347 -0.2277  0.8897
  123OSM   H14S13003   1.371   2.454   3.839  0.6571 -1.3109  1.4817
  123OSM   H14T13004   1.260   2.336   3.771 -1.9415 -0.4242  3.1150
  123OSM   C15S13005   1.169   2.499   3.892  0.2098 -0.9473 -0.6701
  123OSM   H15S13006   1.066   2.516   3.854 -0.0784 -1.1852 -0.0212
  123OSM   H15T13007   1.221   2.595   3.914  0.5480 -1.2574 -0.0853
  123OSM   C16S13008   1.175   2.414   4.024  0.1136  0.1935  0.8194
  123OSM   H16S13009   1.284   2.402   4.040  0.4410  1.7119 -0.1080
  123OSM   H16T13010   1.128   2.314   4.010 -0.1870  0.4335  0.0543
  123OSM   C17S13011   1.095   2.477   4.138 -0.5257  0.5376  0.2710
  123OSM   H17S13012   0.991   2.489   4.102 -0.5952 -0.2420  0.2049
  123OSM   H17T13013   1.139   2.579   4.147 -1.0275  0.8529 -0.7117
  123OSM   C18S13014   1.098   2.411   4.273 -0.1748  0.4216 -0.3772
  123OSM   H18S13015   1.042   2.478   4.342  1.2054  0.9066  0.3157
  123OSM   H18T13016   1.207   2.398   4.289 -0.0412 -1.5439 -2.3519
  123OSM   H18U13017   1.047   2.316   4.246  0.6274  0.2489 -1.3800
  123OSM    C1F13018   1.603   3.313   2.850  0.0986  0.5410 -0.0624
  123OSM     OF13019   1.519   3.303   2.762  0.5479  0.5885 -0.4055
  123OSM    C2F13020   1.603   3.415   2.959  0.0110  0.1669  0.0635
  123OSM    H2F13021   1.703   3.414   3.009  0.7574  0.9820 -1.3569
  123OSM    H2G13022   1.523   3.385   3.031  0.5207 -2.1732 -0.2411
  123OSM    C3F13023   1.585   3.555   2.903  0.0858 -0.6057  0.1032
  123OSM    H3F13024   1.509   3.551   2.821 -0.6272 -2.5991  0.8030
  123OSM    H3G13025   1.682   3.586   2.858  0.4237 -0.9352  0.5984
  123OSM    C4F13026   1.553   3.660   3.001 -0.0972  0.1568 -0.1809
  123OSM    H4F13027   1.460   3.630   3.055  0.1434  0.3980  0.3795
  123OSM    H4G13028   1.528   3.756   2.951  0.7986  0.0272 -0.8987
  123OSM    C5F13029   1.668   3.685   3.104 -0.5061  0.0562 -0.0715
  123OSM    H5F13030   1.766   3.682   3.052 -0.0913  0.7424  0.6666
  123OSM    H5G13031   1.679   3.592   3.164  1.1458 -0.9032 -1.7324
  123OSM    C6F13032   1.644   3.803   3.196  0.1393 -0.3540  0.2925
  123OSM    H6F13033   1.595   3.879   3.131  0.1691  0.6210  1.3864
  123OSM    H6G13034   1.740   3.830   3.245 -0.2062  0.9396  0.2820
  123OSM    C7F13035   1.552   3.776   3.315 -0.4835  0.2792  0.1823
  123OSM    H7F13036   1.600   3.694   3.372 -3.6849 -0.2313  2.3776
  123OSM    H7G13037   1.450   3.746   3.284 -0.7784 -0.4447  1.7705
  123OSM    C8F13038   1.526   3.910   3.381 -0.2395  0.4661 -0.0733
  123OSM    H8F13039   1.503   3.983   3.300  0.6186 -1.2652 -1.9456
  123OSM    H8G13040   1.624   3.948   3.417  0.3863 -0.7639 -0.4160
  123OSM    C9F13041   1.418   3.904   3.486 -0.4351 -0.4952  0.4202
  123OSM    H9F13042   1.318   3.873   3.450 -0.5425 -1.3234  1.3955
  123OSM   C10F13043   1.425   3.905   3.617 -0.4144 -0.2187  0.5553
  123OSM   H10F13044   1.329   3.906   3.671 -2.1043 -0.1229 -2.2759
  123OSM   C11F13045   1.551   3.908   3.700  0.5694 -0.6470  0.6150
  123OSM   H11F13046   1.537   3.987   3.776  0.9421 -0.5854  0.6221
  123OSM   H11G13047   1.647   3.934   3.650  0.0876  0.3573  0.1836
  123OSM   C12F13048   1.569   3.777   3.771  0.1088 -0.0626  0.5343
  123OSM   H12F13049   1.607   3.692   3.711  0.1934 -1.7429  2.8283
  123OSM   H12G13050   1.476   3.749   3.826 -1.1500  1.8186 -0.5271
  123OSM   C13F13051   1.672   3.782   3.890 -0.5039 -0.1353 -0.6755
  123OSM   H13F13052   1.652   3.690   3.950  2.9486 -1.1024 -0.7630
  123OSM   H13G13053   1.645   3.876   3.943 -1.1502 -1.5357  1.5945
  123OSM   C14F13054   1.818   3.779   3.845  0.3421  0.3115  0.7380
  123OSM   H14F13055   1.845   3.885   3.825  2.9762 -0.5734 -1.0011
  123OSM   H14G13056   1.829   3.722   3.750 -1.4596  1.3047 -0.1179
  123OSM   C15F13057   1.906   3.723   3.960 -0.7895  0.3084 -0.0488
  123OSM   H15F13058   1.998   3.690   3.907 -1.6316  0.5032 -1.7248
  123OSM   H15G13059   1.850   3.634   3.996 -2.0708  0.7750 -0.7970
  123OSM   C16F13060   1.925   3.812   4.078  0.5917  0.0055 -0.0162
  123OSM   H16F13061   1.828   3.814   4.132  0.7419 -1.8487  0.4146
  123OSM   H16G13062   1.956   3.911   4.040  1.2079 -0.2091 -0.0895
  123OSM   C17F13063   2.031   3.772   4.186  0.3476 -0.7590 -0.0075
  123OSM   H17F13064   2.132   3.780   4.142  1.3666  1.0864  2.4097
  123OSM   H17G13065   1.995   3.668   4.201 -1.0677 -0.0551  1.8824
  123OSM   C18F13066   2.025   3.855   4.319 -0.6530  0.7072  0.5726
  123OSM   H18F13067   2.129   3.855   4.358 -0.5975 -1.6236  0.5580
  123OSM   H18G13068   1.964   3.800   4.393 -0.5587  2.0283  1.6775
  123OSM   H18H13069   2.000   3.962   4.300  0.0117  0.4532 -2.0985
  124OSM      N13070   1.641   4.740   2.454  0.0512 -0.6535 -0.2948
  124OSM    C1513071   1.671   4.846   2.551  0.3671  0.2942  0.9957
  124OSM   H15A13072   1.778   4.854   2.568  0.5523  1.0089 -0.3847
  124OSM   H15B13073   1.620   4.825   2.644 -0.0146 -1.4726  0.4248
  124OSM   H15C13074   1.637   4.940   2.510  0.2610  0.1617  0.7835
  124OSM    C1413075   1.748   4.725   2.351  0.5106  0.3514  0.1180
  124OSM   H14A13076   1.778   4.822   2.316  0.2439  0.0181 -1.0634
  124OSM   H14B13077   1.717   4.666   2.267  0.7486  0.1254  0.1860
  124OSM   H14C13078   1.836   4.676   2.391  0.3202  0.3579  0.5548
  124OSM    C1313079   1.620   4.621   2.530 -0.0466  0.4664 -0.6212
  124OSM   H13A13080   1.529   4.627   2.587  0.6568  0.3971  0.5516
  124OSM   H13B13081   1.705   4.587   2.588  0.1033 -1.3270 -1.7943
  124OSM   H13C13082   1.602   4.544   2.456 -1.3960 -0.1225  0.2926
  124OSM    C1213083   1.514   4.783   2.370 -0.6181  0.3234 -1.2271
  124OSM   H12A13084   1.432   4.781   2.440  0.4647 -0.8795  0.0817
  124OSM   H12B13085   1.493   4.704   2.300  1.8515 -1.6869  0.0938
  124OSM    C1113086   1.518   4.928   2.306 -0.2694  0.1274 -0.0839
  124OSM   H11A13087   1.427   4.921   2.243 -1.7707 -1.0477  2.0567
  124OSM   H11B13088   1.612   4.946   2.249 -1.1397  1.9931 -1.0197
  124OSM      P13089   1.381   5.108   2.427  0.2826 -0.5879  0.0668
  124OSM    O1313090   1.385   5.236   2.348  0.0188  0.4539  0.0908
  124OSM    O1413091   1.263   5.016   2.425 -0.4997  0.0128 -0.8323
  124OSM    O1113092   1.399   5.151   2.576 -0.2292  0.2591 -0.2223
  124OSM    O1213093   1.518   5.038   2.394 -0.3967 -0.3102 -0.1772
  124OSM    C1S13094   1.526   5.172   2.638  0.2228  0.0187  0.4281
  124OSM    H1S13095   1.559   5.275   2.612 -0.0596 -0.1753 -0.7750
  124OSM    H1T13096   1.609   5.103   2.612  1.5922  1.8093 -0.1887
  124OSM     NF13097   1.646   5.203   2.842 -0.2944 -0.0698  0.3702
  124OSM    HNF13098   1.705   5.123   2.856  1.1573  0.1586 -3.1829
  124OSM    C2S13099   1.518   5.172   2.790  0.2782  0.0889 -0.5058
  124OSM    H2S13100   1.442   5.247   2.821  0.2892 -0.4259  0.7981
  124OSM    C3S13101   1.468   5.030   2.828 -0.3250  0.0694 -0.4422
  124OSM    H3S13102   1.539   4.954   2.788 -0.8075 -0.6514  0.0518
  124OSM     O313103   1.342   4.992   2.779  0.0224 -0.0529 -0.4689
  124OSM    HO313104   1.338   5.044   2.699  1.8413  1.5710  0.4311
  124OSM    C4S13105   1.450   5.010   2.978  0.2649  0.1748  0.0867
  124OSM    H4S13106   1.391   5.087   3.030  0.4183  0.5690 -0.3128
  124OSM    C5S13107   1.509   4.921   3.055 -1.0163  0.3266  0.3072
  124OSM    H5S13108   1.567   4.840   3.009  1.3296  0.8688  2.1030
  124OSM    C6S13109   1.498   4.921   3.203  0.6698  0.4590 -0.4833
  124OSM    H6S13110   1.427   5.000   3.236 -1.9273 -1.1656 -1.8642
  124OSM    H6T13111   1.590   4.944   3.262  0.2405  0.1089  0.3432
  124OSM    C7S13112   1.436   4.792   3.263  0.0317  0.2080  0.4667
  124OSM    H7S13113   1.484   4.705   3.214 -0.8289 -0.8531  1.4597
  124OSM    H7T13114   1.330   4.793   3.229 -0.8944  2.4466  3.0376
  124OSM    C8S13115   1.436   4.772   3.416  0.9752  0.2311 -0.5077
  124OSM    H8S13116   1.393   4.674   3.446 -2.0688  1.6999  0.4290
  124OSM    H8T13117   1.370   4.850   3.460  0.4797  0.1165 -1.0404
  124OSM    C9S13118   1.574   4.780   3.478 -0.3409  0.5636  0.6220
  124OSM    H9S13119   1.612   4.883   3.457  0.4793  0.0011 -0.7612
  124OSM    H9T13120   1.641   4.712   3.421 -0.6893  1.3511 -0.7861
  124OSM   C10S13121   1.603   4.750   3.627 -0.5820 -0.1017  0.3020
  124OSM   H10S13122   1.701   4.784   3.666 -1.2744  3.4095 -0.6116
  124OSM   H10T13123   1.598   4.639   3.629  0.9280 -0.2464 -1.6104
  124OSM   C11S13124   1.499   4.813   3.730  0.3069 -0.5294  0.3369
  124OSM   H11S13125   1.405   4.763   3.697  0.7940 -1.2251 -0.0287
  124OSM   H11T13126   1.483   4.919   3.701 -2.1478 -0.9368  0.0267
  124OSM   C12S13127   1.520   4.773   3.878 -0.1647 -0.5743  0.0588
  124OSM   H12S13128   1.606   4.831   3.920  0.4233 -1.2725 -0.1553
  124OSM   H12T13129   1.549   4.666   3.882 -0.6603 -0.7211 -0.2829
  124OSM   C13S13130   1.397   4.802   3.967  0.1112  0.1308  0.7554
  124OSM   H13S13131   1.310   4.751   3.920 -0.5707  2.8236 -1.1348
  124OSM   H13T13132   1.369   4.910   3.974  0.9715  0.2934  2.0793
  124OSM   C14S13133   1.408   4.756   4.118 -0.6080  0.3252 -0.3207
  124OSM   H14S13134   1.429   4.647   4.113 -0.8797  0.3245 -2.4768
  124OSM   H14T13135   1.313   4.776   4.172  0.7471  1.7523  1.7424
  124OSM   C15S13136   1.521   4.837   4.185  0.2448 -0.3639 -0.6962
  124OSM   H15S13137   1.495   4.943   4.205 -0.5715 -0.2335 -2.2722
  124OSM   H15T13138   1.620   4.826   4.135 -0.3168  0.3717 -2.0265
  124OSM   C16S13139   1.542   4.776   4.323  0.1376 -0.4289 -0.5133
  124OSM   H16S13140   1.537   4.666   4.311  0.8274 -0.4715 -0.4499
  124OSM   H16T13141   1.459   4.802   4.392 -1.0970 -0.2929 -1.9994
  124OSM   C17S13142   1.677   4.818   4.386  0.5215  0.2215  0.1981
  124OSM   H17S13143   1.666   4.924   4.417  2.5884  0.5035  0.1137
  124OSM   H17T13144   1.760   4.808   4.313  0.9972 -0.4923  0.8231
  124OSM   C18S13145   1.702   4.722   4.504  0.3013 -0.3377 -0.3238
  124OSM   H18S13146   1.800   4.750   4.548 -0.5594  0.5562  1.1162
  124OSM   H18T13147   1.721   4.620   4.465  0.8151  0.3199 -1.8712
  124OSM   H18U13148   1.632   4.716   4.590 -0.1918  0.8935 -0.6134
  124OSM    C1F13149   1.690   5.323   2.859 -0.4737 -0.3231 -0.9189
  124OSM     OF13150   1.615   5.417   2.832 -0.4046  0.0087  0.1064
  124OSM    C2F13151   1.831   5.347   2.915 -0.4516  0.6772 -0.6657
  124OSM    H2F13152   1.861   5.448   2.880  1.8858 -0.0055 -0.8079
  124OSM    H2G13153   1.902   5.273   2.874  0.3979  0.3408  1.2700
  124OSM    C3F13154   1.828   5.340   3.065  0.5121 -0.1123  0.0484
  124OSM    H3F13155   1.760   5.257   3.094  1.1079 -1.1951 -1.5381
  124OSM    H3G13156   1.797   5.436   3.112  1.4359  2.0487 -3.3602
  124OSM    C4F13157   1.966   5.295   3.110 -0.2259  0.5608 -0.0666
  124OSM    H4F13158   2.037   5.371   3.069  1.9528 -0.2772  1.9178
  124OSM    H4G13159   1.974   5.200   3.054 -2.6988  0.2292  0.0614
  124OSM    C5F13160   1.968   5.281   3.265 -0.4803 -0.6564 -0.1237
  124OSM    H5F13161   2.054   5.220   3.299  0.5080  1.5347  1.5420
  124OSM    H5G13162   1.870   5.243   3.300 -1.0881 -0.2129 -1.2794
  124OSM    C6F13163   1.988   5.424   3.319  0.0406 -0.1935  0.4432
  124OSM    H6F13164   1.893   5.480   3.305 -0.9194 -1.4659  1.6378
  124OSM    H6G13165   2.072   5.482   3.274  1.4233 -0.2479  2.8241
  124OSM    C7F13166   2.012   5.408   3.471 -0.3147  0.4878  0.5358
  124OSM    H7F13167   2.109   5.354   3.477  0.0181  0.9289 -0.5249
  124OSM    H7G13168   1.950   5.332   3.522 -0.2896 -0.7350 -1.1607
  124OSM    C8F13169   2.020   5.549   3.534 -0.2653  0.4535 -0.2837
  124OSM    H8F13170   2.100   5.608   3.483  3.1862 -1.0224  2.9122
  124OSM    H8G13171   2.062   5.533   3.636  1.3507  1.8223 -0.6702
  124OSM    C9F13172   1.877   5.600   3.526  0.1416 -0.0313 -0.2676
  124OSM    H9F13173   1.848   5.645   3.430 -0.1300  2.7727  1.0283
  124OSM   C10F13174   1.783   5.586   3.617 -0.2168 -0.1243 -0.1861
  124OSM   H10F13175   1.688   5.638   3.597 -0.0100 -0.2669 -1.6729
  124OSM   C11F13176   1.791   5.540   3.761 -0.7832  0.1584  0.6724
  124OSM   H11F13177   1.837   5.439   3.768 -0.5791  0.2281  0.3558
  124OSM   H11G13178   1.691   5.539   3.811 -0.4324  0.8075  1.4093
  124OSM   C12F13179   1.882   5.624   3.839 -0.5856 -0.1909 -0.3996
  124OSM   H12F13180   1.838   5.726   3.849 -1.3299 -0.3665 -1.7517
  124OSM   H12G13181   1.974   5.645   3.781 -0.7430  0.8154 -0.3028
  124OSM   C13F13182   1.897   5.568   3.976 -0.6096  0.4038 -0.4622
  124OSM   H13F13183   1.949   5.471   3.962 -1.6229 -0.2022 -0.1299
  124OSM   H13G13184   1.798   5.538   4.018 -0.2698 -0.1574 -0.0459
  124OSM   C14F13185   1.977   5.663   4.062 -0.2878 -0.2499 -0.6155
  124OSM   H14F13186   1.927   5.762   4.070  3.1448  1.6433 -0.6726
  124OSM   H14G13187   2.077   5.697   4.030  0.3541  0.9994  2.3057
  124OSM   C15F13188   2.018   5.610   4.203 -0.4003 -0.2066  0.1291
  124OSM   H15F13189   2.090   5.528   4.184 -0.7797 -0.1924 -1.5651
  124OSM   H15G13190   1.931   5.586   4.268 -0.1001  0.4961  0.8136
  124OSM   C16F13191   2.092   5.714   4.291  0.4882 -0.8826  0.0606
  124OSM   H16F13192   2.018   5.794   4.314  2.6281  1.1570  0.3515
  124OSM   H16G13193   2.182   5.759   4.245  1.6165 -2.1402  0.9385
  124OSM   C17F13194   2.135   5.674   4.430  0.0662  0.0561  0.9129
  124OSM   H17F13195   2.195   5.581   4.419  1.1577  0.8805 -0.3912
  124OSM   H17G13196   2.040   5.652   4.484 -0.7073  2.3033  0.5932
  124OSM   C18F13197   2.230   5.773   4.499  0.2772  1.0363  0.2587
  124OSM   H18F13198   2.277   5.716   4.582  3.2861  2.4871 -0.3181
  124OSM   H18G13199   2.172   5.858   4.540 -0.6321  0.2266  0.6938
  124OSM   H18H13200   2.311   5.808   4.431 -2.3211  2.1775 -2.4810
  125OSM      N13201   3.265   1.228   2.486 -0.1384  0.8374  0.0031
  125OSM    C1513202   3.201   1.218   2.348 -0.3994 -0.1531  0.5544
  125OSM   H15A13203   3.133   1.300   2.329  0.8451  0.5656 -1.0355
  125OSM   H15B13204   3.138   1.131   2.336  0.2397 -0.7656  1.4864
  125OSM   H15C13205   3.272   1.212   2.267 -0.2650 -0.9965  0.7283
  125OSM    C1413206   3.369   1.114   2.484 -0.3370 -0.1954 -0.2797
  125OSM   H14A13207   3.311   1.023   2.485 -3.1882  1.4276  2.9694
  125OSM   H14B13208   3.437   1.128   2.566 -1.6132  3.2023  0.3750
  125OSM   H14C13209   3.430   1.116   2.395  1.5158  3.9000  0.8195
  125OSM    C1313210   3.338   1.355   2.491 -0.1784 -0.3636  0.1447
  125OSM   H13A13211   3.267   1.436   2.489 -0.8707 -0.9394  0.7692
  125OSM   H13B13212   3.417   1.364   2.417  0.3240 -0.8445  0.6174
  125OSM   H13C13213   3.397   1.364   2.581  1.0694 -0.4648 -0.6495
  125OSM    C1213214   3.172   1.215   2.602  0.1818 -0.0529 -0.6875
  125OSM   H12A13215   3.098   1.294   2.607 -0.7418 -0.9452  0.0151
  125OSM   H12B13216   3.232   1.241   2.688  0.9934  2.2116 -1.8604
  125OSM    C1113217   3.101   1.081   2.629 -0.1839 -0.4230  0.1712
  125OSM   H11A13218   3.055   1.073   2.730  1.2859  0.9540  0.9961
  125OSM   H11B13219   3.172   0.996   2.625 -0.9436 -1.1917  2.0408
  125OSM      P13220   2.858   1.136   2.537  0.2742  0.2695  0.6368
  125OSM    O1313221   2.839   1.203   2.407  0.2615 -0.3725 -0.3126
  125OSM    O1413222   2.756   1.033   2.569 -0.0357  0.3337  0.3488
  125OSM    O1113223   2.882   1.244   2.655 -0.5962  1.1235 -0.3868
  125OSM    O1213224   2.999   1.057   2.530  0.2482  0.3332  0.5503
  125OSM    C1S13225   2.812   1.366   2.654 -0.2594 -0.7776 -0.0658
  125OSM    H1S13226   2.715   1.360   2.601  0.4502  1.2906 -1.7164
  125OSM    H1T13227   2.873   1.437   2.594 -2.5090  1.4139  0.0842
  125OSM     NF13228   2.714   1.554   2.771 -0.6780  0.4856  0.2690
  125OSM    HNF13229   2.762   1.639   2.753 -0.0850  0.4108  1.4189
  125OSM    C2S13230   2.797   1.438   2.793  0.7312  0.1843  0.2154
  125OSM    H2S13231   2.741   1.367   2.857  0.0168  1.9483  1.6320
  125OSM    C3S13232   2.940   1.461   2.849 -0.5952  0.1254 -0.0067
  125OSM    H3S13233   2.994   1.534   2.784  0.7555 -1.0187 -0.2189
  125OSM     O313234   3.012   1.345   2.860  1.1456  0.3463 -0.4265
  125OSM    HO313235   2.968   1.287   2.797 -2.9857  1.4005  1.1976
  125OSM    C4S13236   2.931   1.509   2.989 -0.6044  0.0090 -0.0282
  125OSM    H4S13237   2.907   1.427   3.059 -1.8301  0.7282  0.4271
  125OSM    C5S13238   2.952   1.635   3.037  0.1245 -0.1105  0.4292
  125OSM    H5S13239   2.964   1.721   2.970 -0.8529 -0.7998 -0.6654
  125OSM    C6S13240   2.908   1.661   3.184 -0.0453 -1.0781  0.2903
  125OSM    H6S13241   2.960   1.754   3.216 -0.5786  0.1387 -2.1689
  125OSM    H6T13242   2.944   1.588   3.261  0.8308  0.8477  1.7927
  125OSM    C7S13243   2.757   1.686   3.213 -0.3035 -0.4013 -0.0162
  125OSM    H7S13244   2.708   1.598   3.166 -1.2161 -0.5798  1.2234
  125OSM    H7T13245   2.712   1.772   3.158 -0.8138 -1.5729 -1.5197
  125OSM    C8S13246   2.722   1.707   3.357 -0.0685  0.3421 -0.8520
  125OSM    H8S13247   2.741   1.616   3.416  0.9422  0.5545 -0.8330
  125OSM    H8T13248   2.614   1.733   3.355 -0.2419 -0.2562 -3.2274
  125OSM    C9S13249   2.810   1.807   3.432  0.5349 -1.4018 -0.9835
  125OSM    H9S13250   2.818   1.899   3.371  0.5282 -1.0642 -0.4753
  125OSM    H9T13251   2.908   1.756   3.445  0.7631 -0.2959  2.2810
  125OSM   C10S13252   2.738   1.845   3.560 -0.0462 -0.1589  0.3841
  125OSM   H10S13253   2.698   1.755   3.611  0.4794 -1.3741 -1.2488
  125OSM   H10T13254   2.651   1.907   3.530  1.1533  1.4748  0.1499
  125OSM   C11S13255   2.824   1.928   3.656  1.0779 -0.2714 -0.4766
  125OSM   H11S13256   2.765   2.019   3.683 -1.2343 -1.7654 -0.2274
  125OSM   H11T13257   2.912   1.972   3.604  1.6670  2.2899  2.3938
  125OSM   C12S13258   2.857   1.853   3.782 -0.3701 -0.0603  0.4555
  125OSM   H12S13259   2.934   1.776   3.759  0.7004  0.7995  1.0827
  125OSM   H12T13260   2.778   1.804   3.843  2.1005 -1.0824  3.0594
  125OSM   C13S13261   2.939   1.939   3.882  0.4289 -0.1107 -0.0314
  125OSM   H13S13262   2.865   2.000   3.939 -0.9074 -0.1538 -1.6439
  125OSM   H13T13263   3.012   2.003   3.829  0.8329  0.2894  0.9731
  125OSM   C14S13264   3.009   1.841   3.983  0.2336 -0.2237  0.5494
  125OSM   H14S13265   3.055   1.761   3.922  1.7321  0.3882  0.8449
  125OSM   H14T13266   2.929   1.802   4.049 -1.3507  0.5447 -0.8223
  125OSM   C15S13267   3.101   1.910   4.081 -0.1111  0.6556 -0.3561
  125OSM   H15S13268   3.144   2.002   4.035  3.6308 -0.6406  0.1907
  125OSM   H15T13269   3.199   1.863   4.103  1.4658  4.0102  0.5578
  125OSM   C16S13270   3.043   1.930   4.224 -1.0991  0.2396 -0.2405
  125OSM   H16S13271   3.015   1.829   4.262 -0.7951  0.2697  0.0684
  125OSM   H16T13272   2.951   1.992   4.220 -1.0214  0.5601  1.7508
  125OSM   C17S13273   3.149   2.008   4.302  0.5541 -0.4221  0.5596
  125OSM   H17S13274   3.200   2.080   4.234 -2.3156  0.6472 -0.6601
  125OSM   H17T13275   3.226   1.930   4.321  2.3420  0.7545 -1.3862
  125OSM   C18S13276   3.090   2.078   4.424  0.9720 -0.2214  0.4303
  125OSM   H18S13277   3.041   2.174   4.398 -1.4157 -0.9000  2.0530
  125OSM   H18T13278   3.167   2.105   4.500 -0.5226  3.7508  0.7510
  125OSM   H18U13279   3.015   2.016   4.478 -0.6343  2.0704  0.9540
  125OSM    C1F13280   2.579   1.553   2.751 -0.1388 -0.2627 -0.4279
  125OSM     OF13281   2.513   1.452   2.749  0.0708 -0.4964  0.1135
  125OSM    C2F13282   2.512   1.688   2.756 -0.1685  0.2839 -0.3859
  125OSM    H2F13283   2.493   1.720   2.652  0.3732  0.3797 -0.4581
  125OSM    H2G13284   2.594   1.749   2.799  1.4821 -2.3723  0.5405
  125OSM    C3F13285   2.386   1.687   2.838 -0.0216  0.0827  0.0781
  125OSM    H3F13286   2.314   1.619   2.787  1.7294 -0.2984 -1.9829
  125OSM    H3G13287   2.347   1.791   2.844 -1.3039 -0.3058 -1.0847
  125OSM    C4F13288   2.400   1.644   2.986  0.3363  0.1815 -0.6868
  125OSM    H4F13289   2.494   1.688   3.027  0.5855 -2.7233  2.2082
  125OSM    H4G13290   2.419   1.535   2.991 -1.4845 -0.1981 -1.3283
  125OSM    C5F13291   2.271   1.668   3.065  0.1294 -0.3053 -0.0736
  125OSM    H5F13292   2.186   1.614   3.020 -0.1260  0.8414 -1.0227
  125OSM    H5G13293   2.251   1.777   3.053  0.5470 -0.3222 -1.0194
  125OSM    C6F13294   2.296   1.631   3.216 -0.4073 -0.1362  0.6808
  125OSM    H6F13295   2.367   1.709   3.250  1.1728 -1.0719 -0.3286
  125OSM    H6G13296   2.353   1.535   3.221 -0.5493 -0.2043  1.0730
  125OSM    C7F13297   2.165   1.630   3.297  0.5010 -0.0330 -0.4863
  125OSM    H7F13298   2.100   1.716   3.269 -1.5680 -0.8964  1.3400
  125OSM    H7G13299   2.196   1.638   3.403  1.3117  0.2761 -0.7375
  125OSM    C8F13300   2.067   1.507   3.275 -0.2087 -0.4228  0.3986
  125OSM    H8F13301   2.040   1.492   3.168 -1.0536  0.0739  0.5308
  125OSM    H8G13302   1.970   1.535   3.322 -0.8215  0.9614 -1.5309
  125OSM    C9F13303   2.134   1.383   3.331  0.2598 -0.3138  0.5868
  125OSM    H9F13304   2.206   1.331   3.267 -1.0926 -0.5877 -0.7546
  125OSM   C10F13305   2.121   1.344   3.462 -0.1082 -0.1794 -0.2908
  125OSM   H10F13306   2.180   1.257   3.494  1.0543  0.9897  0.8385
  125OSM   C11F13307   2.034   1.404   3.573  0.0608  0.6603  0.0534
  125OSM   H11F13308   1.958   1.469   3.524  2.6354  2.3215 -2.0240
  125OSM   H11G13309   2.085   1.484   3.632  0.0052  0.5982  0.1873
  125OSM   C12F13310   1.965   1.312   3.669 -0.0223 -0.4654 -0.4372
  125OSM   H12F13311   2.038   1.267   3.739  0.3087 -0.1919 -0.6064
  125OSM   H12G13312   1.906   1.229   3.624 -0.8730  0.1107 -0.4225
  125OSM   C13F13313   1.856   1.392   3.743  0.6573  0.3242 -0.0756
  125OSM   H13F13314   1.775   1.434   3.679  0.3049 -1.1888 -0.6554
  125OSM   H13G13315   1.887   1.481   3.801 -0.7481 -0.2366  1.6137
  125OSM   C14F13316   1.794   1.312   3.859  0.1263 -0.3330 -0.0756
  125OSM   H14F13317   1.859   1.224   3.877 -0.1615 -0.3636  0.8693
  125OSM   H14G13318   1.694   1.264   3.846  0.6560 -1.3801 -0.3914
  125OSM   C15F13319   1.768   1.396   3.990 -0.1950  0.1803  0.2726
  125OSM   H15F13320   1.676   1.454   3.968  0.5426  2.0334  1.7406
  125OSM   H15G13321   1.850   1.471   3.988 -1.1708  1.2658 -0.8870
  125OSM   C16F13322   1.746   1.318   4.118 -0.2949 -0.1827  0.0022
  125OSM   H16F13323   1.843   1.265   4.133  1.1528  2.9680  3.4805
  125OSM   H16G13324   1.660   1.249   4.120 -1.9601  1.8039  1.2857
  125OSM   C17F13325   1.720   1.405   4.235  0.6987  0.1809 -0.8242
  125OSM   H17F13326   1.625   1.460   4.220  0.9513  1.0091  0.4267
  125OSM   H17G13327   1.805   1.476   4.239 -0.8876  2.1557 -0.5102
  125OSM   C18F13328   1.736   1.338   4.374  0.4045 -0.4212 -0.3922
  125OSM   H18F13329   1.733   1.423   4.446  1.6077 -0.0173 -0.7982
  125OSM   H18G13330   1.839   1.297   4.377 -0.1284 -1.8599 -0.7624
  125OSM   H18H13331   1.668   1.256   4.405 -0.3190  0.9973  1.9692
  126OSM      N13332   1.030   2.590   2.539  0.3945  0.7644  0.4029
  126OSM    C1513333   1.129   2.515   2.632 -0.5657 -0.3062  0.3186
  126OSM   H15A13334   1.227   2.561   2.634  0.1102 -1.2018 -3.8125
  126OSM   H15B13335   1.153   2.417   2.594 -1.7008  0.2806 -2.1561
  126OSM   H15C13336   1.090   2.509   2.733  1.6209 -2.3501  1.1050
  126OSM    C1413337   1.011   2.730   2.582 -0.8977  0.2602 -0.8700
  126OSM   H14A13338   1.103   2.783   2.562 -0.7409  0.6405  0.6845
  126OSM   H14B13339   0.998   2.734   2.689 -0.8262  1.0077 -0.8835
  126OSM   H14C13340   0.943   2.799   2.535 -0.8322 -0.7385 -2.5097
  126OSM    C1313341   1.084   2.577   2.405  0.7849 -0.1861  0.4209
  126OSM   H13A13342   1.176   2.633   2.396 -0.0154  1.0907 -0.0505
  126OSM   H13B13343   1.019   2.623   2.332  2.5562  0.7381 -0.6396
  126OSM   H13C13344   1.101   2.476   2.372  2.0961  0.2547 -0.3210
  126OSM    C1213345   0.890   2.527   2.533 -0.3836  0.5993  0.0984
  126OSM   H12A13346   0.884   2.443   2.466 -0.1398  1.1963 -0.6883
  126OSM   H12B13347   0.835   2.598   2.474  1.1743  0.8492 -1.1251
  126OSM    C1113348   0.814   2.491   2.668 -1.0223 -0.3110  1.0156
  126OSM   H11A13349   0.872   2.411   2.720 -2.1964 -2.6332 -1.0204
  126OSM   H11B13350   0.714   2.443   2.654  0.3306 -2.7947 -1.0832
  126OSM      P13351   0.682   2.705   2.739 -0.1950 -0.0293 -0.0959
  126OSM    O1313352   0.714   2.834   2.804 -0.1783 -0.2848 -0.2206
  126OSM    O1413353   0.644   2.718   2.593 -0.2692  0.1361 -0.3210
  126OSM    O1113354   0.567   2.644   2.820 -1.0596  0.3863 -0.3050
  126OSM    O1213355   0.804   2.609   2.748  0.0916 -0.1527 -0.4269
  126OSM    C1S13356   0.582   2.536   2.912  0.1457  0.2540  0.2507
  126OSM    H1S13357   0.606   2.581   3.011 -0.5075  1.7519 -0.2360
  126OSM    H1T13358   0.663   2.462   2.896 -2.0802 -2.4563  0.9444
  126OSM     NF13359   0.429   2.392   3.043 -0.2212  0.0507 -0.2377
  126OSM    HNF13360   0.432   2.293   3.047  1.7085  0.1077  0.9860
  126OSM    C2S13361   0.448   2.454   2.917  0.1332 -0.3317 -0.2331
  126OSM    H2S13362   0.366   2.526   2.896 -0.2315 -0.5949  0.2691
  126OSM    C3S13363   0.435   2.351   2.790 -0.2556 -0.8688  0.1357
  126OSM    H3S13364   0.518   2.280   2.808  0.7159  0.2410  0.1548
  126OSM     O313365   0.468   2.412   2.659  0.2703 -0.2085  0.6952
  126OSM    HO313366   0.520   2.490   2.680 -1.5034  1.5916 -1.0455
  126OSM    C4S13367   0.300   2.281   2.784 -0.9052 -0.2834 -0.0596
  126OSM    H4S13368   0.293   2.205   2.863  2.9652  0.1757  0.9378
  126OSM    C5S13369   0.187   2.310   2.713 -0.1599 -0.8001  0.3357
  126OSM    H5S13370   0.195   2.390   2.638  0.6501 -0.8950  0.3175
  126OSM    C6S13371   0.052   2.252   2.742  0.0428 -0.3614  0.0803
  126OSM    H6S13372  -0.009   2.249   2.649  0.6889  2.4227 -0.5185
  126OSM    H6T13373  -0.007   2.326   2.801 -1.0247 -1.0554 -0.0815
  126OSM    C7S13374   0.045   2.132   2.838  0.1772 -0.4618  0.4936
  126OSM    H7S13375   0.122   2.052   2.827  1.3082  0.6789 -0.1264
  126OSM    H7T13376  -0.051   2.077   2.825  0.3149 -1.2499  2.4429
  126OSM    C8S13377   0.036   2.168   2.989 -0.6897  0.4401  0.7609
  126OSM    H8S13378  -0.049   2.239   2.998  0.4276  1.9730 -0.2724
  126OSM    H8T13379   0.133   2.216   3.013  0.0385 -0.5605 -0.1090
  126OSM    C9S13380   0.024   2.035   3.057  0.2138 -0.5449 -1.1960
  126OSM    H9S13381   0.109   1.972   3.023  1.5224 -0.3416  1.3990
  126OSM    H9T13382  -0.068   1.980   3.028 -0.2396  0.7486 -2.3148
  126OSM   C10S13383   0.030   2.052   3.211 -0.4614 -0.2384 -0.0800
  126OSM   H10S13384   0.111   2.126   3.231 -0.3371 -0.6311  0.9454
  126OSM   H10T13385   0.049   1.957   3.267 -1.1714  0.2753  1.0653
  126OSM   C11S13386  -0.103   2.099   3.260  0.1834  0.4838 -0.3383
  126OSM   H11S13387  -0.182   2.022   3.243  0.7473 -0.1990  0.0646
  126OSM   H11T13388  -0.127   2.183   3.192  2.2451  2.5880  1.3972
  126OSM   C12S13389  -0.106   2.155   3.407  0.7096 -0.5998  0.7068
  126OSM   H12S13390  -0.204   2.208   3.411  1.2556  0.3770  1.4001
  126OSM   H12T13391  -0.035   2.239   3.420  0.9726  0.0570 -3.6753
  126OSM   C13S13392  -0.091   2.056   3.523 -0.2010 -0.8608 -0.4715
  126OSM   H13S13393   0.008   2.008   3.515  1.5377  1.2989  4.2386
  126OSM   H13T13394  -0.176   1.985   3.521 -1.1250  0.1831 -0.0270
  126OSM   C14S13395  -0.095   2.143   3.657  0.1212  0.2660  0.1696
  126OSM   H14S13396  -0.189   2.199   3.638  0.1013 -0.5742 -2.7828
  126OSM   H14T13397  -0.016   2.221   3.644 -1.0519  1.1789 -1.9901
  126OSM   C15S13398  -0.086   2.061   3.790  0.2988 -0.0097  0.8875
  126OSM   H15S13399   0.016   2.018   3.791  0.8848  1.3093  0.5661
  126OSM   H15T13400  -0.162   1.980   3.795 -0.1247  0.0659 -2.1886
  126OSM   C16S13401  -0.102   2.151   3.911 -0.1647 -0.0816 -0.0810
  126OSM   H16S13402  -0.198   2.208   3.904 -0.6726 -0.9897 -0.7026
  126OSM   H16T13403  -0.016   2.220   3.898  0.2383 -0.9537 -2.7903
  126OSM   C17S13404  -0.102   2.075   4.039  0.3522 -0.5131  0.1096
  126OSM   H17S13405  -0.010   2.015   4.050  0.5095 -0.1816  0.6217
  126OSM   H17T13406  -0.188   2.004   4.038  0.5527 -0.8630  2.5697
  126OSM   C18S13407  -0.114   2.161   4.158 -0.9293 -0.2783 -0.0811
  126OSM   H18S13408  -0.135   2.084   4.236 -0.1756 -2.6267 -2.0533
  126OSM   H18T13409  -0.189   2.240   4.138 -2.0489 -1.5496 -1.0586
  126OSM   H18U13410  -0.027   2.214   4.204 -1.8065 -1.0026  2.6410
  126OSM    C1F13411   0.405   2.460   3.153 -0.3761  0.2241 -0.4646
  126OSM     OF13412   0.352   2.566   3.158  0.0941  0.0818 -0.1281
  126OSM    C2F13413   0.422   2.392   3.290  0.0694 -0.1306  0.4650
  126OSM    H2F13414   0.530   2.404   3.315  0.4226  0.4284 -1.2070
  126OSM    H2G13415   0.405   2.284   3.273  0.6495  0.0451 -1.5019
  126OSM    C3F13416   0.330   2.456   3.394  0.2162  0.0423 -0.3809
  126OSM    H3F13417   0.226   2.420   3.377  0.0397 -0.8687  2.1834
  126OSM    H3G13418   0.332   2.567   3.391  1.2069  0.1003  1.2003
  126OSM    C4F13419   0.370   2.402   3.529 -0.2368  0.2950 -0.2768
  126OSM    H4F13420   0.480   2.399   3.541 -0.1125  0.6904 -1.2902
  126OSM    H4G13421   0.335   2.297   3.535  0.0413  0.1074 -1.6256
  126OSM    C5F13422   0.301   2.486   3.637  0.2404  0.2142 -0.3901
  126OSM    H5F13423   0.195   2.460   3.618  0.7972 -2.2548 -0.4712
  126OSM    H5G13424   0.297   2.595   3.614 -1.3584 -0.3823 -3.5067
  126OSM    C6F13425   0.345   2.449   3.778  0.6274  0.3233 -0.8994
  126OSM    H6F13426   0.450   2.474   3.804  0.5318 -1.1201  1.0352
  126OSM    H6G13427   0.353   2.340   3.796 -0.4863  0.2653 -0.6724
  126OSM    C7F13428   0.256   2.513   3.884 -0.4383  0.6213  0.1590
  126OSM    H7F13429   0.149   2.505   3.853 -1.4222  0.7947  3.1889
  126OSM    H7G13430   0.279   2.622   3.884 -1.2690  0.8697 -2.1220
  126OSM    C8F13431   0.281   2.442   4.020  0.9440  0.0867 -0.0192
  126OSM    H8F13432   0.387   2.464   4.047  0.6302 -1.0327  2.4346
  126OSM    H8G13433   0.282   2.332   4.007  2.1526 -0.1903  2.0061
  126OSM    C9F13434   0.172   2.483   4.123 -0.2658  0.6402  0.1529
  126OSM    H9F13435   0.078   2.429   4.106  0.3237  0.3482 -2.7537
  126OSM   C10F13436   0.189   2.569   4.229  0.1134  0.1635  0.3791
  126OSM   H10F13437   0.103   2.574   4.296 -0.7628 -0.2204 -0.6744
  126OSM   C11F13438   0.314   2.640   4.257 -0.1170 -0.1436 -0.3665
  126OSM   H11F13439   0.284   2.724   4.324 -0.1063 -1.2957  1.1425
  126OSM   H11G13440   0.382   2.671   4.175 -0.1486 -0.7549 -0.6301
  126OSM   C12F13441   0.398   2.564   4.362 -0.3435  0.2387 -0.5540
  126OSM   H12F13442   0.415   2.456   4.346 -0.3993  0.3584 -1.4819
  126OSM   H12G13443   0.346   2.572   4.460 -0.2783  2.4316 -0.6336
  126OSM   C13F13444   0.537   2.628   4.366 -0.2415  0.1011 -0.0610
  126OSM   H13F13445   0.555   2.688   4.275  3.5799  2.0418  1.7440
  126OSM   H13G13446   0.620   2.553   4.365 -1.1977 -1.0375 -2.3400
  126OSM   C14F13447   0.556   2.723   4.489  0.5805  0.1179  0.6007
  126OSM   H14F13448   0.542   2.655   4.575 -1.1844  0.9429  1.0279
  126OSM   H14G13449   0.484   2.808   4.497  2.0924  1.4012  1.2117
  126OSM   C15F13450   0.687   2.797   4.488 -0.2339 -0.2087 -0.6606
  126OSM   H15F13451   0.694   2.838   4.591  2.1561 -0.3688 -0.7067
  126OSM   H15G13452   0.690   2.874   4.408 -1.6505  0.6514  0.0846
  126OSM   C16F13453   0.817   2.703   4.479 -0.0565 -0.3927  0.2495
  126OSM   H16F13454   0.809   2.652   4.381 -1.6534  2.9546 -1.5595
  126OSM   H16G13455   0.806   2.636   4.567  0.6379 -1.0690 -0.1641
  126OSM   C17F13456   0.947   2.774   4.496 -0.2093 -0.8855  0.3008
  126OSM   H17F13457   0.962   2.818   4.597 -0.3197 -1.0190  0.3765
  126OSM   H17G13458   0.948   2.860   4.426  2.6849 -1.0864 -0.0213
  126OSM   C18F13459   1.078   2.696   4.479 -0.3616  0.5196 -0.0836
  126OSM   H18F13460   1.168   2.758   4.501 -1.7346  2.1944  1.0817
  126OSM   H18G13461   1.086   2.666   4.372  1.2358  1.0661 -0.1490
  126OSM   H18H13462   1.072   2.608   4.546  0.0750 -2.3143 -3.4627
  127OSM      N13463   1.037   4.686   2.349  0.0496  0.1067 -0.2265
  127OSM    C1513464   0.949   4.707   2.474 -0.8451 -0.6421  0.1836
  127OSM   H15A13465   0.957   4.811   2.502  1.2833 -0.5673 -0.5056
  127OSM   H15B13466   0.967   4.644   2.559 -2.1061  0.6019  1.4102
  127OSM   H15C13467   0.847   4.686   2.447 -2.1566  0.3359  3.8342
  127OSM    C1413468   0.972   4.749   2.232 -0.4574  0.4904  0.9200
  127OSM   H14A13469   1.034   4.727   2.146 -3.1189  0.2969 -1.0644
  127OSM   H14B13470   0.968   4.857   2.235  0.6156  0.5157  2.2906
  127OSM   H14C13471   0.869   4.721   2.214 -0.3706  0.5197  0.3687
  127OSM    C1313472   1.178   4.737   2.360  0.6535 -0.0013 -0.1129
  127OSM   H13A13473   1.181   4.845   2.371 -2.6294 -0.0883  3.6187
  127OSM   H13B13474   1.238   4.710   2.274  1.5993 -0.4113  0.6634
  127OSM   H13C13475   1.227   4.690   2.444 -1.5433  0.4900  1.5496
  127OSM    C1213476   1.050   4.532   2.315  0.4425  0.5651 -0.1416
  127OSM   H12A13477   1.073   4.517   2.211 -0.1883 -0.8877 -0.0911
  127OSM   H12B13478   0.949   4.494   2.311  0.4417  0.6882 -1.9610
  127OSM    C1113479   1.145   4.453   2.410 -0.1744  0.0227  0.0129
  127OSM   H11A13480   1.118   4.346   2.395  0.6515 -0.1818 -0.0955
  127OSM   H11B13481   1.133   4.478   2.517  0.1273  0.5878 -0.0820
  127OSM      P13482   1.380   4.367   2.325 -0.0809 -0.2584  0.1268
  127OSM    O1313483   1.329   4.289   2.205  0.2217 -0.0534  1.0604
  127OSM    O1413484   1.512   4.423   2.309 -0.3059  0.2913  0.1350
  127OSM    O1113485   1.387   4.269   2.448 -0.0488  0.2806 -0.2062
  127OSM    O1213486   1.275   4.487   2.358 -0.0632 -0.4001 -0.4439
  127OSM    C1S13487   1.425   4.327   2.575 -0.3215  0.0167  0.6305
  127OSM    H1S13488   1.394   4.434   2.576 -0.7417 -0.0247 -1.6239
  127OSM    H1T13489   1.535   4.318   2.582 -0.4624 -1.3976  1.3215
  127OSM     NF13490   1.387   4.321   2.823  0.1573  0.2337 -1.2363
  127OSM    HNF13491   1.461   4.283   2.878 -0.6791  0.5724  0.1957
  127OSM    C2S13492   1.353   4.260   2.694  0.1271 -0.1162  0.0715
  127OSM    H2S13493   1.245   4.276   2.670  0.4606 -0.6290 -1.8724
  127OSM    C3S13494   1.380   4.103   2.681  0.2774 -0.1173 -0.4462
  127OSM    H3S13495   1.490   4.084   2.686  0.2250 -0.2828  0.1594
  127OSM     O313496   1.335   4.054   2.558 -0.1211 -0.1052  0.5708
  127OSM    HO313497   1.351   4.122   2.493  0.3662 -0.0869  0.7077
  127OSM    C4S13498   1.301   4.032   2.794 -0.8382  0.3645  0.3454
  127OSM    H4S13499   1.191   4.035   2.791 -0.8666 -0.7576 -1.8508
  127OSM    C5S13500   1.361   3.975   2.894  0.0359 -0.4593  0.1807
  127OSM    H5S13501   1.471   3.969   2.896  0.2374  1.2223 -1.8115
  127OSM    C6S13502   1.285   3.922   3.014  0.0478 -0.1890  0.1103
  127OSM    H6S13503   1.326   3.960   3.110 -1.0783 -2.0096  1.3859
  127OSM    H6T13504   1.301   3.812   3.021  2.2742  0.0813 -0.2409
  127OSM    C7S13505   1.132   3.942   3.015  0.3977 -0.2526 -0.1336
  127OSM    H7S13506   1.094   3.879   2.932  0.6469 -0.9246  0.2511
  127OSM    H7T13507   1.087   4.043   3.014 -0.2775 -0.5430 -1.4217
  127OSM    C8S13508   1.065   3.869   3.142  0.8498  0.0813  0.5556
  127OSM    H8S13509   1.102   3.764   3.149  0.8681  0.1663  1.9940
  127OSM    H8T13510   0.956   3.868   3.122  0.6124  1.4058  1.7206
  127OSM    C9S13511   1.090   3.931   3.271 -0.1222  0.0826 -0.2003
  127OSM    H9S13512   1.071   4.040   3.271  0.9409  0.3415  2.2215
  127OSM    H9T13513   1.199   3.917   3.287  0.1033  1.1449 -0.7324
  127OSM   C10S13514   1.015   3.858   3.388 -0.1063  0.1625  0.5413
  127OSM   H10S13515   1.058   3.756   3.380 -2.1169 -0.6536 -0.8064
  127OSM   H10T13516   0.905   3.854   3.369 -0.1664  0.4864  0.8156
  127OSM   C11S13517   1.033   3.922   3.521  0.5132  0.1845 -0.2424
  127OSM   H11S13518   0.979   4.019   3.520 -0.3450 -0.2558  1.2016
  127OSM   H11T13519   1.141   3.942   3.538  0.5628 -0.5093  0.2571
  127OSM   C12S13520   0.970   3.843   3.640 -0.4627  0.1047 -0.0793
  127OSM   H12S13521   0.982   3.732   3.644 -0.2848  0.1152 -0.3236
  127OSM   H12T13522   0.861   3.852   3.619 -0.5565 -0.4789  0.1451
  127OSM   C13S13523   0.999   3.900   3.785 -0.2490  0.0788  0.1493
  127OSM   H13S13524   0.959   4.001   3.809  1.5913  0.8279  0.2492
  127OSM   H13T13525   1.108   3.897   3.803  0.1951 -1.1687 -2.3328
  127OSM   C14S13526   0.928   3.816   3.899 -0.5841  0.5521 -0.3201
  127OSM   H14S13527   0.956   3.709   3.887 -0.3859  0.6390 -0.6500
  127OSM   H14T13528   0.817   3.812   3.889 -0.7905  0.7463  1.5765
  127OSM   C15S13529   0.968   3.870   4.039 -0.4839  0.5160  0.4080
  127OSM   H15S13530   0.922   3.968   4.062  0.7040  1.1876  0.0129
  127OSM   H15T13531   1.077   3.885   4.048 -0.4696  1.4011 -0.9323
  127OSM   C16S13532   0.934   3.763   4.143  0.0848 -0.0955  0.4404
  127OSM   H16S13533   0.980   3.668   4.106 -0.6888 -0.0551 -0.6774
  127OSM   H16T13534   0.828   3.743   4.118  0.5240 -0.2469 -1.4926
  127OSM   C17S13535   0.973   3.804   4.284 -0.1636  0.5749  0.3459
  127OSM   H17S13536   0.961   3.915   4.292  2.1994  1.0822 -1.6687
  127OSM   H17T13537   1.076   3.769   4.307 -1.5611 -2.2375  2.8040
  127OSM   C18S13538   0.883   3.730   4.385  0.3127 -1.1026  0.4819
  127OSM   H18S13539   0.776   3.754   4.366  0.4881 -0.6623  0.0535
  127OSM   H18T13540   0.910   3.764   4.487  0.3085 -2.3898  0.9305
  127OSM   H18U13541   0.886   3.619   4.378  1.7217 -1.0646  0.3614
  127OSM    C1F13542   1.336   4.438   2.866 -1.5051 -0.5185  0.0630
  127OSM     OF13543   1.253   4.501   2.804  0.0749 -0.1404  0.0268
  127OSM    C2F13544   1.392   4.491   3.002 -0.1724 -0.4418  0.7918
  127OSM    H2F13545   1.403   4.600   2.984 -0.2182 -0.6569 -0.7379
  127OSM    H2G13546   1.493   4.449   3.019 -0.4156 -0.9716  0.9448
  127OSM    C3F13547   1.285   4.482   3.111 -0.1467  0.3968 -0.5063
  127OSM    H3F13548   1.194   4.539   3.082 -0.5672 -0.1001 -0.1773
  127OSM    H3G13549   1.319   4.538   3.201 -1.3798  0.1215  0.1618
  127OSM    C4F13550   1.235   4.342   3.153 -0.5566  0.3188  0.3673
  127OSM    H4F13551   1.191   4.293   3.063 -0.0335  2.3096 -1.0529
  127OSM    H4G13552   1.151   4.352   3.226  2.1931  2.2335  3.5376
  127OSM    C5F13553   1.348   4.264   3.215 -0.3589 -0.3067 -0.5155
  127OSM    H5F13554   1.433   4.260   3.143  1.8812 -0.2611  1.9703
  127OSM    H5G13555   1.321   4.156   3.220 -1.3702 -0.0410  0.0443
  127OSM    C6F13556   1.405   4.316   3.347 -0.6805  1.0783  0.1020
  127OSM    H6F13557   1.449   4.416   3.327  0.8049  0.1562 -1.3879
  127OSM    H6G13558   1.485   4.249   3.384 -0.5866 -0.4538 -2.6637
  127OSM    C7F13559   1.299   4.329   3.454  0.5815 -0.4210  0.6882
  127OSM    H7F13560   1.224   4.252   3.427  4.3880 -2.9961 -4.1999
  127OSM    H7G13561   1.237   4.420   3.460  0.0809 -0.7234  0.1952
  127OSM    C8F13562   1.346   4.273   3.590 -0.1045 -0.1833  0.3099
  127OSM    H8F13563   1.429   4.200   3.580  0.9278  1.0749 -0.5918
  127OSM    H8G13564   1.255   4.221   3.630 -0.9934  1.1685  0.0992
  127OSM    C9F13565   1.395   4.383   3.678  0.4566 -0.1512  0.7661
  127OSM    H9F13566   1.484   4.438   3.645 -0.2456  1.6007  1.6658
  127OSM   C10F13567   1.363   4.411   3.802  1.4015  0.6363 -0.0453
  127OSM   H10F13568   1.407   4.497   3.855 -2.1999  3.8946 -1.8534
  127OSM   C11F13569   1.256   4.346   3.887 -0.6231 -0.5311 -0.3353
  127OSM   H11F13570   1.198   4.279   3.820 -3.0122  1.5422 -0.4585
  127OSM   H11G13571   1.181   4.419   3.923 -1.4220 -2.0674  1.2658
  127OSM   C12F13572   1.316   4.266   4.009  0.0954  0.1991  0.4017
  127OSM   H12F13573   1.347   4.331   4.093  0.6453 -1.2029  1.3244
  127OSM   H12G13574   1.407   4.209   3.980  0.2239 -0.4907  2.0789
  127OSM   C13F13575   1.207   4.172   4.065  0.0779  0.2162  0.5696
  127OSM   H13F13576   1.169   4.100   3.989 -0.8831  0.2895  0.9706
  127OSM   H13G13577   1.118   4.235   4.086 -0.0175  0.0023  0.8051
  127OSM   C14F13578   1.260   4.084   4.184  0.9889 -0.3902  0.8676
  127OSM   H14F13579   1.176   4.026   4.227 -0.2517 -0.8984 -2.0113
  127OSM   H14G13580   1.312   4.153   4.254  2.9607 -0.5416 -0.3797
  127OSM   C15F13581   1.379   3.991   4.142  0.2040  0.2411  0.2106
  127OSM   H15F13582   1.458   4.051   4.092  0.4294 -0.8861 -0.8488
  127OSM   H15G13583   1.343   3.924   4.061  0.9539  0.0803  0.0020
  127OSM   C16F13584   1.430   3.921   4.270  0.0849  0.2531  0.2147
  127OSM   H16F13585   1.344   3.859   4.304 -0.1772  0.6500  0.2920
  127OSM   H16G13586   1.452   3.993   4.352  2.8873 -0.0224 -0.2034
  127OSM   C17F13587   1.550   3.836   4.255 -0.4738  0.3212 -0.8474
  127OSM   H17F13588   1.638   3.903   4.249  0.6446 -0.6597  2.3755
  127OSM   H17G13589   1.543   3.754   4.180 -1.3997  0.4725 -0.9401
  127OSM   C18F13590   1.580   3.749   4.384 -0.0948  1.1840 -0.0862
  127OSM   H18F13591   1.666   3.678   4.374 -0.6519  0.3765  0.6982
  127OSM   H18G13592   1.491   3.690   4.414  0.6480  0.0869  0.0343
  127OSM   H18H13593   1.619   3.820   4.460  2.2352  0.6705 -0.6969
  128OSM      N13594   1.454   3.026   1.983 -0.2301  0.3709 -0.1207
  128OSM    C1513595   1.516   3.105   1.877 -0.8039 -0.2020  0.6424
  128OSM   H15A13596   1.478   3.206   1.876  0.5015  0.3204  1.2957
  128OSM   H15B13597   1.485   3.070   1.780 -2.7176  0.4807  0.9596
  128OSM   H15C13598   1.624   3.102   1.881 -0.8508 -0.7463  1.5269
  128OSM    C1413599   1.299   3.051   1.983  0.7613 -0.1035 -0.3411
  128OSM   H14A13600   1.249   2.985   2.052 -0.2488 -1.8587 -2.5939
  128OSM   H14B13601   1.262   3.003   1.893  1.9586 -0.5650 -0.5996
  128OSM   H14C13602   1.258   3.149   2.002  0.0048 -0.6804  1.1683
  128OSM    C1313603   1.484   2.881   1.946 -0.6635 -0.3935 -0.0521
  128OSM   H13A13604   1.437   2.801   2.001  1.0368 -2.6109 -1.6714
  128OSM   H13B13605   1.589   2.858   1.951  0.1838  3.0066  0.6600
  128OSM   H13C13606   1.461   2.861   1.842  1.7030  0.4187 -0.8027
  128OSM    C1213607   1.518   3.065   2.116 -0.1105 -0.1624  0.0725
  128OSM   H12A13608   1.482   3.164   2.142 -0.5830  0.1409 -1.6376
  128OSM   H12B13609   1.625   3.077   2.108 -0.2478  0.0834 -1.9011
  128OSM    C1113610   1.487   2.970   2.236  0.3103  0.2566  0.6206
  128OSM   H11A13611   1.555   3.000   2.318  0.9488  1.5280 -0.3316
  128OSM   H11B13612   1.511   2.864   2.214  2.1095  0.6643  0.4025
  128OSM      P13613   1.242   2.902   2.331 -0.0697 -0.0433 -0.1497
  128OSM    O1313614   1.110   2.944   2.285  0.8017  0.6311 -0.2477
  128OSM    O1413615   1.283   2.762   2.299  0.9659 -0.3072  0.0756
  128OSM    O1113616   1.241   2.922   2.487  0.5292 -0.2175 -0.5394
  128OSM    O1213617   1.350   3.003   2.261 -0.1873  0.6064  0.2490
  128OSM    C1S13618   1.265   3.064   2.532 -0.3985  0.4497 -0.7359
  128OSM    H1S13619   1.198   3.144   2.493  0.0980  1.4088  0.3317
  128OSM    H1T13620   1.370   3.092   2.507 -0.1866  0.4841  0.1684
  128OSM     NF13621   1.227   3.213   2.734 -0.3613  0.0517 -0.0902
  128OSM    HNF13622   1.313   3.244   2.774 -0.1129 -0.1993 -0.4258
  128OSM    C2S13623   1.235   3.073   2.686 -0.1316 -0.7955  0.2823
  128OSM    H2S13624   1.137   3.028   2.710 -0.1121 -1.0023 -0.0179
  128OSM    C3S13625   1.326   2.991   2.775 -0.6828 -0.3084  0.5585
  128OSM    H3S13626   1.433   3.014   2.756 -0.3931 -1.8619  0.0949
  128OSM     O313627   1.324   2.847   2.745  0.0930  0.3650  0.1157
  128OSM    HO313628   1.309   2.846   2.650  0.8348 -0.3480  0.0025
  128OSM    C4S13629   1.290   3.009   2.924 -0.0980  0.1259 -0.7472
  128OSM    H4S13630   1.191   2.979   2.960  0.5432  1.3578  2.4246
  128OSM    C5S13631   1.380   3.052   3.014  0.6007  0.0507  0.5855
  128OSM    H5S13632   1.483   3.077   2.985  0.6303 -2.1642 -1.5203
  128OSM    C6S13633   1.369   3.072   3.165 -0.1481 -0.4318 -0.0795
  128OSM    H6S13634   1.396   3.179   3.181  0.3651 -0.8959  2.6077
  128OSM    H6T13635   1.454   3.024   3.217 -0.1014  2.5557  2.9152
  128OSM    C7S13636   1.249   3.033   3.242  0.4915  0.1804 -0.1452
  128OSM    H7S13637   1.221   2.927   3.225 -0.7719  0.6469 -1.0745
  128OSM    H7T13638   1.168   3.100   3.207 -0.4297 -1.3281 -0.9915
  128OSM    C8S13639   1.272   3.054   3.402  0.1843 -0.3615  0.0421
  128OSM    H8S13640   1.305   3.155   3.435 -1.9224  0.1978  0.5704
  128OSM    H8T13641   1.358   2.989   3.428  1.2174  1.4389  1.3736
  128OSM    C9S13642   1.152   3.003   3.482  0.1825  0.7731 -0.1852
  128OSM    H9S13643   1.100   2.926   3.421  1.3042  1.0190 -1.5169
  128OSM    H9T13644   1.084   3.085   3.514 -1.0809  0.4021 -1.7373
  128OSM   C10S13645   1.203   2.923   3.598 -0.2242 -0.6001  0.0506
  128OSM   H10S13646   1.312   2.906   3.590  0.6075  2.4921  2.6092
  128OSM   H10T13647   1.159   2.821   3.603  2.0469 -1.5803  1.7975
  128OSM   C11S13648   1.171   2.997   3.725 -0.4092 -0.2278  0.0338
  128OSM   H11S13649   1.062   3.012   3.743 -0.2315 -0.4647  1.3838
  128OSM   H11T13650   1.222   3.096   3.724  0.7426 -0.7804  1.1786
  128OSM   C12S13651   1.215   2.926   3.852  0.0584 -0.0531  0.1336
  128OSM   H12S13652   1.325   2.940   3.860  0.0169  0.2319  0.2381
  128OSM   H12T13653   1.193   2.819   3.836  2.1895 -0.3021 -1.7380
  128OSM   C13S13654   1.129   2.982   3.963  0.3832 -1.3646  0.3529
  128OSM   H13S13655   1.024   2.963   3.932  0.2285 -0.6696  0.4581
  128OSM   H13T13656   1.137   3.092   3.970  0.4982 -1.4536  1.7908
  128OSM   C14S13657   1.166   2.911   4.090 -0.6658  0.2808 -0.2562
  128OSM   H14S13658   1.154   2.802   4.071  1.4190 -0.1995  0.8488
  128OSM   H14T13659   1.090   2.951   4.160  0.5050  0.3126  1.0363
  128OSM   C15S13660   1.302   2.942   4.147 -0.2410  0.6673 -0.5964
  128OSM   H15S13661   1.320   3.052   4.143 -2.0694  1.1059  1.5101
  128OSM   H15T13662   1.387   2.890   4.097  0.5390  0.6666  0.6711
  128OSM   C16S13663   1.316   2.906   4.297  0.7978  0.2329  0.5710
  128OSM   H16S13664   1.298   2.798   4.313 -0.4242  0.2331 -0.5772
  128OSM   H16T13665   1.234   2.962   4.348 -1.1820 -1.7117 -0.2859
  128OSM   C17S13666   1.452   2.957   4.347 -0.4487 -0.6539 -0.0845
  128OSM   H17S13667   1.450   3.068   4.337 -3.0296 -0.5094  1.2457
  128OSM   H17T13668   1.536   2.914   4.288 -0.6275  0.0795 -0.9018
  128OSM   C18S13669   1.461   2.922   4.493  0.0108 -0.0679 -0.3545
  128OSM   H18S13670   1.475   2.812   4.480  3.5745  0.3243 -0.9225
  128OSM   H18T13671   1.361   2.943   4.536  0.4343  3.6240 -0.8930
  128OSM   H18U13672   1.546   2.955   4.557  1.6978 -0.7803 -2.1340
  128OSM    C1F13673   1.134   3.292   2.691  0.4220  0.1022  0.3053
  128OSM     OF13674   1.046   3.246   2.625 -0.3725  0.1772 -0.1369
  128OSM    C2F13675   1.146   3.438   2.717 -0.0650  0.3955  0.5006
  128OSM    H2F13676   1.048   3.491   2.717  1.3147  3.1865 -1.1391
  128OSM    H2G13677   1.202   3.487   2.635 -1.9770  1.5729 -0.1684
  128OSM    C3F13678   1.221   3.459   2.844 -0.9330  0.4933 -0.4072
  128OSM    H3F13679   1.232   3.567   2.869  1.3186  0.3034 -0.4057
  128OSM    H3G13680   1.325   3.419   2.839 -0.9518 -0.1560  2.4546
  128OSM    C4F13681   1.151   3.400   2.972  0.8821 -0.4248 -0.0634
  128OSM    H4F13682   1.153   3.289   2.971  0.8695 -0.4330 -1.6143
  128OSM    H4G13683   1.051   3.448   2.969  1.8734  1.7154 -1.9546
  128OSM    C5F13684   1.237   3.444   3.097  0.3409 -0.3128  0.7266
  128OSM    H5F13685   1.284   3.543   3.077  0.2403 -0.2429  0.8375
  128OSM    H5G13686   1.317   3.368   3.108  0.1718 -1.1556 -2.6484
  128OSM    C6F13687   1.159   3.446   3.229 -0.2953  0.0356 -0.3420
  128OSM    H6F13688   1.121   3.344   3.249 -0.1827 -0.6431 -3.2175
  128OSM    H6G13689   1.072   3.515   3.226  1.3868  2.2289 -1.4345
  128OSM    C7F13690   1.246   3.499   3.345 -0.0413 -0.4774  0.4351
  128OSM    H7F13691   1.254   3.609   3.334 -2.8140  0.0764  2.8091
  128OSM    H7G13692   1.346   3.449   3.339  0.4961  0.4472  1.4762
  128OSM    C8F13693   1.189   3.458   3.485  0.4825 -0.3076  0.1031
  128OSM    H8F13694   1.210   3.353   3.513  0.2576 -0.1330  0.9640
  128OSM    H8G13695   1.079   3.474   3.495  0.8061  1.3772  1.6367
  128OSM    C9F13696   1.257   3.542   3.593 -0.5860 -0.3089 -0.5166
  128OSM    H9F13697   1.312   3.628   3.551  2.1027 -1.0471  1.2427
  128OSM   C10F13698   1.235   3.532   3.729  1.1753  0.3899  0.5794
  128OSM   H10F13699   1.287   3.598   3.800 -0.4748  0.6430  1.6024
  128OSM   C11F13700   1.145   3.432   3.792 -0.1761  0.0975  0.0248
  128OSM   H11F13701   1.129   3.344   3.726 -0.0612 -0.3197  0.5549
  128OSM   H11G13702   1.048   3.478   3.821 -0.4877 -1.0957  0.9101
  128OSM   C12F13703   1.213   3.377   3.915 -0.4019 -0.0640 -0.3479
  128OSM   H12F13704   1.317   3.340   3.897  0.2780  0.3974  2.1838
  128OSM   H12G13705   1.149   3.290   3.939 -0.3543  0.4277  1.8245
  128OSM   C13F13706   1.200   3.465   4.041  0.2397 -0.3777 -0.4730
  128OSM   H13F13707   1.095   3.499   4.056  0.1203 -0.2564 -1.4813
  128OSM   H13G13708   1.260   3.559   4.036 -0.5300  0.1277 -0.3197
  128OSM   C14F13709   1.249   3.394   4.166 -0.1926 -0.6782 -0.4754
  128OSM   H14F13710   1.358   3.413   4.175 -0.3112  0.2238 -0.8277
  128OSM   H14G13711   1.245   3.283   4.157  2.8725 -0.7676 -2.2208
  128OSM   C15F13712   1.196   3.439   4.303  0.3260  0.2247  0.3428
  128OSM   H15F13713   1.115   3.515   4.290 -0.5853 -0.2721  2.6039
  128OSM   H15G13714   1.280   3.476   4.365 -0.5869 -0.5767  2.1466
  128OSM   C16F13715   1.114   3.330   4.382 -0.5115 -0.6913 -0.2003
  128OSM   H16F13716   1.179   3.239   4.384  0.6187  0.1022  0.2411
  128OSM   H16G13717   1.034   3.301   4.311  1.0858 -0.3617 -2.2236
  128OSM   C17F13718   1.061   3.368   4.519  0.1068 -0.3581  0.0532
  128OSM   H17F13719   0.971   3.305   4.531 -0.8240  1.0257  0.7196
  128OSM   H17G13720   1.031   3.475   4.528 -0.4359 -0.5690  0.8695
  128OSM   C18F13721   1.167   3.336   4.622  0.4603  0.2630 -0.0125
  128OSM   H18F13722   1.197   3.229   4.613  0.2891  0.1962  0.1989
  128OSM   H18G13723   1.113   3.352   4.718 -0.2598  1.7714 -0.6422
  128OSM   H18H13724   1.251   3.407   4.611  0.3585  0.5628  1.0296
  129OSM      N13725   2.407   5.891   2.269 -0.3056 -0.0637  0.3464
  129OSM    C1513726   2.422   5.803   2.387  0.3338 -0.5054 -0.6229
  129OSM   H15A13727   2.353   5.824   2.467  1.7688 -1.2150  0.8744
  129OSM   H15B13728   2.525   5.810   2.420  0.6248 -0.3725 -1.5182
  129OSM   H15C13729   2.408   5.700   2.357  0.1484 -0.4246 -0.8146
  129OSM    C1413730   2.515   5.865   2.168  0.0787 -0.6703 -0.0871
  129OSM   H14A13731   2.529   5.759   2.151  0.5836 -0.7681  0.8649
  129OSM   H14B13732   2.614   5.892   2.203 -0.5828 -0.9102  2.1373
  129OSM   H14C13733   2.487   5.913   2.075 -1.7588 -3.9093 -1.3598
  129OSM    C1313734   2.273   5.863   2.212  0.2893  0.1146  0.1528
  129OSM   H13A13735   2.266   5.938   2.135 -0.1655  0.8738  0.9182
  129OSM   H13B13736   2.193   5.874   2.283  0.0082  0.9022 -0.2723
  129OSM   H13C13737   2.271   5.762   2.174  0.7606  0.5287 -1.0131
  129OSM    C1213738   2.412   6.034   2.312  0.3625 -0.3185  0.0406
  129OSM   H12A13739   2.509   6.052   2.356  0.6783  0.9856 -1.1016
  129OSM   H12B13740   2.343   6.052   2.393  1.8739  0.7000  1.1565
  129OSM    C1113741   2.405   6.140   2.204 -0.3324 -1.1467 -0.3284
  129OSM   H11A13742   2.466   6.122   2.113 -1.5589 -3.0454 -0.8123
  129OSM   H11B13743   2.425   6.241   2.247  0.3649 -0.7467 -1.5191
  129OSM      P13744   2.165   6.226   2.234 -0.2337 -0.7586  0.2739
  129OSM    O1313745   2.173   6.372   2.209  0.3198  0.2485 -0.4111
  129OSM    O1413746   2.037   6.153   2.209  0.7477 -0.4243 -0.4016
  129OSM    O1113747   2.212   6.209   2.389 -0.1664  0.4450 -0.4858
  129OSM    O1213748   2.272   6.153   2.159 -0.3664  0.4525  0.3612
  129OSM    C1S13749   2.119   6.140   2.471 -0.4715 -1.5475 -0.7782
  129OSM    H1S13750   2.136   6.030   2.463 -1.9965 -1.9994  1.4002
  129OSM    H1T13751   2.013   6.154   2.441 -0.3648  0.1107 -0.4640
  129OSM     NF13752   2.014   6.116   2.700  0.4262  0.1512  0.5068
  129OSM    HNF13753   1.925   6.160   2.697  0.1458 -0.4477 -2.1427
  129OSM    C2S13754   2.128   6.174   2.627  0.8570  0.2796 -0.8306
  129OSM    H2S13755   2.221   6.121   2.656 -0.8674 -2.4465  0.1056
  129OSM    C3S13756   2.147   6.325   2.650  0.2765  0.3675 -0.7942
  129OSM    H3S13757   2.058   6.370   2.602 -0.3545 -0.5195 -0.4852
  129OSM     O313758   2.260   6.371   2.583 -0.4074  0.5617  0.5381
  129OSM    HO313759   2.251   6.331   2.496  1.9938 -0.2482  0.5980
  129OSM    C4S13760   2.168   6.359   2.792 -0.1377 -0.0191 -0.2380
  129OSM    H4S13761   2.261   6.328   2.842  2.0020  1.6389 -2.9165
  129OSM    C5S13762   2.088   6.441   2.866 -0.1950  0.3346 -0.7842
  129OSM    H5S13763   1.999   6.485   2.818 -0.0575  0.6337 -0.7666
  129OSM    C6S13764   2.107   6.494   3.008  0.6647 -0.4848 -0.2514
  129OSM    H6S13765   2.051   6.426   3.077  0.4014 -0.9459 -0.9111
  129OSM    H6T13766   2.061   6.594   3.024 -2.0728 -1.9383  1.8591
  129OSM    C7S13767   2.254   6.510   3.076  0.0589 -0.3167  0.7756
  129OSM    H7S13768   2.324   6.573   3.017  1.2527 -0.4981  1.9601
  129OSM    H7T13769   2.295   6.407   3.078 -2.7255 -1.5405  0.7503
  129OSM    C8S13770   2.247   6.564   3.217  0.6319  0.2855 -0.6867
  129OSM    H8S13771   2.171   6.505   3.272  1.1217  0.3410  0.0533
  129OSM    H8T13772   2.203   6.666   3.219 -1.1617 -0.3750  3.2749
  129OSM    C9S13773   2.378   6.576   3.295  0.5528 -0.5940  0.4984
  129OSM    H9S13774   2.435   6.652   3.238 -1.7195  1.2346  0.5167
  129OSM    H9T13775   2.429   6.478   3.290  1.2185 -0.3886  2.2988
  129OSM   C10S13776   2.357   6.629   3.442  0.0829  0.3774  0.2112
  129OSM   H10S13777   2.280   6.561   3.484 -0.6807  1.6925  0.9775
  129OSM   H10T13778   2.298   6.721   3.426 -1.1468 -0.3986  0.2011
  129OSM   C11S13779   2.483   6.662   3.522  0.3211  0.4264  0.0399
  129OSM   H11S13780   2.559   6.708   3.456  1.9205 -2.4140 -0.2311
  129OSM   H11T13781   2.534   6.571   3.560  0.4494 -0.5488 -2.3146
  129OSM   C12S13782   2.469   6.764   3.637 -0.1477 -0.3066 -1.1115
  129OSM   H12S13783   2.452   6.867   3.601 -3.6944 -0.8628 -1.3719
  129OSM   H12T13784   2.570   6.768   3.682 -0.0219  0.1726 -1.4345
  129OSM   C13S13785   2.362   6.729   3.743 -0.5601 -0.3455 -0.1663
  129OSM   H13S13786   2.369   6.632   3.797 -1.5313 -0.0040  0.6062
  129OSM   H13T13787   2.256   6.735   3.710 -0.8144  0.1365  0.6925
  129OSM   C14S13788   2.366   6.837   3.848  0.9161  0.3299 -0.1294
  129OSM   H14S13789   2.331   6.932   3.803  0.8063 -0.2265 -1.2488
  129OSM   H14T13790   2.472   6.844   3.883  0.7900  0.7755  0.1690
  129OSM   C15S13791   2.288   6.797   3.979 -0.4308  0.4386 -0.5280
  129OSM   H15S13792   2.320   6.697   4.015  1.9454  1.0157 -0.9040
  129OSM   H15T13793   2.181   6.801   3.950 -0.2017  0.3225 -1.4310
  129OSM   C16S13794   2.306   6.896   4.091  0.7264  0.4605 -0.0472
  129OSM   H16S13795   2.258   6.992   4.061  0.1802 -0.1591 -1.1970
  129OSM   H16T13796   2.415   6.907   4.109  0.6060  2.4288 -0.3307
  129OSM   C17S13797   2.237   6.854   4.220 -0.7921  0.3144 -0.1145
  129OSM   H17S13798   2.293   6.766   4.259 -1.4558 -0.7482 -1.4489
  129OSM   H17T13799   2.133   6.827   4.192 -0.8404  0.2005  0.1723
  129OSM   C18S13800   2.246   6.967   4.328  0.0616 -0.1164 -0.4753
  129OSM   H18S13801   2.351   6.988   4.357 -0.2895  1.1254 -0.0422
  129OSM   H18T13802   2.187   6.931   4.415  0.6430 -0.6742 -0.3019
  129OSM   H18U13803   2.193   7.060   4.298 -0.8695 -0.0111  1.3137
  129OSM    C1F13804   2.015   5.991   2.741 -0.0732  0.3055 -0.3369
  129OSM     OF13805   2.110   5.916   2.722 -0.4904 -0.1173  0.3075
  129OSM    C2F13806   1.894   5.934   2.814 -0.5390 -0.6454 -0.5484
  129OSM    H2F13807   1.866   5.849   2.747 -0.5917 -0.8489 -0.2722
  129OSM    H2G13808   1.798   5.988   2.807  0.0563  0.3115 -1.6628
  129OSM    C3F13809   1.924   5.892   2.957  0.5985 -0.5533  0.5131
  129OSM    H3F13810   1.955   5.977   3.022 -1.4033  0.0086  0.8070
  129OSM    H3G13811   2.002   5.813   2.949  1.4241  0.3645 -1.0689
  129OSM    C4F13812   1.801   5.824   3.025 -0.0879 -0.0169 -0.5527
  129OSM    H4F13813   1.744   5.769   2.946 -2.1325 -0.4736  1.1599
  129OSM    H4G13814   1.739   5.902   3.073 -1.0597 -0.7148 -0.6406
  129OSM    C5F13815   1.836   5.730   3.147  0.1365  0.0268  0.7769
  129OSM    H5F13816   1.896   5.794   3.215 -0.5557  0.0833  1.3500
  129OSM    H5G13817   1.884   5.646   3.093 -2.5692  0.2545 -2.3030
  129OSM    C6F13818   1.700   5.692   3.213  0.6364 -0.3284 -0.0641
  129OSM    H6F13819   1.718   5.608   3.283  1.9543 -1.0699 -1.2571
  129OSM    H6G13820   1.630   5.660   3.132 -0.4095  4.7165 -1.5414
  129OSM    C7F13821   1.637   5.809   3.292  0.3793 -0.6251 -0.2217
  129OSM    H7F13822   1.603   5.880   3.212 -1.2747 -1.8042 -0.6085
  129OSM    H7G13823   1.716   5.847   3.361  1.6938 -1.1264 -1.3983
  129OSM    C8F13824   1.521   5.767   3.373  1.0094 -0.2518  0.3492
  129OSM    H8F13825   1.550   5.697   3.454  2.0537 -1.5188 -1.0546
  129OSM    H8G13826   1.444   5.710   3.317 -0.8248  1.4333  1.0236
  129OSM    C9F13827   1.461   5.895   3.432  0.1222  0.1806  0.0691
  129OSM    H9F13828   1.445   5.967   3.350  2.2065  0.2903 -0.3109
  129OSM   C10F13829   1.425   5.915   3.564 -0.2861 -0.0767  0.4532
  129OSM   H10F13830   1.386   6.015   3.590  2.8932  2.7061 -3.9346
  129OSM   C11F13831   1.438   5.822   3.680 -0.0250 -0.4382  0.2932
  129OSM   H11F13832   1.489   5.873   3.764  2.3721 -1.6279 -0.3721
  129OSM   H11G13833   1.494   5.729   3.658 -0.5024 -0.8034  0.5905
  129OSM   C12F13834   1.295   5.770   3.731  0.3477 -0.6277  0.1841
  129OSM   H12F13835   1.235   5.863   3.747 -0.5489 -0.9673 -1.0657
  129OSM   H12G13836   1.311   5.709   3.822  1.7586 -1.5458 -0.6467
  129OSM   C13F13837   1.218   5.679   3.638 -0.7709  0.0734  0.3974
  129OSM   H13F13838   1.280   5.595   3.601  0.6049  2.1603 -2.4030
  129OSM   H13G13839   1.204   5.729   3.540 -0.8619  0.3818  0.5661
  129OSM   C14F13840   1.091   5.624   3.703 -0.0489  0.1572 -1.0326
  129OSM   H14F13841   1.027   5.713   3.719 -0.2770 -0.2117  0.1993
  129OSM   H14G13842   1.124   5.579   3.799  0.9252 -0.9446 -1.8504
  129OSM   C15F13843   1.012   5.521   3.628  0.7705  0.1092  0.2687
  129OSM   H15F13844   0.926   5.476   3.683 -1.4241  2.0472 -1.3824
  129OSM   H15G13845   1.081   5.439   3.598 -1.9812 -2.6131  0.8946
  129OSM   C16F13846   0.953   5.580   3.492 -0.8694  0.1350 -0.3052
  129OSM   H16F13847   1.024   5.659   3.456  4.0367 -3.6598 -0.0854
  129OSM   H16G13848   0.860   5.635   3.515 -1.2253  0.0814 -1.5210
  129OSM   C17F13849   0.937   5.470   3.391 -0.5586 -0.3033  0.0031
  129OSM   H17F13850   0.872   5.389   3.431 -1.3482  0.3615  0.1014
  129OSM   H17G13851   1.038   5.426   3.385 -0.2965 -0.1183  2.1109
  129OSM   C18F13852   0.888   5.529   3.256  0.9587  0.2664 -0.5972
  129OSM   H18F13853   0.902   5.460   3.170 -1.3166  1.2516 -1.8685
  129OSM   H18G13854   0.944   5.619   3.223 -2.0624  2.9711  1.0349
  129OSM   H18H13855   0.786   5.573   3.252  1.0132  0.8292  2.3143
  130OSM      N13856   4.115   3.787   2.449 -0.4156  0.2033  0.0472
  130OSM    C1513857   4.126   3.920   2.384 -0.3510  0.2371 -0.2539
  130OSM   H15A13858   4.030   3.968   2.387 -0.2187  0.5663 -1.0599
  130OSM   H15B13859   4.153   3.909   2.280  2.9595  2.7917  0.1325
  130OSM   H15C13860   4.201   3.981   2.434  0.2027 -1.6945  1.4094
  130OSM    C1413861   4.007   3.714   2.377 -0.4061  0.5102  0.2710
  130OSM   H14A13862   3.993   3.617   2.422  1.2944 -0.1363 -0.4858
  130OSM   H14B13863   4.012   3.719   2.269 -0.3603  0.7976  0.2855
  130OSM   H14C13864   3.919   3.775   2.388 -1.1872 -0.1403 -1.8656
  130OSM    C1313865   4.242   3.714   2.433  0.1889 -0.2319 -0.1870
  130OSM   H13A13866   4.326   3.776   2.459 -0.6719  1.7317 -1.7682
  130OSM   H13B13867   4.251   3.682   2.330 -0.4204 -0.6345 -0.1157
  130OSM   H13C13868   4.257   3.620   2.483 -0.7470 -0.3624 -0.1382
  130OSM    C1213869   4.069   3.793   2.597  0.0325 -0.5701 -0.0272
  130OSM   H12A13870   4.161   3.797   2.653  0.0595 -2.7700  0.1705
  130OSM   H12B13871   4.026   3.696   2.616 -1.2055  0.0851  0.6302
  130OSM    C1113872   3.973   3.907   2.639  0.0359 -0.4132 -0.5061
  130OSM   H11A13873   4.013   4.009   2.619 -3.0886  0.9095 -0.7117
  130OSM   H11B13874   3.966   3.900   2.750 -0.2745  1.1195 -0.4072
  130OSM      P13875   3.758   4.027   2.541  0.1545  0.2240  0.0154
  130OSM    O1313876   3.816   4.082   2.414  0.6510 -0.2149 -0.8848
  130OSM    O1413877   3.617   3.988   2.540 -0.6233 -0.0989 -0.1518
  130OSM    O1113878   3.781   4.126   2.655  0.1156  0.1996  0.0244
  130OSM    O1213879   3.844   3.897   2.584  0.2727 -0.1449  0.6297
  130OSM    C1S13880   3.747   4.111   2.793 -0.3516 -0.3238  0.1503
  130OSM    H1S13881   3.745   4.002   2.816 -2.4248 -0.2299  0.6079
  130OSM    H1T13882   3.642   4.144   2.804  0.7782  3.7446  0.1932
  130OSM     NF13883   3.801   4.171   3.022  0.3670 -0.6108 -0.3406
  130OSM    HNF13884   3.766   4.247   3.077  0.9785 -0.9762  0.5959
  130OSM    C2S13885   3.830   4.196   2.886 -1.5423 -0.2231 -0.2648
  130OSM    H2S13886   3.934   4.164   2.864 -1.2174  0.7445 -0.1737
  130OSM    C3S13887   3.805   4.347   2.856  0.1022  0.7327  0.1110
  130OSM    H3S13888   3.696   4.346   2.878  0.0915 -0.5906  0.0904
  130OSM     O313889   3.807   4.373   2.722 -0.3768  0.1173  0.4212
  130OSM    HO313890   3.797   4.283   2.691 -0.1902  0.5950 -1.1248
  130OSM    C4S13891   3.880   4.445   2.939 -0.0062  0.0692 -0.4561
  130OSM    H4S13892   3.989   4.431   2.932 -0.0165  0.0417 -0.5729
  130OSM    C5S13893   3.830   4.549   3.001  0.1864 -0.3699 -0.2337
  130OSM    H5S13894   3.723   4.565   2.980  0.1952  1.9332  1.0609
  130OSM    C6S13895   3.896   4.664   3.073 -0.3107 -0.3915 -0.3331
  130OSM    H6S13896   3.835   4.688   3.163 -1.6286 -1.6970 -0.8411
  130OSM    H6T13897   3.879   4.749   3.003  1.5558  0.2787 -0.0352
  130OSM    C7S13898   4.042   4.649   3.099 -0.1275  0.3005  0.3066
  130OSM    H7S13899   4.093   4.738   3.141  1.4483 -1.4796  2.3889
  130OSM    H7T13900   4.098   4.626   3.006 -2.5961 -1.8612 -0.7676
  130OSM    C8S13901   4.084   4.544   3.212  0.5880  0.5636 -0.4988
  130OSM    H8S13902   4.189   4.509   3.203  0.9553  0.1502  3.4363
  130OSM    H8T13903   4.025   4.451   3.195  0.8005  0.5813 -1.3512
  130OSM    C9S13904   4.060   4.607   3.357  0.3505  0.3656  0.5993
  130OSM    H9S13905   3.954   4.637   3.371  0.7915  1.1127  2.6611
  130OSM    H9T13906   4.118   4.701   3.346  0.2024  0.8295  3.1639
  130OSM   C10S13907   4.126   4.520   3.461  0.5786  0.4128 -0.0040
  130OSM   H10S13908   4.231   4.499   3.434  0.5128 -1.1806  0.8588
  130OSM   H10T13909   4.080   4.419   3.461  0.6946  0.3158 -2.2118
  130OSM   C11S13910   4.127   4.597   3.598 -0.2131 -0.1143  0.2276
  130OSM   H11S13911   4.022   4.627   3.621  0.0007 -0.3962  1.6327
  130OSM   H11T13912   4.202   4.678   3.589 -1.1195  0.5415 -2.5367
  130OSM   C12S13913   4.169   4.508   3.713 -0.0156 -0.7132 -0.4151
  130OSM   H12S13914   4.261   4.449   3.690  0.1344 -1.5479  1.9602
  130OSM   H12T13915   4.098   4.434   3.757 -1.9473  0.1702 -1.9432
  130OSM   C13S13916   4.211   4.603   3.834 -0.5991 -0.3504  0.6091
  130OSM   H13S13917   4.274   4.685   3.794  0.3387 -1.7154 -0.8685
  130OSM   H13T13918   4.270   4.544   3.908 -0.0529  0.1125  0.5450
  130OSM   C14S13919   4.089   4.666   3.905 -0.0785  0.5515 -0.1770
  130OSM   H14S13920   3.998   4.601   3.902  1.0746 -1.0988 -1.1697
  130OSM   H14T13921   4.065   4.753   3.840 -0.7473  0.2428 -0.3565
  130OSM   C15S13922   4.094   4.718   4.051 -0.1630  0.2713 -0.3884
  130OSM   H15S13923   4.085   4.627   4.113  2.0547  0.9558  1.0307
  130OSM   H15T13924   4.009   4.785   4.077  1.7164  2.1417  1.3065
  130OSM   C16S13925   4.230   4.773   4.078  0.5140  0.3026 -0.6328
  130OSM   H16S13926   4.269   4.858   4.018  2.0071  1.4906  1.8725
  130OSM   H16T13927   4.314   4.700   4.067  0.1001 -0.5062  1.2402
  130OSM   C17S13928   4.226   4.832   4.220 -0.5566  0.2152  0.6833
  130OSM   H17S13929   4.187   4.763   4.298  1.3433 -1.0093  0.6070
  130OSM   H17T13930   4.164   4.924   4.218  0.7050  1.1294  1.4900
  130OSM   C18S13931   4.360   4.885   4.260 -0.1585  0.8246 -0.4999
  130OSM   H18S13932   4.394   4.980   4.214 -5.1253  2.5753 -1.1537
  130OSM   H18T13933   4.443   4.814   4.242 -0.2364  0.2911  1.0870
  130OSM   H18U13934   4.340   4.901   4.368 -1.4803  0.1190 -0.6158
  130OSM    C1F13935   3.843   4.060   3.081  0.9369 -0.0879  0.0293
  130OSM     OF13936   3.922   3.987   3.024 -0.3414 -0.1471 -0.4410
  130OSM    C2F13937   3.773   4.031   3.213  0.5802  0.8105  0.3730
  130OSM    H2F13938   3.737   3.926   3.204  1.4899  0.4951  0.2499
  130OSM    H2G13939   3.680   4.091   3.222  1.2473  2.0988 -0.9782
  130OSM    C3F13940   3.854   4.064   3.338 -0.3299 -0.3059 -0.2672
  130OSM    H3F13941   3.779   4.045   3.417 -0.2095  0.9738  0.1844
  130OSM    H3G13942   3.879   4.172   3.341 -0.7065 -0.2209 -0.2442
  130OSM    C4F13943   3.981   3.977   3.350  0.2424  0.1764  0.0449
  130OSM    H4F13944   4.034   4.000   3.255  0.3774  1.6410  0.4491
  130OSM    H4G13945   3.950   3.870   3.349  1.7389 -0.2811  0.5536
  130OSM    C5F13946   4.061   4.019   3.470  0.1278 -0.1967 -0.1136
  130OSM    H5F13947   3.993   4.038   3.556  0.6450  0.4396  0.1699
  130OSM    H5G13948   4.104   4.119   3.450  1.5473 -1.3764 -3.7205
  130OSM    C6F13949   4.179   3.920   3.497 -0.1605 -0.2415 -0.0662
  130OSM    H6F13950   4.132   3.831   3.544 -0.1887  0.0649  0.4957
  130OSM    H6G13951   4.252   3.964   3.568  0.6114  1.9793 -2.0950
  130OSM    C7F13952   4.265   3.868   3.385 -0.1627  0.4442 -0.1309
  130OSM    H7F13953   4.316   3.954   3.337  1.2079  0.8966  1.9830
  130OSM    H7G13954   4.205   3.819   3.306  0.4147  3.3354 -2.5276
  130OSM    C8F13955   4.388   3.781   3.423 -0.0119 -0.3534 -0.6962
  130OSM    H8F13956   4.450   3.831   3.501 -2.2499 -0.1630  1.0612
  130OSM    H8G13957   4.443   3.773   3.327  0.9435 -2.2344 -0.0449
  130OSM    C9F13958   4.328   3.645   3.460  0.3375 -0.4987 -0.1737
  130OSM    H9F13959   4.275   3.597   3.376 -0.2202  3.9893 -2.7487
  130OSM   C10F13960   4.320   3.588   3.581  0.5434 -1.2937 -0.3548
  130OSM   H10F13961   4.272   3.489   3.585 -0.3540 -0.8284  0.5508
  130OSM   C11F13962   4.353   3.636   3.718 -0.4471 -0.3326 -0.0054
  130OSM   H11F13963   4.256   3.660   3.767 -1.9389  3.9650 -4.3367
  130OSM   H11G13964   4.414   3.729   3.716  1.8803 -1.7717 -0.7327
  130OSM   C12F13965   4.442   3.528   3.789 -0.1455 -0.1443  0.8287
  130OSM   H12F13966   4.541   3.543   3.739 -1.6282 -0.6557 -2.5347
  130OSM   H12G13967   4.395   3.430   3.768  0.2057  0.3274 -2.8125
  130OSM   C13F13968   4.446   3.554   3.939  0.4972 -0.1184  0.3641
  130OSM   H13F13969   4.339   3.563   3.967  0.0442 -0.0088 -1.2511
  130OSM   H13G13970   4.492   3.648   3.974  1.6226 -0.6325  0.3300
  130OSM   C14F13971   4.509   3.442   4.026  0.2392 -0.3257 -0.0596
  130OSM   H14F13972   4.614   3.428   3.993  0.4421  0.2455  0.3311
  130OSM   H14G13973   4.458   3.344   4.023 -0.9926  0.1691  2.3302
  130OSM   C15F13974   4.515   3.493   4.171  0.0728  0.5546 -0.5477
  130OSM   H15F13975   4.415   3.526   4.204 -0.4702  0.8362 -2.3961
  130OSM   H15G13976   4.587   3.577   4.179 -0.4317  0.8526  1.1765
  130OSM   C16F13977   4.575   3.387   4.273  0.0958 -0.4767  0.1914
  130OSM   H16F13978   4.490   3.316   4.276  0.4872 -0.9238  1.5763
  130OSM   H16G13979   4.586   3.434   4.373 -3.6369  0.1868  0.4399
  130OSM   C17F13980   4.699   3.304   4.219  0.6568  0.6965 -0.9601
  130OSM   H17F13981   4.663   3.244   4.133  1.4077  1.0024 -1.4986
  130OSM   H17G13982   4.740   3.240   4.299  0.8050 -0.5155 -1.9720
  130OSM   C18F13983   4.815   3.395   4.175 -0.6963 -0.0914  0.4366
  130OSM   H18F13984   4.791   3.463   4.090 -1.1964 -0.1184  0.5530
  130OSM   H18G13985   4.904   3.335   4.148 -1.4660 -2.2803  2.4320
  130OSM   H18H13986   4.835   3.472   4.253  1.4355  0.0045 -0.1589
  131OSM      N13987   0.625   3.245   2.717  0.1537  0.3918 -0.4361
  131OSM    C1513988   0.520   3.257   2.825 -0.0252  0.2017  0.0976
  131OSM   H15A13989   0.426   3.225   2.783  0.7763  1.2833 -2.7547
  131OSM   H15B13990   0.493   3.358   2.851  0.7329  1.4177 -3.3247
  131OSM   H15C13991   0.547   3.201   2.913  0.8017  1.8788  0.9543
  131OSM    C1413992   0.610   3.341   2.609  0.2668 -0.5352 -0.7797
  131OSM   H14A13993   0.691   3.340   2.538  0.8710  2.7665 -0.2927
  131OSM   H14B13994   0.609   3.441   2.650  1.2653 -1.2963  1.2380
  131OSM   H14C13995   0.520   3.323   2.552 -0.3120 -2.5919  0.6896
  131OSM    C1313996   0.756   3.262   2.785 -0.0753 -0.1202  0.4773
  131OSM   H13A13997   0.766   3.365   2.815  2.2260 -0.8451  2.5944
  131OSM   H13B13998   0.841   3.247   2.721 -1.4265 -0.8186 -1.2457
  131OSM   H13C13999   0.747   3.205   2.877 -2.4096 -1.7899 -0.6538
  131OSM    C1214000   0.615   3.098   2.657 -0.0012  0.2480  0.2312
  131OSM   H12A14001   0.622   3.027   2.738 -2.5024  0.0555  0.3501
  131OSM   H12B14002   0.696   3.082   2.587 -1.8394  0.6732 -2.1396
  131OSM    C1114003   0.481   3.063   2.585 -0.1245 -0.0155 -0.6107
  131OSM   H11A14004   0.482   2.961   2.542 -1.0719 -0.1623 -0.2897
  131OSM   H11B14005   0.471   3.127   2.494 -0.4429  1.7607  0.6159
  131OSM      P14006   0.231   3.028   2.635 -0.2923 -0.7764  0.7305
  131OSM    O1314007   0.132   3.063   2.732 -0.4399 -0.4641 -0.8261
  131OSM    O1414008   0.198   3.059   2.492 -0.3729 -0.7644  0.0555
  131OSM    O1114009   0.259   2.875   2.659 -0.3283 -0.2194 -0.1940
  131OSM    O1214010   0.371   3.086   2.677  0.0651  0.8593 -0.6770
  131OSM    C1S14011   0.331   2.835   2.781 -0.0891  0.1762  0.7912
  131OSM    H1S14012   0.414   2.901   2.814  0.8935 -0.4014 -0.3741
  131OSM    H1T14013   0.373   2.733   2.763 -2.5772 -0.7324 -0.2820
  131OSM     NF14014   0.321   2.795   3.019 -0.0121 -0.7331 -0.1043
  131OSM    HNF14015   0.318   2.710   3.071 -2.1347 -0.3606  0.4570
  131OSM    C2S14016   0.238   2.810   2.903 -0.4969 -0.0490  0.5610
  131OSM    H2S14017   0.176   2.901   2.913 -1.1054 -0.1306 -1.8805
  131OSM    C3S14018   0.135   2.697   2.878  0.5347  0.2302  0.3904
  131OSM    H3S14019   0.185   2.608   2.834  1.9865  1.0410  0.3385
  131OSM     O314020   0.037   2.733   2.782  0.3758 -0.7683 -0.2754
  131OSM    HO314021   0.069   2.818   2.753  1.5795 -1.3989 -0.8778
  131OSM    C4S14022   0.063   2.655   3.013 -0.0888 -0.3297 -0.1927
  131OSM    H4S14023   0.053   2.739   3.084 -0.0198 -1.3871  1.1299
  131OSM    C5S14024   0.027   2.532   3.051  0.5511 -0.3093  0.3239
  131OSM    H5S14025   0.044   2.458   2.972  0.9658  1.8293 -1.6834
  131OSM    C6S14026  -0.016   2.487   3.188 -0.1852  0.4188 -0.1150
  131OSM    H6S14027   0.058   2.414   3.227 -1.4419  0.2016  1.9675
  131OSM    H6T14028  -0.105   2.421   3.183  0.6755 -0.8937  1.0837
  131OSM    C7S14029  -0.043   2.595   3.294 -0.1691 -0.3405 -0.0720
  131OSM    H7S14030  -0.135   2.651   3.264  1.0734  1.3001 -1.0116
  131OSM    H7T14031   0.037   2.672   3.292  1.5348 -2.0258  0.6851
  131OSM    C8S14032  -0.055   2.529   3.431 -0.4447  0.1857  0.2966
  131OSM    H8S14033   0.044   2.485   3.459 -0.9749 -0.5275  1.1034
  131OSM    H8T14034  -0.128   2.447   3.415 -0.2646  0.1855 -0.6008
  131OSM    C9S14035  -0.108   2.623   3.543 -0.5144 -0.1598 -0.0655
  131OSM    H9S14036  -0.217   2.642   3.530 -1.0323 -2.9026 -0.2699
  131OSM    H9T14037  -0.060   2.720   3.519 -0.1176 -0.6416 -1.2941
  131OSM   C10S14038  -0.075   2.574   3.680 -0.3315 -0.4253 -0.7014
  131OSM   H10S14039   0.034   2.584   3.700 -0.5601  1.5969 -0.2563
  131OSM   H10T14040  -0.102   2.467   3.698  0.3365 -0.4820  0.0296
  131OSM   C11S14041  -0.147   2.649   3.791  0.3659  0.3216 -0.1505
  131OSM   H11S14042  -0.251   2.669   3.758  0.0858 -0.5451  0.1925
  131OSM   H11T14043  -0.086   2.743   3.792  2.3464 -0.9071  0.3449
  131OSM   C12S14044  -0.147   2.582   3.925  0.5632 -0.7400  0.2190
  131OSM   H12S14045  -0.043   2.558   3.953  0.7104  1.2080  1.4517
  131OSM   H12T14046  -0.197   2.482   3.918  0.1466 -0.5832  0.9014
  131OSM   C13S14047  -0.214   2.648   4.048  0.1397 -0.1656  0.5024
  131OSM   H13S14048  -0.321   2.665   4.025  0.6308  0.0899 -1.8348
  131OSM   H13T14049  -0.162   2.746   4.057 -1.9900  1.0344  0.2938
  131OSM   C14S14050  -0.198   2.568   4.180  0.1712  0.2152  0.0304
  131OSM   H14S14051  -0.090   2.562   4.207  0.2984  0.6806 -0.3573
  131OSM   H14T14052  -0.241   2.466   4.173 -0.2372  0.4142 -0.4042
  131OSM   C15S14053  -0.269   2.638   4.290  0.2278 -0.1306 -0.2888
  131OSM   H15S14054  -0.374   2.663   4.267  0.7306  2.9861  0.2858
  131OSM   H15T14055  -0.217   2.735   4.309  2.1572 -0.7811 -1.8349
  131OSM   C16S14056  -0.265   2.562   4.426  0.7046 -0.6508  0.1224
  131OSM   H16S14057  -0.161   2.533   4.450  1.5823  0.6762 -1.8578
  131OSM   H16T14058  -0.319   2.465   4.418  0.5544 -0.8359  2.5061
  131OSM   C17S14059  -0.323   2.638   4.544 -0.1108  0.1925  0.3906
  131OSM   H17S14060  -0.432   2.651   4.527 -0.1117  2.8103  1.9278
  131OSM   H17T14061  -0.284   2.742   4.544 -1.3851  0.6987  0.3817
  131OSM   C18S14062  -0.291   2.569   4.677  0.3538  0.3103  0.0061
  131OSM   H18S14063  -0.353   2.620   4.754 -0.3756  1.6476 -1.4293
  131OSM   H18T14064  -0.188   2.600   4.707  0.3560  1.6406 -1.2314
  131OSM   H18U14065  -0.301   2.459   4.665 -0.8713  0.5617 -1.5115
  131OSM    C1F14066   0.381   2.892   3.077 -0.1580 -0.7158 -0.4529
  131OSM     OF14067   0.373   2.998   3.031 -0.2603  0.2356  0.0371
  131OSM    C2F14068   0.465   2.865   3.203 -0.5376  0.2500 -0.0832
  131OSM    H2F14069   0.571   2.857   3.170 -0.4822  0.1322  0.1204
  131OSM    H2G14070   0.425   2.771   3.247 -2.0079 -1.0392 -3.8041
  131OSM    C3F14071   0.456   2.988   3.301 -0.2787  0.1589 -0.4890
  131OSM    H3F14072   0.503   3.071   3.244 -0.8280  1.1460  0.4535
  131OSM    H3G14073   0.524   2.968   3.387 -3.3809 -0.3155  2.0287
  131OSM    C4F14074   0.315   3.038   3.336  0.2880 -0.5492 -0.3144
  131OSM    H4F14075   0.263   3.070   3.243 -1.3735 -2.2114 -0.0283
  131OSM    H4G14076   0.329   3.124   3.405 -0.2159  0.2754 -1.2038
  131OSM    C5F14077   0.233   2.933   3.403  0.0624 -0.5211 -0.0312
  131OSM    H5F14078   0.198   2.855   3.332 -1.4135  0.2887 -0.2235
  131OSM    H5G14079   0.134   2.972   3.437  0.1333  0.7432 -1.2226
  131OSM    C6F14080   0.300   2.865   3.517 -1.2984 -0.2988  0.0583
  131OSM    H6F14081   0.382   2.805   3.473 -1.3110  0.6881 -1.3648
  131OSM    H6G14082   0.237   2.794   3.577 -1.4361 -0.8469 -0.7173
  131OSM    C7F14083   0.351   2.961   3.624 -0.6585  0.1673  0.1510
  131OSM    H7F14084   0.428   3.025   3.578  0.2517  0.3421  1.8209
  131OSM    H7G14085   0.402   2.909   3.708 -0.1082 -1.2920 -1.0503
  131OSM    C8F14086   0.251   3.042   3.706  0.3349 -0.4579  0.1966
  131OSM    H8F14087   0.187   3.103   3.639  0.0177 -1.4186 -0.3976
  131OSM    H8G14088   0.315   3.105   3.771  0.2173 -1.3842  1.2427
  131OSM    C9F14089   0.162   2.950   3.784  0.7645 -0.3482  0.7862
  131OSM    H9F14090   0.077   2.908   3.729  0.2717  2.2563 -0.6145
  131OSM   C10F14091   0.156   2.924   3.911  0.3795  0.5567  0.5785
  131OSM   H10F14092   0.086   2.847   3.946 -0.2299  0.4353 -0.8289
  131OSM   C11F14093   0.253   2.966   4.012 -0.2281 -0.3111 -0.0530
  131OSM   H11F14094   0.340   3.028   3.983 -0.8810  1.5386  1.7035
  131OSM   H11G14095   0.305   2.881   4.063 -2.6137 -0.5560  2.2346
  131OSM   C12F14096   0.176   3.048   4.115 -0.2132 -0.5491  0.0716
  131OSM   H12F14097   0.087   2.985   4.137 -1.8537  0.3754 -3.2387
  131OSM   H12G14098   0.131   3.139   4.071  1.1772 -0.3089 -0.9196
  131OSM   C13F14099   0.263   3.069   4.242  0.4416 -0.3550 -0.5402
  131OSM   H13F14100   0.348   3.139   4.226 -0.6462  0.9776 -0.6629
  131OSM   H13G14101   0.292   2.972   4.288  0.7217  0.1065  0.2775
  131OSM   C14F14102   0.157   3.132   4.335 -0.7113  0.5695  0.4203
  131OSM   H14F14103   0.083   3.050   4.347 -0.0510 -0.4793 -2.0026
  131OSM   H14G14104   0.106   3.222   4.293 -1.5870 -0.6413 -1.2083
  131OSM   C15F14105   0.203   3.167   4.483 -0.0213  0.6304 -0.1383
  131OSM   H15F14106   0.113   3.211   4.531 -1.7623  0.1822 -2.7553
  131OSM   H15G14107   0.284   3.242   4.474  0.8470 -0.2814 -0.0046
  131OSM   C16F14108   0.253   3.045   4.564 -0.0127  0.3936 -1.1019
  131OSM   H16F14109   0.276   3.089   4.664 -1.3260 -1.0441 -0.1078
  131OSM   H16G14110   0.348   3.007   4.523 -0.7907 -0.5091 -2.1107
  131OSM   C17F14111   0.150   2.932   4.579  0.1683 -0.6002 -0.3924
  131OSM   H17F14112   0.110   2.896   4.482  0.1755  1.1423 -1.0774
  131OSM   H17G14113   0.062   2.979   4.628  1.6420  2.6634 -0.6263
  131OSM   C18F14114   0.191   2.822   4.671 -1.1656 -1.2980  0.2302
  131OSM   H18F14115   0.275   2.767   4.623 -0.8811  0.3485 -1.2779
  131OSM   H18G14116   0.114   2.750   4.705 -1.1031 -1.5027 -0.0587
  131OSM   H18H14117   0.235   2.864   4.764 -0.9539 -0.1511 -0.3675
  132OSM      N14118   6.381   2.545   1.998  0.1030  0.5053  0.0648
  132OSM    C1514119   6.402   2.449   1.883 -0.5727 -0.8937  0.1433
  132OSM   H15A14120   6.342   2.359   1.881 -0.1532 -1.2022 -2.4591
  132OSM   H15B14121   6.504   2.414   1.882 -0.1672  0.0615  2.3796
  132OSM   H15C14122   6.381   2.510   1.797 -0.2420 -0.9522  0.0210
  132OSM    C1414123   6.479   2.655   1.989  0.0912  0.0048  0.0524
  132OSM   H14A14124   6.474   2.708   1.895 -2.6665 -1.0359 -0.4709
  132OSM   H14B14125   6.575   2.610   2.008 -0.1160  1.0879  4.8131
  132OSM   H14C14126   6.459   2.719   2.073 -0.4954 -1.9381  1.4744
  132OSM    C1314127   6.257   2.613   1.965 -0.2886  0.5824  0.2915
  132OSM   H13A14128   6.259   2.644   1.861  3.2139 -0.6773 -0.1279
  132OSM   H13B14129   6.242   2.701   2.027  0.9708  0.9604  0.0911
  132OSM   H13C14130   6.174   2.546   1.977 -0.1975 -0.1645 -2.5840
  132OSM    C1214131   6.384   2.488   2.145  0.1766  0.0595 -0.2975
  132OSM   H12A14132   6.476   2.432   2.153  0.7076  0.7805 -1.2351
  132OSM   H12B14133   6.310   2.410   2.158 -0.6838  0.8993  0.0200
  132OSM    C1114134   6.377   2.584   2.256 -0.2071  0.1519 -0.3803
  132OSM   H11A14135   6.464   2.653   2.242 -0.4351  0.8076  1.1720
  132OSM   H11B14136   6.394   2.537   2.355  0.0309 -2.5551 -1.6392
  132OSM      P14137   6.124   2.593   2.308  0.4543 -0.2929  0.5600
  132OSM    O1314138   6.006   2.683   2.295 -0.1907  0.4820  0.0479
  132OSM    O1414139   6.112   2.458   2.244 -0.1303 -0.6611 -0.2330
  132OSM    O1114140   6.168   2.571   2.461  0.8526  0.4656  0.3983
  132OSM    O1214141   6.254   2.665   2.254  0.0233  0.0558 -0.8729
  132OSM    C1S14142   6.199   2.691   2.535  0.2557 -0.2390  0.5618
  132OSM    H1S14143   6.109   2.757   2.536  0.3073 -0.0310 -2.1288
  132OSM    H1T14144   6.287   2.745   2.493  0.4462  0.3105  1.6343
  132OSM     NF14145   6.249   2.777   2.758  0.3507 -0.0489  0.3005
  132OSM    HNF14146   6.346   2.796   2.759  0.4273 -0.0676  3.5706
  132OSM    C2S14147   6.231   2.656   2.681 -0.5292 -0.8150 -0.2575
  132OSM    H2S14148   6.150   2.597   2.729  1.6918 -1.2507  3.2811
  132OSM    C3S14149   6.354   2.553   2.687  0.6882 -0.2711 -0.0358
  132OSM    H3S14150   6.452   2.593   2.652 -0.2457  2.3962  0.2054
  132OSM     O314151   6.344   2.438   2.599 -0.3484 -0.1783 -0.3920
  132OSM    HO314152   6.269   2.458   2.542 -0.7502 -0.7022 -0.0483
  132OSM    C4S14153   6.381   2.521   2.831 -0.3588 -0.0593  0.3498
  132OSM    H4S14154   6.296   2.479   2.886  0.6175 -1.3797  0.9215
  132OSM    C5S14155   6.497   2.551   2.899 -0.2522  0.0535  0.3562
  132OSM    H5S14156   6.581   2.596   2.844 -0.4038 -0.5358 -0.3706
  132OSM    C6S14157   6.533   2.531   3.045 -0.2130 -0.3326 -0.0464
  132OSM    H6S14158   6.585   2.623   3.079  2.8212 -1.1044 -2.1778
  132OSM    H6T14159   6.618   2.462   3.064  0.9090  1.2905  1.0661
  132OSM    C7S14160   6.418   2.491   3.142  0.0767  0.1801  0.5232
  132OSM    H7S14161   6.382   2.388   3.119  1.7280 -0.1788 -0.6554
  132OSM    H7T14162   6.334   2.561   3.126  0.4999  0.1751 -2.2880
  132OSM    C8S14163   6.467   2.496   3.293 -0.2495  0.1271  0.1274
  132OSM    H8S14164   6.514   2.592   3.322  1.4352 -1.0880  1.5535
  132OSM    H8T14165   6.544   2.417   3.302 -0.2887 -0.2476 -2.2002
  132OSM    C9S14166   6.366   2.479   3.407  0.1452  0.0345 -0.0036
  132OSM    H9S14167   6.301   2.391   3.388  1.2378 -0.5557 -1.1247
  132OSM    H9T14168   6.306   2.571   3.424  0.8335  0.2903  1.1098
  132OSM   C10S14169   6.442   2.435   3.531 -0.3404 -0.6409  0.7599
  132OSM   H10S14170   6.537   2.494   3.534 -0.2007 -0.8790  1.2147
  132OSM   H10T14171   6.478   2.330   3.522  2.3432  0.1949  0.7130
  132OSM   C11S14172   6.353   2.453   3.654  0.2601  0.0390  0.5077
  132OSM   H11S14173   6.253   2.411   3.630 -0.1144  1.1020  0.1442
  132OSM   H11T14174   6.358   2.562   3.672 -0.0156 -0.0302  1.0168
  132OSM   C12S14175   6.405   2.390   3.777 -0.0653 -0.2636  0.3598
  132OSM   H12S14176   6.509   2.429   3.787  0.5112 -1.0419 -1.9354
  132OSM   H12T14177   6.400   2.279   3.774 -2.0547 -0.2322 -3.4464
  132OSM   C13S14178   6.323   2.443   3.902  0.1341 -0.2582 -0.1207
  132OSM   H13S14179   6.214   2.449   3.884  0.1815  1.1619 -0.0149
  132OSM   H13T14180   6.367   2.545   3.912  1.1567 -0.7546  0.6457
  132OSM   C14S14181   6.344   2.367   4.037 -0.4622  0.6505  0.5424
  132OSM   H14S14182   6.453   2.374   4.057 -0.2097 -2.0394  0.3706
  132OSM   H14T14183   6.318   2.260   4.028 -1.6028  0.9522  0.0891
  132OSM   C15S14184   6.269   2.429   4.158  0.9659  0.4557  0.2456
  132OSM   H15S14185   6.159   2.433   4.142  1.0952  1.5368 -0.4987
  132OSM   H15T14186   6.303   2.535   4.167  2.2187  0.1146 -0.3073
  132OSM   C16S14187   6.283   2.350   4.287  0.2731  0.2723 -0.5026
  132OSM   H16S14188   6.392   2.328   4.283  0.2709  0.3243 -0.8758
  132OSM   H16T14189   6.223   2.258   4.269 -0.7578  1.3473 -2.8674
  132OSM   C17S14190   6.255   2.429   4.413  0.2845  0.0400  0.0635
  132OSM   H17S14191   6.304   2.528   4.399 -2.8345  1.5698 -1.0373
  132OSM   H17T14192   6.292   2.377   4.504  1.6519  1.3296  0.2953
  132OSM   C18S14193   6.100   2.440   4.437  0.0311 -0.0560 -0.2144
  132OSM   H18S14194   6.048   2.495   4.356  1.7266  0.9401 -0.6905
  132OSM   H18T14195   6.069   2.485   4.534  0.7672 -0.6189  0.2974
  132OSM   H18U14196   6.064   2.335   4.440  1.4851 -0.5699  0.4628
  132OSM    C1F14197   6.159   2.839   2.829 -0.3829 -0.4002 -0.0624
  132OSM     OF14198   6.041   2.810   2.821 -0.3803 -0.1269 -0.6133
  132OSM    C2F14199   6.208   2.950   2.912  0.1603  0.2727  0.5047
  132OSM    H2F14200   6.184   3.049   2.866 -1.6429 -1.0096 -1.5275
  132OSM    H2G14201   6.319   2.958   2.911  0.1119  1.0980  1.0899
  132OSM    C3F14202   6.154   2.943   3.059  0.5897 -0.6108 -0.4186
  132OSM    H3F14203   6.175   2.842   3.099  0.3436 -1.3988 -2.2146
  132OSM    H3G14204   6.045   2.965   3.054  0.8956  0.9517 -0.9409
  132OSM    C4F14205   6.216   3.049   3.146  0.5513  1.1178 -0.1559
  132OSM    H4F14206   6.205   3.147   3.095 -4.0143  0.2389 -1.3192
  132OSM    H4G14207   6.323   3.024   3.161  0.2679 -0.3237 -0.3306
  132OSM    C5F14208   6.149   3.074   3.287  0.3806 -0.3308 -0.0304
  132OSM    H5F14209   6.063   3.141   3.263 -0.0482 -1.5734 -2.1858
  132OSM    H5G14210   6.228   3.126   3.345 -0.3099 -0.0611  0.6957
  132OSM    C6F14211   6.087   2.960   3.361  0.1657  0.3283  0.5099
  132OSM    H6F14212   6.142   2.864   3.369  0.8852  0.8061  1.5555
  132OSM    H6G14213   5.993   2.945   3.303 -0.7395  1.8183  1.5267
  132OSM    C7F14214   6.033   3.002   3.502 -0.2401 -0.2512 -0.7017
  132OSM    H7F14215   5.941   3.063   3.489 -0.4281  0.0580  1.6230
  132OSM    H7G14216   6.113   3.060   3.554 -0.0096 -1.3785  0.2456
  132OSM    C8F14217   5.982   2.890   3.590 -0.4806  0.6321  0.3998
  132OSM    H8F14218   5.919   2.822   3.528 -0.1031 -0.9162  1.6267
  132OSM    H8G14219   5.922   2.935   3.672  2.5140  0.5557  2.8017
  132OSM    C9F14220   6.092   2.807   3.648  0.3741 -0.4443 -0.8835
  132OSM    H9F14221   6.142   2.736   3.582  1.6040  0.3827 -0.8809
  132OSM   C10F14222   6.132   2.818   3.776 -1.0058  0.3140  0.0423
  132OSM   H10F14223   6.227   2.774   3.811 -2.0892 -3.4291 -1.1661
  132OSM   C11F14224   6.071   2.915   3.869 -0.0935  0.6949 -0.3123
  132OSM   H11F14225   5.961   2.896   3.875  0.3137 -1.5002  3.6882
  132OSM   H11G14226   6.097   3.017   3.832  3.4183 -0.4744 -1.4090
  132OSM   C12F14227   6.106   2.900   4.019 -0.2266  0.4627 -0.3229
  132OSM   H12F14228   6.054   2.982   4.073 -0.7834  0.9855 -1.6295
  132OSM   H12G14229   6.215   2.918   4.019 -0.3890  1.6501 -1.9797
  132OSM   C13F14230   6.086   2.754   4.079 -0.2974 -0.1811  0.0553
  132OSM   H13F14231   6.154   2.686   4.024 -0.5258 -1.1383  0.9218
  132OSM   H13G14232   5.980   2.722   4.071 -0.4086  0.0401  0.5938
  132OSM   C14F14233   6.144   2.753   4.217  0.1273 -0.8738  0.7404
  132OSM   H14F14234   6.246   2.793   4.204 -0.1667 -0.7460 -1.5503
  132OSM   H14G14235   6.149   2.649   4.255 -0.7564 -1.0768  0.3435
  132OSM   C15F14236   6.059   2.810   4.327 -0.1456  0.2318  0.5805
  132OSM   H15F14237   5.984   2.738   4.365 -1.2940  0.3514 -1.3080
  132OSM   H15G14238   6.013   2.904   4.289 -0.3972 -0.3661 -0.6341
  132OSM   C16F14239   6.142   2.853   4.448  0.5284 -0.2135  0.2275
  132OSM   H16F14240   6.189   2.950   4.420 -1.5916  0.9997  0.6792
  132OSM   H16G14241   6.217   2.779   4.483 -2.6107 -3.7820  0.0425
  132OSM   C17F14242   6.046   2.872   4.569  0.2684  0.4565 -0.2914
  132OSM   H17F14243   6.009   2.772   4.602  1.2675 -0.1487 -0.9446
  132OSM   H17G14244   5.959   2.935   4.539 -1.3229 -0.8868  1.2638
  132OSM   C18F14245   6.119   2.941   4.680 -0.0177 -0.4622  0.6951
  132OSM   H18F14246   6.059   2.937   4.773 -0.5597 -1.7345  0.3070
  132OSM   H18G14247   6.132   3.050   4.659 -0.8672 -0.3424  0.7562
  132OSM   H18H14248   6.217   2.891   4.691  0.2404  0.2656  1.8728
  133OSM      N14249   3.165   2.535   2.014 -0.6936 -0.7290  0.3549
  133OSM    C1514250   3.175   2.394   1.990  0.1319 -0.0576 -0.1452
  133OSM   H15A14251   3.265   2.358   1.942 -0.8228 -1.0619 -1.2795
  133OSM   H15B14252   3.090   2.356   1.934  0.3157 -0.2911 -0.2672
  133OSM   H15C14253   3.171   2.348   2.087 -2.4294 -0.8433 -0.5367
  133OSM    C1414254   3.184   2.617   1.886 -0.0592 -0.4188 -0.9233
  133OSM   H14A14255   3.283   2.605   1.844  0.7579  1.8932  0.1393
  133OSM   H14B14256   3.179   2.720   1.918  0.2669 -0.5706 -0.3734
  133OSM   H14C14257   3.096   2.624   1.825  0.4656  2.0147 -1.5056
  133OSM    C1314258   3.036   2.573   2.064 -0.0261  0.8152  1.0694
  133OSM   H13A14259   2.952   2.543   2.003  1.0689 -0.4322  0.1265
  133OSM   H13B14260   3.029   2.680   2.077  2.4167  1.1571  0.0791
  133OSM   H13C14261   3.018   2.523   2.159  0.6357 -1.3316  0.1172
  133OSM    C1214262   3.277   2.588   2.109 -0.3432  0.0428 -1.0837
  133OSM   H12A14263   3.283   2.695   2.096 -2.9182  0.2470 -1.1880
  133OSM   H12B14264   3.374   2.556   2.073  0.2934  1.4075 -0.6452
  133OSM    C1114265   3.260   2.557   2.256  0.6400 -0.0590 -0.5307
  133OSM   H11A14266   3.166   2.605   2.293  0.5918 -1.8635  1.9272
  133OSM   H11B14267   3.334   2.614   2.316  0.1178 -0.4783  0.5359
  133OSM      P14268   3.380   2.329   2.264 -0.0699  0.2158  0.2257
  133OSM    O1314269   3.336   2.193   2.233 -0.0225  0.3925 -0.6001
  133OSM    O1414270   3.486   2.382   2.187  0.3628  0.1569 -0.6031
  133OSM    O1114271   3.444   2.317   2.410  0.1788 -0.0453 -0.4364
  133OSM    O1214272   3.249   2.422   2.292 -0.2576 -0.2750  0.6675
  133OSM    C1S14273   3.397   2.383   2.522 -0.4358  0.0728 -0.1400
  133OSM    H1S14274   3.295   2.344   2.543 -0.0469 -2.3722 -2.3061
  133OSM    H1T14275   3.397   2.493   2.502  1.2707  0.5774  2.2192
  133OSM     NF14276   3.424   2.402   2.763  0.4222 -0.0401  0.3815
  133OSM    HNF14277   3.472   2.471   2.816  0.2492  2.8952 -2.9587
  133OSM    C2S14278   3.482   2.357   2.637 -0.2954 -0.2425  0.3499
  133OSM    H2S14279   3.481   2.247   2.650 -2.1787 -0.1935  0.9376
  133OSM    C3S14280   3.629   2.393   2.611  0.3575  0.3666  0.0549
  133OSM    H3S14281   3.643   2.501   2.589 -0.7450  0.4759 -0.1809
  133OSM     O314282   3.690   2.323   2.509  0.1565 -0.6060 -0.2239
  133OSM    HO314283   3.616   2.278   2.468  1.9786 -2.7929 -1.3035
  133OSM    C4S14284   3.709   2.359   2.738 -0.4336 -0.1882  0.2276
  133OSM    H4S14285   3.763   2.440   2.788 -0.4852 -1.0727  1.7976
  133OSM    C5S14286   3.728   2.233   2.790 -1.7741 -0.0880  0.8472
  133OSM    H5S14287   3.684   2.144   2.744 -1.7904  0.8385 -0.9994
  133OSM    C6S14288   3.812   2.209   2.913 -0.3478  0.2400 -0.1085
  133OSM    H6S14289   3.870   2.296   2.952  2.2096 -1.4967  0.2244
  133OSM    H6T14290   3.890   2.133   2.891 -1.7371 -0.9499 -1.0687
  133OSM    C7S14291   3.731   2.141   3.032 -0.1898  0.1945 -0.8195
  133OSM    H7S14292   3.815   2.101   3.094  0.8933 -0.0346 -2.3817
  133OSM    H7T14293   3.675   2.049   3.007  1.4917 -0.8861 -0.8173
  133OSM    C8S14294   3.654   2.250   3.106 -0.7925 -0.2639  0.5353
  133OSM    H8S14295   3.581   2.297   3.036  0.5540 -1.7860 -2.0069
  133OSM    H8T14296   3.734   2.324   3.128  0.2851 -0.8586 -1.2054
  133OSM    C9S14297   3.592   2.193   3.231 -0.0970  0.4372 -0.8511
  133OSM    H9S14298   3.668   2.127   3.278  0.5334  1.3741 -0.5522
  133OSM    H9T14299   3.506   2.129   3.201  0.2840 -1.6551  2.1373
  133OSM   C10S14300   3.542   2.307   3.328 -0.1819  0.7163 -0.1754
  133OSM   H10S14301   3.491   2.383   3.264  0.7224  1.6846  0.2269
  133OSM   H10T14302   3.629   2.361   3.372  0.5601  0.5007 -1.3239
  133OSM   C11S14303   3.457   2.249   3.449  0.0647  0.3523 -0.1609
  133OSM   H11S14304   3.512   2.158   3.481  0.4145  0.7315  0.3125
  133OSM   H11T14305   3.362   2.215   3.401  0.4458  0.1193 -0.7639
  133OSM   C12S14306   3.456   2.350   3.564 -0.0658  0.7671  0.5437
  133OSM   H12S14307   3.374   2.422   3.541 -1.0284  0.3431  2.3923
  133OSM   H12T14308   3.551   2.403   3.589 -1.6451  2.8908  2.5174
  133OSM   C13S14309   3.397   2.291   3.692  0.9711  0.2679  0.1178
  133OSM   H13S14310   3.460   2.208   3.730  0.4929 -0.7953 -1.2768
  133OSM   H13T14311   3.298   2.240   3.689  1.5530 -0.9685  1.0452
  133OSM   C14S14312   3.383   2.393   3.801  0.2500 -0.4456 -0.7791
  133OSM   H14S14313   3.334   2.489   3.774 -0.9837 -0.3582  1.5655
  133OSM   H14T14314   3.486   2.422   3.832 -0.3238  1.5903 -0.6191
  133OSM   C15S14315   3.315   2.348   3.933 -0.8925 -0.4083 -0.0135
  133OSM   H15S14316   3.372   2.263   3.977 -0.8338 -1.3436 -1.8076
  133OSM   H15T14317   3.217   2.306   3.903 -0.8495  0.8171 -2.0217
  133OSM   C16S14318   3.302   2.468   4.029  0.1242 -0.0685  0.0746
  133OSM   H16S14319   3.273   2.561   3.976 -2.9183 -0.6578  0.5137
  133OSM   H16T14320   3.401   2.492   4.072  0.8115 -2.7816  0.1997
  133OSM   C17S14321   3.211   2.450   4.152  0.4283 -0.5706  0.1329
  133OSM   H17S14322   3.271   2.391   4.224  0.4446  0.0524  0.6427
  133OSM   H17T14323   3.127   2.397   4.101 -0.7030  0.6848  0.6226
  133OSM   C18S14324   3.154   2.576   4.218 -0.0058  0.2837  0.1580
  133OSM   H18S14325   3.237   2.644   4.244 -0.1343  0.3466  0.4086
  133OSM   H18T14326   3.105   2.564   4.317 -1.2227 -0.8329 -0.5402
  133OSM   H18U14327   3.080   2.624   4.150 -1.2754 -0.9191  0.6285
  133OSM    C1F14328   3.310   2.345   2.823 -0.3719 -0.4851 -0.4631
  133OSM     OF14329   3.223   2.288   2.757  0.1406  0.2667  0.1675
  133OSM    C2F14330   3.302   2.336   2.971  0.1816  0.3747 -0.5426
  133OSM    H2F14331   3.371   2.414   3.010  1.4409 -0.9356 -0.0852
  133OSM    H2G14332   3.340   2.235   2.997 -2.4406 -0.6784 -0.4926
  133OSM    C3F14333   3.161   2.339   3.022 -0.0623 -0.4500  0.0173
  133OSM    H3F14334   3.104   2.250   2.988 -1.1371  0.4049 -0.4887
  133OSM    H3G14335   3.105   2.429   2.988  1.1957 -0.0349 -1.0177
  133OSM    C4F14336   3.163   2.351   3.177 -0.4464  0.0628 -0.1103
  133OSM    H4F14337   3.211   2.447   3.203  0.0364 -0.3638  0.6181
  133OSM    H4G14338   3.245   2.286   3.214 -1.5052 -1.3293 -0.1209
  133OSM    C5F14339   3.024   2.337   3.245  0.0164 -0.1854  0.1514
  133OSM    H5F14340   2.978   2.241   3.214 -1.5790  0.2643  1.0174
  133OSM    H5G14341   2.959   2.419   3.209  0.2985 -0.5177 -1.1716
  133OSM    C6F14342   3.034   2.328   3.399 -0.5186  0.3555  0.1442
  133OSM    H6F14343   3.125   2.270   3.424 -0.4683  0.9877  1.4757
  133OSM    H6G14344   2.953   2.265   3.440 -1.1191  0.6546 -0.5562
  133OSM    C7F14345   3.039   2.461   3.479  0.2779 -0.9466 -0.1836
  133OSM    H7F14346   2.956   2.529   3.450 -0.0586 -0.9994  0.6207
  133OSM    H7G14347   3.137   2.507   3.455  1.1747 -0.4583  3.7472
  133OSM    C8F14348   3.045   2.438   3.632  0.0962  0.2177 -0.2237
  133OSM    H8F14349   3.143   2.389   3.652  0.0568  0.8728  1.7851
  133OSM    H8G14350   2.956   2.378   3.659 -0.0138 -0.4833 -2.0274
  133OSM    C9F14351   3.043   2.562   3.716 -0.9210 -0.2066  0.9228
  133OSM    H9F14352   3.104   2.638   3.665  1.5395 -3.0231 -0.6075
  133OSM   C10F14353   3.003   2.582   3.838  0.5258  0.1507 -0.8929
  133OSM   H10F14354   3.003   2.680   3.886  3.9030 -1.0405  1.9568
  133OSM   C11F14355   2.918   2.484   3.914  0.1995  1.0685 -0.7624
  133OSM   H11F14356   2.932   2.512   4.020 -0.1126  1.5328 -0.8444
  133OSM   H11G14357   2.967   2.384   3.903 -1.4528  0.3291 -1.7657
  133OSM   C12F14358   2.768   2.468   3.873 -0.3541  0.3898 -0.1762
  133OSM   H12F14359   2.762   2.479   3.762  0.9472 -0.9710 -0.4175
  133OSM   H12G14360   2.717   2.557   3.915 -0.2260  0.8331 -0.9279
  133OSM   C13F14361   2.690   2.336   3.898  0.0614  0.1964 -0.1585
  133OSM   H13F14362   2.759   2.252   3.874  0.5394  0.9055 -1.3722
  133OSM   H13G14363   2.601   2.336   3.831 -0.6697  0.2436  0.7898
  133OSM   C14F14364   2.646   2.332   4.049  0.4310  0.2034 -0.4050
  133OSM   H14F14365   2.566   2.255   4.052  1.3718 -0.7798  0.1692
  133OSM   H14G14366   2.611   2.431   4.083 -0.9861 -1.2750  2.8520
  133OSM   C15F14367   2.759   2.274   4.138  0.4595 -0.0932 -0.2559
  133OSM   H15F14368   2.854   2.332   4.144  1.3626 -1.4739 -0.6320
  133OSM   H15G14369   2.778   2.169   4.107  0.5389 -0.7190  1.7603
  133OSM   C16F14370   2.716   2.262   4.292  0.0767  0.1022 -0.4237
  133OSM   H16F14371   2.780   2.187   4.343 -0.9263  1.1175  2.4933
  133OSM   H16G14372   2.612   2.224   4.284  0.0523 -0.7382  2.6999
  133OSM   C17F14373   2.715   2.388   4.378 -0.2155  0.0133 -0.0857
  133OSM   H17F14374   2.630   2.381   4.450 -0.7250  1.8647 -0.4434
  133OSM   H17G14375   2.681   2.471   4.312 -0.9553 -0.9275 -0.9167
  133OSM   C18F14376   2.853   2.407   4.445 -0.3281  0.0239  0.2450
  133OSM   H18F14377   2.935   2.421   4.372  1.2363  0.5160  2.0115
  133OSM   H18G14378   2.869   2.308   4.494  0.7722 -0.0709 -0.2774
  133OSM   H18H14379   2.854   2.489   4.520 -0.3211  0.9070 -0.6992
  134OSM      N14380   3.930   5.582   2.150  0.1178  0.8506  0.3427
  134OSM    C1514381   3.837   5.470   2.183  0.0252 -0.1781 -0.3642
  134OSM   H15A14382   3.853   5.386   2.117  0.9250 -1.5068  1.4725
  134OSM   H15B14383   3.735   5.507   2.187  0.3246  0.5655  1.5465
  134OSM   H15C14384   3.848   5.442   2.286  0.9874  1.4145 -0.0116
  134OSM    C1414385   4.075   5.532   2.147 -0.2105 -0.0297 -0.5682
  134OSM   H14A14386   4.082   5.444   2.086  1.8565 -0.4715  0.2197
  134OSM   H14B14387   4.111   5.510   2.247  0.0975 -0.0422 -0.6811
  134OSM   H14C14388   4.132   5.613   2.103 -2.0296  1.1040 -0.9582
  134OSM    C1314389   3.897   5.624   2.015  0.0244 -0.2988  0.7890
  134OSM   H13A14390   3.801   5.672   2.001  1.4107  2.6017  0.5301
  134OSM   H13B14391   3.897   5.540   1.946  0.8623  0.4101 -0.0928
  134OSM   H13C14392   3.962   5.703   1.983 -1.0401  0.1403 -0.3651
  134OSM    C1214393   3.915   5.701   2.246  1.0177  0.3994  0.2663
  134OSM   H12A14394   4.005   5.758   2.227  2.4923 -1.5025  1.2890
  134OSM   H12B14395   3.930   5.671   2.349 -1.3553  0.1870  0.6022
  134OSM    C1114396   3.784   5.785   2.266 -0.0142 -1.1329 -0.7405
  134OSM   H11A14397   3.780   5.850   2.175 -0.0279  0.3911  0.2998
  134OSM   H11B14398   3.793   5.855   2.352 -0.1203 -0.2654 -1.4205
  134OSM      P14399   3.597   5.672   2.411 -0.5731  0.4065 -0.0815
  134OSM    O1314400   3.540   5.794   2.466 -0.2443  0.4805  0.2559
  134OSM    O1414401   3.512   5.555   2.389 -0.0575  0.1442 -0.1268
  134OSM    O1114402   3.726   5.623   2.493 -0.0842  0.5209  0.0446
  134OSM    O1214403   3.665   5.706   2.282  0.5140 -0.7357 -0.3802
  134OSM    C1S14404   3.720   5.654   2.634  0.3816 -0.8676  0.3720
  134OSM    H1S14405   3.627   5.617   2.682  0.9271 -5.1208 -1.3960
  134OSM    H1T14406   3.737   5.763   2.650 -0.7429 -0.3913 -1.3856
  134OSM     NF14407   3.794   5.574   2.856  0.3550  0.6924 -0.4869
  134OSM    HNF14408   3.871   5.598   2.915 -1.1814  1.0675  1.4775
  134OSM    C2S14409   3.822   5.566   2.709 -0.5054  0.0462 -0.1720
  134OSM    H2S14410   3.813   5.460   2.674 -2.5620  0.3219 -0.6325
  134OSM    C3S14411   3.963   5.609   2.671 -0.1924 -0.1076  0.5787
  134OSM    H3S14412   3.990   5.704   2.722 -0.9681  0.8011 -0.6476
  134OSM     O314413   3.978   5.649   2.533  1.0242  0.3273 -0.4862
  134OSM    HO314414   3.890   5.622   2.506 -0.7650  2.0680  2.9494
  134OSM    C4S14415   4.066   5.510   2.707 -0.3899  0.2113 -0.2795
  134OSM    H4S14416   4.066   5.424   2.638  1.4896  0.0798 -0.1597
  134OSM    C5S14417   4.172   5.518   2.790  0.5866 -1.0491  0.0319
  134OSM    H5S14418   4.174   5.595   2.869 -0.2527  2.3252 -3.0190
  134OSM    C6S14419   4.287   5.421   2.797 -0.3491  0.7048 -0.3834
  134OSM    H6S14420   4.376   5.467   2.749  1.7325 -0.1832  2.3781
  134OSM    H6T14421   4.271   5.332   2.734  0.9102  0.2831 -0.1385
  134OSM    C7S14422   4.317   5.387   2.939 -0.3049  0.0986  0.0859
  134OSM    H7S14423   4.225   5.359   2.995 -0.9209  0.5609 -0.6538
  134OSM    H7T14424   4.359   5.477   2.988  1.3092  0.2750 -1.5401
  134OSM    C8S14425   4.412   5.267   2.945  0.5250  0.3041 -0.3558
  134OSM    H8S14426   4.476   5.254   2.856  0.2878 -0.9595 -0.3574
  134OSM    H8T14427   4.340   5.182   2.954 -0.0791  0.8294 -0.1002
  134OSM    C9S14428   4.514   5.273   3.060  0.6709 -0.3535 -0.0466
  134OSM    H9S14429   4.595   5.349   3.057 -0.0972  0.4985  0.5532
  134OSM    H9T14430   4.576   5.180   3.053  1.9239  0.4217  0.4616
  134OSM   C10S14431   4.447   5.261   3.196 -0.0993 -0.2562 -0.6230
  134OSM   H10S14432   4.382   5.172   3.188 -0.7924  0.4062 -3.1349
  134OSM   H10T14433   4.380   5.349   3.203  0.0216 -0.1296 -1.0158
  134OSM   C11S14434   4.544   5.282   3.312 -1.1783  0.3817  0.2431
  134OSM   H11S14435   4.568   5.391   3.308 -4.3641  1.1386 -0.7432
  134OSM   H11T14436   4.638   5.225   3.298 -0.5330  1.9447 -2.4594
  134OSM   C12S14437   4.492   5.248   3.454  0.4898 -0.1491  0.7355
  134OSM   H12S14438   4.458   5.142   3.456  0.7502 -0.2428  2.6000
  134OSM   H12T14439   4.395   5.302   3.455  1.1718  1.1320  0.0716
  134OSM   C13S14440   4.594   5.285   3.557 -0.8452 -0.6491 -0.4700
  134OSM   H13S14441   4.604   5.396   3.550  1.6032 -0.8491 -0.9600
  134OSM   H13T14442   4.685   5.230   3.528 -1.2767 -1.7053  0.1205
  134OSM   C14S14443   4.553   5.252   3.696 -0.0620 -0.0506 -0.1663
  134OSM   H14S14444   4.502   5.154   3.696 -0.9013  0.3740  0.0955
  134OSM   H14T14445   4.473   5.324   3.727 -0.9418 -1.6347  1.4344
  134OSM   C15S14446   4.668   5.254   3.796 -0.1391 -1.0758 -0.5713
  134OSM   H15S14447   4.721   5.351   3.784 -0.8764 -0.4136  1.1256
  134OSM   H15T14448   4.742   5.173   3.778 -1.2971 -1.7978 -2.3319
  134OSM   C16S14449   4.620   5.244   3.947  0.3242 -0.0863 -0.4637
  134OSM   H16S14450   4.550   5.158   3.955  0.4485 -0.6424 -3.9150
  134OSM   H16T14451   4.556   5.332   3.970 -2.4163 -0.9967 -3.7298
  134OSM   C17S14452   4.737   5.211   4.046  0.0283  0.8588  0.5272
  134OSM   H17S14453   4.813   5.290   4.023  0.3506  0.2868 -0.3923
  134OSM   H17T14454   4.792   5.118   4.020 -0.2765  1.3810 -2.2545
  134OSM   C18S14455   4.700   5.204   4.201  0.0247 -0.3085  0.2861
  134OSM   H18S14456   4.795   5.206   4.259  0.1952  0.9226  0.0002
  134OSM   H18T14457   4.657   5.106   4.231  0.9220 -0.7242  0.2430
  134OSM   H18U14458   4.633   5.291   4.221  1.0350  1.2618 -2.5276
  134OSM    C1F14459   3.696   5.506   2.917  0.8665 -0.0648  0.4811
  134OSM     OF14460   3.612   5.447   2.845 -0.5062  0.1315  0.3805
  134OSM    C2F14461   3.719   5.479   3.064  0.5043 -0.5168 -0.5361
  134OSM    H2F14462   3.720   5.578   3.116  3.3939 -0.1275 -1.1413
  134OSM    H2G14463   3.817   5.426   3.071  0.7599 -0.4358 -2.6705
  134OSM    C3F14464   3.603   5.395   3.121 -0.2427  0.2177  0.5678
  134OSM    H3F14465   3.554   5.319   3.056  1.1731  0.7293 -1.1913
  134OSM    H3G14466   3.515   5.457   3.148 -1.6059 -2.0451  1.7311
  134OSM    C4F14467   3.642   5.325   3.256 -0.0571  0.0644  0.0874
  134OSM    H4F14468   3.733   5.263   3.244  0.6591  0.9833  0.6733
  134OSM    H4G14469   3.558   5.255   3.278  0.3926 -0.6985 -0.5704
  134OSM    C5F14470   3.666   5.416   3.376  0.1454 -0.6814 -0.1316
  134OSM    H5F14471   3.569   5.469   3.386  0.1984 -0.6921  0.4317
  134OSM    H5G14472   3.755   5.482   3.370 -1.1499  1.2010  0.4069
  134OSM    C6F14473   3.671   5.335   3.509  0.0076  0.0271 -0.6812
  134OSM    H6F14474   3.731   5.242   3.501  1.6098  1.0493 -0.8349
  134OSM    H6G14475   3.568   5.311   3.545  0.5884  1.1608  1.8924
  134OSM    C7F14476   3.727   5.422   3.621  0.2396  0.0903  0.0644
  134OSM    H7F14477   3.677   5.521   3.618 -1.3146 -0.6110  1.3853
  134OSM    H7G14478   3.836   5.424   3.597  0.6308  0.0680  1.7312
  134OSM    C8F14479   3.712   5.354   3.757  0.0878  0.5193  1.0742
  134OSM    H8F14480   3.814   5.366   3.798  2.3184 -0.2016 -3.5968
  134OSM    H8G14481   3.685   5.246   3.751 -1.1423  0.7282  2.2412
  134OSM    C9F14482   3.591   5.408   3.832 -0.2877 -0.4334 -0.5280
  134OSM    H9F14483   3.498   5.416   3.773  1.3219 -0.2200 -3.1906
  134OSM   C10F14484   3.585   5.434   3.963 -0.7630  0.5435 -0.8870
  134OSM   H10F14485   3.488   5.467   4.003 -0.5453 -0.1783  0.2706
  134OSM   C11F14486   3.703   5.418   4.061 -0.2289 -0.7360  0.1329
  134OSM   H11F14487   3.787   5.371   4.005  0.2124 -0.8978  0.9127
  134OSM   H11G14488   3.687   5.344   4.142 -0.2365 -0.9377 -0.0537
  134OSM   C12F14489   3.759   5.549   4.115  0.3328 -0.1887  0.8573
  134OSM   H12F14490   3.702   5.595   4.198 -0.1429  1.6789 -0.4494
  134OSM   H12G14491   3.777   5.619   4.031  0.0001 -1.7487 -0.5813
  134OSM   C13F14492   3.892   5.537   4.201  0.3725  0.1874 -0.1635
  134OSM   H13F14493   3.972   5.522   4.125 -0.5239  0.5501 -1.2032
  134OSM   H13G14494   3.892   5.452   4.272 -2.2397 -0.0616 -0.3856
  134OSM   C14F14495   3.931   5.665   4.273 -0.3852 -0.6084 -1.2968
  134OSM   H14F14496   3.889   5.680   4.374  0.7146  0.4453 -0.9659
  134OSM   H14G14497   3.894   5.750   4.211  0.7281  0.7382 -0.1960
  134OSM   C15F14498   4.084   5.676   4.281 -0.1448  0.3746 -0.0282
  134OSM   H15F14499   4.120   5.665   4.177  1.6842  1.2147  0.4704
  134OSM   H15G14500   4.114   5.589   4.344 -0.1149 -0.0933 -0.6847
  134OSM   C16F14501   4.142   5.808   4.331 -0.6889  0.0790  0.6609
  134OSM   H16F14502   4.114   5.825   4.438 -0.9666 -2.4536  1.0481
  134OSM   H16G14503   4.087   5.896   4.291  0.2309  0.3889  0.0729
  134OSM   C17F14504   4.297   5.828   4.324  0.6855  0.3149  0.4581
  134OSM   H17F14505   4.319   5.852   4.218 -0.2584  1.0406  0.4097
  134OSM   H17G14506   4.349   5.730   4.334  2.4651  1.1589 -0.1911
  134OSM   C18F14507   4.348   5.942   4.405 -0.2563  0.3285  0.3168
  134OSM   H18F14508   4.361   5.929   4.515 -0.6383 -3.1803  0.0708
  134OSM   H18G14509   4.286   6.032   4.385  0.2096  0.5147 -0.3149
  134OSM   H18H14510   4.451   5.969   4.373 -0.5469 -1.9709 -3.1204
  135OSM      N14511   6.258   3.706   2.501 -0.0565  0.8050 -0.0013
  135OSM    C1514512   6.340   3.704   2.378  0.0708 -0.1194 -0.8539
  135OSM   H15A14513   6.421   3.775   2.389  2.0144 -2.4307  0.7066
  135OSM   H15B14514   6.271   3.724   2.298  0.3937  2.6737 -0.5365
  135OSM   H15C14515   6.378   3.605   2.360 -1.6071 -0.8289 -0.6600
  135OSM    C1414516   6.187   3.837   2.501 -0.6305 -0.6626  0.2760
  135OSM   H14A14517   6.113   3.842   2.422 -0.9770  0.2142  0.6561
  135OSM   H14B14518   6.252   3.922   2.488  1.7881 -2.5366 -0.8018
  135OSM   H14C14519   6.124   3.843   2.588  1.6977  0.4600  1.9824
  135OSM    C1314520   6.155   3.596   2.483 -0.3002 -0.0252  0.1056
  135OSM   H13A14521   6.097   3.577   2.571  0.8184 -1.9181  0.5015
  135OSM   H13B14522   6.203   3.500   2.466 -1.3697 -0.4337 -0.7163
  135OSM   H13C14523   6.086   3.617   2.402  1.1007  3.0754 -0.4383
  135OSM    C1214524   6.332   3.680   2.629 -0.1897  0.2380 -0.3250
  135OSM   H12A14525   6.413   3.613   2.607  0.7150  1.7566 -1.8470
  135OSM   H12B14526   6.273   3.619   2.695 -0.7821  0.4205 -0.6777
  135OSM    C1114527   6.398   3.799   2.700  0.2645 -0.4900 -0.2215
  135OSM   H11A14528   6.452   3.760   2.789 -1.4425 -1.0465  0.6231
  135OSM   H11B14529   6.312   3.863   2.731  1.2014  1.3830 -1.3336
  135OSM      P14530   6.618   3.841   2.580  0.0425  0.4689  0.4034
  135OSM    O1314531   6.635   3.694   2.581 -0.8253  0.5041 -0.0732
  135OSM    O1414532   6.662   3.905   2.454 -0.1013  0.3663 -0.0002
  135OSM    O1114533   6.693   3.911   2.696 -0.2133 -0.3145 -0.1483
  135OSM    O1214534   6.470   3.877   2.612  0.7217  0.2901  0.2723
  135OSM    C1S14535   6.648   3.963   2.816  0.0117 -0.4527 -0.5836
  135OSM    H1S14536   6.615   3.881   2.884 -1.4995  1.1069  0.6305
  135OSM    H1T14537   6.549   4.010   2.798  0.8054  1.5652  0.1538
  135OSM     NF14538   6.688   4.088   3.023  0.6830 -0.3720  0.5303
  135OSM    HNF14539   6.645   4.176   3.041  0.9079  0.5131 -2.6997
  135OSM    C2S14540   6.738   4.064   2.885  0.0690 -0.1579  0.2522
  135OSM    H2S14541   6.839   4.017   2.888 -0.0480 -0.7617 -2.3703
  135OSM    C3S14542   6.755   4.188   2.803  0.0138 -0.4159  0.5062
  135OSM    H3S14543   6.658   4.240   2.784 -0.6044 -1.7174 -0.0351
  135OSM     O314544   6.819   4.162   2.680  0.3926  0.1518  0.5723
  135OSM    HO314545   6.810   4.066   2.676 -0.2191  0.2123  0.3714
  135OSM    C4S14546   6.849   4.283   2.878 -0.2001  0.5599  0.0810
  135OSM    H4S14547   6.928   4.231   2.933  0.0226 -0.3347 -1.0521
  135OSM    C5S14548   6.842   4.421   2.888  0.7025  0.6759 -0.0172
  135OSM    H5S14549   6.760   4.481   2.846  2.7562  3.0393 -0.8734
  135OSM    C6S14550   6.926   4.510   2.974 -0.6376 -0.2533  0.0521
  135OSM    H6S14551   6.862   4.563   3.047 -0.9092  1.0188 -1.0827
  135OSM    H6T14552   6.961   4.581   2.897  0.4914 -0.2691  0.5382
  135OSM    C7S14553   7.052   4.465   3.049 -0.9806 -0.6160 -0.0399
  135OSM    H7S14554   7.105   4.557   3.083  1.6105 -2.0028 -0.1586
  135OSM    H7T14555   7.122   4.405   2.987  0.4812  0.3081  0.6618
  135OSM    C8S14556   7.020   4.387   3.175 -0.9849  0.7844 -0.1432
  135OSM    H8S14557   7.107   4.320   3.189  0.1750  1.8635 -1.8444
  135OSM    H8T14558   6.927   4.331   3.151 -0.8632 -0.7343  2.5303
  135OSM    C9S14559   6.980   4.470   3.300 -0.2532 -0.2360  0.5919
  135OSM    H9S14560   6.892   4.536   3.281 -0.8865 -1.3476 -0.4972
  135OSM    H9T14561   7.067   4.533   3.329  0.8160 -1.6000  0.4354
  135OSM   C10S14562   6.934   4.385   3.417 -0.0281  0.5645  0.6433
  135OSM   H10S14563   7.004   4.303   3.441 -1.5058 -1.0580 -0.3458
  135OSM   H10T14564   6.839   4.333   3.390  1.4732 -2.1790  0.3154
  135OSM   C11S14565   6.921   4.476   3.540  0.1413 -0.7091 -0.4459
  135OSM   H11S14566   6.862   4.566   3.511  2.3237  0.8229 -0.4102
  135OSM   H11T14567   7.021   4.518   3.565 -0.6405  1.6426 -0.9439
  135OSM   C12S14568   6.847   4.401   3.652 -0.5873  0.2489  0.7324
  135OSM   H12S14569   6.914   4.316   3.676 -0.5179  0.1242  0.1132
  135OSM   H12T14570   6.753   4.358   3.611  0.3360  0.2247 -1.5247
  135OSM   C13S14571   6.839   4.484   3.775  0.0133 -0.2502  0.4193
  135OSM   H13S14572   6.810   4.413   3.855  1.9288  0.7113  2.0601
  135OSM   H13T14573   6.762   4.558   3.747 -0.5465 -0.5929  1.0283
  135OSM   C14S14574   6.969   4.553   3.819 -0.0509  0.2015 -0.7920
  135OSM   H14S14575   6.980   4.653   3.773  0.8076 -0.1769 -1.4340
  135OSM   H14T14576   7.049   4.486   3.783 -0.5626 -0.9698  0.1717
  135OSM   C15S14577   6.997   4.556   3.969 -0.4930  0.0203  0.0211
  135OSM   H15S14578   6.908   4.586   4.028 -0.7518 -2.0075  0.7556
  135OSM   H15T14579   7.080   4.629   3.978 -0.5310 -0.0114  0.6334
  135OSM   C16S14580   7.061   4.424   4.021 -0.0846  0.0329 -0.2698
  135OSM   H16S14581   7.140   4.387   3.953 -0.5643 -2.1161  0.2586
  135OSM   H16T14582   6.981   4.348   4.006  1.4442 -1.7128  0.0715
  135OSM   C17S14583   7.116   4.430   4.168 -0.4255 -0.2134 -0.1641
  135OSM   H17S14584   7.043   4.461   4.246 -0.6547  0.2455 -0.5545
  135OSM   H17T14585   7.201   4.497   4.193 -0.2584 -1.4637  3.1812
  135OSM   C18S14586   7.158   4.296   4.214  0.4965  0.1815  0.4268
  135OSM   H18S14587   7.072   4.225   4.204  1.4005 -0.7274 -1.4837
  135OSM   H18T14588   7.200   4.298   4.316  1.9533 -2.0049 -0.0411
  135OSM   H18U14589   7.239   4.266   4.143  0.1012 -0.9498  0.4290
  135OSM    C1F14590   6.680   3.989   3.118  0.6253 -0.4856 -0.5419
  135OSM     OF14591   6.722   3.873   3.097 -0.3639 -0.2246 -1.1572
  135OSM    C2F14592   6.601   4.035   3.240 -0.5328  0.0251 -0.5928
  135OSM    H2F14593   6.493   4.015   3.224 -0.6531 -0.8919  1.0803
  135OSM    H2G14594   6.620   4.144   3.247  1.3088 -0.3533  3.7356
  135OSM    C3F14595   6.643   3.969   3.370 -0.6414  1.4715  0.6077
  135OSM    H3F14596   6.750   3.980   3.396  0.1995  1.4069 -2.4694
  135OSM    H3G14597   6.620   3.861   3.357  0.9560  1.3624 -2.1922
  135OSM    C4F14598   6.563   4.031   3.491 -0.9792  0.4956 -0.4131
  135OSM    H4F14599   6.537   4.137   3.473 -0.7690  0.8395  1.1681
  135OSM    H4G14600   6.614   4.011   3.587 -1.5768  1.7339  0.1798
  135OSM    C5F14601   6.433   3.957   3.501  0.1149 -0.3988  0.1826
  135OSM    H5F14602   6.444   3.847   3.512 -2.7574 -1.1718 -3.0605
  135OSM    H5G14603   6.396   3.963   3.397  2.0627  1.3751 -0.4784
  135OSM    C6F14604   6.341   4.013   3.613  0.5346 -0.3988  0.2834
  135OSM    H6F14605   6.289   4.106   3.582 -1.5981 -2.1571 -1.8650
  135OSM    H6G14606   6.401   4.040   3.702 -0.6138 -0.2382  1.0349
  135OSM    C7F14607   6.223   3.921   3.646  0.6281  0.9836 -0.3140
  135OSM    H7F14608   6.260   3.827   3.691  0.4009  1.6363  1.2979
  135OSM    H7G14609   6.174   3.883   3.554  0.3875 -1.8768  0.8851
  135OSM    C8F14610   6.116   3.983   3.743  0.1873 -0.0927  1.3862
  135OSM    H8F14611   6.020   3.927   3.745 -0.0598  0.3066  3.6671
  135OSM    H8G14612   6.087   4.076   3.690 -0.6591 -1.0411  0.1060
  135OSM    C9F14613   6.148   4.018   3.885  0.2243  0.3399  0.1830
  135OSM    H9F14614   6.195   4.117   3.896  1.9404 -0.6696  2.9832
  135OSM   C10F14615   6.121   3.944   3.990  0.3702  0.5346  0.1475
  135OSM   H10F14616   6.127   3.991   4.089  0.0538  0.4805  0.1938
  135OSM   C11F14617   6.056   3.809   3.987  0.2796  0.0555  0.0445
  135OSM   H11F14618   6.107   3.736   4.054 -2.1816 -2.7079 -0.8578
  135OSM   H11G14619   6.078   3.758   3.890 -0.6494 -0.5616  0.1410
  135OSM   C12F14620   5.910   3.805   4.041 -0.0264  0.3237 -0.5276
  135OSM   H12F14621   5.865   3.704   4.031 -1.3054  1.0953 -4.1940
  135OSM   H12G14622   5.856   3.872   3.971  0.0019  1.2075  0.2694
  135OSM   C13F14623   5.890   3.879   4.171 -0.2190 -0.0390 -0.3311
  135OSM   H13F14624   5.785   3.860   4.202 -1.0218  0.5436 -2.5031
  135OSM   H13G14625   5.903   3.988   4.151 -0.9032 -0.0050 -0.6365
  135OSM   C14F14626   5.981   3.839   4.284 -0.0158 -0.1047  0.4475
  135OSM   H14F14627   6.085   3.872   4.264 -0.5535  1.5218  0.2135
  135OSM   H14G14628   5.981   3.728   4.296 -0.3377  0.0398  1.9060
  135OSM   C15F14629   5.935   3.899   4.423 -0.2081 -0.1634  0.8037
  135OSM   H15F14630   5.830   3.871   4.447 -1.0278  1.2953 -0.9032
  135OSM   H15G14631   5.951   4.009   4.419  2.4974 -0.4647  1.1745
  135OSM   C16F14632   6.021   3.846   4.540 -0.5932  0.0529 -0.5828
  135OSM   H16F14633   6.129   3.872   4.539 -1.1474  2.6693 -2.0183
  135OSM   H16G14634   6.007   3.735   4.539  1.2116 -0.2917  2.2134
  135OSM   C17F14635   5.970   3.909   4.675  0.8245 -0.5640  1.4765
  135OSM   H17F14636   5.865   3.875   4.679  0.1260  1.3340  0.2966
  135OSM   H17G14637   5.980   4.020   4.667 -0.1774 -0.6056 -1.1629
  135OSM   C18F14638   6.035   3.850   4.789  0.1318  0.1881 -0.8004
  135OSM   H18F14639   6.139   3.881   4.810  0.7247 -2.9465  1.9617
  135OSM   H18G14640   6.036   3.739   4.782  0.7927  0.0753  0.6832
  135OSM   H18H14641   5.982   3.872   4.885  0.3247  0.2098 -0.6980
  136OSM      N14642   1.345   6.287   2.174 -0.0886 -0.2692 -0.0125
  136OSM    C1514643   1.368   6.258   2.320  0.4928 -0.6407 -0.0030
  136OSM   H15A14644   1.357   6.151   2.331 -0.5728 -0.4003  1.6886
  136OSM   H15B14645   1.293   6.306   2.381  1.5416 -0.0190  0.8445
  136OSM   H15C14646   1.469   6.288   2.346  0.3441  1.9133 -1.9916
  136OSM    C1414647   1.410   6.168   2.108  0.2285  0.7579 -0.2747
  136OSM   H14A14648   1.408   6.175   2.001 -2.7608 -0.3862 -0.3674
  136OSM   H14B14649   1.359   6.080   2.145 -0.0948  2.0371  2.5794
  136OSM   H14C14650   1.513   6.167   2.141 -0.3269  0.7011  1.5601
  136OSM    C1314651   1.199   6.274   2.144  0.1053 -0.5091 -0.7815
  136OSM   H13A14652   1.142   6.354   2.188  2.2208 -0.3928  2.0517
  136OSM   H13B14653   1.161   6.182   2.187  0.7238 -0.0083  0.9314
  136OSM   H13C14654   1.188   6.286   2.037  1.1382  2.6018 -0.6328
  136OSM    C1214655   1.401   6.431   2.133 -0.0577  0.3184 -0.1584
  136OSM   H12A14656   1.328   6.503   2.166 -2.0544 -1.1129 -1.2662
  136OSM   H12B14657   1.396   6.426   2.026 -1.6463  1.2670 -0.1628
  136OSM    C1114658   1.543   6.463   2.181 -0.1566  0.0402  0.2186
  136OSM   H11A14659   1.573   6.562   2.139  2.8036 -0.5673  0.6460
  136OSM   H11B14660   1.624   6.396   2.143  1.0166  0.3596  2.0356
  136OSM      P14661   1.685   6.430   2.405  0.6028 -0.4373 -0.0627
  136OSM    O1314662   1.712   6.290   2.372  0.5874 -0.2273 -0.2394
  136OSM    O1414663   1.787   6.533   2.377 -0.4036  0.6160 -0.1773
  136OSM    O1114664   1.653   6.444   2.557  0.1549 -0.3136 -0.1159
  136OSM    O1214665   1.554   6.475   2.329 -0.2889 -0.0842 -0.1901
  136OSM    C1S14666   1.531   6.499   2.608  0.6721 -0.6248 -0.1968
  136OSM    H1S14667   1.456   6.417   2.598  1.1572 -1.0925 -0.0517
  136OSM    H1T14668   1.499   6.585   2.546  0.6968 -0.8435 -0.5179
  136OSM     NF14669   1.410   6.570   2.819  0.4271 -0.1673 -0.3192
  136OSM    HNF14670   1.380   6.665   2.833  1.3160 -0.1610  2.0290
  136OSM    C2S14671   1.539   6.533   2.758  0.0224 -0.4258 -0.2871
  136OSM    H2S14672   1.563   6.439   2.812  2.0842 -0.5863 -1.3505
  136OSM    C3S14673   1.658   6.635   2.795  0.2514  0.6261  0.4009
  136OSM    H3S14674   1.627   6.727   2.741 -2.5572 -0.0773  0.6529
  136OSM     O314675   1.785   6.615   2.734  0.3857 -0.3183 -0.4990
  136OSM    HO314676   1.752   6.555   2.667 -2.3595 -0.9838  1.2893
  136OSM    C4S14677   1.655   6.682   2.945  0.1779 -0.1200  0.4789
  136OSM    H4S14678   1.578   6.758   2.965 -0.0142 -0.1033 -0.2951
  136OSM    C5S14679   1.733   6.646   3.040 -1.2311  0.8935 -0.4459
  136OSM    H5S14680   1.798   6.558   3.025  0.5202  2.3619 -1.8214
  136OSM    C6S14681   1.726   6.699   3.181  0.3880 -0.0609 -0.4111
  136OSM    H6S14682   1.672   6.633   3.251  0.4568  0.6382  0.3222
  136OSM    H6T14683   1.661   6.789   3.190 -0.0473 -0.4665  0.7565
  136OSM    C7S14684   1.862   6.728   3.247  0.2598  0.5798  0.2700
  136OSM    H7S14685   1.908   6.812   3.191 -0.0157  3.0034  3.3838
  136OSM    H7T14686   1.929   6.640   3.251  0.1640  0.5001  0.0937
  136OSM    C8S14687   1.842   6.774   3.392  0.0282  0.2101 -0.3427
  136OSM    H8S14688   1.737   6.810   3.397  0.5810  1.7334  0.6068
  136OSM    H8T14689   1.926   6.841   3.418  0.4731 -1.3004  2.4865
  136OSM    C9S14690   1.858   6.666   3.501  0.0448 -0.2825  0.7813
  136OSM    H9S14691   1.967   6.646   3.507  0.1176  0.0471  0.5269
  136OSM    H9T14692   1.805   6.573   3.472  0.8624 -1.2568  2.2877
  136OSM   C10S14693   1.812   6.719   3.641 -1.2561 -0.3434 -0.3355
  136OSM   H10S14694   1.783   6.642   3.716 -0.8168  2.0235  2.4569
  136OSM   H10T14695   1.720   6.780   3.626 -0.7695  0.5222  0.1003
  136OSM   C11S14696   1.898   6.834   3.705  0.3300  0.4370 -0.7368
  136OSM   H11S14697   1.892   6.916   3.630 -0.7461  0.3861 -0.7293
  136OSM   H11T14698   1.999   6.792   3.724 -0.8849 -2.0220  0.7417
  136OSM   C12S14699   1.859   6.886   3.843  0.9364 -0.1349  0.1911
  136OSM   H12S14700   1.858   6.808   3.922 -2.7195  0.4390  0.9103
  136OSM   H12T14701   1.753   6.919   3.829  0.2486 -2.0586  0.5461
  136OSM   C13S14702   1.953   6.998   3.896  0.5985  0.2261  0.3137
  136OSM   H13S14703   1.965   7.083   3.826 -0.6488  0.7805  0.7440
  136OSM   H13T14704   2.060   6.971   3.910  0.4809 -0.0581  0.6918
  136OSM   C14S14705   1.897   7.047   4.030 -0.6672 -0.0219  0.0548
  136OSM   H14S14706   1.918   6.970   4.107 -0.4315  1.7502  1.8454
  136OSM   H14T14707   1.786   7.057   4.036 -0.6559  0.8064 -0.9768
  136OSM   C15S14708   1.954   7.184   4.075  0.2780  0.2785 -0.3594
  136OSM   H15S14709   1.918   7.270   4.014  3.8746  2.7461  0.6396
  136OSM   H15T14710   2.063   7.174   4.058  0.2078  1.1399 -1.4506
  136OSM   C16S14711   1.947   7.223   4.226  0.1932 -0.7666 -0.2470
  136OSM   H16S14712   2.011   7.157   4.288  1.6774  0.8079 -0.0117
  136OSM   H16T14713   1.842   7.211   4.260 -0.1029  0.4464 -0.6849
  136OSM   C17S14714   1.994   7.368   4.246 -0.1770 -0.5723 -0.4379
  136OSM   H17S14715   1.944   7.442   4.179 -0.7507  1.6359  2.2499
  136OSM   H17T14716   2.099   7.377   4.211  0.2293 -1.9803  0.3384
  136OSM   C18S14717   1.991   7.411   4.390  0.5335 -0.2799  0.2619
  136OSM   H18S14718   2.037   7.331   4.452  0.7590  0.5157  1.1515
  136OSM   H18T14719   1.887   7.442   4.412  0.2243  0.0055 -1.4938
  136OSM   H18U14720   2.049   7.506   4.392 -0.9466  0.6368  1.0275
  136OSM    C1F14721   1.314   6.485   2.836 -0.0420  0.1723  0.2360
  136OSM     OF14722   1.334   6.362   2.815  0.1436  0.0230  0.2099
  136OSM    C2F14723   1.179   6.543   2.877 -0.8037 -0.1110 -0.3216
  136OSM    H2F14724   1.102   6.504   2.807  0.0205  0.4445 -1.5900
  136OSM    H2G14725   1.184   6.653   2.866  2.5390 -0.1922 -0.5357
  136OSM    C3F14726   1.153   6.514   3.030  0.4414  0.3104  0.5060
  136OSM    H3F14727   1.138   6.404   3.026  1.2360  0.1596  1.3089
  136OSM    H3G14728   1.058   6.561   3.066  0.4449  0.8810 -0.2123
  136OSM    C4F14729   1.253   6.550   3.134 -0.6638  0.2810  0.4026
  136OSM    H4F14730   1.244   6.660   3.147  0.4805  0.2698  1.5211
  136OSM    H4G14731   1.358   6.521   3.113 -1.2405 -2.1846  0.6897
  136OSM    C5F14732   1.225   6.492   3.271  0.0462  1.0111  0.1886
  136OSM    H5F14733   1.222   6.382   3.255 -2.1150  1.3877 -2.7646
  136OSM    H5G14734   1.118   6.519   3.285 -1.6151 -3.6537 -1.5554
  136OSM    C6F14735   1.325   6.527   3.385  0.3700 -0.1051 -0.4056
  136OSM    H6F14736   1.303   6.632   3.415  1.1777 -0.1767  0.4830
  136OSM    H6G14737   1.432   6.518   3.356  0.0671 -2.9860 -0.9229
  136OSM    C7F14738   1.304   6.437   3.514  0.7121 -0.2372  0.2009
  136OSM    H7F14739   1.313   6.330   3.486 -2.9711 -0.5986 -0.1537
  136OSM    H7G14740   1.194   6.448   3.527  0.6912 -1.1754  0.9310
  136OSM    C8F14741   1.373   6.478   3.645 -0.2455 -0.0114  0.8823
  136OSM    H8F14742   1.352   6.406   3.727  3.5712 -3.4964 -0.8689
  136OSM    H8G14743   1.341   6.579   3.679 -0.4780  0.8131 -1.5407
  136OSM    C9F14744   1.519   6.474   3.634 -0.2615  0.0824 -0.0153
  136OSM    H9F14745   1.563   6.562   3.585  4.1334 -0.8273  1.8551
  136OSM   C10F14746   1.604   6.373   3.674  0.2964  0.7087 -0.2792
  136OSM   H10F14747   1.708   6.390   3.642  1.2910 -1.4464  1.5751
  136OSM   C11F14748   1.552   6.242   3.736 -0.2946  0.4178 -0.0507
  136OSM   H11F14749   1.618   6.158   3.704  0.8691  1.4124 -0.3641
  136OSM   H11G14750   1.448   6.216   3.708 -0.2780 -0.9999  1.0717
  136OSM   C12F14751   1.569   6.252   3.887 -0.4228  0.1668 -0.0191
  136OSM   H12F14752   1.520   6.344   3.925 -0.7169  0.9107 -2.0892
  136OSM   H12G14753   1.677   6.262   3.909 -0.5236  1.9354 -0.1675
  136OSM   C13F14754   1.509   6.130   3.956  0.2320 -0.5275  0.2708
  136OSM   H13F14755   1.568   6.045   3.915  2.0372  0.0627  1.4904
  136OSM   H13G14756   1.401   6.112   3.939  0.0807  0.6511 -0.0935
  136OSM   C14F14757   1.545   6.128   4.102 -0.0572 -0.3448 -0.2129
  136OSM   H14F14758   1.655   6.128   4.117 -0.2003 -1.1644  0.9899
  136OSM   H14G14759   1.495   6.038   4.144 -1.8580  1.3999  1.6296
  136OSM   C15F14760   1.491   6.257   4.177 -0.6437  0.5899  0.5733
  136OSM   H15F14761   1.392   6.289   4.137 -1.0821 -1.4369 -0.1054
  136OSM   H15G14762   1.562   6.341   4.159 -0.1135 -0.1934 -1.2916
  136OSM   C16F14763   1.478   6.228   4.325  0.3694 -0.4398  0.1927
  136OSM   H16F14764   1.448   6.326   4.368 -0.5538 -0.2141 -0.9251
  136OSM   H16G14765   1.576   6.207   4.373 -0.1555 -1.5771  0.8112
  136OSM   C17F14766   1.377   6.122   4.362 -0.4850  0.2832  0.4465
  136OSM   H17F14767   1.402   6.020   4.325  0.6513 -0.1313  2.2333
  136OSM   H17G14768   1.275   6.153   4.333 -1.0526 -1.0313  0.9263
  136OSM   C18F14769   1.370   6.098   4.513 -0.3151  0.0045  0.2337
  136OSM   H18F14770   1.293   6.021   4.535  1.4662 -2.0237 -0.3279
  136OSM   H18G14771   1.338   6.186   4.572  0.1773  0.0008  0.5057
  136OSM   H18H14772   1.461   6.058   4.562 -0.2527  0.3280  0.3869
  137OSM      N14773   5.683   5.564   2.034  0.5140 -0.1893 -0.8390
  137OSM    C1514774   5.757   5.686   2.070 -0.1234 -0.8438 -0.0561
  137OSM   H15A14775   5.693   5.763   2.110  0.7706  0.1467 -0.4932
  137OSM   H15B14776   5.807   5.727   1.983 -2.0976 -0.3355 -1.0150
  137OSM   H15C14777   5.838   5.668   2.139  0.4161 -1.3932 -0.8042
  137OSM    C1414778   5.582   5.593   1.922  0.5063  0.2648  0.3693
  137OSM   H14A14779   5.543   5.505   1.872 -1.5942 -0.0774  2.4250
  137OSM   H14B14780   5.613   5.667   1.850  0.3491  0.1224  0.1511
  137OSM   H14C14781   5.491   5.630   1.966  0.8999  0.2671  1.1962
  137OSM    C1314782   5.774   5.454   1.981  0.3667 -0.0306  0.6866
  137OSM   H13A14783   5.714   5.368   1.953  1.5318 -0.7380  0.2987
  137OSM   H13B14784   5.849   5.422   2.052  0.5382 -1.6321 -0.1699
  137OSM   H13C14785   5.836   5.494   1.902  0.8123 -0.4457  0.8240
  137OSM    C1214786   5.611   5.502   2.153 -0.7006  0.7494 -0.0987
  137OSM   H12A14787   5.555   5.418   2.116 -0.2548  0.0863  0.7005
  137OSM   H12B14788   5.532   5.567   2.187 -2.0574 -0.9621  0.1079
  137OSM    C1114789   5.679   5.464   2.277 -0.1099  0.1837 -0.1489
  137OSM   H11A14790   5.593   5.440   2.343 -0.7765  2.3522 -0.1291
  137OSM   H11B14791   5.723   5.551   2.331 -1.2692 -0.6057  2.2146
  137OSM      P14792   5.908   5.332   2.323 -0.1843  0.1238  0.2495
  137OSM    O1314793   5.906   5.204   2.391  0.0769  0.0220  0.2148
  137OSM    O1414794   5.998   5.349   2.209 -1.0806 -0.5471 -0.1386
  137OSM    O1114795   5.919   5.448   2.428 -0.3505 -0.0085  0.0565
  137OSM    O1214796   5.761   5.348   2.267  0.4419  0.3389 -0.0718
  137OSM    C1S14797   5.854   5.441   2.557  0.6585  0.4064  0.7147
  137OSM    H1S14798   5.869   5.345   2.610  0.6795  0.3852  0.6696
  137OSM    H1T14799   5.744   5.450   2.541  0.3868  0.8650  2.5594
  137OSM     NF14800   5.801   5.564   2.755 -0.2508 -0.2011 -0.4286
  137OSM    HNF14801   5.735   5.636   2.772 -0.7189 -0.9344  1.0794
  137OSM    C2S14802   5.880   5.568   2.636  0.0078 -0.6339 -0.4694
  137OSM    H2S14803   5.987   5.555   2.664  0.5841 -0.3264 -2.3756
  137OSM    C3S14804   5.880   5.708   2.558  0.2585 -0.2248 -0.4786
  137OSM    H3S14805   5.771   5.729   2.568 -0.4738 -4.0967  1.3619
  137OSM     O314806   5.911   5.715   2.421 -0.0113  0.5046 -0.3020
  137OSM    HO314807   5.918   5.624   2.391 -0.5813  0.0973  0.7281
  137OSM    C4S14808   5.941   5.818   2.641  0.3100 -0.4892 -0.1093
  137OSM    H4S14809   5.865   5.855   2.711  0.7378 -0.8414  0.5621
  137OSM    C5S14810   6.059   5.881   2.634 -0.7138 -0.0176  0.2253
  137OSM    H5S14811   6.132   5.862   2.553  1.5707  1.5199  1.7846
  137OSM    C6S14812   6.108   5.993   2.723 -0.0650  0.8934 -0.2459
  137OSM    H6S14813   6.034   6.037   2.794  0.2052 -0.4057  0.8875
  137OSM    H6T14814   6.158   6.069   2.660 -0.2001 -0.2182 -1.7392
  137OSM    C7S14815   6.207   5.923   2.825 -0.3787 -0.4357  0.0992
  137OSM    H7S14816   6.292   5.891   2.761 -0.2751 -0.0802  0.0536
  137OSM    H7T14817   6.166   5.830   2.868 -2.5991  0.0077 -0.9011
  137OSM    C8S14818   6.269   6.026   2.923 -0.3789  0.3712  0.6339
  137OSM    H8S14819   6.256   6.131   2.889  1.9042 -0.1476 -2.3412
  137OSM    H8T14820   6.378   6.005   2.916 -1.0140 -3.4203  0.3628
  137OSM    C9S14821   6.220   5.999   3.064  0.3696  0.6172  0.7348
  137OSM    H9S14822   6.236   5.890   3.081 -0.5337  0.0036 -1.8446
  137OSM    H9T14823   6.109   6.002   3.058  0.2439 -2.8113 -2.2033
  137OSM   C10S14824   6.290   6.071   3.178 -0.7936 -0.3607 -0.3256
  137OSM   H10S14825   6.273   6.180   3.166 -1.7849 -0.5730 -0.9886
  137OSM   H10T14826   6.399   6.047   3.182 -1.1645 -2.0947  0.5548
  137OSM   C11S14827   6.239   6.039   3.321  0.0527  0.0667 -0.3443
  137OSM   H11S14828   6.224   5.930   3.309 -4.7284  0.7290 -2.6223
  137OSM   H11T14829   6.142   6.093   3.327  0.6583  1.1318  0.1800
  137OSM   C12S14830   6.342   6.078   3.422  0.3601 -0.4854 -0.3356
  137OSM   H12S14831   6.376   6.183   3.412 -0.6701 -0.0678  0.3852
  137OSM   H12T14832   6.434   6.021   3.394  1.3211  1.2019 -0.8004
  137OSM   C13S14833   6.282   6.066   3.564 -0.4179  0.2510 -1.4176
  137OSM   H13S14834   6.247   5.961   3.578  2.8980 -0.9003 -0.9088
  137OSM   H13T14835   6.192   6.131   3.565  0.0532  1.0988 -4.4444
  137OSM   C14S14836   6.387   6.107   3.671  0.4907  0.1094  0.9132
  137OSM   H14S14837   6.407   6.215   3.652  1.0447 -0.5893 -3.4549
  137OSM   H14T14838   6.485   6.057   3.654  1.6496  2.4599  0.0715
  137OSM   C15S14839   6.342   6.082   3.807 -0.2717 -0.6820  0.2530
  137OSM   H15S14840   6.334   5.972   3.820  0.5971 -0.5157  2.6584
  137OSM   H15T14841   6.239   6.124   3.807 -0.3896 -0.7915 -2.3583
  137OSM   C16S14842   6.440   6.150   3.904  1.1204  0.0055 -0.0793
  137OSM   H16S14843   6.449   6.255   3.869 -0.5745  0.5050  0.9118
  137OSM   H16T14844   6.539   6.100   3.898 -0.1193 -2.5322 -0.7714
  137OSM   C17S14845   6.387   6.142   4.046  0.3465 -0.1426  0.1882
  137OSM   H17S14846   6.366   6.034   4.063 -1.7148  0.0645 -0.6983
  137OSM   H17T14847   6.290   6.196   4.052 -0.8257 -2.1507  0.4713
  137OSM   C18S14848   6.470   6.206   4.160  0.6794  0.6611 -0.1493
  137OSM   H18S14849   6.563   6.144   4.161 -0.2704 -1.0112 -2.9204
  137OSM   H18T14850   6.421   6.197   4.259  1.7111  0.0028  0.3267
  137OSM   H18U14851   6.498   6.308   4.126 -0.3382  0.3612 -2.0655
  137OSM    C1F14852   5.814   5.470   2.847  0.0767  0.3669 -0.2035
  137OSM     OF14853   5.917   5.404   2.860  0.3722  0.2369  0.2807
  137OSM    C2F14854   5.693   5.446   2.927  0.2915 -0.0873 -0.1304
  137OSM    H2F14855   5.661   5.340   2.916 -2.6627  0.8410 -1.4551
  137OSM    H2G14856   5.601   5.499   2.895  0.0371 -1.0149 -0.9918
  137OSM    C3F14857   5.702   5.482   3.071  0.0602  0.1893  0.3388
  137OSM    H3F14858   5.606   5.474   3.126  0.8422  0.5925  1.8072
  137OSM    H3G14859   5.741   5.585   3.086  0.8575 -0.3461  2.2769
  137OSM    C4F14860   5.801   5.387   3.152 -0.1390  0.1638 -0.0992
  137OSM    H4F14861   5.903   5.416   3.118  0.3013  0.1818  1.1647
  137OSM    H4G14862   5.787   5.278   3.142 -0.3123 -0.1648  2.7414
  137OSM    C5F14863   5.800   5.419   3.303 -0.6074 -0.7869 -0.9229
  137OSM    H5F14864   5.696   5.405   3.341  0.0198  0.2008  1.3814
  137OSM    H5G14865   5.836   5.524   3.316  2.9948 -1.8447 -1.1627
  137OSM    C6F14866   5.891   5.332   3.396  0.0969 -0.1735  0.3726
  137OSM    H6F14867   5.985   5.305   3.343 -0.6169 -0.3013 -0.8524
  137OSM    H6G14868   5.841   5.235   3.413 -4.0831  1.6397 -0.3884
  137OSM    C7F14869   5.915   5.394   3.530  0.3431 -0.5039  0.0708
  137OSM    H7F14870   5.823   5.440   3.571 -0.1475 -0.6574 -0.8474
  137OSM    H7G14871   5.977   5.484   3.511 -1.4124  0.7037 -0.1738
  137OSM    C8F14872   6.007   5.313   3.621  0.0429 -0.9143 -0.1790
  137OSM    H8F14873   6.028   5.372   3.712  1.0777  0.4530 -1.2650
  137OSM    H8G14874   6.102   5.289   3.569 -0.0528 -2.3969  0.2857
  137OSM    C9F14875   5.952   5.175   3.652  0.5016 -1.0853 -0.0754
  137OSM    H9F14876   5.942   5.116   3.559 -0.5701  1.3843 -1.6298
  137OSM   C10F14877   5.925   5.126   3.771  0.5123  0.6987  0.4708
  137OSM   H10F14878   5.888   5.023   3.784  2.4433 -0.1144 -0.1698
  137OSM   C11F14879   5.950   5.195   3.905 -0.2361  0.1094 -0.9235
  137OSM   H11F14880   5.859   5.251   3.933 -0.3399 -1.4358  2.3331
  137OSM   H11G14881   6.029   5.273   3.903  0.9470 -1.0441 -1.3543
  137OSM   C12F14882   5.980   5.091   4.014 -0.1734  0.5348 -0.2331
  137OSM   H12F14883   6.077   5.038   4.001 -0.7977 -0.4707 -0.9869
  137OSM   H12G14884   5.901   5.013   4.022  0.6602 -0.3227 -0.1636
  137OSM   C13F14885   5.975   5.151   4.156  0.2560 -0.2543  0.4444
  137OSM   H13F14886   5.870   5.176   4.181  1.0662  1.8658  2.0715
  137OSM   H13G14887   6.043   5.239   4.168  2.7936 -2.4215  4.5882
  137OSM   C14F14888   6.019   5.053   4.263  0.5793  0.0840  0.1266
  137OSM   H14F14889   6.031   5.111   4.357  0.4058 -0.5506  0.5463
  137OSM   H14G14890   6.123   5.017   4.247  0.4045  0.8278 -3.6271
  137OSM   C15F14891   5.937   4.927   4.285  0.5135  0.0553 -0.5863
  137OSM   H15F14892   5.931   4.876   4.187 -2.0718  2.0330 -1.5849
  137OSM   H15G14893   5.836   4.954   4.322  0.7844 -1.5034  1.4225
  137OSM   C16F14894   6.007   4.843   4.390  0.7895 -0.0839  0.0130
  137OSM   H16F14895   6.023   4.899   4.484  1.5894 -0.0789 -0.1217
  137OSM   H16G14896   6.109   4.818   4.355  0.7311 -0.2102 -0.0691
  137OSM   C17F14897   5.943   4.704   4.403 -0.3054 -0.8636 -0.7379
  137OSM   H17F14898   5.941   4.656   4.303  0.3994 -2.8631  0.1499
  137OSM   H17G14899   5.843   4.723   4.446  0.1021 -0.6803  0.1493
  137OSM   C18F14900   6.030   4.613   4.498  0.4659 -0.5417  0.1058
  137OSM   H18F14901   6.134   4.599   4.464  0.1519  1.1678 -1.7524
  137OSM   H18G14902   5.984   4.512   4.510  0.3288 -0.3287  1.5715
  137OSM   H18H14903   6.030   4.657   4.600  0.0551  0.4487 -0.3068
  138OSM      N14904   4.985   6.835   2.072 -0.4521 -0.0551 -0.0448
  138OSM    C1514905   5.039   6.724   2.155  0.4795  0.6651 -0.1577
  138OSM   H15A14906   4.955   6.668   2.195  0.6937  1.3309  1.3055
  138OSM   H15B14907   5.113   6.762   2.224  1.6646 -1.3961 -0.1946
  138OSM   H15C14908   5.092   6.661   2.086 -0.6373  0.0764 -0.4932
  138OSM    C1414909   5.092   6.914   2.005 -0.0126  1.4784 -0.4206
  138OSM   H14A14910   5.053   7.001   1.955  2.7366  2.0552 -1.7483
  138OSM   H14B14911   5.137   6.856   1.926 -0.8254  1.0299 -0.5669
  138OSM   H14C14912   5.164   6.950   2.078 -0.5923  1.0463  0.3879
  138OSM    C1314913   4.881   6.792   1.972 -0.1661  0.1203  0.0212
  138OSM   H13A14914   4.842   6.880   1.923 -0.5685 -1.5606 -2.8846
  138OSM   H13B14915   4.796   6.752   2.026  0.7230 -0.0522  1.3441
  138OSM   H13C14916   4.915   6.717   1.903  2.4242  0.6100  0.6469
  138OSM    C1214917   4.913   6.938   2.165  0.6233 -0.0895 -0.4968
  138OSM   H12A14918   4.822   6.891   2.200  0.9907  0.0842  0.7540
  138OSM   H12B14919   4.872   7.011   2.097 -0.1742 -0.6232 -0.6054
  138OSM    C1114920   4.995   7.019   2.266 -0.2175 -0.2531  0.7349
  138OSM   H11A14921   5.070   6.944   2.299  1.5765  0.3461 -1.7132
  138OSM   H11B14922   4.938   7.048   2.357  2.3261  0.3702  2.2116
  138OSM      P14923   4.985   7.268   2.197 -0.0387 -0.0904  0.1593
  138OSM    O1314924   5.085   7.375   2.163 -0.3296 -0.0458  0.2251
  138OSM    O1414925   4.863   7.264   2.121  0.3516 -0.0062 -0.1875
  138OSM    O1114926   4.942   7.292   2.352 -0.7883 -0.3662  0.0016
  138OSM    O1214927   5.056   7.132   2.200  0.5879  0.3070  0.1901
  138OSM    C1S14928   5.048   7.310   2.443  0.1289  0.5691 -0.2116
  138OSM    H1S14929   5.104   7.403   2.420  0.2694 -0.1537 -3.2012
  138OSM    H1T14930   5.123   7.230   2.428 -1.3648 -0.5145 -2.4151
  138OSM     NF14931   5.109   7.318   2.675  1.0287 -0.0272 -0.6627
  138OSM    HNF14932   5.113   7.228   2.718  3.2053  0.6028  0.6048
  138OSM    C2S14933   4.994   7.329   2.589  0.0319  0.3064  0.6218
  138OSM    H2S14934   4.948   7.430   2.583 -1.5199 -0.4030 -0.3010
  138OSM    C3S14935   4.872   7.231   2.626  0.4996  0.1413  0.3409
  138OSM    H3S14936   4.900   7.124   2.634 -2.8456 -0.8355  0.6030
  138OSM     O314937   4.761   7.236   2.541 -0.3081  0.1220 -0.0506
  138OSM    HO314938   4.793   7.274   2.458 -1.6201 -0.2470 -0.7439
  138OSM    C4S14939   4.817   7.271   2.764  0.5235  0.0805 -0.9837
  138OSM    H4S14940   4.750   7.359   2.768  1.3033  0.6257  0.6194
  138OSM    C5S14941   4.833   7.198   2.876 -0.6385 -0.4702 -0.1873
  138OSM    H5S14942   4.899   7.109   2.875  1.7159  1.1848 -0.2767
  138OSM    C6S14943   4.775   7.248   3.003 -0.2781  0.2704 -0.0758
  138OSM    H6S14944   4.691   7.186   3.041 -1.9955  1.8072 -1.2320
  138OSM    H6T14945   4.738   7.352   2.990  0.1983  0.1536 -2.9338
  138OSM    C7S14946   4.879   7.242   3.118  0.1844 -1.5487 -0.2328
  138OSM    H7S14947   4.969   7.303   3.095  0.8779 -1.4901  2.2828
  138OSM    H7T14948   4.925   7.141   3.124 -3.9661 -3.5603  1.4798
  138OSM    C8S14949   4.809   7.255   3.252  0.1328 -0.1645  0.0013
  138OSM    H8S14950   4.754   7.161   3.274  0.0381 -0.0012  0.4653
  138OSM    H8T14951   4.735   7.337   3.241  1.0649  0.6694 -0.2124
  138OSM    C9S14952   4.897   7.287   3.375 -0.4695 -0.1837 -0.0321
  138OSM    H9S14953   4.933   7.391   3.359  0.2200 -0.1664  1.4519
  138OSM    H9T14954   4.985   7.219   3.369  0.2241  0.6969 -0.0956
  138OSM   C10S14955   4.830   7.287   3.514 -0.3651  0.0807  0.6249
  138OSM   H10S14956   4.784   7.186   3.512  2.2885 -1.2473 -1.8378
  138OSM   H10T14957   4.756   7.369   3.521 -0.5230  0.3405 -2.5207
  138OSM   C11S14958   4.930   7.317   3.633 -0.1479 -0.2687  0.2959
  138OSM   H11S14959   4.958   7.424   3.631 -1.4043  0.0696 -1.0283
  138OSM   H11T14960   5.021   7.257   3.614  0.4172  0.9180 -0.9244
  138OSM   C12S14961   4.869   7.271   3.766 -0.1481  1.1000 -0.1226
  138OSM   H12S14962   4.927   7.183   3.802 -1.1134  0.5401  0.1080
  138OSM   H12T14963   4.762   7.247   3.748  0.0889 -1.4517  1.3398
  138OSM   C13S14964   4.882   7.381   3.872 -0.3382 -0.0861 -0.8282
  138OSM   H13S14965   4.814   7.464   3.842 -0.8081  0.2054  0.9275
  138OSM   H13T14966   4.984   7.423   3.886 -1.4536  2.4303  0.2488
  138OSM   C14S14967   4.846   7.324   4.010  0.4250 -0.5028 -0.2871
  138OSM   H14S14968   4.882   7.399   4.084 -0.7190  2.2917 -2.4067
  138OSM   H14T14969   4.890   7.226   4.041  0.2258 -0.8491 -1.0725
  138OSM   C15S14970   4.689   7.335   4.024  0.1666  0.1851 -0.2815
  138OSM   H15S14971   4.643   7.267   3.949  0.3841 -2.4414  1.8026
  138OSM   H15T14972   4.650   7.433   3.991 -0.9566  0.4339  1.6459
  138OSM   C16S14973   4.635   7.301   4.166  0.8103  0.1526 -0.0936
  138OSM   H16S14974   4.524   7.298   4.172  0.8600 -1.3879  0.5678
  138OSM   H16T14975   4.662   7.377   4.243 -2.1679 -0.0333  1.2642
  138OSM   C17S14976   4.685   7.175   4.237 -0.4692  0.0387 -0.9090
  138OSM   H17S14977   4.787   7.191   4.277 -0.2419  1.5083 -1.9760
  138OSM   H17T14978   4.703   7.093   4.164  4.2009 -0.1757  0.1392
  138OSM   C18S14979   4.595   7.128   4.351 -0.4529 -0.3673 -0.9907
  138OSM   H18S14980   4.488   7.126   4.319 -1.4651 -1.6009  2.1493
  138OSM   H18T14981   4.603   7.199   4.436  1.5035 -1.6277 -0.0533
  138OSM   H18U14982   4.628   7.032   4.396  0.6642  0.8353  0.8877
  138OSM    C1F14983   5.208   7.408   2.685 -0.1755 -0.1190 -0.0469
  138OSM     OF14984   5.199   7.516   2.620  0.1473  0.6364 -0.3542
  138OSM    C2F14985   5.323   7.386   2.780 -0.1917 -0.4969 -0.4290
  138OSM    H2F14986   5.418   7.434   2.747 -1.1479  1.0406 -1.0487
  138OSM    H2G14987   5.329   7.276   2.796  0.3569 -0.5493 -0.9551
  138OSM    C3F14988   5.284   7.444   2.917  0.2131 -0.7882 -0.2736
  138OSM    H3F14989   5.200   7.382   2.956  0.4826 -1.7267 -1.1348
  138OSM    H3G14990   5.242   7.546   2.905  1.0890 -0.1353  1.6803
  138OSM    C4F14991   5.395   7.446   3.020 -0.3943  0.0952 -0.2467
  138OSM    H4F14992   5.458   7.530   2.986 -0.5067 -0.9639 -3.4295
  138OSM    H4G14993   5.458   7.354   3.019  0.0521  0.4012 -0.6080
  138OSM    C5F14994   5.353   7.470   3.171  0.2620 -0.2974 -0.1536
  138OSM    H5F14995   5.281   7.389   3.198 -0.0492 -0.1565 -0.5444
  138OSM    H5G14996   5.303   7.569   3.180  5.0625  2.3161  0.8848
  138OSM    C6F14997   5.472   7.465   3.262 -0.7237  0.4738 -0.0291
  138OSM    H6F14998   5.530   7.560   3.252 -0.2866  0.3196  0.9378
  138OSM    H6G14999   5.532   7.377   3.231  1.6563  1.7639  0.6729
  138OSM    C7F15000   5.433   7.425   3.407  0.0773 -0.1634  0.0307
  138OSM    H7F15001   5.532   7.435   3.458  0.0975  0.2707 -0.0955
  138OSM    H7G15002   5.393   7.321   3.408 -0.6272  0.1025 -0.3915
  138OSM    C8F15003   5.332   7.513   3.484 -0.3420  0.6473  0.1247
  138OSM    H8F15004   5.238   7.528   3.427 -0.9233 -0.1567  0.8385
  138OSM    H8G15005   5.377   7.614   3.493  0.7956  0.4524 -2.5432
  138OSM    C9F15006   5.287   7.462   3.619 -0.3074  0.1776  0.1386
  138OSM    H9F15007   5.200   7.396   3.610 -1.5115  1.5919  0.8624
  138OSM   C10F15008   5.331   7.500   3.741 -0.2794 -0.2343  0.0274
  138OSM   H10F15009   5.289   7.439   3.822 -0.4885 -0.0555  0.0554
  138OSM   C11F15010   5.446   7.596   3.771  0.3139 -0.4164 -0.2177
  138OSM   H11F15011   5.492   7.635   3.677  1.3606 -2.2929 -0.5492
  138OSM   H11G15012   5.524   7.541   3.828 -1.4735 -0.2330  2.5583
  138OSM   C12F15013   5.396   7.715   3.857 -0.7155  0.9019  0.7241
  138OSM   H12F15014   5.329   7.770   3.787 -2.2788 -3.0341 -1.1461
  138OSM   H12G15015   5.489   7.770   3.883  1.2369 -0.1346 -3.3593
  138OSM   C13F15016   5.314   7.683   3.982  0.2783  0.2573 -0.7242
  138OSM   H13F15017   5.220   7.632   3.950 -0.9970  0.0352  2.9414
  138OSM   H13G15018   5.271   7.770   4.035  2.2456  1.0173 -0.2894
  138OSM   C14F15019   5.403   7.600   4.074  0.1224  0.2472 -0.0879
  138OSM   H14F15020   5.495   7.657   4.100  1.8339 -0.9962 -2.9519
  138OSM   H14G15021   5.437   7.515   4.011 -1.5333  1.2268 -2.4893
  138OSM   C15F15022   5.334   7.557   4.201  0.4820  0.4436  0.1430
  138OSM   H15F15023   5.244   7.499   4.172  0.9782  0.6556 -1.9610
  138OSM   H15G15024   5.293   7.638   4.265 -1.6011 -1.2760  1.0978
  138OSM   C16F15025   5.418   7.466   4.289  0.1092 -0.1619  0.8956
  138OSM   H16F15026   5.511   7.524   4.308 -1.0798  1.5387  1.7615
  138OSM   H16G15027   5.443   7.368   4.243 -1.8492 -0.7114  0.9044
  138OSM   C17F15028   5.344   7.425   4.421 -0.2255 -0.1472 -0.5590
  138OSM   H17F15029   5.242   7.395   4.390 -0.3737  0.7010 -0.9264
  138OSM   H17G15030   5.337   7.510   4.493 -2.5572 -0.3774 -0.4234
  138OSM   C18F15031   5.416   7.316   4.502 -0.2192  0.3869 -0.6809
  138OSM   H18F15032   5.448   7.235   4.433  0.7058  0.0172  0.1613
  138OSM   H18G15033   5.353   7.276   4.584  1.7257 -1.0494  0.1923
  138OSM   H18H15034   5.506   7.367   4.542 -1.2170  1.2721  0.5148
  139OSM      N15035   0.124   3.367   2.229 -0.3365  0.0966  0.0196
  139OSM    C1515036   0.135   3.221   2.221  0.3277 -0.1048  0.0643
  139OSM   H15A15037   0.040   3.172   2.236  0.6380 -0.1732  2.0116
  139OSM   H15B15038   0.193   3.193   2.307 -0.6331  0.3850  0.9050
  139OSM   H15C15039   0.185   3.191   2.130  0.3632  0.7059 -0.1947
  139OSM    C1415040   0.264   3.420   2.208 -0.6624 -0.2864 -0.1150
  139OSM   H14A15041   0.303   3.401   2.109 -1.4920  0.8840 -0.6912
  139OSM   H14B15042   0.332   3.378   2.280 -1.3940  1.9096  1.9635
  139OSM   H14C15043   0.263   3.526   2.225  2.9314 -0.1357 -0.1029
  139OSM    C1315044   0.039   3.421   2.116  0.5326 -0.2621  0.3236
  139OSM   H13A15045   0.037   3.528   2.112  2.1169 -0.1159  2.2319
  139OSM   H13B15046  -0.062   3.381   2.118  0.2839  0.3683  0.3867
  139OSM   H13C15047   0.089   3.389   2.025 -0.1047  0.6346 -0.3508
  139OSM    C1215048   0.064   3.415   2.357 -0.0321 -0.4665 -0.1301
  139OSM   H12A15049  -0.024   3.354   2.371 -0.5891 -0.2707 -2.3951
  139OSM   H12B15050   0.041   3.519   2.335  0.5848 -0.3181 -0.0995
  139OSM    C1115051   0.148   3.403   2.490 -0.3663  0.5441 -0.0803
  139OSM   H11A15052   0.205   3.307   2.498  1.8051  1.8396  0.9959
  139OSM   H11B15053   0.080   3.399   2.578  1.8683  0.4701  1.7484
  139OSM      P15054   0.236   3.629   2.596 -0.5262 -0.1695  0.2796
  139OSM    O1315055   0.373   3.674   2.627  0.3064 -0.1059  0.1660
  139OSM    O1415056   0.151   3.724   2.531  0.1492 -0.7864 -0.3655
  139OSM    O1115057   0.170   3.580   2.731  0.1193 -0.2370 -0.2767
  139OSM    O1215058   0.246   3.511   2.496  0.0047  0.1022 -0.1269
  139OSM    C1S15059   0.033   3.625   2.772 -0.1957  0.0170  0.0109
  139OSM    H1S15060  -0.033   3.559   2.712 -0.1101  1.0873 -1.3144
  139OSM    H1T15061   0.005   3.728   2.739 -1.4711  0.3988  2.0837
  139OSM     NF15062  -0.136   3.625   2.966  0.0256  0.2283 -0.4978
  139OSM    HNF15063  -0.158   3.714   3.005 -3.5526  0.2315 -2.0638
  139OSM    C2S15064   0.001   3.603   2.926  0.3710 -0.0995  0.1634
  139OSM    H2S15065   0.022   3.495   2.942 -0.5889 -0.5892 -1.7089
  139OSM    C3S15066   0.109   3.672   3.020 -0.0794 -0.3081  0.4038
  139OSM    H3S15067   0.092   3.779   2.997  0.4078 -0.2495  0.3048
  139OSM     O315068   0.245   3.641   2.981 -0.2223 -0.3511  0.3995
  139OSM    HO315069   0.225   3.606   2.894 -0.7954 -1.3310  0.9008
  139OSM    C4S15070   0.079   3.636   3.166 -0.6675 -0.5488 -0.2884
  139OSM    H4S15071   0.012   3.710   3.213 -1.5479 -1.0752 -0.6785
  139OSM    C5S15072   0.125   3.522   3.229  0.4466  0.1086  0.4613
  139OSM    H5S15073   0.187   3.447   3.178  3.6416  1.1478  2.5713
  139OSM    C6S15074   0.079   3.488   3.366  0.6375 -0.5143 -0.1551
  139OSM    H6S15075   0.021   3.394   3.357  2.1534 -1.7109  1.9341
  139OSM    H6T15076   0.001   3.556   3.406  0.3128 -0.4700 -0.8435
  139OSM    C7S15077   0.194   3.465   3.465  0.0743 -0.7532  0.0922
  139OSM    H7S15078   0.263   3.551   3.475  0.8178 -0.6201 -4.3102
  139OSM    H7T15079   0.251   3.378   3.426  1.2076 -0.3223  0.7446
  139OSM    C8S15080   0.135   3.435   3.605  0.2232  0.5134  0.5126
  139OSM    H8S15081   0.202   3.362   3.656  1.6436  0.8784 -0.7776
  139OSM    H8T15082   0.036   3.384   3.598  0.8662 -0.7537  0.3453
  139OSM    C9S15083   0.112   3.556   3.692  0.2289  0.1532 -1.0097
  139OSM    H9S15084   0.038   3.631   3.656  0.8800  0.2472 -2.2182
  139OSM    H9T15085   0.212   3.606   3.697 -0.0067  0.5402 -0.0090
  139OSM   C10S15086   0.083   3.524   3.839  0.0669  1.0243 -0.6195
  139OSM   H10S15087   0.156   3.449   3.876  0.4337  2.5640  1.9842
  139OSM   H10T15088  -0.018   3.480   3.851  0.1322  1.0408  0.0132
  139OSM   C11S15089   0.081   3.653   3.923 -0.2075 -0.7035  0.1171
  139OSM   H11S15090   0.010   3.726   3.880  1.2209  1.2889  1.0021
  139OSM   H11T15091   0.178   3.708   3.919 -0.7527  0.4152  1.4891
  139OSM   C12S15092   0.076   3.636   4.076  0.4329  0.0921 -0.5625
  139OSM   H12S15093   0.081   3.734   4.128  0.1080 -0.1140 -0.1397
  139OSM   H12T15094   0.140   3.558   4.125 -2.3159 -1.4909  0.7438
  139OSM   C13S15095  -0.062   3.587   4.098  0.3387  0.0232 -0.0420
  139OSM   H13S15096  -0.060   3.479   4.073  1.2067  0.5172 -2.3120
  139OSM   H13T15097  -0.145   3.640   4.047 -1.6441 -1.9206  0.9811
  139OSM   C14S15098  -0.100   3.612   4.252  0.3488 -0.0517  0.7824
  139OSM   H14S15099  -0.119   3.719   4.273  0.1299 -0.1213  0.9536
  139OSM   H14T15100  -0.008   3.583   4.306  0.5180 -1.8223 -0.3659
  139OSM   C15S15101  -0.224   3.526   4.283  0.4597 -0.1293 -0.0128
  139OSM   H15S15102  -0.247   3.516   4.392 -3.4581  2.2914 -0.4074
  139OSM   H15T15103  -0.200   3.422   4.251 -3.2252 -1.4077  0.8513
  139OSM   C16S15104  -0.352   3.576   4.214  0.0046 -0.4835  0.6034
  139OSM   H16S15105  -0.430   3.497   4.223  0.6523 -1.0074  2.0194
  139OSM   H16T15106  -0.334   3.589   4.105  0.8365  1.6473  0.9536
  139OSM   C17S15107  -0.408   3.701   4.286 -0.6128  0.1677  0.2892
  139OSM   H17S15108  -0.354   3.789   4.245 -0.4843  0.4734  1.0902
  139OSM   H17T15109  -0.372   3.694   4.391 -2.0572 -2.6643  0.6944
  139OSM   C18S15110  -0.557   3.730   4.267 -0.1658  0.2329  0.2033
  139OSM   H18S15111  -0.611   3.633   4.259 -1.9254  1.2832 -1.4627
  139OSM   H18T15112  -0.571   3.791   4.176 -1.8898 -1.5518 -0.8163
  139OSM   H18U15113  -0.594   3.791   4.352 -1.0854 -1.4749  1.0997
  139OSM    C1F15114  -0.232   3.539   2.933 -0.5290 -0.1053  0.3493
  139OSM     OF15115  -0.205   3.434   2.870 -0.1089 -0.0461  1.0352
  139OSM    C2F15116  -0.377   3.576   2.965  0.6424 -0.0039  0.2241
  139OSM    H2F15117  -0.446   3.549   2.883 -0.9952  0.1165  1.5042
  139OSM    H2G15118  -0.387   3.686   2.976  0.8645  0.0834 -0.4091
  139OSM    C3F15119  -0.430   3.527   3.103 -0.0235  0.1808 -0.2373
  139OSM    H3F15120  -0.442   3.417   3.109  2.3884 -0.1500 -0.5010
  139OSM    H3G15121  -0.529   3.576   3.117  0.2324  0.1415  2.1074
  139OSM    C4F15122  -0.353   3.591   3.224 -0.0900  0.3484  0.3199
  139OSM    H4F15123  -0.352   3.701   3.215  0.6765  0.5461  2.2876
  139OSM    H4G15124  -0.249   3.550   3.217 -0.3207 -0.1151 -0.5986
  139OSM    C5F15125  -0.415   3.567   3.363  0.1662  0.3166  0.5828
  139OSM    H5F15126  -0.440   3.459   3.369  1.4857  0.0436  1.3284
  139OSM    H5G15127  -0.507   3.628   3.381 -0.8905 -1.6800  2.3946
  139OSM    C6F15128  -0.316   3.579   3.479  0.0074  0.3299  0.5724
  139OSM    H6F15129  -0.251   3.668   3.464 -1.8805  1.5429 -0.8413
  139OSM    H6G15130  -0.240   3.499   3.493  0.7909  1.0403  0.4788
  139OSM    C7F15131  -0.381   3.604   3.622  0.8914 -0.2310 -0.4976
  139OSM    H7F15132  -0.399   3.503   3.666 -0.1851  0.3556  0.4478
  139OSM    H7G15133  -0.479   3.654   3.608  1.4189 -0.0390 -4.8338
  139OSM    C8F15134  -0.290   3.678   3.722  0.1814 -0.1490  0.0404
  139OSM    H8F15135  -0.249   3.770   3.677 -2.5148  0.7879 -0.6590
  139OSM    H8G15136  -0.200   3.619   3.754  0.9952 -0.5546 -2.7070
  139OSM    C9F15137  -0.392   3.705   3.835 -0.0730  0.3573  0.0545
  139OSM    H9F15138  -0.475   3.634   3.849  1.1413 -1.5421 -1.7328
  139OSM   C10F15139  -0.391   3.810   3.922  0.3991  0.3276  0.9962
  139OSM   H10F15140  -0.478   3.829   3.986 -1.0953 -0.2330 -0.7925
  139OSM   C11F15141  -0.288   3.926   3.928 -0.5148 -0.2964 -0.2505
  139OSM   H11F15142  -0.336   4.024   3.903 -1.1538 -0.3588  0.6699
  139OSM   H11G15143  -0.201   3.905   3.862 -0.9426 -1.0175 -0.5949
  139OSM   C12F15144  -0.236   3.946   4.072  0.3230 -0.6429 -0.5272
  139OSM   H12F15145  -0.216   3.848   4.120 -0.9897 -1.5272 -1.7045
  139OSM   H12G15146  -0.329   3.986   4.117  0.7122  0.6594 -0.8425
  139OSM   C13F15147  -0.133   4.058   4.084  0.5277 -0.1574 -0.8461
  139OSM   H13F15148  -0.153   4.136   4.007 -1.6003 -0.6980 -0.9113
  139OSM   H13G15149  -0.029   4.019   4.072  1.2883  1.9986 -1.8787
  139OSM   C14F15150  -0.130   4.129   4.215 -0.4110 -0.0851 -0.5024
  139OSM   H14F15151  -0.224   4.185   4.235  1.3453  3.3740 -1.0809
  139OSM   H14G15152  -0.059   4.215   4.211  1.2473 -1.2288  1.9765
  139OSM   C15F15153  -0.083   4.039   4.330  0.5549 -0.7825  0.5101
  139OSM   H15F15154  -0.009   3.970   4.283  2.6685  1.4429  0.4040
  139OSM   H15G15155  -0.175   3.982   4.355  0.7870 -1.5050 -0.2174
  139OSM   C16F15156  -0.034   4.106   4.457  0.4709 -0.7032 -0.2357
  139OSM   H16F15157  -0.120   4.150   4.511  0.0285 -0.1348 -1.3652
  139OSM   H16G15158   0.025   4.196   4.429 -1.3828  1.1031  1.3944
  139OSM   C17F15159   0.048   4.009   4.540  0.4771 -0.3151 -0.1888
  139OSM   H17F15160   0.104   4.061   4.621  3.0603  0.0053 -2.0176
  139OSM   H17G15161   0.125   3.970   4.469  0.2440  1.9173 -1.8017
  139OSM   C18F15162  -0.020   3.890   4.604  0.0114 -0.1858  0.0207
  139OSM   H18F15163  -0.118   3.921   4.648  0.2800 -0.0718  0.5438
  139OSM   H18G15164   0.044   3.839   4.678  0.2729 -1.2558 -0.9268
  139OSM   H18H15165  -0.057   3.820   4.526  1.0592 -0.1177 -0.5528
  140OSM      N15166   5.483   1.295   1.776  0.0502  0.5114 -0.5083
  140OSM    C1515167   5.382   1.274   1.664  0.5745  0.3472 -0.3207
  140OSM   H15A15168   5.281   1.288   1.699  0.3691 -1.1035 -0.3142
  140OSM   H15B15169   5.396   1.171   1.637  2.0816 -0.4583  2.9894
  140OSM   H15C15170   5.391   1.342   1.580  0.0889 -0.8263 -1.3374
  140OSM    C1415171   5.615   1.234   1.734 -0.0531  0.5132  0.3072
  140OSM   H14A15172   5.608   1.128   1.715 -0.7449  0.4549  0.8550
  140OSM   H14B15173   5.694   1.253   1.805  1.6076  0.9933 -1.5800
  140OSM   H14C15174   5.656   1.284   1.647 -0.7319 -0.4834 -0.6137
  140OSM    C1315175   5.495   1.447   1.804 -0.4174  0.3230 -0.4234
  140OSM   H13A15176   5.402   1.499   1.824 -0.0889  1.4954 -1.7260
  140OSM   H13B15177   5.532   1.485   1.710  0.5025 -1.7694 -0.9644
  140OSM   H13C15178   5.570   1.467   1.878  2.3722  0.1981 -3.0024
  140OSM    C1215179   5.424   1.223   1.901  0.2438 -0.2397  0.3199
  140OSM   H12A15180   5.413   1.118   1.878  0.9778 -0.0596 -0.9645
  140OSM   H12B15181   5.325   1.262   1.921  1.1397  1.1136  2.3856
  140OSM    C1115182   5.505   1.235   2.033 -0.0575 -0.7146  0.2939
  140OSM   H11A15183   5.534   1.342   2.045  0.1939 -0.8488  0.9568
  140OSM   H11B15184   5.599   1.176   2.026 -0.2764 -0.9021 -1.6639
  140OSM      P15185   5.396   1.035   2.159  0.1508 -0.2568 -0.0531
  140OSM    O1315186   5.267   0.990   2.105  0.4200 -0.5910  0.7159
  140OSM    O1415187   5.518   0.966   2.113 -0.2034  0.4140 -0.2803
  140OSM    O1115188   5.379   1.045   2.315 -0.1471 -0.5185  0.7899
  140OSM    O1215189   5.408   1.188   2.131  0.0771 -0.2025  0.3216
  140OSM    C1S15190   5.431   1.161   2.377  0.4413 -0.5344 -0.2137
  140OSM    H1S15191   5.392   1.258   2.340  3.0342  0.5958 -0.1834
  140OSM    H1T15192   5.539   1.181   2.358 -0.0880  1.0669 -1.7596
  140OSM     NF15193   5.457   1.297   2.580 -0.7343  0.4844  0.0326
  140OSM    HNF15194   5.545   1.315   2.625  0.9408 -0.9142 -2.4557
  140OSM    C2S15195   5.414   1.167   2.527  0.5110  0.0030 -0.1764
  140OSM    H2S15196   5.306   1.152   2.544  0.8890 -1.3568  1.3714
  140OSM    C3S15197   5.482   1.039   2.590 -0.5561  1.0476 -0.0346
  140OSM    H3S15198   5.590   1.051   2.570 -0.8044  0.8371 -1.6058
  140OSM     O315199   5.454   0.915   2.530 -0.3092 -0.2960 -0.0410
  140OSM    HO315200   5.411   0.941   2.448  1.3952 -1.1429 -1.2878
  140OSM    C4S15201   5.457   1.034   2.734  0.6665 -0.2663  0.2050
  140OSM    H4S15202   5.555   1.041   2.784  1.8692 -3.1556 -1.5478
  140OSM    C5S15203   5.345   0.996   2.801  0.1094 -0.9134 -0.0814
  140OSM    H5S15204   5.258   0.968   2.741 -1.9746  0.9924  1.8758
  140OSM    C6S15205   5.330   0.982   2.948 -0.6793 -0.0889 -0.2049
  140OSM    H6S15206   5.354   0.877   2.974  0.4384  0.2755  0.2954
  140OSM    H6T15207   5.230   1.003   2.991  0.4133  3.1332  1.0580
  140OSM    C7S15208   5.424   1.072   3.043  0.0724 -0.2586 -0.8692
  140OSM    H7S15209   5.437   1.177   3.011 -2.2492 -0.2729 -2.0616
  140OSM    H7T15210   5.525   1.025   3.040 -0.5771 -1.7036 -1.2666
  140OSM    C8S15211   5.370   1.060   3.192 -0.5414  0.2561 -0.1049
  140OSM    H8S15212   5.364   0.953   3.219  0.1494  0.2640  0.0969
  140OSM    H8T15213   5.266   1.099   3.202 -1.5551 -2.6118  1.6698
  140OSM    C9S15214   5.459   1.129   3.294  0.7733  0.0114 -0.1358
  140OSM    H9S15215   5.463   1.237   3.268  0.8824  0.1005  0.2326
  140OSM    H9T15216   5.569   1.114   3.303  1.2263  3.0091  0.7770
  140OSM   C10S15217   5.395   1.110   3.430 -0.6298  0.2310 -0.0969
  140OSM   H10S15218   5.379   1.002   3.453 -0.6328  0.4285  0.8759
  140OSM   H10T15219   5.294   1.153   3.419 -1.2492 -1.3393 -0.8750
  140OSM   C11S15220   5.475   1.177   3.544 -0.1322  0.5068 -0.4570
  140OSM   H11S15221   5.449   1.285   3.536  1.1546  0.8010 -0.9227
  140OSM   H11T15222   5.585   1.175   3.530 -0.1128  2.2739 -0.8493
  140OSM   C12S15223   5.432   1.121   3.674 -0.1642 -0.0068 -0.2259
  140OSM   H12S15224   5.460   1.014   3.661  0.7106  0.4348 -2.2864
  140OSM   H12T15225   5.324   1.130   3.696  0.0703  0.9295  0.6478
  140OSM   C13S15226   5.525   1.172   3.786 -0.3266 -0.4241  0.2630
  140OSM   H13S15227   5.625   1.196   3.747 -1.0273  0.5473 -0.9974
  140OSM   H13T15228   5.542   1.101   3.870 -0.4774 -0.3648  0.3460
  140OSM   C14S15229   5.466   1.301   3.847  0.0416 -1.0960  0.2452
  140OSM   H14S15230   5.360   1.278   3.873 -0.0149  0.3577  1.4411
  140OSM   H14T15231   5.475   1.380   3.770  0.4538 -3.3022 -2.1097
  140OSM   C15S15232   5.536   1.361   3.968 -0.4175 -0.6566 -0.8083
  140OSM   H15S15233   5.647   1.363   3.959 -0.2140  0.9386  1.2447
  140OSM   H15T15234   5.507   1.290   4.048  0.1669 -0.0337 -0.0349
  140OSM   C16S15235   5.498   1.502   4.018 -0.6107 -0.6212 -0.5174
  140OSM   H16S15236   5.393   1.512   4.055 -0.4933 -1.3438  0.0493
  140OSM   H16T15237   5.518   1.572   3.934 -0.8543 -0.2095 -0.2371
  140OSM   C17S15238   5.599   1.561   4.127  0.2063  0.0597  0.0750
  140OSM   H17S15239   5.696   1.594   4.084  0.7775  0.7277  1.7803
  140OSM   H17T15240   5.611   1.489   4.211  1.1281 -2.3134 -1.9674
  140OSM   C18S15241   5.533   1.685   4.184 -0.2197 -0.1904 -0.0863
  140OSM   H18S15242   5.549   1.771   4.116  1.6997 -1.3532 -1.2027
  140OSM   H18T15243   5.584   1.699   4.283  2.4327 -0.2403 -1.3433
  140OSM   H18U15244   5.427   1.674   4.214  0.3385 -2.4340  1.3134
  140OSM    C1F15245   5.388   1.403   2.549 -0.0172 -0.0066 -0.1154
  140OSM     OF15246   5.266   1.387   2.516 -1.1004 -0.1501  0.3689
  140OSM    C2F15247   5.451   1.531   2.562  0.1434  0.4093 -0.4748
  140OSM    H2F15248   5.414   1.590   2.476 -0.1770 -0.5625 -1.0239
  140OSM    H2G15249   5.561   1.524   2.544  0.1166 -1.0852 -0.1928
  140OSM    C3F15250   5.428   1.593   2.701 -0.4732 -0.1870 -0.2421
  140OSM    H3F15251   5.428   1.520   2.784 -0.4252  1.2427  1.0514
  140OSM    H3G15252   5.332   1.649   2.707 -0.5694 -0.3837  0.0927
  140OSM    C4F15253   5.537   1.691   2.745  0.2362  0.4485 -0.3071
  140OSM    H4F15254   5.550   1.774   2.672 -1.8140  0.3174 -0.9033
  140OSM    H4G15255   5.638   1.645   2.748 -0.1700 -0.4296  0.2891
  140OSM    C5F15256   5.503   1.735   2.885  0.4858 -0.4497 -0.3807
  140OSM    H5F15257   5.399   1.774   2.879  1.2322  1.3825 -3.5050
  140OSM    H5G15258   5.570   1.819   2.913  3.2968 -2.8380  0.5511
  140OSM    C6F15259   5.504   1.641   3.007  0.4223 -0.4544  0.4712
  140OSM    H6F15260   5.610   1.608   3.011  0.5568 -0.1196 -0.1855
  140OSM    H6G15261   5.440   1.554   2.983 -0.2565  0.7590 -2.4852
  140OSM    C7F15262   5.460   1.707   3.137 -0.3393 -0.8739  0.2093
  140OSM    H7F15263   5.381   1.782   3.119  0.6521  0.3509  0.8299
  140OSM    H7G15264   5.540   1.778   3.168 -0.7495 -0.2675 -0.1027
  140OSM    C8F15265   5.447   1.617   3.255  0.5523  0.3165  0.4582
  140OSM    H8F15266   5.442   1.686   3.342  0.3232  0.2051  0.5330
  140OSM    H8G15267   5.541   1.557   3.255 -0.0450 -0.6886 -1.0965
  140OSM    C9F15268   5.322   1.537   3.246  0.3566  0.0874  0.3708
  140OSM    H9F15269   5.297   1.484   3.153 -0.6523  1.6078 -0.2654
  140OSM   C10F15270   5.233   1.521   3.344 -0.6367  0.6238  0.1237
  140OSM   H10F15271   5.149   1.452   3.329  0.6007 -0.8801 -0.1535
  140OSM   C11F15272   5.250   1.581   3.484  0.4733  0.5486  0.2227
  140OSM   H11F15273   5.179   1.666   3.489 -0.3494 -0.1435  0.6345
  140OSM   H11G15274   5.354   1.600   3.518  0.5875  0.8473 -0.2916
  140OSM   C12F15275   5.197   1.485   3.594 -0.2563  0.2727  0.0789
  140OSM   H12F15276   5.257   1.391   3.595 -0.3053  0.1593  3.4260
  140OSM   H12G15277   5.094   1.456   3.566  0.3457  0.2410 -2.3856
  140OSM   C13F15278   5.189   1.547   3.732  0.3261 -0.0805 -0.1830
  140OSM   H13F15279   5.131   1.641   3.719  0.5131  0.0375 -0.1641
  140OSM   H13G15280   5.289   1.576   3.770  1.0409 -1.9708 -0.5231
  140OSM   C14F15281   5.109   1.465   3.830  0.6019  0.1300  0.4255
  140OSM   H14F15282   5.174   1.382   3.864  1.5795 -0.8376 -3.4072
  140OSM   H14G15283   5.011   1.438   3.784 -0.1313 -2.9100  3.3308
  140OSM   C15F15284   5.073   1.541   3.960 -0.1110 -0.7804 -0.1908
  140OSM   H15F15285   5.007   1.626   3.933 -1.2550 -1.7483 -0.5056
  140OSM   H15G15286   5.164   1.575   4.014 -1.5047  1.7548  0.7272
  140OSM   C16F15287   4.983   1.452   4.049  0.5241 -1.0666 -0.5508
  140OSM   H16F15288   5.030   1.352   4.063 -0.8579 -1.5934  0.5508
  140OSM   H16G15289   4.889   1.428   3.995 -0.6010 -0.8034  1.2289
  140OSM   C17F15290   4.937   1.525   4.182 -0.0976 -0.2499  0.1520
  140OSM   H17F15291   5.007   1.610   4.199 -0.0380 -0.1557 -0.5571
  140OSM   H17G15292   4.940   1.458   4.271 -2.8989  0.4158  0.8384
  140OSM   C18F15293   4.796   1.591   4.178 -0.1860  0.1198 -0.0260
  140OSM   H18F15294   4.784   1.641   4.079  0.1864 -1.2477 -0.7857
  140OSM   H18G15295   4.781   1.657   4.266  1.3085 -0.6111  0.7978
  140OSM   H18H15296   4.717   1.513   4.171 -0.5607  0.6615 -3.6190
  141OSM      N15297   0.970   3.891   2.452 -0.0718 -0.0546  0.5370
  141OSM    C1515298   1.050   3.999   2.396 -0.4301  0.2900  0.3662
  141OSM   H15A15299   1.137   3.961   2.345 -0.4754  1.9173 -1.0025
  141OSM   H15B15300   1.080   4.076   2.466 -2.3021  1.2751  0.1412
  141OSM   H15C15301   0.989   4.054   2.326 -0.5158  0.4092  0.5314
  141OSM    C1415302   0.997   3.769   2.363 -0.8112 -0.1720 -0.3468
  141OSM   H14A15303   0.933   3.688   2.391  1.2217 -1.5745  0.4898
  141OSM   H14B15304   1.100   3.738   2.370 -0.6235 -0.1587 -2.3090
  141OSM   H14C15305   0.984   3.789   2.257 -0.1512 -0.3496 -0.4666
  141OSM    C1315306   1.026   3.860   2.593 -0.1730 -0.1483 -0.1576
  141OSM   H13A15307   1.127   3.826   2.573 -0.1501 -0.4871  0.5227
  141OSM   H13B15308   0.979   3.778   2.645  1.0214 -1.1747 -0.6207
  141OSM   H13C15309   1.032   3.945   2.658  1.7329  0.2125 -0.7293
  141OSM    C1215310   0.822   3.923   2.462  0.1031 -0.1723  0.1600
  141OSM   H12A15311   0.809   4.004   2.533 -0.7028 -1.3921  1.4665
  141OSM   H12B15312   0.776   3.831   2.493  0.4192  0.3455  2.3741
  141OSM    C1115313   0.730   3.958   2.346  0.0429  0.3605 -0.1950
  141OSM   H11A15314   0.622   3.964   2.369 -0.2774 -2.4100 -0.6141
  141OSM   H11B15315   0.731   3.882   2.264 -1.0750  2.8134 -2.6709
  141OSM      P15316   0.744   4.217   2.320  0.1117  0.0791  0.4280
  141OSM    O1315317   0.839   4.314   2.262 -0.3370  0.1611 -0.2370
  141OSM    O1415318   0.602   4.245   2.281  0.5544  0.8762 -0.2614
  141OSM    O1115319   0.754   4.229   2.475  0.1417  0.3006  0.6980
  141OSM    O1215320   0.784   4.071   2.278 -0.1941 -0.0291  0.0936
  141OSM    C1S15321   0.769   4.367   2.525 -0.4645 -0.3222  0.0107
  141OSM    H1S15322   0.684   4.429   2.490  0.7629  0.2799 -2.1060
  141OSM    H1T15323   0.871   4.407   2.504 -0.4831  0.5792  1.5087
  141OSM     NF15324   0.764   4.514   2.722  0.1036 -0.2322 -0.4752
  141OSM    HNF15325   0.831   4.549   2.787  0.5274  0.7236 -1.3968
  141OSM    C2S15326   0.781   4.375   2.682 -0.4904  0.5308  0.1037
  141OSM    H2S15327   0.702   4.316   2.732 -0.4984 -1.0727 -1.7156
  141OSM    C3S15328   0.913   4.305   2.728 -0.4501 -0.2221 -0.0545
  141OSM    H3S15329   1.012   4.344   2.695 -0.0338 -0.6812  0.6177
  141OSM     O315330   0.910   4.177   2.678  0.2204  0.0463  0.1230
  141OSM    HO315331   0.859   4.188   2.598  0.7643  3.0192  0.0734
  141OSM    C4S15332   0.915   4.286   2.880  0.3440  0.1639 -0.1616
  141OSM    H4S15333   1.015   4.311   2.917  0.7426 -0.3421 -0.8838
  141OSM    C5S15334   0.830   4.228   2.963 -0.4262  0.9871  0.1463
  141OSM    H5S15335   0.748   4.171   2.917  0.1154  1.3633 -1.3466
  141OSM    C6S15336   0.859   4.207   3.109  0.5450  0.1076  0.2244
  141OSM    H6S15337   0.965   4.177   3.122  0.3395 -1.4178 -1.2515
  141OSM    H6T15338   0.786   4.129   3.143  0.8649 -0.9447 -1.3890
  141OSM    C7S15339   0.831   4.326   3.208 -0.5578 -0.4275 -0.7489
  141OSM    H7S15340   0.722   4.344   3.214 -0.3429  0.5165  0.8280
  141OSM    H7T15341   0.880   4.418   3.170 -0.0253 -0.3110  0.1989
  141OSM    C8S15342   0.863   4.286   3.351 -0.5457 -0.4938 -0.3042
  141OSM    H8S15343   0.974   4.281   3.354 -0.5285  0.0403  0.1303
  141OSM    H8T15344   0.808   4.192   3.373  1.8379 -1.7504  0.7765
  141OSM    C9S15345   0.831   4.376   3.471 -0.2706  0.2742  0.3355
  141OSM    H9S15346   0.723   4.400   3.481 -1.2846 -3.1950 -0.6647
  141OSM    H9T15347   0.883   4.472   3.453 -1.3593  0.7983 -0.0928
  141OSM   C10S15348   0.884   4.322   3.611 -0.1459 -0.2343 -0.0429
  141OSM   H10S15349   0.994   4.334   3.617 -0.1446  0.3882 -1.0575
  141OSM   H10T15350   0.873   4.211   3.610 -1.4311 -0.1200 -0.8806
  141OSM   C11S15351   0.796   4.365   3.731 -0.9862  0.1443  0.1404
  141OSM   H11S15352   0.688   4.367   3.702 -0.9049 -0.2430 -0.1957
  141OSM   H11T15353   0.832   4.468   3.751 -3.3713  0.7402  1.6889
  141OSM   C12S15354   0.823   4.268   3.846  0.4117 -0.3023 -1.0378
  141OSM   H12S15355   0.931   4.258   3.871  0.2751  0.2911 -0.1712
  141OSM   H12T15356   0.777   4.170   3.825  1.4935 -1.2465  0.7500
  141OSM   C13S15357   0.756   4.323   3.972 -0.5542  0.0823 -0.5925
  141OSM   H13S15358   0.647   4.329   3.952 -1.0421 -1.9838  1.1095
  141OSM   H13T15359   0.788   4.428   3.989 -0.1909  0.0513 -1.0659
  141OSM   C14S15360   0.793   4.234   4.096 -0.1634 -0.3708 -0.0772
  141OSM   H14S15361   0.903   4.241   4.095 -0.1809  0.3606  1.4005
  141OSM   H14T15362   0.751   4.134   4.069 -0.9682 -0.0508 -0.0564
  141OSM   C15S15363   0.725   4.286   4.226  0.0779 -0.1608 -0.0869
  141OSM   H15S15364   0.615   4.294   4.238  0.3619 -0.1199  3.1667
  141OSM   H15T15365   0.762   4.389   4.242 -0.1050 -0.2416  0.8738
  141OSM   C16S15366   0.777   4.210   4.354  0.2592 -1.0948  0.2795
  141OSM   H16S15367   0.743   4.281   4.433  0.6830  0.1076 -0.6036
  141OSM   H16T15368   0.887   4.196   4.358  0.4053 -0.3199 -0.8508
  141OSM   C17S15369   0.719   4.077   4.373  0.9194  0.0348  0.6701
  141OSM   H17S15370   0.746   4.001   4.297 -1.6007 -0.1661 -0.1349
  141OSM   H17T15371   0.608   4.085   4.373  0.7429 -1.6936  1.9220
  141OSM   C18S15372   0.751   4.010   4.505  0.8128  0.1613 -0.3673
  141OSM   H18S15373   0.714   3.905   4.496  1.0749 -0.0596  0.9158
  141OSM   H18T15374   0.705   4.053   4.596  1.0874 -2.7294  1.2760
  141OSM   H18U15375   0.862   4.004   4.511  0.7406  0.1842  1.3356
  141OSM    C1F15376   0.651   4.580   2.707  0.3655  0.1915  0.2982
  141OSM     OF15377   0.548   4.522   2.678  0.3326 -0.8834  0.5496
  141OSM    C2F15378   0.652   4.731   2.722  0.5882  0.0492 -0.2001
  141OSM    H2F15379   0.648   4.780   2.622  1.3057  1.4081  0.4177
  141OSM    H2G15380   0.749   4.764   2.763  1.7685 -2.4665 -0.7800
  141OSM    C3F15381   0.529   4.769   2.804  0.7244  0.1054 -0.7839
  141OSM    H3F15382   0.445   4.767   2.731  2.2537  2.1848 -2.7782
  141OSM    H3G15383   0.524   4.879   2.824  0.0276 -0.1502  0.6045
  141OSM    C4F15384   0.508   4.696   2.933 -0.8377 -0.2864  0.1100
  141OSM    H4F15385   0.477   4.590   2.932 -1.3877 -0.1301 -0.3790
  141OSM    H4G15386   0.425   4.747   2.988 -0.0067 -1.2676  2.3830
  141OSM    C5F15387   0.640   4.701   3.024  0.0965  0.0002 -0.1265
  141OSM    H5F15388   0.703   4.788   2.998 -0.1240 -0.0279 -0.7589
  141OSM    H5G15389   0.689   4.608   2.990  1.6180  1.3022 -1.6469
  141OSM    C6F15390   0.620   4.694   3.175  0.2011 -0.2240 -0.0419
  141OSM    H6F15391   0.573   4.789   3.209  1.0787 -0.2720  1.3939
  141OSM    H6G15392   0.718   4.679   3.226  0.1118 -0.4924  0.0545
  141OSM    C7F15393   0.530   4.585   3.233  0.5791 -0.0742 -0.5303
  141OSM    H7F15394   0.564   4.483   3.206  1.6133  0.3631 -0.9500
  141OSM    H7G15395   0.429   4.589   3.188  0.8315  0.3569 -1.0688
  141OSM    C8F15396   0.515   4.612   3.383  0.2107  0.1499 -0.1742
  141OSM    H8F15397   0.451   4.702   3.395  1.5056  1.1764 -0.7428
  141OSM    H8G15398   0.607   4.646   3.435  0.2594 -1.5816  0.9625
  141OSM    C9F15399   0.454   4.497   3.456  0.8655 -0.3886  0.7282
  141OSM    H9F15400   0.425   4.407   3.401  0.3749 -1.3741  2.5152
  141OSM   C10F15401   0.417   4.498   3.585 -0.0966  0.9996 -0.3756
  141OSM   H10F15402   0.382   4.404   3.631  2.2414 -0.9002 -2.1586
  141OSM   C11F15403   0.434   4.610   3.675 -0.2214 -0.2587 -0.1091
  141OSM   H11F15404   0.334   4.655   3.696  0.5138  1.2925  0.2767
  141OSM   H11G15405   0.489   4.696   3.631  2.5313  0.8936  4.8190
  141OSM   C12F15406   0.503   4.584   3.804 -0.8158 -0.3278 -0.4181
  141OSM   H12F15407   0.603   4.546   3.772  0.4682  1.6474  1.0536
  141OSM   H12G15408   0.460   4.506   3.871  0.8300 -1.3739 -0.5201
  141OSM   C13F15409   0.496   4.701   3.898  0.4168 -0.1156  0.7075
  141OSM   H13F15410   0.407   4.700   3.965 -0.4590 -1.4035 -0.4138
  141OSM   H13G15411   0.507   4.794   3.838 -1.8843 -1.6589 -2.4474
  141OSM   C14F15412   0.614   4.692   3.999  0.4719 -0.5407 -0.5956
  141OSM   H14F15413   0.713   4.672   3.953  1.5760  0.8216  1.0952
  141OSM   H14G15414   0.595   4.600   4.057 -0.8979 -2.2131 -3.4478
  141OSM   C15F15415   0.639   4.818   4.090 -0.0480  0.4181  0.4205
  141OSM   H15F15416   0.653   4.902   4.018 -0.8302 -0.4150 -0.7536
  141OSM   H15G15417   0.739   4.802   4.136 -0.0413  1.5235  0.8193
  141OSM   C16F15418   0.536   4.858   4.194 -0.5752  0.1011 -0.3480
  141OSM   H16F15419   0.498   4.771   4.251 -1.7838  1.3399  0.8032
  141OSM   H16G15420   0.444   4.897   4.146 -0.2517  1.6862  0.2560
  141OSM   C17F15421   0.591   4.971   4.288  0.1299  0.7080 -0.9040
  141OSM   H17F15422   0.696   4.943   4.311 -0.5643 -0.3974  1.1503
  141OSM   H17G15423   0.537   4.966   4.385  0.8153  0.5249 -0.5226
  141OSM   C18F15424   0.582   5.108   4.230 -0.0944  0.1011  0.0440
  141OSM   H18F15425   0.478   5.130   4.199 -1.0519 -1.0985  2.2530
  141OSM   H18G15426   0.636   5.109   4.132  0.0318  3.7255  0.0066
  141OSM   H18H15427   0.612   5.186   4.303 -2.1068 -0.1046  1.1595
  142OSM      N15428   1.745   1.370   2.331  0.0355  0.4291 -0.1834
  142OSM    C1515429   1.683   1.267   2.244 -0.5149  0.3948 -0.0907
  142OSM   H15A15430   1.626   1.299   2.158 -1.5805 -1.7922 -0.2800
  142OSM   H15B15431   1.606   1.219   2.303 -0.3713 -0.1975 -0.3700
  142OSM   H15C15432   1.761   1.200   2.212  0.9244  0.8431  2.3117
  142OSM    C1415433   1.800   1.305   2.451  0.1324 -0.3465 -0.2851
  142OSM   H14A15434   1.849   1.373   2.519 -2.5728 -0.5268  2.0410
  142OSM   H14B15435   1.876   1.237   2.416 -0.8326 -0.7216 -1.7679
  142OSM   H14C15436   1.723   1.249   2.503  0.2060 -1.4008 -1.2576
  142OSM    C1315437   1.858   1.426   2.251  0.4664  0.3341 -0.1384
  142OSM   H13A15438   1.888   1.513   2.308 -0.2568  0.0729  0.6605
  142OSM   H13B15439   1.829   1.479   2.161 -1.0930 -0.0920  0.0815
  142OSM   H13C15440   1.946   1.367   2.233  0.6062  0.6667 -0.5912
  142OSM    C1215441   1.638   1.479   2.365 -0.3289  0.7908  0.5372
  142OSM   H12A15442   1.588   1.498   2.271  1.6367 -4.2329 -1.8931
  142OSM   H12B15443   1.699   1.564   2.389 -0.2864  1.8864 -2.9003
  142OSM    C1115444   1.523   1.461   2.466  0.2318 -0.8672  0.0712
  142OSM   H11A15445   1.453   1.547   2.468  0.0703 -0.8942 -2.2230
  142OSM   H11B15446   1.576   1.454   2.564  0.3452  0.9381  0.1727
  142OSM      P15447   1.315   1.333   2.362 -0.3738  0.3287 -0.0642
  142OSM    O1315448   1.313   1.431   2.255 -0.4808  0.1947 -0.2744
  142OSM    O1415449   1.289   1.195   2.310  0.3756  0.1225 -0.3274
  142OSM    O1115450   1.196   1.356   2.469 -0.1188 -0.0483  0.0825
  142OSM    O1215451   1.444   1.339   2.450  0.2270  0.0991  0.5523
  142OSM    C1S15452   1.160   1.260   2.567 -0.0462 -0.6461  0.4762
  142OSM    H1S15453   1.199   1.161   2.538 -1.1208 -1.4969  1.7931
  142OSM    H1T15454   1.049   1.267   2.578  0.1526  3.3198  1.7320
  142OSM     NF15455   1.200   1.193   2.797  0.2749  0.3401  0.0969
  142OSM    HNF15456   1.124   1.201   2.861 -0.1051 -1.1391 -0.1284
  142OSM    C2S15457   1.220   1.299   2.699  0.1042 -0.1941 -0.1162
  142OSM    H2S15458   1.331   1.303   2.692 -0.0219  1.0755 -3.7456
  142OSM    C3S15459   1.178   1.443   2.749  0.2218  0.1973  0.9410
  142OSM    H3S15460   1.067   1.436   2.762  0.0390 -0.0938 -0.6086
  142OSM     O315461   1.191   1.552   2.657 -0.3952 -0.3520  0.0493
  142OSM    HO315462   1.191   1.495   2.580 -1.7731 -0.0124 -0.2323
  142OSM    C4S15463   1.236   1.482   2.887 -0.0395 -0.1032 -0.1211
  142OSM    H4S15464   1.182   1.435   2.971  0.6246 -1.0930 -0.2291
  142OSM    C5S15465   1.354   1.546   2.912  0.4440  0.4147  0.3958
  142OSM    H5S15466   1.417   1.569   2.824 -0.7684 -0.7118 -0.8202
  142OSM    C6S15467   1.414   1.567   3.046 -0.6249 -0.6604  0.0570
  142OSM    H6S15468   1.445   1.673   3.050 -0.3561 -0.6302 -1.7909
  142OSM    H6T15469   1.505   1.503   3.055  1.1269  1.5217 -1.1810
  142OSM    C7S15470   1.310   1.557   3.162  0.2541  0.6146  0.3493
  142OSM    H7S15471   1.264   1.456   3.165  0.9917  0.2609  0.1130
  142OSM    H7T15472   1.227   1.627   3.141  0.4517  0.9784  0.7693
  142OSM    C8S15473   1.369   1.572   3.302  1.0483  0.4816 -0.6266
  142OSM    H8S15474   1.424   1.668   3.317  3.2076 -0.6435 -0.8298
  142OSM    H8T15475   1.451   1.498   3.316  0.8476  0.4132  0.2571
  142OSM    C9S15476   1.265   1.554   3.414  0.4812 -0.3841  0.1965
  142OSM    H9S15477   1.248   1.444   3.415  1.9602 -0.6493  2.1276
  142OSM    H9T15478   1.168   1.606   3.396  0.6679 -0.8640 -2.6545
  142OSM   C10S15479   1.330   1.590   3.557  0.3017 -0.0040  0.9188
  142OSM   H10S15480   1.359   1.697   3.549 -0.3473  0.4106  3.3886
  142OSM   H10T15481   1.416   1.521   3.561 -1.3138 -2.2226 -0.5641
  142OSM   C11S15482   1.236   1.572   3.674 -0.3733 -0.6568  0.2849
  142OSM   H11S15483   1.193   1.469   3.669 -3.6415  0.5422  0.8506
  142OSM   H11T15484   1.152   1.644   3.672  2.0151  2.2895 -0.3181
  142OSM   C12S15485   1.308   1.588   3.809 -0.3011 -1.5144  0.0630
  142OSM   H12S15486   1.366   1.682   3.793 -3.8846  0.8649 -0.0994
  142OSM   H12T15487   1.375   1.500   3.820 -1.8999 -2.7034  0.6633
  142OSM   C13S15488   1.227   1.591   3.940  0.2493 -0.4449  0.7842
  142OSM   H13S15489   1.147   1.668   3.935  1.3040  0.8325  2.5209
  142OSM   H13T15490   1.292   1.616   4.027  0.2945  1.8838  0.1661
  142OSM   C14S15491   1.164   1.458   3.973 -0.3286  1.0965  0.3881
  142OSM   H14S15492   1.236   1.374   3.962 -2.9107 -1.0851 -1.3400
  142OSM   H14T15493   1.078   1.440   3.905 -1.2564 -0.0818  1.7949
  142OSM   C15S15494   1.128   1.448   4.121 -0.2884  0.0814  0.0074
  142OSM   H15S15495   1.206   1.495   4.184 -0.9000  1.0806  0.0430
  142OSM   H15T15496   1.116   1.343   4.155  0.5523  0.6248  2.0879
  142OSM   C16S15497   1.005   1.534   4.164  0.4252  0.2642 -0.5398
  142OSM   H16S15498   0.919   1.483   4.118  1.1768 -2.0075  0.4055
  142OSM   H16T15499   0.995   1.635   4.117  0.1035  1.0597  1.1522
  142OSM   C17S15500   0.983   1.533   4.318  0.3727 -0.5354  0.0781
  142OSM   H17S15501   0.962   1.426   4.342 -2.3343 -0.0782  0.0886
  142OSM   H17T15502   0.885   1.578   4.345  0.1525 -0.6811 -0.4541
  142OSM   C18S15503   1.091   1.586   4.406 -0.4366  0.4685  0.0461
  142OSM   H18S15504   1.155   1.502   4.440 -1.7681 -0.9184 -0.7543
  142OSM   H18T15505   1.058   1.643   4.495  1.3778  1.2637  0.2421
  142OSM   H18U15506   1.159   1.638   4.335 -0.4841 -0.4521 -0.7008
  142OSM    C1F15507   1.266   1.084   2.788 -0.4647  0.6135 -0.3809
  142OSM     OF15508   1.359   1.067   2.708 -0.1342 -0.3572  0.1156
  142OSM    C2F15509   1.225   0.982   2.894 -0.2980  0.7947 -0.6497
  142OSM    H2F15510   1.153   0.906   2.857 -0.4068  0.9365 -0.7296
  142OSM    H2G15511   1.183   1.032   2.984  1.1176  0.3546  0.2915
  142OSM    C3F15512   1.354   0.900   2.932 -0.0017  0.3023  0.1224
  142OSM    H3F15513   1.436   0.974   2.949  1.4809 -0.1854 -3.8700
  142OSM    H3G15514   1.382   0.838   2.845  1.5949  0.8950  0.1684
  142OSM    C4F15515   1.335   0.813   3.053  0.1115 -0.7428  0.0269
  142OSM    H4F15516   1.267   0.727   3.040 -0.7645 -0.9554  4.4932
  142OSM    H4G15517   1.295   0.880   3.132  0.5657  1.2341 -1.3426
  142OSM    C5F15518   1.457   0.753   3.117 -0.3920 -0.0071  0.3110
  142OSM    H5F15519   1.529   0.832   3.148 -0.6527 -0.0731  1.1313
  142OSM    H5G15520   1.507   0.690   3.041 -1.1924  0.4300 -0.5944
  142OSM    C6F15521   1.422   0.659   3.232  0.3812 -0.4036 -0.3265
  142OSM    H6F15522   1.525   0.619   3.246  1.5886  2.2907 -0.7854
  142OSM    H6G15523   1.348   0.583   3.199  1.3118 -0.3887 -2.6199
  142OSM    C7F15524   1.370   0.735   3.356 -0.1484  0.4000 -0.3004
  142OSM    H7F15525   1.261   0.753   3.358 -0.7111 -2.5845  1.1035
  142OSM    H7G15526   1.407   0.839   3.340 -1.3127  0.5474 -2.3399
  142OSM    C8F15527   1.410   0.670   3.486 -0.1589 -1.0150  0.4344
  142OSM    H8F15528   1.396   0.741   3.570 -0.2105 -0.0470 -0.3843
  142OSM    H8G15529   1.517   0.640   3.482  0.3136  0.3853  1.6856
  142OSM    C9F15530   1.337   0.535   3.494  0.4133  0.1605 -0.1509
  142OSM    H9F15531   1.361   0.469   3.409 -0.9893  0.8718 -1.1352
  142OSM   C10F15532   1.256   0.502   3.592  0.0851  0.0499  0.1951
  142OSM   H10F15533   1.218   0.399   3.582  1.6467 -0.6500  0.9976
  142OSM   C11F15534   1.207   0.594   3.706 -0.3726  0.0540 -0.1767
  142OSM   H11F15535   1.105   0.635   3.689  0.3079  2.8803  1.7722
  142OSM   H11G15536   1.281   0.675   3.721 -1.7145  1.0721  1.3137
  142OSM   C12F15537   1.204   0.504   3.840  0.3192  0.0148  0.6103
  142OSM   H12F15538   1.307   0.471   3.869 -0.1839 -1.8070  0.4656
  142OSM   H12G15539   1.137   0.417   3.821 -2.5717  2.1385  0.4368
  142OSM   C13F15540   1.141   0.589   3.948  0.0317 -0.1776  0.0440
  142OSM   H13F15541   1.049   0.637   3.909  0.0375  1.0839  1.5004
  142OSM   H13G15542   1.219   0.663   3.975 -0.0316 -0.4687  1.0443
  142OSM   C14F15543   1.088   0.513   4.073 -0.5332  0.5476 -0.4413
  142OSM   H14F15544   1.175   0.451   4.106 -0.9855  0.4314  0.5709
  142OSM   H14G15545   1.000   0.451   4.045  0.6802 -1.6406  0.3069
  142OSM   C15F15546   1.028   0.606   4.176  0.2912  0.4229  0.1982
  142OSM   H15F15547   0.977   0.693   4.129 -1.3387 -0.4691  0.2641
  142OSM   H15G15548   1.105   0.641   4.248 -0.0441  0.9656  0.2977
  142OSM   C16F15549   0.921   0.528   4.256  0.3229 -1.4322  0.0844
  142OSM   H16F15550   0.959   0.439   4.312  0.9497  0.1917  2.4098
  142OSM   H16G15551   0.842   0.501   4.184  1.8823  0.4509 -2.4922
  142OSM   C17F15552   0.865   0.615   4.368  1.5655  0.4536 -0.4055
  142OSM   H17F15553   0.797   0.689   4.320 -0.7717 -1.8142 -0.8498
  142OSM   H17G15554   0.949   0.672   4.412  1.7314  0.8431 -1.2083
  142OSM   C18F15555   0.780   0.534   4.477  0.7423  0.2032  0.3929
  142OSM   H18F15556   0.727   0.607   4.542  1.6712  1.2338  0.0224
  142OSM   H18G15557   0.840   0.458   4.531 -1.0416 -0.5335  1.4176
  142OSM   H18H15558   0.698   0.473   4.431 -0.9490  0.7542  2.5381
  143OSM      N15559   0.341   6.622   2.088  0.7937  0.8086 -0.1048
  143OSM    C1515560   0.292   6.654   1.949  0.5641  0.3744 -0.4400
  143OSM   H15A15561   0.244   6.566   1.908 -1.0287  1.1330 -0.3121
  143OSM   H15B15562   0.363   6.704   1.885 -0.3578  0.8167 -1.1602
  143OSM   H15C15563   0.207   6.718   1.969 -1.9536 -2.0240 -2.5441
  143OSM    C1415564   0.220   6.570   2.166 -0.8881  0.2063  0.1217
  143OSM   H14A15565   0.241   6.550   2.270 -0.8308  1.7019  0.4265
  143OSM   H14B15566   0.192   6.483   2.109 -1.1630  0.8291 -0.7113
  143OSM   H14C15567   0.145   6.648   2.166 -0.3481  0.7563  1.1584
  143OSM    C1315568   0.432   6.508   2.078  1.0587 -0.3453 -0.8469
  143OSM   H13A15569   0.523   6.529   2.024 -0.5441  0.1703 -3.5251
  143OSM   H13B15570   0.394   6.421   2.026  0.7793 -1.2313  0.7460
  143OSM   H13C15571   0.449   6.471   2.179 -0.2998  0.1217 -0.4326
  143OSM    C1215572   0.400   6.741   2.156  0.7081 -0.0773 -0.4202
  143OSM   H12A15573   0.327   6.820   2.167  1.9754  1.1899 -0.7719
  143OSM   H12B15574   0.477   6.780   2.092 -0.8863 -1.9666 -3.7721
  143OSM    C1115575   0.456   6.717   2.299  0.3130  0.2437 -0.3436
  143OSM   H11A15576   0.381   6.668   2.365 -1.8881  0.1090 -2.7609
  143OSM   H11B15577   0.463   6.816   2.350  0.6967 -0.0450  0.1663
  143OSM      P15578   0.710   6.727   2.275 -0.3047  0.0074  0.0907
  143OSM    O1315579   0.806   6.641   2.195 -0.1338 -0.7806 -0.3061
  143OSM    O1415580   0.684   6.862   2.219  0.1778 -0.3973 -0.0859
  143OSM    O1115581   0.757   6.755   2.418  0.0868  1.0602 -0.0504
  143OSM    O1215582   0.574   6.644   2.293  0.4101  0.6417 -0.3138
  143OSM    C1S15583   0.707   6.672   2.529  0.4157 -0.2578  0.0602
  143OSM    H1S15584   0.705   6.566   2.496 -1.8361  0.3922 -2.3191
  143OSM    H1T15585   0.606   6.708   2.557  0.9473  2.5431 -1.2946
  143OSM     NF15586   0.731   6.581   2.749  0.2136 -0.4087  0.1035
  143OSM    HNF15587   0.651   6.578   2.808 -0.5146 -2.5471 -0.9042
  143OSM    C2S15588   0.779   6.691   2.664  0.2505 -0.0240 -0.3751
  143OSM    H2S15589   0.888   6.684   2.641  0.3402 -0.8706  0.2834
  143OSM    C3S15590   0.753   6.826   2.723 -0.5818  0.5169  0.5011
  143OSM    H3S15591   0.655   6.822   2.776 -0.5277 -2.4816  0.5277
  143OSM     O315592   0.743   6.937   2.637 -0.2488  0.1601  0.5543
  143OSM    HO315593   0.755   6.892   2.553 -3.1148  0.1515  0.0657
  143OSM    C4S15594   0.850   6.867   2.834  0.2581 -0.5489  0.6939
  143OSM    H4S15595   0.958   6.859   2.818  0.4949 -0.2276  2.0514
  143OSM    C5S15596   0.817   6.913   2.955 -0.1356 -0.3188 -0.2583
  143OSM    H5S15597   0.710   6.925   2.980  0.8168  1.9011  3.5091
  143OSM    C6S15598   0.912   6.934   3.079  0.8975  0.7272  0.2652
  143OSM    H6S15599   0.888   7.031   3.129  0.3745  0.0381  1.3966
  143OSM    H6T15600   1.018   6.947   3.050  1.4304  1.5810  2.3572
  143OSM    C7S15601   0.887   6.814   3.172 -0.1077  0.4917  0.4128
  143OSM    H7S15602   0.917   6.716   3.128  0.4579  0.7855  0.1424
  143OSM    H7T15603   0.780   6.810   3.202  0.2306  1.8115  1.8975
  143OSM    C8S15604   0.971   6.815   3.305  0.6926  0.5430 -0.6222
  143OSM    H8S15605   0.956   6.917   3.347 -0.9478  0.0088  0.1806
  143OSM    H8T15606   1.080   6.808   3.288  0.4197  1.4870 -3.3163
  143OSM    C9S15607   0.934   6.717   3.413  0.2811 -0.3440  0.1665
  143OSM    H9S15608   0.948   6.619   3.362 -0.7559 -1.1778  1.4178
  143OSM    H9T15609   0.826   6.734   3.436  0.3116 -1.3129  1.1195
  143OSM   C10S15610   1.006   6.715   3.542 -0.1745 -0.0061 -0.3203
  143OSM   H10S15611   1.009   6.821   3.578 -1.3761 -0.0274 -0.1278
  143OSM   H10T15612   1.115   6.693   3.534 -0.3175 -0.8249 -0.0281
  143OSM   C11S15613   0.947   6.624   3.643  0.1486  0.5376  0.6528
  143OSM   H11S15614   0.930   6.521   3.605  0.6481  0.6943 -0.0160
  143OSM   H11T15615   0.845   6.656   3.669 -0.2010 -0.9515  1.2314
  143OSM   C12S15616   1.027   6.616   3.765 -0.4516  0.0276 -0.7429
  143OSM   H12S15617   1.052   6.716   3.807  0.6519 -0.3857 -0.3953
  143OSM   H12T15618   1.126   6.573   3.740 -0.7547 -0.6260 -0.8210
  143OSM   C13S15619   0.966   6.531   3.885 -0.3199  0.0450 -0.1486
  143OSM   H13S15620   0.932   6.430   3.854 -0.3988 -0.2844  0.9649
  143OSM   H13T15621   0.871   6.576   3.924 -0.8919 -1.0757 -0.1977
  143OSM   C14S15622   1.076   6.495   3.993 -0.3442 -0.4495  0.2098
  143OSM   H14S15623   1.132   6.588   4.013  1.7040 -0.8170 -3.0149
  143OSM   H14T15624   1.136   6.416   3.943 -0.4861 -0.5904  0.2590
  143OSM   C15S15625   1.010   6.414   4.115 -0.5563 -0.5219  0.3362
  143OSM   H15S15626   0.954   6.332   4.067 -2.2401  1.4998 -1.3567
  143OSM   H15T15627   0.931   6.473   4.167 -0.1753  0.0754  0.2479
  143OSM   C16S15628   1.114   6.363   4.228  0.4146 -0.2309 -0.0908
  143OSM   H16S15629   1.164   6.461   4.246 -0.2104  0.2627 -0.9452
  143OSM   H16T15630   1.171   6.289   4.169 -2.1702 -1.8448 -0.7513
  143OSM   C17S15631   1.058   6.297   4.351 -0.1567 -0.4655  0.3202
  143OSM   H17S15632   0.987   6.361   4.407 -1.0541  0.1940 -1.5085
  143OSM   H17T15633   1.139   6.290   4.427  1.4253  1.8261 -1.0377
  143OSM   C18S15634   1.003   6.157   4.319 -0.1039  0.2559  0.3778
  143OSM   H18S15635   0.954   6.104   4.404 -2.4768  1.5505 -0.0927
  143OSM   H18T15636   1.075   6.086   4.273 -1.3250 -0.6496 -0.2149
  143OSM   H18U15637   0.926   6.170   4.240  0.5470  4.6068  0.2219
  143OSM    C1F15638   0.787   6.462   2.731 -0.3895  0.5271 -0.5223
  143OSM     OF15639   0.859   6.434   2.632  0.4479 -0.1474 -0.4466
  143OSM    C2F15640   0.772   6.354   2.846 -0.0089 -0.2623 -0.9764
  143OSM    H2F15641   0.857   6.283   2.834  0.6009  0.1385  0.7257
  143OSM    H2G15642   0.679   6.297   2.824 -0.6304  0.6523 -0.7347
  143OSM    C3F15643   0.773   6.413   2.990 -0.1956  0.1149 -0.3591
  143OSM    H3F15644   0.680   6.471   3.004 -0.2152 -0.1155  0.5731
  143OSM    H3G15645   0.859   6.484   2.991  0.0854 -0.2152  0.7562
  143OSM    C4F15646   0.785   6.319   3.113 -0.4718  0.0842 -0.0691
  143OSM    H4F15647   0.838   6.225   3.089  0.1931  0.8227 -1.6822
  143OSM    H4G15648   0.684   6.287   3.147 -0.2576 -1.8982 -1.1719
  143OSM    C5F15649   0.864   6.389   3.228  0.5063  0.1243  0.2470
  143OSM    H5F15650   0.808   6.479   3.260 -1.1626 -0.4439 -0.9006
  143OSM    H5G15651   0.963   6.423   3.190  1.2951 -2.2850 -0.0225
  143OSM    C6F15652   0.891   6.301   3.356 -0.5820 -0.0696  0.4113
  143OSM    H6F15653   0.794   6.258   3.387 -1.4647 -0.6736 -2.8352
  143OSM    H6G15654   0.931   6.368   3.436  0.2165  1.6098 -1.2946
  143OSM    C7F15655   0.988   6.181   3.329 -0.6549 -0.3833 -0.0523
  143OSM    H7F15656   1.079   6.221   3.280  0.0524 -1.5812  0.2533
  143OSM    H7G15657   0.934   6.106   3.268 -1.3731 -1.0402  1.3443
  143OSM    C8F15658   1.042   6.119   3.458 -0.8541  0.1155 -0.1473
  143OSM    H8F15659   1.094   6.197   3.517 -2.7500 -0.1303  1.9799
  143OSM    H8G15660   1.124   6.047   3.435 -1.9017 -0.7433 -1.3822
  143OSM    C9F15661   0.927   6.062   3.536 -0.2057  0.1035  0.7247
  143OSM    H9F15662   0.855   5.998   3.483 -0.6357 -0.0231  1.4452
  143OSM   C10F15663   0.897   6.085   3.663  0.4060 -0.3037  0.3862
  143OSM   H10F15664   0.805   6.044   3.708  0.5050  0.3759  1.2442
  143OSM   C11F15665   0.977   6.168   3.763  0.4300  0.5691  0.0800
  143OSM   H11F15666   0.903   6.202   3.839  0.2869 -1.4194  0.8823
  143OSM   H11G15667   1.023   6.259   3.720 -1.8251  1.8763  0.2574
  143OSM   C12F15668   1.093   6.091   3.836 -0.1200 -0.1472  0.0011
  143OSM   H12F15669   1.152   6.164   3.895  0.0012 -0.0941 -0.1832
  143OSM   H12G15670   1.166   6.049   3.765  3.6865 -0.8189  3.9059
  143OSM   C13F15671   1.043   5.981   3.931 -0.0150 -0.5479  0.9898
  143OSM   H13F15672   1.009   5.889   3.879 -1.4086  1.2682 -1.4975
  143OSM   H13G15673   0.961   6.026   3.992  0.5188  1.5507  0.2262
  143OSM   C14F15674   1.153   5.933   4.037  1.2939 -0.0680  1.2894
  143OSM   H14F15675   1.186   6.033   4.074  0.4970  1.6703 -2.2177
  143OSM   H14G15676   1.235   5.889   3.978  0.6633  0.7259 -0.2377
  143OSM   C15F15677   1.096   5.826   4.135  0.5718 -0.4718  0.0204
  143OSM   H15F15678   1.084   5.724   4.094 -1.9742 -0.0350 -0.4655
  143OSM   H15G15679   1.009   5.865   4.192  1.7686 -0.0656  1.6509
  143OSM   C16F15680   1.215   5.812   4.237 -0.0101 -0.0781 -0.3805
  143OSM   H16F15681   1.219   5.902   4.302  2.7008  0.6479 -1.4136
  143OSM   H16G15682   1.309   5.797   4.180  0.9090  0.6002  0.8888
  143OSM   C17F15683   1.186   5.695   4.335  0.5386 -0.8065 -0.4002
  143OSM   H17F15684   1.274   5.680   4.401  0.6176  0.7354 -0.1234
  143OSM   H17G15685   1.174   5.609   4.266  1.0526 -0.8306 -0.4658
  143OSM   C18F15686   1.062   5.721   4.415  0.5466  0.0358  0.1848
  143OSM   H18F15687   1.053   5.646   4.496  1.4516 -0.6596 -0.3378
  143OSM   H18G15688   0.966   5.710   4.359  1.1183  1.1680 -1.0746
  143OSM   H18H15689   1.061   5.828   4.444 -1.3594  0.2408 -0.4452
  144OSM      N15690   0.046   0.638   2.395  0.6891 -0.0092 -0.2375
  144OSM    C1515691   0.175   0.619   2.465 -0.7602  0.4190 -0.3679
  144OSM   H15A15692   0.196   0.515   2.486  3.2394  1.3154  0.9145
  144OSM   H15B15693   0.188   0.678   2.555  0.0873 -3.1579  2.0829
  144OSM   H15C15694   0.258   0.653   2.405 -0.9706 -1.6578 -1.9461
  144OSM    C1415695  -0.071   0.616   2.483  0.0332  0.2124  0.5822
  144OSM   H14A15696  -0.051   0.522   2.532 -1.6856 -0.1493  0.6471
  144OSM   H14B15697  -0.167   0.615   2.434 -0.1957 -1.9558  0.9806
  144OSM   H14C15698  -0.063   0.689   2.562 -0.5366  0.7781  0.1261
  144OSM    C1315699   0.045   0.777   2.344  0.4862  0.0397 -0.7406
  144OSM   H13A15700   0.056   0.844   2.428  0.2301 -0.1066 -0.5878
  144OSM   H13B15701  -0.047   0.797   2.290  0.1234  1.6832  0.3864
  144OSM   H13C15702   0.120   0.804   2.272  0.8937 -0.5956 -0.5586
  144OSM    C1215703   0.042   0.531   2.281  0.1161 -0.4759 -0.0457
  144OSM   H12A15704   0.127   0.536   2.215  1.5312 -2.2337  1.5348
  144OSM   H12B15705  -0.041   0.560   2.218 -1.1426  0.3568  1.9067
  144OSM    C1115706   0.032   0.381   2.315 -0.5804 -0.2276  0.5411
  144OSM   H11A15707   0.048   0.326   2.221 -0.0172  1.1200 -0.1836
  144OSM   H11B15708  -0.070   0.371   2.359 -0.1783 -1.2611  1.2862
  144OSM      P15709   0.253   0.248   2.397 -0.4838  0.0659 -0.0053
  144OSM    O1315710   0.220   0.135   2.309  0.0963 -0.0543 -0.3110
  144OSM    O1415711   0.373   0.329   2.366 -0.2653 -0.0637 -0.2435
  144OSM    O1115712   0.262   0.187   2.541 -0.1539  0.4483  0.6015
  144OSM    O1215713   0.120   0.338   2.423  0.1025 -0.2409  0.1997
  144OSM    C1S15714   0.296   0.274   2.645  0.4588 -0.2893 -0.0624
  144OSM    H1S15715   0.243   0.369   2.626  0.1192 -0.6626 -1.0821
  144OSM    H1T15716   0.405   0.295   2.651  0.6443 -1.5045  2.2122
  144OSM     NF15717   0.277   0.313   2.880 -0.5240  0.2285  0.2525
  144OSM    HNF15718   0.357   0.311   2.940  2.4271  0.6057 -3.3134
  144OSM    C2S15719   0.262   0.207   2.782  0.2437 -0.7755 -0.2722
  144OSM    H2S15720   0.156   0.173   2.784  0.1458 -0.6545  3.1661
  144OSM    C3S15721   0.352   0.081   2.801  0.3949 -0.5492 -0.3914
  144OSM    H3S15722   0.459   0.111   2.800  0.0317  0.8275 -0.2030
  144OSM     O315723   0.337  -0.037   2.713  0.0293  0.2612  0.2703
  144OSM    HO315724   0.269  -0.007   2.653 -1.8307 -1.5352  1.3503
  144OSM    C4S15725   0.336   0.038   2.944  0.0095  0.2343 -0.1669
  144OSM    H4S15726   0.426   0.067   3.000 -0.7275  2.7436 -0.1546
  144OSM    C5S15727   0.247  -0.052   3.007  0.4560 -0.7750 -0.0471
  144OSM    H5S15728   0.169  -0.110   2.955 -0.0158 -1.5028  1.4019
  144OSM    C6S15729   0.236  -0.088   3.156 -0.3940 -0.8922 -0.0507
  144OSM    H6S15730   0.276  -0.001   3.212 -0.3919  0.8775 -2.6526
  144OSM    H6T15731   0.299  -0.178   3.174  0.0258 -0.9550 -1.6819
  144OSM    C7S15732   0.104  -0.120   3.217 -0.4237  0.0247 -0.2488
  144OSM    H7S15733   0.036  -0.168   3.144  1.0686 -2.1676 -0.2657
  144OSM    H7T15734   0.049  -0.024   3.232  0.3504  0.7858 -1.9935
  144OSM    C8S15735   0.120  -0.193   3.347  0.5384 -0.1114  0.3087
  144OSM    H8S15736   0.174  -0.289   3.341  0.0891 -0.4497  1.3990
  144OSM    H8T15737   0.016  -0.219   3.375  0.1240 -0.7745 -1.6697
  144OSM    C9S15738   0.182  -0.121   3.461 -0.5575 -0.2288 -0.2604
  144OSM    H9S15739   0.155  -0.013   3.456  1.4771  0.4442  1.4833
  144OSM    H9T15740   0.292  -0.123   3.447 -0.4740  1.2597 -0.0101
  144OSM   C10S15741   0.142  -0.196   3.586  0.1342 -0.1326  0.0515
  144OSM   H10S15742   0.159  -0.303   3.563  3.7753  0.8076 -2.5300
  144OSM   H10T15743   0.034  -0.191   3.612 -0.4674 -4.9889 -0.6027
  144OSM   C11S15744   0.211  -0.149   3.716  1.3195  0.2464  0.6462
  144OSM   H11S15745   0.178  -0.042   3.718  0.0985 -0.0156 -1.7729
  144OSM   H11T15746   0.321  -0.149   3.703  1.6024  1.8414  2.5652
  144OSM   C12S15747   0.187  -0.224   3.846  0.1492  0.3987  0.1905
  144OSM   H12S15748   0.222  -0.329   3.838 -0.3715  0.2833 -0.6010
  144OSM   H12T15749   0.079  -0.226   3.873  0.3943  0.8561  1.2593
  144OSM   C13S15750   0.272  -0.173   3.958  0.6570  0.7643 -0.8005
  144OSM   H13S15751   0.248  -0.065   3.950 -1.0555  0.6224  1.3706
  144OSM   H13T15752   0.381  -0.190   3.945  0.2345 -0.6579 -2.8180
  144OSM   C14S15753   0.213  -0.230   4.099  0.0291 -0.1215  0.4547
  144OSM   H14S15754   0.248  -0.335   4.110  0.1992 -0.0071  1.0211
  144OSM   H14T15755   0.103  -0.224   4.093  0.1165  0.7725 -0.6944
  144OSM   C15S15756   0.251  -0.151   4.224  0.3157  0.1988  0.0573
  144OSM   H15S15757   0.236  -0.044   4.200  0.2389  1.2441  4.1441
  144OSM   H15T15758   0.358  -0.164   4.251  1.3568  0.7518 -3.2983
  144OSM   C16S15759   0.166  -0.177   4.350 -0.1338 -0.7413  0.2857
  144OSM   H16S15760   0.172  -0.284   4.376  1.8079 -0.3919  1.4081
  144OSM   H16T15761   0.060  -0.149   4.328 -0.4489 -0.7593  1.7209
  144OSM   C17S15762   0.224  -0.097   4.472 -0.0147 -0.2394  0.2471
  144OSM   H17S15763   0.149  -0.089   4.555  0.3254 -0.1732  0.5518
  144OSM   H17T15764   0.244   0.006   4.436  0.3984  0.0316  1.2118
  144OSM   C18S15765   0.346  -0.158   4.533 -0.0196  0.1934  0.3791
  144OSM   H18S15766   0.426  -0.198   4.468  1.0790  0.6721  1.4055
  144OSM   H18T15767   0.330  -0.247   4.599  3.3886 -1.6252 -1.0167
  144OSM   H18U15768   0.399  -0.080   4.592  0.4490  0.9505 -1.0127
  144OSM    C1F15769   0.195   0.415   2.894 -0.2681 -0.7471 -0.0892
  144OSM     OF15770   0.090   0.420   2.833 -0.6812  0.1762  0.5630
  144OSM    C2F15771   0.228   0.520   3.002 -0.6498  0.2329 -0.5904
  144OSM    H2F15772   0.225   0.621   2.955  1.9494 -0.0009 -1.4364
  144OSM    H2G15773   0.334   0.510   3.034 -0.5089  0.7437 -0.8779
  144OSM    C3F15774   0.138   0.509   3.121 -0.7532 -0.5764  0.3844
  144OSM    H3F15775   0.033   0.512   3.086 -0.9425 -1.0717  0.8900
  144OSM    H3G15776   0.155   0.601   3.181  0.7110  1.3294 -2.7050
  144OSM    C4F15777   0.149   0.377   3.203  0.1785  0.6450  0.2147
  144OSM    H4F15778   0.241   0.359   3.263 -0.7113  0.4226  1.5551
  144OSM    H4G15779   0.119   0.301   3.127  0.0519  1.8627 -0.9836
  144OSM    C5F15780   0.034   0.376   3.307  0.2657  0.5605  0.4521
  144OSM    H5F15781  -0.067   0.384   3.263  0.5880  0.0231 -0.4073
  144OSM    H5G15782   0.049   0.463   3.375  0.6227  0.5049  0.4503
  144OSM    C6F15783   0.028   0.250   3.389 -0.2366  0.2404 -0.4830
  144OSM    H6F15784   0.127   0.230   3.436 -0.5949 -2.7294 -0.7772
  144OSM    H6G15785   0.010   0.160   3.326  1.2423 -1.5968  1.5594
  144OSM    C7F15786  -0.080   0.250   3.496  0.6059 -0.2651 -0.2507
  144OSM    H7F15787  -0.175   0.255   3.438  0.0015  0.8800  0.8003
  144OSM    H7G15788  -0.078   0.335   3.567  0.7582 -0.2066 -0.3242
  144OSM    C8F15789  -0.083   0.109   3.562  0.1030  0.7349  0.2433
  144OSM    H8F15790   0.009   0.083   3.618 -0.4248  2.4698  2.0004
  144OSM    H8G15791  -0.095   0.037   3.478 -1.6020  1.0611  0.1728
  144OSM    C9F15792  -0.207   0.112   3.646 -0.2538 -0.2644 -0.2389
  144OSM    H9F15793  -0.289   0.173   3.606  1.1333  2.0136  0.2470
  144OSM   C10F15794  -0.217   0.048   3.766  0.4162 -0.4819  0.1598
  144OSM   H10F15795  -0.302   0.081   3.827 -0.2583  0.8248 -1.4118
  144OSM   C11F15796  -0.115  -0.028   3.841 -0.6740  1.1625  0.7751
  144OSM   H11F15797  -0.026  -0.039   3.776  0.7773  0.0096  2.8335
  144OSM   H11G15798  -0.151  -0.130   3.868  0.2235  0.6859  0.1997
  144OSM   C12F15799  -0.055   0.036   3.969  0.9317 -0.2823  0.7322
  144OSM   H12F15800  -0.037   0.144   3.950 -2.3500 -0.0709 -2.2451
  144OSM   H12G15801   0.043  -0.009   3.998  1.5461  1.2371  1.1012
  144OSM   C13F15802  -0.141   0.015   4.092  0.4690  0.2324  0.3871
  144OSM   H13F15803  -0.150  -0.094   4.113 -0.6696  0.3187  0.4387
  144OSM   H13G15804  -0.243   0.044   4.059  0.4387 -0.1751  0.1208
  144OSM   C14F15805  -0.108   0.101   4.215 -0.8814 -0.7577  0.1171
  144OSM   H14F15806   0.002   0.111   4.227 -0.8188  0.3965 -1.1602
  144OSM   H14G15807  -0.137   0.044   4.306 -0.8669 -1.8838 -0.5594
  144OSM   C15F15808  -0.162   0.248   4.219  0.1498  0.2242 -0.6918
  144OSM   H15F15809  -0.266   0.247   4.181 -0.5062 -0.9131  1.0146
  144OSM   H15G15810  -0.101   0.292   4.137  0.6448 -0.6982 -0.8379
  144OSM   C16F15811  -0.153   0.311   4.356 -0.2457  0.1835 -0.4400
  144OSM   H16F15812  -0.050   0.307   4.397 -0.0040  0.4396 -1.0185
  144OSM   H16G15813  -0.216   0.249   4.424  0.5028 -0.6588 -0.4905
  144OSM   C17F15814  -0.198   0.459   4.368  0.0495  0.7609 -0.2005
  144OSM   H17F15815  -0.287   0.475   4.303  0.8332 -0.3136 -1.6078
  144OSM   H17G15816  -0.120   0.525   4.325 -0.6463  1.6406 -0.1621
  144OSM   C18F15817  -0.240   0.486   4.511  0.6358 -0.0485  0.6616
  144OSM   H18F15818  -0.168   0.459   4.591 -0.2527  0.8403  1.8042
  144OSM   H18G15819  -0.337   0.437   4.535 -1.2345  2.3597 -1.3526
  144OSM   H18H15820  -0.269   0.593   4.522  0.4715 -0.1032  0.7658
  145SAPE     N15821   3.040   2.581   6.496 -0.1528  0.4813 -0.0790
  145SAPE   HN115822   3.034   2.529   6.406  0.8768 -0.6406  0.4693
  145SAPE   HN215823   3.143   2.581   6.512 -0.2333 -0.9259  0.5367
  145SAPE   HN315824   2.996   2.525   6.571  0.9621 -1.1373 -0.5857
  145SAPE   C1215825   2.986   2.723   6.495 -0.1872 -0.2494  0.2616
  145SAPE  H12A15826   3.031   2.770   6.404  1.0773 -1.1219  0.4047
  145SAPE  H12B15827   3.026   2.778   6.583 -1.7556  1.8920 -0.2659
  145SAPE   C1115828   2.836   2.716   6.508  0.0685 -0.6283 -0.1188
  145SAPE  H11A15829   2.790   2.694   6.409 -2.2674  1.6765  0.3499
  145SAPE  H11B15830   2.806   2.821   6.530  1.1821 -0.3629  0.2064
  145SAPE     P15831   2.632   2.593   6.632 -0.3827 -0.2175 -0.5951
  145SAPE   O1315832   2.608   2.503   6.746 -0.4131 -0.4811 -0.5403
  145SAPE   O1415833   2.550   2.718   6.632  0.0152  0.1562  0.3108
  145SAPE   O1215834   2.790   2.637   6.614 -0.1333 -0.3098  0.3126
  145SAPE   O1115835   2.597   2.526   6.495 -0.8268 -0.1556 -0.0173
  145SAPE    C115836   2.632   2.393   6.458 -0.7047 -0.5479 -0.2542
  145SAPE    HA15837   2.741   2.375   6.464 -0.2397  0.7876 -3.0327
  145SAPE    HB15838   2.572   2.329   6.526  0.1053 -0.8169  0.2261
  145SAPE    C215839   2.598   2.378   6.304 -0.6575  0.1089 -0.2925
  145SAPE    HS15840   2.667   2.452   6.257  0.8477 -0.2710  1.2434
  145SAPE   O2115841   2.458   2.392   6.273  0.0665 -0.4054 -0.0674
  145SAPE   C2115842   2.445   2.447   6.157  0.0035  0.1802 -1.0360
  145SAPE   O2215843   2.531   2.472   6.076  0.3908  0.7670  0.5617
  145SAPE   C2215844   2.294   2.473   6.141  0.0981  0.0385  0.5253
  145SAPE   H2R15845   2.240   2.376   6.131 -2.9324  1.7331 -1.1985
  145SAPE   H2S15846   2.269   2.532   6.232 -0.2961 -0.0288  0.4648
  145SAPE    C315847   2.654   2.235   6.253 -0.0704 -0.9844 -0.7308
  145SAPE    HX15848   2.584   2.156   6.289  0.1148 -0.5342  0.6908
  145SAPE    HY15849   2.744   2.211   6.312  0.2397  2.3829  0.4192
  145SAPE   O3115850   2.669   2.222   6.114 -0.3374  0.5586 -0.1860
  145SAPE   C3115851   2.772   2.288   6.064  0.6048  0.3947 -0.1428
  145SAPE   O3215852   2.869   2.330   6.121 -0.4362 -0.2437 -0.3539
  145SAPE   C3215853   2.749   2.282   5.916 -0.3099 -0.7833 -0.0332
  145SAPE   H2X15854   2.730   2.388   5.893 -0.1224 -0.5571  0.7948
  145SAPE   H2Y15855   2.662   2.215   5.897 -1.2776  0.7701 -1.2581
  145SAPE   C2315856   2.277   2.547   6.017 -0.1276 -0.5302  0.4561
  145SAPE   H3R15857   2.334   2.500   5.934 -0.0044 -2.4777  1.5745
  145SAPE   H3S15858   2.319   2.648   6.034 -0.2399 -0.1200 -1.5307
  145SAPE   C2415859   2.122   2.551   5.987 -0.2809 -0.0041 -0.1429
  145SAPE   H4R15860   2.067   2.587   6.076 -2.2409  1.5188 -1.8638
  145SAPE   H4S15861   2.085   2.449   5.961  1.3406 -0.4293 -0.9647
  145SAPE   C2515862   2.077   2.635   5.871  0.2357 -0.4537 -0.2634
  145SAPE   H5R15863   2.081   2.742   5.894 -1.7260 -0.6043  0.9549
  145SAPE   C2615864   2.032   2.604   5.749  0.7663 -0.7837  0.1648
  145SAPE   H6R15865   2.010   2.694   5.690  0.6147 -1.0530 -0.1945
  145SAPE   C2715866   2.025   2.467   5.688  0.4109 -0.6705 -0.0503
  145SAPE   H7R15867   2.087   2.391   5.741  1.5511  0.9238  1.0090
  145SAPE   H7S15868   2.076   2.472   5.589  0.6783 -0.4339  0.0948
  145SAPE   C2815869   1.885   2.424   5.679  0.0645 -0.4917 -0.4854
  145SAPE   H8R15870   1.831   2.416   5.774 -1.3573 -1.5904 -1.3322
  145SAPE   C2915871   1.825   2.393   5.558 -1.0292 -0.4021  0.2936
  145SAPE   H9R15872   1.721   2.358   5.547 -0.9605 -0.0216 -1.9113
  145SAPE  C21015873   1.887   2.402   5.422 -0.2033  0.0291 -0.6089
  145SAPE  H10R15874   1.837   2.340   5.345 -1.1012  0.6267 -0.5203
  145SAPE  H10S15875   1.992   2.366   5.427 -0.2986 -0.3730 -1.3120
  145SAPE  C21115876   1.900   2.544   5.368  0.1051 -0.0609  0.0160
  145SAPE  H11R15877   1.889   2.618   5.449 -1.1524 -0.5314  0.3050
  145SAPE  C21215878   1.894   2.578   5.233  0.3177  0.6217 -0.1898
  145SAPE  H12R15879   1.931   2.679   5.211 -1.8660  0.8501 -3.5398
  145SAPE  C21315880   1.885   2.489   5.109 -0.6307  0.4890 -0.4283
  145SAPE  H13R15881   1.797   2.513   5.046 -1.5292 -1.8905 -0.1945
  145SAPE  H13S15882   1.869   2.382   5.135 -2.9098  1.0589  0.8083
  145SAPE  C21415883   2.013   2.497   5.034 -0.1495 -0.0825 -0.1559
  145SAPE  H14R15884   2.095   2.438   5.079  0.7883  1.1135 -0.2255
  145SAPE  C21515885   2.044   2.580   4.936  0.6134  0.4439  0.2051
  145SAPE  H15R15886   2.146   2.575   4.895  0.6816 -0.3443  0.4490
  145SAPE  C21615887   1.944   2.662   4.855  0.5582  0.5269 -0.1680
  145SAPE  H16R15888   2.001   2.749   4.815  3.0727 -0.0453  1.9095
  145SAPE  H16S15889   1.866   2.708   4.919  1.0010  0.6308  0.3053
  145SAPE  C21715890   1.849   2.576   4.768 -0.0391 -0.8596  0.3046
  145SAPE  H17R15891   1.760   2.633   4.733  1.9991  0.9617 -2.1977
  145SAPE  H17S15892   1.806   2.489   4.823 -1.1600 -1.4129 -1.3733
  145SAPE  C21815893   1.917   2.526   4.635 -0.4932  0.5200  0.3297
  145SAPE  H18R15894   1.836   2.480   4.574  0.6350  0.6827 -1.3691
  145SAPE  H18S15895   1.980   2.442   4.671  1.7523  2.0541  0.2203
  145SAPE  C21915896   1.995   2.622   4.548 -0.5966 -0.3792 -0.4176
  145SAPE  H19R15897   2.080   2.658   4.610 -0.3397  0.5494 -1.2821
  145SAPE  H19S15898   1.937   2.715   4.533  0.6776  0.7660  1.4194
  145SAPE  C22015899   2.040   2.574   4.418 -0.0219 -0.2032  0.5277
  145SAPE  H20R15900   2.125   2.503   4.418  0.2073  0.0606  0.0473
  145SAPE  H20S15901   2.078   2.660   4.357  2.1285 -1.8704 -0.6439
  145SAPE  H20T15902   1.964   2.539   4.344  2.3806  1.3514 -2.9947
  145SAPE   C3315903   2.867   2.227   5.836  0.5759 -0.0490 -0.6032
  145SAPE   H3X15904   2.912   2.145   5.896  1.1266  0.7353  0.0761
  145SAPE   H3Y15905   2.943   2.306   5.823  1.7574 -1.0450  0.0283
  145SAPE   C3415906   2.817   2.179   5.697  0.8044 -0.0058  0.5268
  145SAPE   H4X15907   2.725   2.117   5.704 -0.6456  2.1239  1.2367
  145SAPE   H4Y15908   2.898   2.119   5.649 -1.4550 -1.3754 -1.8886
  145SAPE   C3515909   2.791   2.298   5.599 -0.2157  0.8549  0.6729
  145SAPE   H5X15910   2.882   2.362   5.594  0.6360 -0.4066 -2.3968
  145SAPE   H5Y15911   2.701   2.358   5.626 -2.6177 -1.4719 -1.5768
  145SAPE   C3615912   2.765   2.246   5.456 -0.1203  0.0480 -0.7103
  145SAPE   H6X15913   2.685   2.169   5.455  2.0785 -2.3744 -0.8933
  145SAPE   H6Y15914   2.857   2.192   5.425  0.4723 -0.0301  1.0385
  145SAPE   C3715915   2.739   2.361   5.356 -0.2939  0.0793  0.0502
  145SAPE   H7X15916   2.836   2.366   5.302  0.9594 -0.9046  2.0780
  145SAPE   H7Y15917   2.727   2.462   5.400 -0.4918 -1.6792  4.6125
  145SAPE   C3815918   2.618   2.340   5.269  0.3825 -0.4043  0.2569
  145SAPE   H8X15919   2.520   2.318   5.316 -0.1376  1.0819 -0.0765
  145SAPE   H8Y15920   2.631   2.250   5.205  0.0769  0.2460 -0.7488
  145SAPE   C3915921   2.597   2.457   5.176 -0.2462 -0.1673 -0.0265
  145SAPE   H9X15922   2.697   2.482   5.133 -0.8179  3.2149  0.3537
  145SAPE   H9Y15923   2.550   2.545   5.223 -0.6942  0.0771 -0.9154
  145SAPE  C31015924   2.507   2.427   5.061 -0.3179  0.5263  0.0775
  145SAPE  H10X15925   2.398   2.424   5.082 -0.4440 -3.5441 -0.2812
  145SAPE  H10Y15926   2.530   2.323   5.027 -1.3037  0.0644  0.7564
  145SAPE  C31115927   2.531   2.523   4.937  0.4576  0.6157 -0.4657
  145SAPE  H11X15928   2.632   2.503   4.896  0.3505  2.6726 -1.8616
  145SAPE  H11Y15929   2.515   2.631   4.960 -0.6814  0.7135 -1.6146
  145SAPE  C31215930   2.430   2.492   4.828  0.7621 -0.9114  0.9008
  145SAPE  H12X15931   2.329   2.501   4.874  1.0328  1.3053  1.1863
  145SAPE  H12Y15932   2.433   2.385   4.798 -1.0092 -1.1294  1.4050
  145SAPE  C31315933   2.434   2.587   4.713 -0.2764 -0.7387  0.2106
  145SAPE  H13X15934   2.385   2.680   4.748  0.8381 -0.6748  1.6753
  145SAPE  H13Y15935   2.364   2.537   4.642 -0.4764  1.0413 -0.9292
  145SAPE  C31415936   2.563   2.627   4.649  0.0573  0.3099 -0.6247
  145SAPE  H14X15937   2.619   2.541   4.605  1.3069  0.4923  0.5431
  145SAPE  H14Y15938   2.627   2.674   4.727 -3.1966  0.2737  2.2747
  145SAPE  C31515939   2.545   2.735   4.538 -0.0627 -0.3177  0.5768
  145SAPE  H15X15940   2.638   2.788   4.505  0.3426 -0.5842  1.2626
  145SAPE  H15Y15941   2.487   2.817   4.586  0.1542  0.8733 -1.0852
  145SAPE  C31615942   2.462   2.687   4.418  0.2438  0.2779 -0.2067
  145SAPE  H16X15943   2.360   2.681   4.461  0.9573 -1.2062  1.4363
  145SAPE  H16Y15944   2.498   2.587   4.385 -2.5835 -0.6325 -0.7750
  145SAPE  C31715945   2.462   2.785   4.302  0.1144 -0.7331 -0.3555
  145SAPE  H17X15946   2.552   2.846   4.284 -0.5483  0.3079 -0.2025
  145SAPE  H17Y15947   2.388   2.864   4.328 -0.4101 -1.9626  2.2264
  145SAPE  C31815948   2.417   2.709   4.172  0.0134  0.1470  0.0747
  145SAPE  H18X15949   2.371   2.780   4.099  1.1558  0.8050 -0.0157
  145SAPE  H18Y15950   2.344   2.631   4.203  3.0181 -4.3365 -2.9459
  145SAPE  H18Z15951   2.497   2.652   4.121 -0.0634  0.7669 -0.7677
  146SAPE     N15952   6.414   1.948   6.671  0.7109 -0.3588 -0.1242
  146SAPE   HN115953   6.381   1.949   6.770  1.2667 -1.6582  0.0972
  146SAPE   HN215954   6.438   1.849   6.647 -1.0030 -1.0158  0.7374
  146SAPE   HN315955   6.503   2.003   6.673  1.6179 -1.6723 -1.6577
  146SAPE   C1215956   6.304   2.007   6.580  0.0162 -0.4201 -0.0332
  146SAPE  H12A15957   6.341   2.003   6.475  0.6770  0.5373  0.1533
  146SAPE  H12B15958   6.285   2.109   6.618  1.4667 -0.6439  1.3932
  146SAPE   C1115959   6.181   1.911   6.581  0.0704  0.6170 -0.0773
  146SAPE  H11A15960   6.212   1.812   6.542 -1.9490 -1.0099  2.1811
  146SAPE  H11B15961   6.096   1.948   6.519 -1.2732 -1.2499  0.5453
  146SAPE     P15962   6.008   1.938   6.779 -0.0403  0.2047  0.2426
  146SAPE   O1315963   5.959   1.851   6.886  0.7110 -0.4367  0.6449
  146SAPE   O1415964   6.049   2.077   6.819 -0.1587 -0.3694  0.2948
  146SAPE   O1215965   6.132   1.876   6.711  0.1205  0.3101  1.1402
  146SAPE   O1115966   5.899   1.957   6.676 -0.4733 -0.1330  0.4063
  146SAPE    C115967   5.768   1.901   6.679  0.7708 -0.3629  0.5691
  146SAPE    HA15968   5.756   1.795   6.710  1.4290 -0.7081 -0.3305
  146SAPE    HB15969   5.710   1.969   6.745  0.8955 -0.1533  0.4620
  146SAPE    C215970   5.704   1.927   6.541  0.6193  0.3977 -0.3140
  146SAPE    HS15971   5.597   1.911   6.569  1.3194 -2.5795  1.0723
  146SAPE   O2115972   5.751   1.835   6.440  0.4580 -0.0301  0.0355
  146SAPE   C2115973   5.721   1.708   6.459 -0.0893 -0.2128 -0.9531
  146SAPE   O2215974   5.659   1.658   6.555 -0.1343 -0.0700 -0.2244
  146SAPE   C2215975   5.755   1.629   6.330  0.2956 -0.0875 -0.4537
  146SAPE   H2R15976   5.839   1.683   6.281  1.5341 -1.2190  0.3709
  146SAPE   H2S15977   5.773   1.524   6.362  0.6207 -0.0568 -0.5308
  146SAPE    C315978   5.725   2.072   6.499  0.1309 -0.2385  0.5940
  146SAPE    HX15979   5.832   2.100   6.497 -0.7155  3.3982  0.1425
  146SAPE    HY15980   5.672   2.134   6.574 -2.0524  0.5725 -1.4694
  146SAPE   O3115981   5.689   2.098   6.363  0.5783 -0.1524  0.3949
  146SAPE   C3115982   5.568   2.151   6.327 -0.4560 -0.5715 -0.8502
  146SAPE   O3215983   5.481   2.177   6.408  0.4562  0.1220 -0.2683
  146SAPE   C3215984   5.557   2.168   6.172  0.0965  0.4504  0.1066
  146SAPE   H2X15985   5.606   2.084   6.119  0.0628 -0.3690  1.3202
  146SAPE   H2Y15986   5.615   2.258   6.144 -0.5059  0.6099 -0.6460
  146SAPE   C2315987   5.645   1.625   6.221 -0.1691 -0.2826 -0.5362
  146SAPE   H3R15988   5.553   1.575   6.257  0.8106 -1.9222 -0.2426
  146SAPE   H3S15989   5.691   1.558   6.145  4.3031  0.1565  1.4417
  146SAPE   C2415990   5.611   1.766   6.173  0.4054 -0.8466  0.2433
  146SAPE   H4R15991   5.589   1.814   6.271  0.8582 -0.5541  0.2059
  146SAPE   H4S15992   5.517   1.751   6.115  0.0964  0.2045  0.4478
  146SAPE   C2515993   5.719   1.840   6.096 -0.1686  0.4118 -0.0190
  146SAPE   H5R15994   5.774   1.915   6.156  0.4144 -0.7973  1.0136
  146SAPE   C2615995   5.737   1.837   5.966 -0.6433  0.4680  1.0990
  146SAPE   H6R15996   5.820   1.894   5.922 -1.1269  0.4855  0.1811
  146SAPE   C2715997   5.664   1.740   5.877  0.1798 -0.1438  0.2629
  146SAPE   H7R15998   5.622   1.650   5.926  0.5807  0.9839  2.8242
  146SAPE   H7S15999   5.725   1.692   5.797 -1.8277 -0.7726 -0.9546
  146SAPE   C2816000   5.548   1.813   5.816  0.6807 -0.7156 -0.5445
  146SAPE   H8R16001   5.468   1.836   5.888 -0.5052  0.3424 -2.1270
  146SAPE   C2916002   5.535   1.860   5.686 -0.1567 -0.5492 -0.5202
  146SAPE   H9R16003   5.450   1.921   5.652 -0.0225 -0.0692 -0.0062
  146SAPE  C21016004   5.645   1.833   5.586  0.3822  0.3133  0.4001
  146SAPE  H10R16005   5.655   1.724   5.571 -0.1174  0.2640  0.4136
  146SAPE  H10S16006   5.744   1.865   5.626  1.9854 -1.4262 -1.9487
  146SAPE  C21116007   5.609   1.881   5.449  0.0041  0.3895  0.2675
  146SAPE  H11R16008   5.647   1.983   5.427  0.2516  0.3378  0.4385
  146SAPE  C21216009   5.528   1.822   5.355 -0.4972 -0.0686  0.3033
  146SAPE  H12R16010   5.519   1.870   5.256 -0.1518 -0.0360  0.2836
  146SAPE  C21316011   5.461   1.686   5.368 -0.6659 -0.6308  0.3555
  146SAPE  H13R16012   5.360   1.693   5.323  0.0084 -3.5702 -1.9399
  146SAPE  H13S16013   5.449   1.654   5.474  0.2773 -0.6458  0.4653
  146SAPE  C21416014   5.533   1.584   5.285 -0.3960 -0.4568 -0.1968
  146SAPE  H14R16015   5.625   1.548   5.334 -0.0601  1.4090  0.6016
  146SAPE  C21516016   5.506   1.546   5.157 -0.2003 -0.1231 -1.0280
  146SAPE  H15R16017   5.568   1.465   5.117  0.6412  0.2197 -0.4510
  146SAPE  C21616018   5.392   1.597   5.069  0.3320 -0.0602 -0.5732
  146SAPE  H16R16019   5.375   1.706   5.083  1.2950 -0.0376  0.6420
  146SAPE  H16S16020   5.298   1.553   5.107  0.0503  1.3318  0.3986
  146SAPE  C21716021   5.414   1.566   4.915 -0.5340 -0.6871 -0.0267
  146SAPE  H17R16022   5.313   1.593   4.876 -0.6472  1.4304  1.5131
  146SAPE  H17S16023   5.440   1.460   4.895  2.2022 -0.1489  0.2670
  146SAPE  C21816024   5.525   1.651   4.853  0.2846  0.1450 -0.1808
  146SAPE  H18R16025   5.514   1.630   4.745 -2.1875 -1.1817  0.2736
  146SAPE  H18S16026   5.620   1.612   4.897 -1.1819 -0.2223  2.9233
  146SAPE  C21916027   5.532   1.801   4.878  0.7860 -0.9220  0.7625
  146SAPE  H19R16028   5.516   1.823   4.985 -0.2474 -0.3870  0.5126
  146SAPE  H19S16029   5.459   1.858   4.816  2.1147  0.5648  0.4825
  146SAPE  C22016030   5.664   1.874   4.836 -0.6510 -0.0188  0.6817
  146SAPE  H20R16031   5.746   1.827   4.894 -0.7969  1.0485  1.7966
  146SAPE  H20S16032   5.664   1.984   4.853  1.2864  0.1563 -0.1272
  146SAPE  H20T16033   5.678   1.869   4.726 -1.0772  0.5940  0.5922
  146SAPE   C3316034   5.415   2.191   6.111 -0.1841 -0.5304 -0.9327
  146SAPE   H3X16035   5.361   2.269   6.170 -2.4106 -1.6714 -1.3360
  146SAPE   H3Y16036   5.353   2.099   6.122 -1.0455 -0.0446 -1.5849
  146SAPE   C3416037   5.413   2.234   5.963  0.1449 -0.0704 -0.4822
  146SAPE   H4X16038   5.498   2.190   5.907 -0.1723 -0.8739 -0.3571
  146SAPE   H4Y16039   5.416   2.345   5.958  3.0592  0.1750  2.8190
  146SAPE   C3516040   5.285   2.180   5.887 -0.2192  0.3737 -0.0766
  146SAPE   H5X16041   5.186   2.224   5.913 -1.4432 -0.7902 -2.4648
  146SAPE   H5Y16042   5.264   2.076   5.920 -2.1116  1.4628  2.4922
  146SAPE   C3616043   5.303   2.192   5.731 -0.4957  0.1394 -0.6270
  146SAPE   H6X16044   5.390   2.126   5.712  1.0885  2.6790 -3.0947
  146SAPE   H6Y16045   5.330   2.297   5.707 -2.4654  1.0443  0.8500
  146SAPE   C3716046   5.180   2.172   5.650  0.1872  1.3625 -0.0872
  146SAPE   H7X16047   5.119   2.265   5.645 -3.6575 -0.9009  0.8696
  146SAPE   H7Y16048   5.127   2.087   5.697  1.2408 -0.1840 -1.5980
  146SAPE   C3816049   5.206   2.128   5.505  0.0236  0.6047  0.1322
  146SAPE   H8X16050   5.256   2.029   5.497 -0.6294  0.1998  0.9075
  146SAPE   H8Y16051   5.268   2.211   5.465 -1.9353  0.7827 -2.9039
  146SAPE   C3916052   5.089   2.115   5.402 -0.3122  0.6569  0.1615
  146SAPE   H9X16053   5.028   2.207   5.393  0.3287  1.1104  0.3159
  146SAPE   H9Y16054   5.030   2.029   5.438  0.4701  0.7617  1.8227
  146SAPE  C31016055   5.141   2.078   5.261 -1.2152 -0.1867 -0.6871
  146SAPE  H10X16056   5.155   1.968   5.253 -1.5600 -0.0763 -3.8435
  146SAPE  H10Y16057   5.242   2.123   5.249 -0.6836 -1.2911 -0.4908
  146SAPE  C31116058   5.042   2.114   5.151  0.0391 -0.4674 -0.0088
  146SAPE  H11X16059   5.031   2.224   5.139 -1.2203 -0.7851 -2.2250
  146SAPE  H11Y16060   4.944   2.081   5.191 -1.7042  0.7063 -3.0006
  146SAPE  C31216061   5.058   2.043   5.011  0.0292 -0.4537  0.1701
  146SAPE  H12X16062   5.065   1.932   5.007 -1.6569 -0.5630 -0.7506
  146SAPE  H12Y16063   5.145   2.087   4.958  0.1342 -1.2630 -0.3585
  146SAPE  C31316064   4.933   2.076   4.926 -0.3800  0.0558  0.2604
  146SAPE  H13X16065   4.936   2.183   4.895  1.7884 -0.1221 -0.2969
  146SAPE  H13Y16066   4.845   2.051   4.989  0.6267 -1.6506  1.0568
  146SAPE  C31416067   4.939   1.994   4.801 -0.2462  0.2505  0.2066
  146SAPE  H14X16068   4.964   1.890   4.831 -1.1639 -0.2654 -0.7646
  146SAPE  H14Y16069   5.026   2.024   4.738  1.1570 -1.0246  1.4500
  146SAPE  C31516070   4.803   1.977   4.720 -0.1446  0.5231 -0.7840
  146SAPE  H15X16071   4.773   2.079   4.687  0.0940  1.3761  1.4525
  146SAPE  H15Y16072   4.725   1.947   4.793  1.0469 -0.7379  0.0198
  146SAPE  C31616073   4.814   1.878   4.607  0.8104 -0.2467  0.1199
  146SAPE  H16X16074   4.910   1.893   4.553  0.2477 -1.0738 -1.1629
  146SAPE  H16Y16075   4.737   1.900   4.530  1.3092 -0.6724 -0.5155
  146SAPE  C31716076   4.814   1.733   4.653 -0.4846  0.5065 -0.1058
  146SAPE  H17X16077   4.737   1.725   4.732 -1.3516  1.3376 -0.8461
  146SAPE  H17Y16078   4.908   1.701   4.704 -0.4404  0.5455 -0.1624
  146SAPE  C31816079   4.772   1.650   4.536  0.4190 -0.1086  0.3996
  146SAPE  H18X16080   4.745   1.544   4.553 -1.7098  0.5007  1.1579
  146SAPE  H18Y16081   4.853   1.648   4.459  1.9666  0.3513  1.9390
  146SAPE  H18Z16082   4.685   1.697   4.485  0.7261  0.1434  0.0922
  147SAPE     N16083   4.974   6.104   7.050  0.3639 -0.6040  0.2821
  147SAPE   HN116084   5.018   6.018   7.013  3.3010  0.9607 -0.1500
  147SAPE   HN216085   5.039   6.182   7.026  1.5882 -1.8382 -0.5074
  147SAPE   HN316086   4.970   6.107   7.154 -0.8553  0.7322  0.2382
  147SAPE   C1216087   4.840   6.128   6.991  0.2228  0.0507  0.5175
  147SAPE  H12A16088   4.790   6.209   7.048  1.4776  0.6191  0.8267
  147SAPE  H12B16089   4.792   6.029   7.011 -1.9390  0.3945 -2.2776
  147SAPE   C1116090   4.849   6.147   6.837 -0.1462 -0.4848  0.7879
  147SAPE  H11A16091   4.745   6.131   6.801 -0.6584 -0.0005  2.0050
  147SAPE  H11B16092   4.921   6.068   6.805 -2.4356 -2.4684  0.2440
  147SAPE     P16093   4.806   6.392   6.775  0.3395  0.2890 -0.2528
  147SAPE   O1316094   4.686   6.386   6.865  0.0421 -0.3153  0.2180
  147SAPE   O1416095   4.882   6.516   6.763 -0.2861 -0.3821 -0.0513
  147SAPE   O1216096   4.897   6.277   6.812 -0.2563  0.2389  0.5075
  147SAPE   O1116097   4.757   6.350   6.630  0.5034  0.1412  0.2536
  147SAPE    C116098   4.828   6.280   6.527 -0.2507  0.3189 -0.3537
  147SAPE    HA16099   4.932   6.266   6.564 -0.3520  0.6133  0.0417
  147SAPE    HB16100   4.782   6.181   6.506  0.0011 -0.1885  1.3228
  147SAPE    C216101   4.835   6.357   6.392 -0.1665 -0.0445  0.0371
  147SAPE    HS16102   4.888   6.454   6.405 -0.4703  0.4692 -2.1391
  147SAPE   O2116103   4.707   6.371   6.332  0.7832  0.2458 -0.2207
  147SAPE   C2116104   4.681   6.488   6.264 -0.6504  0.0735 -0.1410
  147SAPE   O2216105   4.767   6.570   6.238 -0.3606 -0.6537 -0.6187
  147SAPE   C2216106   4.532   6.492   6.223  0.6270  0.2119  0.1911
  147SAPE   H2R16107   4.473   6.478   6.316 -0.9457 -0.6508 -0.8867
  147SAPE   H2S16108   4.518   6.596   6.187 -2.2054 -0.3311 -0.5176
  147SAPE    C316109   4.928   6.280   6.297  0.9166  0.3585 -0.1835
  147SAPE    HX16110   4.913   6.171   6.287  2.0401 -0.0303  1.8558
  147SAPE    HY16111   5.028   6.293   6.342  0.5518  1.8956  0.2459
  147SAPE   O3116112   4.912   6.330   6.154 -0.2690  0.1485  0.3946
  147SAPE   C3116113   5.011   6.417   6.113  0.1928  0.0432  0.3687
  147SAPE   O3216114   5.103   6.442   6.189 -0.0315  0.3159  0.6101
  147SAPE   C3216115   4.999   6.475   5.967 -0.9219  0.2030 -0.4316
  147SAPE   H2X16116   4.911   6.543   5.952 -0.4497  0.8212 -0.4483
  147SAPE   H2Y16117   4.991   6.388   5.898  0.9915 -0.0666 -0.3635
  147SAPE   C2316118   4.489   6.398   6.111  0.2089 -0.0017 -0.4288
  147SAPE   H3R16119   4.380   6.416   6.101  0.2192  1.1574  1.2289
  147SAPE   H3S16120   4.499   6.290   6.135 -0.6331  0.0759  0.3479
  147SAPE   C2416121   4.567   6.414   5.976 -0.1550  0.3807 -0.1092
  147SAPE   H4R16122   4.527   6.335   5.909  1.9191 -2.1867  1.4487
  147SAPE   H4S16123   4.674   6.392   5.993  0.0576  1.7434  0.4343
  147SAPE   C2516124   4.555   6.549   5.909 -0.2993  0.3277  0.3822
  147SAPE   H5R16125   4.579   6.635   5.972  2.0416  0.7190 -0.9461
  147SAPE   C2616126   4.512   6.572   5.776  0.0247 -0.5837 -0.5278
  147SAPE   H6R16127   4.500   6.679   5.753  1.4135  0.2599  2.2565
  147SAPE   C2716128   4.469   6.476   5.672  0.3002  0.3666  0.3381
  147SAPE   H7R16129   4.544   6.394   5.659  0.3996  0.4182  0.5776
  147SAPE   H7S16130   4.463   6.531   5.575 -1.2958  0.5994  0.5469
  147SAPE   C2816131   4.333   6.413   5.693  0.1771 -0.0832 -0.5466
  147SAPE   H8R16132   4.294   6.447   5.790  2.5290  0.2189  0.3681
  147SAPE   C2916133   4.239   6.381   5.598  0.8805 -0.6043 -0.3221
  147SAPE   H9R16134   4.136   6.355   5.627 -0.3970  2.4163 -1.7275
  147SAPE  C21016135   4.264   6.353   5.455 -0.0483 -0.2004 -0.1142
  147SAPE  H10R16136   4.234   6.247   5.435  2.1821 -0.8902 -0.1090
  147SAPE  H10S16137   4.374   6.349   5.438  0.0505  2.2528 -0.3754
  147SAPE  C21116138   4.197   6.448   5.359 -0.1085  0.3704 -0.0845
  147SAPE  H11R16139   4.213   6.555   5.379  2.6309  0.0215  0.0236
  147SAPE  C21216140   4.116   6.408   5.259 -0.2310  0.0394 -0.6710
  147SAPE  H12R16141   4.076   6.476   5.182 -2.0087 -0.3212 -0.1239
  147SAPE  C21316142   4.080   6.267   5.222  0.3561  0.3149  0.2921
  147SAPE  H13R16143   4.048   6.211   5.312 -1.0304 -0.9066 -0.9214
  147SAPE  H13S16144   4.173   6.223   5.180  0.7108  1.5078 -0.2143
  147SAPE  C21416145   3.967   6.251   5.125 -0.5835 -0.0241 -0.2046
  147SAPE  H14R16146   3.872   6.220   5.170 -2.2955  0.4639 -3.1708
  147SAPE  C21516147   3.964   6.276   4.996  0.6922 -0.3559  0.8734
  147SAPE  H15R16148   3.869   6.260   4.942  2.4939  1.1051 -3.1014
  147SAPE  C21616149   4.069   6.339   4.918  0.7334  0.0209  0.4397
  147SAPE  H16R16150   4.153   6.374   4.982 -0.6297  0.4655  2.0755
  147SAPE  H16S16151   4.035   6.438   4.882  0.8463  0.5411  1.7144
  147SAPE  C21716152   4.128   6.247   4.806  1.0782  0.3159  0.1838
  147SAPE  H17R16153   4.216   6.299   4.763 -0.2815  0.9497 -2.0068
  147SAPE  H17S16154   4.054   6.213   4.731  2.3811 -3.0423  0.2447
  147SAPE  C21816155   4.186   6.116   4.866 -0.4971  0.4124 -0.2957
  147SAPE  H18R16156   4.104   6.049   4.899  0.9885 -1.6431 -0.6428
  147SAPE  H18S16157   4.233   6.143   4.963 -0.4488  0.4567 -0.3316
  147SAPE  C21916158   4.287   6.042   4.784 -0.5800  0.1806 -0.1196
  147SAPE  H19R16159   4.350   6.122   4.740 -3.4802  1.8885 -1.4143
  147SAPE  H19S16160   4.238   5.987   4.702  0.4283  0.7423 -1.1199
  147SAPE  C22016161   4.374   5.947   4.874 -0.1688 -0.2944  0.3392
  147SAPE  H20R16162   4.438   6.010   4.939 -0.6570  0.1182  0.4287
  147SAPE  H20S16163   4.446   5.897   4.806  0.3903 -1.5325  1.7897
  147SAPE  H20T16164   4.319   5.870   4.933  0.2246  0.6329  1.9505
  147SAPE   C3316165   5.134   6.539   5.923 -0.6170 -0.2282 -0.2518
  147SAPE   H3X16166   5.140   6.553   5.813  1.2022 -2.9024 -0.6061
  147SAPE   H3Y16167   5.223   6.477   5.946  0.7805  1.3395 -1.2106
  147SAPE   C3416168   5.149   6.682   5.982 -0.1027 -0.6189  0.0705
  147SAPE   H4X16169   5.256   6.705   5.965 -0.1966 -1.6956 -2.4690
  147SAPE   H4Y16170   5.123   6.689   6.090 -4.7749 -0.0737 -0.8820
  147SAPE   C3516171   5.061   6.783   5.913  0.3426 -0.3138  0.2499
  147SAPE   H5X16172   4.967   6.799   5.971 -0.3226 -0.9991 -0.6198
  147SAPE   H5Y16173   5.027   6.744   5.815 -0.8693 -1.0427  0.9288
  147SAPE   C3616174   5.119   6.924   5.898  0.7176  0.0091  0.2556
  147SAPE   H6X16175   5.142   6.977   5.992  0.2180  0.0795  0.3417
  147SAPE   H6Y16176   5.044   6.989   5.848 -0.6723  2.6478  5.1486
  147SAPE   C3716177   5.248   6.936   5.816  0.5969  0.4335 -0.0101
  147SAPE   H7X16178   5.341   6.895   5.863  0.5473 -0.3295 -0.5591
  147SAPE   H7Y16179   5.256   7.046   5.800 -0.3742  1.2886  4.1052
  147SAPE   C3816180   5.217   6.868   5.683 -0.5725  0.4641 -0.1288
  147SAPE   H8X16181   5.120   6.901   5.641 -0.8891  0.7599  0.8129
  147SAPE   H8Y16182   5.221   6.757   5.689 -0.6870  0.4639 -0.0634
  147SAPE   C3916183   5.324   6.917   5.591 -0.0331  0.4689  0.7623
  147SAPE   H9X16184   5.417   6.863   5.617 -1.0139 -1.7380 -0.0690
  147SAPE   H9Y16185   5.333   7.026   5.609  0.2120  0.8555 -1.3621
  147SAPE  C31016186   5.293   6.879   5.451  0.2497  0.3503  0.2051
  147SAPE  H10X16187   5.189   6.873   5.414  0.3757 -2.4098  0.1267
  147SAPE  H10Y16188   5.319   6.772   5.444  1.2284  0.6577 -1.5178
  147SAPE  C31116189   5.371   6.965   5.349  0.2479 -0.3680 -0.2157
  147SAPE  H11X16190   5.472   6.921   5.337  0.8365  0.7540  0.3874
  147SAPE  H11Y16191   5.390   7.065   5.393 -2.9365  0.7396 -1.1093
  147SAPE  C31216192   5.307   6.975   5.211  1.3729 -0.9996  0.4465
  147SAPE  H12X16193   5.371   7.042   5.149 -0.6245  1.3956  0.8170
  147SAPE  H12Y16194   5.208   7.023   5.220  1.2808 -1.4480  2.1532
  147SAPE  C31316195   5.275   6.847   5.149 -1.3659 -0.0335  0.3607
  147SAPE  H13X16196   5.196   6.802   5.213 -0.7036  1.3740  2.2529
  147SAPE  H13Y16197   5.362   6.778   5.149 -0.3901  1.1567 -0.1734
  147SAPE  C31416198   5.232   6.864   5.000 -0.5816  0.1763  0.6365
  147SAPE  H14X16199   5.322   6.889   4.940 -1.4405  1.9076 -0.0007
  147SAPE  H14Y16200   5.163   6.951   5.004  1.1826  1.7534 -0.8912
  147SAPE  C31516201   5.168   6.743   4.930 -0.1274 -0.4317 -0.0128
  147SAPE  H15X16202   5.233   6.654   4.941  0.2818  0.0040  1.4186
  147SAPE  H15Y16203   5.151   6.761   4.822 -2.7223 -1.9809  0.0636
  147SAPE  C31616204   5.032   6.709   4.995 -0.3822  0.2532 -0.6439
  147SAPE  H16X16205   4.988   6.791   5.054  0.4863  1.0536 -1.0907
  147SAPE  H16Y16206   5.053   6.629   5.069  2.8141 -0.5438 -2.2153
  147SAPE  C31716207   4.921   6.670   4.892 -0.6634 -0.1691  0.1077
  147SAPE  H17X16208   4.921   6.756   4.821  0.4160 -1.0911 -1.0705
  147SAPE  H17Y16209   4.827   6.663   4.950 -0.8218  1.8832  0.1725
  147SAPE  C31816210   4.942   6.541   4.815 -0.1161  0.1220  0.2745
  147SAPE  H18X16211   5.014   6.553   4.731 -1.8087  0.6084 -1.1499
  147SAPE  H18Y16212   4.842   6.509   4.781 -0.2581  0.1266  0.6846
  147SAPE  H18Z16213   4.985   6.462   4.879  1.2886  0.7004  0.0929
  148SAPE     N16214   3.958   6.452   6.561 -0.3981  0.3240  0.0181
  148SAPE   HN116215   3.939   6.502   6.650 -1.0681 -0.6898  0.4703
  148SAPE   HN216216   4.058   6.427   6.552  0.0710  2.4872 -1.7451
  148SAPE   HN316217   3.937   6.519   6.484 -1.1739 -1.7699 -1.6909
  148SAPE   C1216218   3.886   6.330   6.549  0.0796  0.6871 -0.0516
  148SAPE  H12A16219   3.887   6.282   6.650  0.1055  1.3704  0.2820
  148SAPE  H12B16220   3.939   6.262   6.480  0.3509  1.3660 -0.5207
  148SAPE   C1116221   3.733   6.342   6.520  0.4213 -0.6656  0.2819
  148SAPE  H11A16222   3.693   6.240   6.540  1.2156 -1.2890 -1.1460
  148SAPE  H11B16223   3.722   6.387   6.418 -0.4490  0.1669  0.7210
  148SAPE     P16224   3.519   6.464   6.618  0.5270  0.3173 -0.1501
  148SAPE   O1316225   3.447   6.339   6.646 -0.1125  0.0685 -0.1281
  148SAPE   O1416226   3.479   6.578   6.703  0.3982 -0.4591  0.4488
  148SAPE   O1216227   3.676   6.431   6.611  0.1150 -0.6650  0.8953
  148SAPE   O1116228   3.489   6.502   6.469  1.0492 -0.0340 -0.2026
  148SAPE    C116229   3.554   6.611   6.407  0.4076  0.1744  0.4618
  148SAPE    HA16230   3.644   6.650   6.458  1.9457  0.4224 -2.2707
  148SAPE    HB16231   3.585   6.581   6.305  0.0068 -0.8641  0.6294
  148SAPE    C216232   3.458   6.739   6.415 -0.2507  0.1772 -0.4573
  148SAPE    HS16233   3.398   6.735   6.508 -0.5498  0.7860 -0.6181
  148SAPE   O2116234   3.371   6.748   6.299 -0.1324 -0.7783 -0.1033
  148SAPE   C2116235   3.266   6.829   6.317  0.2257 -0.1876  0.4992
  148SAPE   O2216236   3.243   6.893   6.411  0.1046 -0.1372 -0.2084
  148SAPE   C2216237   3.178   6.833   6.187 -0.0662  0.6581 -1.2718
  148SAPE   H2R16238   3.154   6.727   6.164 -0.2626  0.8033 -1.7530
  148SAPE   H2S16239   3.079   6.878   6.209 -0.3385  0.7576 -2.6323
  148SAPE    C316240   3.555   6.867   6.415  0.0328 -0.4511 -0.5065
  148SAPE    HX16241   3.607   6.857   6.513 -3.2936  0.8976  1.5578
  148SAPE    HY16242   3.485   6.953   6.421  1.7393  0.9359  5.0281
  148SAPE   O3116243   3.642   6.870   6.297 -0.1410 -0.2983  0.6476
  148SAPE   C3116244   3.628   6.978   6.225 -0.3797 -0.4252  0.2282
  148SAPE   O3216245   3.558   7.072   6.238  0.2179 -0.1069 -0.0714
  148SAPE   C3216246   3.731   6.973   6.108  0.3449 -0.3515 -0.3886
  148SAPE   H2X16247   3.816   6.906   6.134 -1.1635 -0.8777  3.8589
  148SAPE   H2Y16248   3.754   7.081   6.114 -1.8011  0.0578  3.1718
  148SAPE   C2316249   3.247   6.906   6.070 -0.5882 -0.0611 -0.2548
  148SAPE   H3R16250   3.343   6.852   6.050 -0.8900 -0.8014  0.2295
  148SAPE   H3S16251   3.279   7.007   6.103  2.1359 -1.0910  0.6251
  148SAPE   C2416252   3.172   6.913   5.936 -0.0891  1.0458  0.2180
  148SAPE   H4R16253   3.104   7.000   5.943 -0.0887  0.9710  1.2538
  148SAPE   H4S16254   3.113   6.819   5.937  0.3904  0.7347 -0.2743
  148SAPE   C2516255   3.278   6.918   5.820  0.2532  0.2070  0.0121
  148SAPE   H5R16256   3.333   6.823   5.812  0.7929  0.6661 -3.2306
  148SAPE   C2616257   3.291   7.018   5.728  0.3771 -1.2164 -0.4107
  148SAPE   H6R16258   3.371   7.014   5.653 -0.5753  1.1714 -1.6748
  148SAPE   C2716259   3.213   7.145   5.738 -0.7650  0.0692  0.1692
  148SAPE   H7R16260   3.275   7.219   5.683 -0.3687 -0.4368 -0.0659
  148SAPE   H7S16261   3.208   7.181   5.843 -3.4677  0.0114  0.1471
  148SAPE   C2816262   3.081   7.135   5.674  0.8978  0.6690  0.1046
  148SAPE   H8R16263   3.011   7.072   5.730  0.1225 -0.9403 -2.4637
  148SAPE   C2916264   3.039   7.168   5.551 -0.7661  0.0874  0.3945
  148SAPE   H9R16265   2.935   7.147   5.521 -0.1999 -0.0455 -1.6083
  148SAPE  C21016266   3.121   7.216   5.438 -0.7854 -0.0310  0.1012
  148SAPE  H10R16267   3.100   7.148   5.353  0.4914  0.1149 -0.3567
  148SAPE  H10S16268   3.229   7.197   5.456 -0.4368 -1.0817 -2.5824
  148SAPE  C21116269   3.096   7.364   5.412  0.0791  0.0851  1.0169
  148SAPE  H11R16270   3.008   7.408   5.462 -1.2935 -2.1796  0.7292
  148SAPE  C21216271   3.158   7.439   5.320 -0.7536 -0.0680  0.3775
  148SAPE  H12R16272   3.130   7.545   5.308 -0.1977 -0.0409 -0.8326
  148SAPE  C21316273   3.283   7.391   5.238 -0.6008  0.0496  0.5688
  148SAPE  H13R16274   3.306   7.283   5.247  2.7900  0.5836 -0.2235
  148SAPE  H13S16275   3.363   7.455   5.282 -0.0252  2.0174 -3.0010
  148SAPE  C21416276   3.279   7.432   5.091  0.2326 -0.3256  0.3469
  148SAPE  H14R16277   3.305   7.536   5.070  1.5921 -0.3981  1.4876
  148SAPE  C21516278   3.229   7.355   4.984 -1.7067  0.0390 -0.1901
  148SAPE  H15R16279   3.225   7.394   4.881 -0.0844 -1.3775 -0.8291
  148SAPE  C21616280   3.186   7.213   4.996  0.3117  0.1715  0.2416
  148SAPE  H16R16281   3.130   7.206   5.091  0.7745  2.5516  0.7429
  148SAPE  H16S16282   3.274   7.147   5.015  0.1950  0.5600  2.3270
  148SAPE  C21716283   3.101   7.164   4.875 -0.3365 -0.5243  0.4391
  148SAPE  H17R16284   3.018   7.235   4.853 -2.6457 -3.0174  0.4826
  148SAPE  H17S16285   3.037   7.076   4.898 -0.9197 -0.1326  0.3601
  148SAPE  C21816286   3.188   7.126   4.752  0.5038 -0.5964 -0.1664
  148SAPE  H18R16287   3.253   7.039   4.779 -1.5200 -1.8947  0.7422
  148SAPE  H18S16288   3.248   7.210   4.713 -0.3256 -0.9299 -2.3017
  148SAPE  C21916289   3.097   7.082   4.639  0.0688 -0.5782 -0.2615
  148SAPE  H19R16290   3.164   7.064   4.552  1.6675  0.6968  0.6456
  148SAPE  H19S16291   3.031   7.164   4.603 -1.3626 -1.8468 -0.6465
  148SAPE  C22016292   3.002   6.965   4.672 -0.2337 -0.4385 -0.4061
  148SAPE  H20R16293   2.947   6.941   4.578 -0.3653  0.8014 -0.6593
  148SAPE  H20S16294   2.927   7.004   4.744 -0.6615 -0.3407 -0.8942
  148SAPE  H20T16295   3.060   6.879   4.713  2.7484  2.5827  2.2144
  148SAPE   C3316296   3.657   6.929   5.974  0.6417 -0.0101 -0.1596
  148SAPE   H3X16297   3.555   6.969   5.990  1.2656  0.4700  3.4421
  148SAPE   H3Y16298   3.654   6.818   5.969 -1.2385  0.0183 -0.5168
  148SAPE   C3416299   3.724   6.978   5.852 -0.5535  0.1435  1.1794
  148SAPE   H4X16300   3.679   6.924   5.767  1.3169  0.3561  0.0045
  148SAPE   H4Y16301   3.829   6.943   5.856 -0.3508  0.3735 -1.0170
  148SAPE   C3516302   3.731   7.127   5.825  0.3970  0.0774 -0.8698
  148SAPE   H5X16303   3.809   7.171   5.892 -0.1744  0.9064 -0.7363
  148SAPE   H5Y16304   3.634   7.178   5.841 -0.4428 -1.2395 -1.5815
  148SAPE   C3616305   3.770   7.168   5.682  0.4384 -0.0597 -0.0824
  148SAPE   H6X16306   3.854   7.106   5.644  1.5483  0.2261  1.7479
  148SAPE   H6Y16307   3.789   7.277   5.690 -3.2008  0.7366 -0.5722
  148SAPE   C3716308   3.649   7.147   5.588 -0.4745  0.3050  0.4149
  148SAPE   H7X16309   3.564   7.202   5.634 -1.2105 -1.4278  1.2099
  148SAPE   H7Y16310   3.624   7.039   5.586 -0.0387  0.1837  1.2486
  148SAPE   C3816311   3.688   7.189   5.448 -0.1115  0.1237 -0.0224
  148SAPE   H8X16312   3.769   7.129   5.401 -1.7319 -0.0886 -2.6983
  148SAPE   H8Y16313   3.717   7.296   5.440 -1.9091  0.6531  0.0897
  148SAPE   C3916314   3.570   7.185   5.347 -0.1005  0.2835  0.1557
  148SAPE   H9X16315   3.485   7.237   5.394 -0.4444 -0.5521  0.4731
  148SAPE   H9Y16316   3.546   7.078   5.330  0.0239  0.4190 -0.9828
  148SAPE  C31016317   3.600   7.256   5.209  0.2383  0.0340  0.0969
  148SAPE  H10X16318   3.569   7.363   5.216 -1.7958 -0.4552 -0.5905
  148SAPE  H10Y16319   3.544   7.201   5.131  1.3570 -0.3405 -0.4605
  148SAPE  C31116320   3.754   7.256   5.169  0.7730 -0.8551  0.6837
  148SAPE  H11X16321   3.790   7.151   5.170  1.3187 -0.6660  1.1035
  148SAPE  H11Y16322   3.818   7.316   5.237 -1.7298  0.1849  2.2671
  148SAPE  C31216323   3.784   7.310   5.030  0.3839  0.0226 -0.2169
  148SAPE  H12X16324   3.756   7.417   5.018 -1.7010 -0.3458  0.8255
  148SAPE  H12Y16325   3.733   7.248   4.953 -2.6546 -0.5673  2.0731
  148SAPE  C31316326   3.933   7.307   5.007  0.1793  0.2742 -0.0418
  148SAPE  H13X16327   3.960   7.200   5.000  0.5100  0.3806 -0.4505
  148SAPE  H13Y16328   3.983   7.368   5.086 -1.6684  1.3457  0.3651
  148SAPE  C31416329   3.977   7.373   4.884 -0.6681  0.2140 -0.8314
  148SAPE  H14X16330   4.086   7.356   4.874 -0.5423  0.2553  0.3240
  148SAPE  H14Y16331   3.953   7.482   4.882  3.5767  1.3789  1.2263
  148SAPE  C31516332   3.934   7.311   4.751  0.4152 -1.0212  0.1184
  148SAPE  H15X16333   3.832   7.345   4.722  1.5587  1.1332 -1.7518
  148SAPE  H15Y16334   3.933   7.201   4.760 -0.7333 -1.0688 -0.4206
  148SAPE  C31616335   4.018   7.351   4.624 -0.3893  0.6365 -0.3467
  148SAPE  H16X16336   4.127   7.338   4.641 -0.5546  0.4374  0.6658
  148SAPE  H16Y16337   3.999   7.458   4.600 -0.0042  0.7659 -0.0738
  148SAPE  C31716338   3.980   7.262   4.503 -0.0225  0.2287 -0.0103
  148SAPE  H17X16339   3.882   7.295   4.464 -0.2635 -0.3475  0.0998
  148SAPE  H17Y16340   3.966   7.157   4.534 -1.7394  0.6694  0.8237
  148SAPE  C31816341   4.083   7.274   4.388 -0.0954  0.0055  0.4160
  148SAPE  H18X16342   4.125   7.377   4.378 -0.8117  0.2622 -0.0295
  148SAPE  H18Y16343   4.028   7.251   4.294  0.1141  2.4791 -0.3854
  148SAPE  H18Z16344   4.167   7.203   4.405  0.6778  0.4035 -1.3811
  149SAPE     N16345   3.372   3.129   6.739 -0.2892 -0.1810  0.0293
  149SAPE   HN116346   3.473   3.110   6.758 -0.2642  0.2844  0.3696
  149SAPE   HN216347   3.317   3.166   6.819 -1.9382 -1.5692 -0.3925
  149SAPE   HN316348   3.325   3.037   6.725 -1.5017  0.5378 -0.7169
  149SAPE   C1216349   3.344   3.205   6.618  0.2006  0.6018 -0.0901
  149SAPE  H12A16350   3.346   3.127   6.539 -0.1794 -0.3542  0.8148
  149SAPE  H12B16351   3.419   3.285   6.609  0.8151  0.3642  2.2577
  149SAPE   C1116352   3.197   3.259   6.625  0.1430 -0.8558  0.1863
  149SAPE  H11A16353   3.177   3.304   6.525 -0.6188  1.6444  1.3782
  149SAPE  H11B16354   3.199   3.340   6.701 -0.1023  0.6457 -1.3462
  149SAPE     P16355   2.979   3.108   6.567 -0.3750 -0.1626 -0.3489
  149SAPE   O1316356   3.050   3.033   6.460 -0.4720  0.8392  0.0286
  149SAPE   O1416357   2.884   3.034   6.658  0.2838  0.0684 -0.1888
  149SAPE   O1216358   3.097   3.163   6.656  0.0043  0.2318 -0.0364
  149SAPE   O1116359   2.915   3.240   6.512 -0.2494 -0.3049  0.0049
  149SAPE    C116360   2.782   3.284   6.535  1.1564 -0.3213 -0.6084
  149SAPE    HA16361   2.774   3.320   6.640  0.7438  1.1811 -1.1238
  149SAPE    HB16362   2.770   3.379   6.478  1.9482  0.3084  0.2380
  149SAPE    C216363   2.668   3.190   6.491 -0.7698 -0.9868  0.3726
  149SAPE    HS16364   2.657   3.107   6.564 -0.5119  0.0450  1.6154
  149SAPE   O2116365   2.717   3.138   6.360 -0.1290 -0.3758  0.1192
  149SAPE   C2116366   2.640   3.039   6.305  0.5593 -0.4697  1.0182
  149SAPE   O2216367   2.536   2.991   6.349  0.4690 -0.0776  0.1393
  149SAPE   C2216368   2.719   2.970   6.191 -0.3956  0.0208  0.3424
  149SAPE   H2R16369   2.728   3.025   6.095 -0.9745 -2.2465 -1.1126
  149SAPE   H2S16370   2.825   2.954   6.220  0.4271  1.1706 -1.7921
  149SAPE    C316371   2.521   3.247   6.497 -0.5722  0.1383 -0.2506
  149SAPE    HX16372   2.504   3.276   6.603 -0.1629 -0.3198 -0.0576
  149SAPE    HY16373   2.453   3.163   6.474 -0.4613 -0.6212  1.9457
  149SAPE   O3116374   2.495   3.355   6.412 -0.3424  0.1407  0.0996
  149SAPE   C3116375   2.423   3.459   6.469 -0.2129 -0.1361 -0.4940
  149SAPE   O3216376   2.366   3.445   6.579 -0.1358  0.0447  0.2946
  149SAPE   C3216377   2.417   3.576   6.381  0.3899 -0.3959 -0.0510
  149SAPE   H2X16378   2.474   3.559   6.287 -0.1094  1.0937 -0.6590
  149SAPE   H2Y16379   2.470   3.664   6.425  0.5220 -0.3946 -0.2117
  149SAPE   C2316380   2.667   2.835   6.141 -0.3335 -0.4198 -0.3514
  149SAPE   H3R16381   2.557   2.850   6.128 -0.6486 -1.1177  1.2698
  149SAPE   H3S16382   2.680   2.766   6.227  0.6272 -2.0553 -1.7274
  149SAPE   C2416383   2.740   2.782   6.019 -0.1291 -0.0363 -0.6886
  149SAPE   H4R16384   2.716   2.674   6.029  0.4783 -0.1112  0.0714
  149SAPE   H4S16385   2.849   2.773   6.041 -0.3154 -1.3031 -0.2192
  149SAPE   C2516386   2.730   2.843   5.880 -0.4212  1.1485 -0.1657
  149SAPE   H5R16387   2.763   2.948   5.881 -1.4482  1.4793 -0.3577
  149SAPE   C2616388   2.676   2.787   5.766  0.2576  0.0610 -0.2602
  149SAPE   H6R16389   2.680   2.842   5.671 -0.3417 -1.3551 -1.1372
  149SAPE   C2716390   2.622   2.652   5.756  0.8502  0.5079  0.6973
  149SAPE   H7R16391   2.653   2.585   5.840  1.5793 -0.8861 -0.6343
  149SAPE   H7S16392   2.675   2.605   5.670  0.5609 -1.2077  1.4079
  149SAPE   C2816393   2.472   2.652   5.744 -0.4402  0.6389 -0.8202
  149SAPE   H8R16394   2.427   2.686   5.838  0.5062  0.0614 -0.1407
  149SAPE   C2916395   2.400   2.623   5.630  0.1610  0.7276 -0.6705
  149SAPE   H9R16396   2.291   2.620   5.643  0.5743 -1.4858  4.6200
  149SAPE  C21016397   2.463   2.597   5.502  0.3242 -0.0661 -0.1120
  149SAPE  H10R16398   2.529   2.510   5.524 -0.1573  0.0890  2.1964
  149SAPE  H10S16399   2.508   2.692   5.466 -1.0970 -0.1955 -2.4266
  149SAPE  C21116400   2.356   2.552   5.409  0.2553  0.2633  0.2091
  149SAPE  H11R16401   2.354   2.444   5.388  0.6520  0.1591  0.6983
  149SAPE  C21216402   2.285   2.630   5.328 -0.1921  0.2289  0.3786
  149SAPE  H12R16403   2.214   2.581   5.260  1.4354  0.4008 -1.5055
  149SAPE  C21316404   2.267   2.782   5.339 -0.3828 -0.1582  0.4424
  149SAPE  H13R16405   2.288   2.818   5.442  2.3658  1.2982 -0.5367
  149SAPE  H13S16406   2.165   2.822   5.319  0.1407  0.5170 -1.0100
  149SAPE  C21416407   2.355   2.857   5.242  0.7814  0.1686 -0.2547
  149SAPE  H14R16408   2.441   2.791   5.221  0.6281 -0.4664  0.9777
  149SAPE  C21516409   2.341   2.971   5.178 -0.7301 -0.4854 -0.2944
  149SAPE  H15R16410   2.418   2.986   5.100 -0.7041  0.9545 -0.0282
  149SAPE  C21616411   2.230   3.072   5.178 -0.3138  0.1574 -0.2594
  149SAPE  H16R16412   2.259   3.174   5.212 -2.1607  0.5550  0.2185
  149SAPE  H16S16413   2.145   3.030   5.236  0.6276  0.0076  1.0691
  149SAPE  C21716414   2.182   3.073   5.036  0.0011  0.6556  0.4339
  149SAPE  H17R16415   2.074   3.098   5.030 -0.7971 -2.6434 -3.0437
  149SAPE  H17S16416   2.185   2.969   4.999 -0.3992  0.2717  1.4487
  149SAPE  C21816417   2.268   3.164   4.939  0.8972 -0.8042  0.3541
  149SAPE  H18R16418   2.311   3.242   5.006 -2.6748  2.8982 -1.2692
  149SAPE  H18S16419   2.200   3.223   4.874  0.6451 -0.0604  1.2751
  149SAPE  C21916420   2.358   3.098   4.843 -0.2904 -0.6067 -0.5518
  149SAPE  H19R16421   2.304   3.023   4.781  0.7560 -1.4934 -0.4219
  149SAPE  H19S16422   2.431   3.050   4.912 -1.7020 -1.1201  0.6209
  149SAPE  C22016423   2.429   3.192   4.745  0.7251 -0.3896  0.5844
  149SAPE  H20R16424   2.486   3.267   4.803 -0.3208  1.5314 -0.7525
  149SAPE  H20S16425   2.360   3.252   4.682  2.5806 -0.3566 -1.5829
  149SAPE  H20T16426   2.498   3.126   4.687  1.2350 -1.2063  2.0691
  149SAPE   C3316427   2.275   3.615   6.351 -0.5273  0.2303 -0.1102
  149SAPE   H3X16428   2.277   3.704   6.284 -1.8986  0.4327  0.0831
  149SAPE   H3Y16429   2.219   3.635   6.445  1.4029 -1.2218  1.4198
  149SAPE   C3416430   2.202   3.505   6.278 -1.0690 -0.0942  0.1217
  149SAPE   H4X16431   2.101   3.547   6.260 -1.9498 -3.2088 -3.3737
  149SAPE   H4Y16432   2.189   3.413   6.339  1.6798 -1.3896 -1.0869
  149SAPE   C3516433   2.255   3.460   6.139 -0.4077  0.4940 -0.0055
  149SAPE   H5X16434   2.187   3.383   6.097  1.5521 -1.0100 -0.5558
  149SAPE   H5Y16435   2.356   3.413   6.145  0.8246  3.0188  0.8730
  149SAPE   C3616436   2.249   3.572   6.037 -0.3749 -0.0393  0.6883
  149SAPE   H6X16437   2.329   3.643   6.067 -0.2848 -0.1275  0.6597
  149SAPE   H6Y16438   2.153   3.627   6.050 -0.4580 -0.0064  0.0039
  149SAPE   C3716439   2.260   3.514   5.896 -0.1216  0.1044  0.0737
  149SAPE   H7X16440   2.179   3.442   5.869  0.5238 -0.3852 -0.6063
  149SAPE   H7Y16441   2.353   3.454   5.893 -0.7596 -0.9196  0.2647
  149SAPE   C3816442   2.283   3.626   5.797 -0.1019  0.3680 -0.6762
  149SAPE   H8X16443   2.349   3.708   5.832 -1.7701  1.0843  0.9253
  149SAPE   H8Y16444   2.181   3.670   5.787  0.1476  1.2756  0.6374
  149SAPE   C3916445   2.324   3.565   5.661  0.0052  0.8164  0.3350
  149SAPE   H9X16446   2.260   3.485   5.619  2.1086 -0.2903 -0.9334
  149SAPE   H9Y16447   2.422   3.513   5.667 -0.4006  0.1156  1.0753
  149SAPE  C31016448   2.326   3.680   5.552 -0.1273  0.1218 -1.0098
  149SAPE  H10X16449   2.414   3.744   5.575 -0.8507  0.8437 -0.1343
  149SAPE  H10Y16450   2.231   3.737   5.543 -0.8154 -0.7817  0.1626
  149SAPE  C31116451   2.361   3.614   5.418  0.1456  0.2233  0.3065
  149SAPE  H11X16452   2.271   3.568   5.373 -0.4199  3.3163 -2.0874
  149SAPE  H11Y16453   2.441   3.539   5.436 -1.1277 -0.8268  1.8661
  149SAPE  C31216454   2.396   3.724   5.308 -0.5263  0.6015 -0.0392
  149SAPE  H12X16455   2.491   3.774   5.332 -1.1539  1.5736  0.4757
  149SAPE  H12Y16456   2.318   3.804   5.314  0.7523  1.8475  0.3944
  149SAPE  C31316457   2.406   3.678   5.162  0.9762  0.8118  0.0938
  149SAPE  H13X16458   2.327   3.611   5.124  2.0779 -1.0818  0.9950
  149SAPE  H13Y16459   2.484   3.600   5.146 -1.5879 -1.6986 -0.9209
  149SAPE  C31416460   2.397   3.800   5.063  0.0590 -1.4056  0.1311
  149SAPE  H14X16461   2.464   3.884   5.089 -0.1200 -0.2490 -2.8367
  149SAPE  H14Y16462   2.295   3.840   5.081  0.6183 -0.2852  0.9699
  149SAPE  C31516463   2.426   3.759   4.923 -0.3179  0.0905 -0.4003
  149SAPE  H15X16464   2.328   3.716   4.894 -1.0965  1.2087  0.5003
  149SAPE  H15Y16465   2.507   3.684   4.911 -0.1939 -0.6489  3.5722
  149SAPE  C31616466   2.453   3.874   4.826  0.0489 -0.1341  0.2574
  149SAPE  H16X16467   2.556   3.914   4.835 -0.1492  0.1820  1.3521
  149SAPE  H16Y16468   2.385   3.955   4.858  0.5747  1.9179 -3.3289
  149SAPE  C31716469   2.440   3.840   4.684  0.4744 -0.7478 -0.2385
  149SAPE  H17X16470   2.474   3.735   4.668  0.6231 -0.9972  1.5040
  149SAPE  H17Y16471   2.495   3.912   4.619  0.7675 -0.2782  0.5200
  149SAPE  C31816472   2.292   3.841   4.621 -0.4041  0.4747 -1.3280
  149SAPE  H18X16473   2.233   3.760   4.669 -1.5708  1.1521 -1.5788
  149SAPE  H18Y16474   2.298   3.815   4.513 -1.8918  0.7100 -1.4858
  149SAPE  H18Z16475   2.239   3.938   4.636  0.2365  0.5735  0.4964
  150SAPE     N16476   5.070   3.350   6.963 -0.2672  0.4195 -0.3739
  150SAPE   HN116477   5.037   3.421   6.894 -1.1245 -0.3671 -0.7748
  150SAPE   HN216478   4.987   3.290   6.976  0.8314 -1.7164 -2.5799
  150SAPE   HN316479   5.106   3.394   7.050 -0.2509 -1.0868  0.4031
  150SAPE   C1216480   5.178   3.262   6.915  0.4388  0.1397  0.9731
  150SAPE  H12A16481   5.140   3.203   6.828  1.1263  0.6204  0.3306
  150SAPE  H12B16482   5.214   3.197   6.997  3.5101  0.1276 -0.2710
  150SAPE   C1116483   5.304   3.339   6.884 -0.3363  0.5471 -0.1778
  150SAPE  H11A16484   5.386   3.268   6.858 -1.0246 -0.0407 -0.8163
  150SAPE  H11B16485   5.362   3.388   6.965  1.7421  1.0748 -1.8650
  150SAPE     P16486   5.361   3.450   6.657 -0.3827  0.3437 -0.0142
  150SAPE   O1316487   5.302   3.556   6.575  0.4161 -0.1346 -0.5222
  150SAPE   O1416488   5.506   3.463   6.684  0.4073  0.0679 -0.0773
  150SAPE   O1216489   5.280   3.448   6.793  0.7290 -0.0818  0.3481
  150SAPE   O1116490   5.331   3.308   6.610  0.1733  0.0880  0.3746
  150SAPE    C116491   5.207   3.286   6.538 -0.0539  0.1220  0.0337
  150SAPE    HA16492   5.160   3.196   6.582  0.2482 -0.2508 -0.4016
  150SAPE    HB16493   5.131   3.365   6.555 -0.3261 -0.4781  1.7108
  150SAPE    C216494   5.228   3.264   6.386  0.5678  0.0347  0.1195
  150SAPE    HS16495   5.259   3.161   6.362 -0.6568 -0.9956  2.5789
  150SAPE   O2116496   5.326   3.354   6.336 -0.1797 -0.6362  0.3372
  150SAPE   C2116497   5.457   3.313   6.330 -0.1849 -0.2770  0.2254
  150SAPE   O2216498   5.490   3.202   6.367  0.1849 -0.3399 -0.3351
  150SAPE   C2216499   5.536   3.416   6.253  0.0757 -0.4492 -0.3236
  150SAPE   H2R16500   5.492   3.449   6.157 -0.6923  2.3816  0.9036
  150SAPE   H2S16501   5.547   3.504   6.321  0.7206 -0.6119 -0.2088
  150SAPE    C316502   5.092   3.284   6.305 -0.2934  0.1966 -0.2015
  150SAPE    HX16503   5.061   3.389   6.320 -1.5700  0.1259 -2.0242
  150SAPE    HY16504   5.033   3.196   6.341  1.4817 -1.9131 -2.1385
  150SAPE   O3116505   5.104   3.251   6.168  0.5097  0.2465  0.5761
  150SAPE   C3116506   5.134   3.348   6.079  0.1064  0.3804 -0.3863
  150SAPE   O3216507   5.146   3.467   6.101  0.3769  0.2474 -0.5487
  150SAPE   C3216508   5.133   3.294   5.939  0.7735 -0.5156  0.4837
  150SAPE   H2X16509   5.058   3.215   5.920  0.9635 -0.9570  1.5234
  150SAPE   H2Y16510   5.223   3.230   5.932 -0.5919 -2.4573  0.0592
  150SAPE   C2316511   5.676   3.361   6.226  0.3382 -0.5065  0.2592
  150SAPE   H3R16512   5.668   3.284   6.147  0.8689  0.3841 -0.6794
  150SAPE   H3S16513   5.723   3.322   6.319  0.0523  1.4692  1.2975
  150SAPE   C2416514   5.764   3.468   6.161  0.6430  0.3585  0.5402
  150SAPE   H4R16515   5.702   3.494   6.073 -0.7374 -4.4177 -0.1774
  150SAPE   H4S16516   5.852   3.412   6.125  0.6163  0.8078 -0.2424
  150SAPE   C2516517   5.811   3.582   6.249 -0.0288  0.2600 -0.5190
  150SAPE   H5R16518   5.883   3.556   6.328  0.4540 -0.8200 -1.2951
  150SAPE   C2616519   5.782   3.713   6.225 -0.6000  0.1430 -0.4415
  150SAPE   H6R16520   5.832   3.789   6.287 -1.8991  0.6384  0.0217
  150SAPE   C2716521   5.693   3.776   6.123  1.3414 -0.5838 -0.4227
  150SAPE   H7R16522   5.737   3.748   6.026 -0.3618 -4.1113 -0.3616
  150SAPE   H7S16523   5.699   3.886   6.136 -4.4800  0.0678 -0.2407
  150SAPE   C2816524   5.548   3.735   6.142 -0.3203 -0.7018  0.1304
  150SAPE   H8R16525   5.522   3.695   6.241 -0.7812 -0.1532  0.2369
  150SAPE   C2916526   5.440   3.761   6.071  0.1366  0.1138  0.2450
  150SAPE   H9R16527   5.354   3.698   6.097  0.8342 -0.9657 -0.0101
  150SAPE  C21016528   5.436   3.843   5.940 -0.6417  0.0838 -0.5868
  150SAPE  H10R16529   5.413   3.950   5.960 -0.9069 -0.1331  0.3128
  150SAPE  H10S16530   5.354   3.804   5.876 -0.5701  0.4848 -0.9323
  150SAPE  C21116531   5.555   3.831   5.848 -0.5154  0.3424  0.0270
  150SAPE  H11R16532   5.604   3.732   5.844 -0.1952  0.5317 -3.3153
  150SAPE  C21216533   5.613   3.930   5.779  0.0683  0.1501  0.4241
  150SAPE  H12R16534   5.705   3.904   5.723  0.8537 -1.1054  2.2038
  150SAPE  C21316535   5.560   4.069   5.753 -0.1871  0.9121 -0.4127
  150SAPE  H13R16536   5.611   4.128   5.832  0.3740  1.3003 -1.0503
  150SAPE  H13S16537   5.450   4.073   5.765 -0.4529 -1.3532 -1.5347
  150SAPE  C21416538   5.595   4.127   5.620 -1.1337  0.3906  0.5291
  150SAPE  H14R16539   5.675   4.202   5.627 -0.3179 -0.5922  2.2004
  150SAPE  C21516540   5.545   4.095   5.494  0.6536  0.8737 -0.2658
  150SAPE  H15R16541   5.581   4.133   5.397 -0.2449  0.8683 -0.6070
  150SAPE  C21616542   5.439   3.986   5.480  0.4345  0.7062  0.3713
  150SAPE  H16R16543   5.397   3.955   5.577 -0.9395 -1.1275 -0.7533
  150SAPE  H16S16544   5.492   3.899   5.437 -1.3372  0.6578 -1.9228
  150SAPE  C21716545   5.319   4.010   5.375 -0.0466  0.4398 -0.0253
  150SAPE  H17R16546   5.233   4.068   5.417 -0.4475  0.5082 -0.9142
  150SAPE  H17S16547   5.280   3.907   5.361 -2.1950  1.2964 -0.8027
  150SAPE  C21816548   5.376   4.067   5.245 -0.8668  0.8278 -0.2234
  150SAPE  H18R16549   5.448   3.987   5.215 -2.4471  0.1545 -2.4395
  150SAPE  H18S16550   5.424   4.167   5.257 -2.3755  1.6853 -0.9759
  150SAPE  C21916551   5.263   4.094   5.140  0.1550  0.6528 -0.3781
  150SAPE  H19R16552   5.175   4.134   5.194 -0.9176 -0.3938 -1.2806
  150SAPE  H19S16553   5.226   3.998   5.097  3.6171 -0.5462 -0.9764
  150SAPE  C22016554   5.319   4.191   5.030 -0.2875  0.2511 -0.9446
  150SAPE  H20R16555   5.403   4.141   4.979  0.6626  1.4349 -0.5884
  150SAPE  H20S16556   5.344   4.289   5.076  0.8599 -1.1384  1.5988
  150SAPE  H20T16557   5.246   4.193   4.947 -0.6626 -0.3142 -0.6363
  150SAPE   C3316558   5.155   3.395   5.827  0.2729 -0.5766 -0.6468
  150SAPE   H3X16559   5.252   3.445   5.843 -1.2461  1.8447  1.7840
  150SAPE   H3Y16560   5.091   3.484   5.840 -1.6504 -2.3214  4.5679
  150SAPE   C3416561   5.135   3.348   5.684 -1.1641 -0.2180 -0.5711
  150SAPE   H4X16562   5.159   3.436   5.620 -0.5712  0.6651  0.8249
  150SAPE   H4Y16563   5.027   3.328   5.672 -1.2676  1.2365 -2.7543
  150SAPE   C3516564   5.220   3.231   5.641  0.3721 -0.1337  0.0909
  150SAPE   H5X16565   5.158   3.147   5.603  0.8971  0.7693 -3.0506
  150SAPE   H5Y16566   5.268   3.196   5.735 -3.1855 -1.7203  1.5024
  150SAPE   C3616567   5.317   3.273   5.527  0.5537 -0.1864 -0.3243
  150SAPE   H6X16568   5.364   3.372   5.547 -0.1643 -0.2403  1.9714
  150SAPE   H6Y16569   5.253   3.287   5.437  0.4447  0.5294 -0.1427
  150SAPE   C3716570   5.431   3.176   5.497 -0.2048 -0.0510 -0.0813
  150SAPE   H7X16571   5.513   3.151   5.567 -1.0959 -1.5546  0.4697
  150SAPE   H7Y16572   5.479   3.207   5.402  0.8361  3.3832  1.4016
  150SAPE   C3816573   5.382   3.036   5.461  0.7301  0.1345  0.7690
  150SAPE   H8X16574   5.329   2.991   5.548 -3.1021  0.0014 -1.4261
  150SAPE   H8Y16575   5.472   2.973   5.447 -1.5118 -2.6711 -2.7253
  150SAPE   C3916576   5.280   3.016   5.343 -0.4443 -0.4529 -0.0345
  150SAPE   H9X16577   5.316   3.084   5.263 -0.5792 -0.0369  0.2567
  150SAPE   H9Y16578   5.183   3.057   5.378  0.6100  2.3872 -0.1927
  150SAPE  C31016579   5.273   2.871   5.306 -0.3485  0.8836 -0.8446
  150SAPE  H10X16580   5.241   2.817   5.397  3.6512 -1.2051 -0.4750
  150SAPE  H10Y16581   5.370   2.818   5.296 -0.5443  0.2255  0.4562
  150SAPE  C31116582   5.171   2.838   5.196  0.1284 -0.1101  0.2869
  150SAPE  H11X16583   5.071   2.843   5.243  0.2718  0.4932  0.5383
  150SAPE  H11Y16584   5.194   2.733   5.166  1.5678  0.1626  0.3515
  150SAPE  C31216585   5.177   2.917   5.061 -0.3038  0.5805 -1.3410
  150SAPE  H12X16586   5.283   2.924   5.027  1.4202 -2.7403  2.4383
  150SAPE  H12Y16587   5.148   3.021   5.084  1.2592  0.4802  1.4998
  150SAPE  C31316588   5.094   2.857   4.946 -0.1582 -0.2677  0.0425
  150SAPE  H13X16589   4.988   2.878   4.973 -0.8543 -1.3308 -1.6778
  150SAPE  H13Y16590   5.111   2.747   4.948 -1.6802 -0.5371 -0.4400
  150SAPE  C31416591   5.121   2.932   4.812  0.1618  0.4756 -0.0645
  150SAPE  H14X16592   5.073   2.877   4.728  2.2024 -1.5228 -0.0178
  150SAPE  H14Y16593   5.227   2.943   4.780  0.3661 -1.4248 -0.1356
  150SAPE  C31516594   5.059   3.076   4.821  0.2443 -0.3455  0.2615
  150SAPE  H15X16595   5.146   3.137   4.852  1.7058  0.0830 -3.9732
  150SAPE  H15Y16596   4.982   3.077   4.901  0.7348 -1.3669  0.7573
  150SAPE  C31616597   4.987   3.117   4.690  0.4250  0.3521  0.1057
  150SAPE  H16X16598   4.967   3.226   4.699 -1.8324 -0.1759  2.9228
  150SAPE  H16Y16599   4.889   3.067   4.677  1.6344 -1.7217 -1.8350
  150SAPE  C31716600   5.054   3.080   4.557 -0.1502  0.0399  0.2209
  150SAPE  H17X16601   4.994   3.116   4.471  0.5783 -0.9584 -0.7307
  150SAPE  H17Y16602   5.049   2.970   4.551 -0.5262  0.0533  0.2835
  150SAPE  C31816603   5.204   3.127   4.532 -0.4766  0.0785 -0.7690
  150SAPE  H18X16604   5.272   3.071   4.600 -0.4224  1.5196  0.3949
  150SAPE  H18Y16605   5.212   3.237   4.540 -1.8294  0.3977 -2.8964
  150SAPE  H18Z16606   5.229   3.103   4.426 -0.0968  2.6397 -1.3291
  151SAPE     N16607   5.388   1.801   6.902 -0.0316 -0.2671 -0.5809
  151SAPE   HN116608   5.438   1.712   6.884  0.4272 -0.6410  2.0843
  151SAPE   HN216609   5.384   1.855   6.814 -0.1224 -0.9927 -1.0290
  151SAPE   HN316610   5.447   1.861   6.963 -1.7800  0.6871  0.2723
  151SAPE   C1216611   5.256   1.756   6.963 -0.3815  0.0570  0.6491
  151SAPE  H12A16612   5.281   1.707   7.060  0.7781  0.7675  0.7339
  151SAPE  H12B16613   5.216   1.679   6.895 -0.6310  1.7783 -1.2569
  151SAPE   C1116614   5.150   1.867   6.973  0.0922  0.6854 -0.3947
  151SAPE  H11A16615   5.180   1.946   7.045  2.2680 -0.1166 -0.3467
  151SAPE  H11B16616   5.058   1.827   7.020 -2.2152  2.7873 -2.7636
  151SAPE     P16617   5.002   2.036   6.843  0.3158  0.0823 -0.2160
  151SAPE   O1316618   4.873   1.969   6.891 -0.0493  0.4470  0.4037
  151SAPE   O1416619   5.045   2.169   6.906 -0.6805  0.6315  0.7401
  151SAPE   O1216620   5.117   1.927   6.848 -0.9603 -0.1129 -0.0075
  151SAPE   O1116621   5.002   2.057   6.683  0.4301 -0.2351 -0.3796
  151SAPE    C116622   4.936   1.971   6.589 -0.1869  0.2838 -0.2553
  151SAPE    HA16623   4.916   1.869   6.628  0.3020  1.2564  2.7309
  151SAPE    HB16624   4.831   2.003   6.574 -0.1975 -0.2710 -1.5074
  151SAPE    C216625   5.010   1.973   6.455  0.3043  0.1753  0.0534
  151SAPE    HS16626   5.097   1.906   6.469 -0.1391  0.1102  3.7448
  151SAPE   O2116627   5.039   2.107   6.410 -0.0874 -0.2078  0.5505
  151SAPE   C2116628   5.148   2.166   6.460 -0.4771  0.2908 -0.5753
  151SAPE   O2216629   5.224   2.114   6.539  0.2481 -0.6524  0.2593
  151SAPE   C2216630   5.165   2.303   6.405  1.2608  0.0564  0.1837
  151SAPE   H2R16631   5.139   2.382   6.479 -0.3528  2.2073 -2.4539
  151SAPE   H2S16632   5.268   2.320   6.369  0.9904  2.0325  0.1959
  151SAPE    C316633   4.913   1.912   6.349 -0.6940 -0.7165  0.2436
  151SAPE    HX16634   4.838   1.988   6.316 -0.1350 -1.0438 -1.9113
  151SAPE    HY16635   4.846   1.840   6.401 -1.6238 -0.1759 -0.1627
  151SAPE   O3116636   4.985   1.836   6.238  0.2132 -0.0805  0.1360
  151SAPE   C3116637   4.925   1.854   6.122 -0.2489  0.4407  0.1652
  151SAPE   O3216638   4.818   1.911   6.107  0.3601  0.2225 -0.1593
  151SAPE   C3216639   5.017   1.801   6.005 -0.6824 -0.2476  0.4315
  151SAPE   H2X16640   5.075   1.719   6.053 -0.7295 -1.3256 -1.2578
  151SAPE   H2Y16641   5.079   1.889   5.980  0.9056 -1.2614  0.7050
  151SAPE   C2316642   5.062   2.354   6.290  0.6052  0.4819  0.4203
  151SAPE   H3R16643   4.957   2.353   6.324  0.0209  0.1491 -1.2731
  151SAPE   H3S16644   5.069   2.289   6.200  0.0114  0.0669  0.6701
  151SAPE   C2416645   5.088   2.502   6.257  0.6725  0.0110 -0.8232
  151SAPE   H4R16646   5.194   2.499   6.223  0.7658 -0.1716 -0.5195
  151SAPE   H4S16647   5.085   2.563   6.350  0.5330 -1.1480 -0.0467
  151SAPE   C2516648   5.006   2.577   6.157 -1.0401  0.5369  0.4469
  151SAPE   H5R16649   4.922   2.625   6.209  0.2651  1.3900  1.8742
  151SAPE   C2616650   5.035   2.606   6.026  0.3820  1.0675 -0.0624
  151SAPE   H6R16651   4.960   2.659   5.966 -1.2213 -0.9365  0.0391
  151SAPE   C2716652   5.144   2.530   5.945  0.4000  0.0275 -0.5764
  151SAPE   H7R16653   5.155   2.432   5.997 -0.5515 -0.1737 -0.7485
  151SAPE   H7S16654   5.242   2.582   5.947  0.9842 -0.9718 -1.9314
  151SAPE   C2816655   5.101   2.503   5.804 -0.5359 -0.3308  0.8795
  151SAPE   H8R16656   5.029   2.421   5.792  1.5613 -2.1005 -0.5900
  151SAPE   C2916657   5.157   2.555   5.691 -0.0137  0.3380 -0.2708
  151SAPE   H9R16658   5.118   2.537   5.590  1.0860 -1.5163 -0.4123
  151SAPE  C21016659   5.271   2.653   5.700  0.0324 -0.2371  0.2281
  151SAPE  H10R16660   5.238   2.734   5.769  0.3451 -0.7683  1.0128
  151SAPE  H10S16661   5.275   2.708   5.603 -2.7372 -0.3933 -0.0616
  151SAPE  C21116662   5.404   2.608   5.749 -0.4653  0.3051 -0.8730
  151SAPE  H11R16663   5.402   2.530   5.828 -3.0837 -1.9414 -2.9538
  151SAPE  C21216664   5.530   2.639   5.705 -0.3230 -0.0161 -0.5015
  151SAPE  H12R16665   5.614   2.591   5.758 -0.7719  0.2477  0.4787
  151SAPE  C21316666   5.571   2.728   5.591  0.6378 -0.7235 -0.4291
  151SAPE  H13R16667   5.483   2.759   5.531  2.9515  1.2989 -3.0182
  151SAPE  H13S16668   5.631   2.669   5.519  2.2709  0.5390 -0.1759
  151SAPE  C21416669   5.661   2.840   5.631 -0.2530  1.5431 -0.5339
  151SAPE  H14R16670   5.652   2.866   5.738  0.7523 -0.4195  0.0759
  151SAPE  C21516671   5.747   2.909   5.557 -0.3412 -0.6811  0.5413
  151SAPE  H15R16672   5.816   2.979   5.607  0.0496  1.5299 -2.8174
  151SAPE  C21616673   5.780   2.886   5.411  0.4682 -0.3792 -0.8151
  151SAPE  H16R16674   5.715   2.823   5.348 -0.2701 -0.6205  0.1542
  151SAPE  H16S16675   5.885   2.851   5.402  1.6006  2.1725  1.0101
  151SAPE  C21716676   5.769   3.029   5.343 -0.0767 -0.2685 -0.2307
  151SAPE  H17R16677   5.854   3.094   5.374 -0.5030  1.4993 -2.4618
  151SAPE  H17S16678   5.678   3.089   5.365  0.6242  0.1691  1.6646
  151SAPE  C21816679   5.787   3.031   5.187  0.0458 -0.5222 -0.4221
  151SAPE  H18R16680   5.872   2.962   5.169 -0.9347 -2.0595  0.6190
  151SAPE  H18S16681   5.813   3.130   5.144  0.2342 -0.8294 -1.0247
  151SAPE  C21916682   5.668   2.950   5.118 -0.4129 -0.7950  0.5819
  151SAPE  H19R16683   5.618   2.868   5.175 -0.9261 -0.3857  0.7353
  151SAPE  H19S16684   5.713   2.896   5.032 -0.1661 -0.5846  0.5775
  151SAPE  C22016685   5.556   3.044   5.069  0.0347 -0.6742 -0.0554
  151SAPE  H20R16686   5.477   2.994   5.009 -0.3146  0.8144 -0.8896
  151SAPE  H20S16687   5.609   3.127   5.017  0.5828 -1.5116 -0.8636
  151SAPE  H20T16688   5.506   3.103   5.148  4.0934  1.0163  1.5425
  151SAPE   C3316689   4.944   1.761   5.878 -0.0530 -1.2669  0.2922
  151SAPE   H3X16690   4.876   1.842   5.844  2.1280 -0.4597 -2.4964
  151SAPE   H3Y16691   4.892   1.665   5.899 -1.1433 -0.7422  0.0669
  151SAPE   C3416692   5.048   1.745   5.770 -1.0771  0.3287 -0.1570
  151SAPE   H4X16693   5.113   1.659   5.795  0.1563  1.9949  2.8910
  151SAPE   H4Y16694   5.112   1.835   5.754 -0.6478  0.0887  0.2040
  151SAPE   C3516695   4.979   1.726   5.632 -0.3860 -0.4689 -0.9891
  151SAPE   H5X16696   4.925   1.820   5.610  1.0504  0.7992  0.6125
  151SAPE   H5Y16697   4.903   1.646   5.643 -0.3019 -0.4263 -0.0847
  151SAPE   C3616698   5.081   1.695   5.518 -0.3426  0.3292 -0.3477
  151SAPE   H6X16699   5.137   1.606   5.554 -2.8383 -0.2553  2.4446
  151SAPE   H6Y16700   5.167   1.766   5.523  0.9569 -1.2017 -0.1191
  151SAPE   C3716701   5.028   1.684   5.379 -0.5286  0.0701  0.8402
  151SAPE   H7X16702   5.106   1.639   5.314  0.1110  0.9325  1.0012
  151SAPE   H7Y16703   5.003   1.783   5.333  0.4322 -0.2607 -0.4430
  151SAPE   C3816704   4.919   1.582   5.375  0.5332  0.1129  0.5561
  151SAPE   H8X16705   4.823   1.630   5.408  0.0561 -0.6847  0.3458
  151SAPE   H8Y16706   4.933   1.506   5.455  0.6134 -0.4467  0.0120
  151SAPE   C3916707   4.900   1.507   5.242  0.6376  0.2059 -0.2061
  151SAPE   H9X16708   4.817   1.435   5.254  1.1309 -0.3984 -0.3355
  151SAPE   H9Y16709   4.989   1.443   5.224  0.6210  0.4052 -1.0436
  151SAPE  C31016710   4.874   1.599   5.122  0.1039 -0.1082  0.6633
  151SAPE  H10X16711   4.967   1.629   5.069 -0.1849  1.4571  0.9880
  151SAPE  H10Y16712   4.836   1.701   5.146  1.1816  0.9956 -1.9506
  151SAPE  C31116713   4.778   1.529   5.021  0.2927 -0.1806  1.0724
  151SAPE  H11X16714   4.747   1.608   4.949 -3.3062  0.2348  2.8361
  151SAPE  H11Y16715   4.696   1.494   5.087 -0.2032 -1.0279  0.0290
  151SAPE  C31216716   4.838   1.412   4.945 -0.3823  0.4473  0.0308
  151SAPE  H12X16717   4.887   1.347   5.021  2.6595  1.2415 -1.1259
  151SAPE  H12Y16718   4.919   1.440   4.875  0.2490 -3.1235 -0.8859
  151SAPE  C31316719   4.742   1.332   4.863 -0.3137  0.8286 -0.1776
  151SAPE  H13X16720   4.691   1.391   4.783 -2.2772  0.9355  1.0936
  151SAPE  H13Y16721   4.663   1.299   4.933  0.3122  2.0581  1.1454
  151SAPE  C31416722   4.792   1.204   4.798  0.4434 -0.2532  0.1017
  151SAPE  H14X16723   4.811   1.134   4.882 -0.1599  1.2855  1.5797
  151SAPE  H14Y16724   4.885   1.226   4.743  0.4813 -1.6606 -0.4364
  151SAPE  C31516725   4.683   1.136   4.715 -1.0112  0.4362 -0.3755
  151SAPE  H15X16726   4.598   1.121   4.785  0.0907 -0.3232  0.8384
  151SAPE  H15Y16727   4.728   1.035   4.705  1.2249  1.2025  1.1657
  151SAPE  C31616728   4.631   1.187   4.581 -0.6154  0.9650 -0.2889
  151SAPE  H16X16729   4.645   1.297   4.592  0.3400  0.6855  1.7669
  151SAPE  H16Y16730   4.522   1.168   4.570 -0.5745  0.7037 -0.2395
  151SAPE  C31716731   4.690   1.119   4.459 -0.4353  0.3139 -0.1571
  151SAPE  H17X16732   4.615   1.133   4.378 -1.2239  1.7074  0.7846
  151SAPE  H17Y16733   4.691   1.010   4.482  0.0524  0.2359 -0.5405
  151SAPE  C31816734   4.825   1.184   4.418  0.4932 -0.3936 -0.6645
  151SAPE  H18X16735   4.867   1.147   4.322  0.6304  1.2852 -1.2878
  151SAPE  H18Y16736   4.897   1.161   4.499 -1.5285 -1.7073  0.8745
  151SAPE  H18Z16737   4.812   1.294   4.407 -1.2411 -0.7970 -3.7089
  152SAPE     N16738   6.689   4.400   7.309  0.5807  1.1934 -0.2341
  152SAPE   HN116739   6.783   4.433   7.339  0.7785  1.4851 -1.1325
  152SAPE   HN216740   6.649   4.360   7.396  4.7009 -3.4971 -0.0278
  152SAPE   HN316741   6.692   4.319   7.244  0.1563 -1.9391  3.3113
  152SAPE   C1216742   6.610   4.524   7.271  1.2394 -0.7702  0.0336
  152SAPE  H12A16743   6.621   4.580   7.367  2.6914  1.9121 -1.5786
  152SAPE  H12B16744   6.505   4.496   7.249  0.8043  0.7318  0.0792
  152SAPE   C1116745   6.674   4.603   7.157 -0.6269 -0.2329 -0.8434
  152SAPE  H11A16746   6.625   4.703   7.160  0.7035  0.5203 -2.5278
  152SAPE  H11B16747   6.656   4.568   7.053  5.4594 -0.7341 -2.1318
  152SAPE     P16748   6.925   4.565   7.067  0.2732  0.3699 -0.1095
  152SAPE   O1316749   7.054   4.546   7.143  0.0387  0.1508  0.1361
  152SAPE   O1416750   6.867   4.444   7.012 -0.1376 -0.4733  0.8309
  152SAPE   O1216751   6.818   4.630   7.169 -0.2385 -0.2563 -0.5492
  152SAPE   O1116752   6.933   4.671   6.955 -0.2064  0.4390  0.0670
  152SAPE    C116753   7.059   4.713   6.887 -0.4425 -0.3358 -0.2560
  152SAPE    HA16754   7.054   4.820   6.859  0.8730  0.4152  2.1201
  152SAPE    HB16755   7.141   4.709   6.961 -0.7325 -1.1033  0.0373
  152SAPE    C216756   7.100   4.631   6.760  0.3300 -0.1682 -0.1943
  152SAPE    HS16757   7.196   4.668   6.719 -0.7477  2.2106 -0.7828
  152SAPE   O2116758   6.997   4.638   6.657  0.2877  0.5709  0.0587
  152SAPE   C2116759   6.981   4.746   6.588 -0.1169 -0.2516  0.5225
  152SAPE   O2216760   7.058   4.841   6.592  0.1830  0.3733  0.1588
  152SAPE   C2216761   6.861   4.732   6.487  1.1231  0.2413  0.5965
  152SAPE   H2R16762   6.785   4.659   6.523  0.2102  0.8376 -0.0782
  152SAPE   H2S16763   6.818   4.834   6.488  0.0187 -0.0759 -2.4517
  152SAPE    C316764   7.134   4.487   6.789 -0.0018  0.1451 -0.3606
  152SAPE    HX16765   7.049   4.416   6.780  0.0140  0.2745 -1.7117
  152SAPE    HY16766   7.160   4.482   6.897 -1.7409 -0.3142  0.0600
  152SAPE   O3116767   7.252   4.446   6.718 -0.0574  0.2749  0.2663
  152SAPE   C3116768   7.232   4.387   6.596 -1.0386 -0.0361  0.5087
  152SAPE   O3216769   7.133   4.334   6.558 -0.0502  0.0124  0.0056
  152SAPE   C3216770   7.358   4.376   6.513  1.0301  0.3643  0.2343
  152SAPE   H2X16771   7.432   4.323   6.576  2.9367  0.1063 -2.0662
  152SAPE   H2Y16772   7.411   4.470   6.489  1.8714  0.3371  1.8798
  152SAPE   C2316773   6.907   4.697   6.342  0.6252 -0.1651 -0.2891
  152SAPE   H3R16774   6.973   4.779   6.305  2.7508 -0.4165  2.5731
  152SAPE   H3S16775   6.818   4.698   6.276  0.3178 -1.3512  0.0845
  152SAPE   C2416776   6.980   4.559   6.334  0.4710 -0.0121  0.3353
  152SAPE   H4R16777   7.078   4.574   6.385  1.1555  0.1284 -0.9781
  152SAPE   H4S16778   6.995   4.544   6.225 -2.5298 -1.5464  0.0419
  152SAPE   C2516779   6.906   4.436   6.385 -0.1590 -0.4789 -0.1604
  152SAPE   H5R16780   6.895   4.436   6.495  0.9106  3.0707  0.0863
  152SAPE   C2616781   6.867   4.328   6.313  0.8838  1.1909  0.7682
  152SAPE   H6R16782   6.811   4.250   6.365 -0.4924  1.6238 -0.0144
  152SAPE   C2716783   6.882   4.293   6.161 -0.3471  0.4771 -0.3070
  152SAPE   H7R16784   6.847   4.191   6.134  2.1574 -0.9442  1.4372
  152SAPE   H7S16785   6.992   4.290   6.150 -0.2068  2.0624  0.3119
  152SAPE   C2816786   6.838   4.399   6.068  0.3928 -0.0688  0.2206
  152SAPE   H8R16787   6.808   4.493   6.115  0.3946  0.1646 -0.2361
  152SAPE   C2916788   6.834   4.413   5.939 -0.5130  0.4861 -0.2192
  152SAPE   H9R16789   6.798   4.505   5.891 -1.9956  0.1645  0.2323
  152SAPE  C21016790   6.870   4.304   5.839 -0.2985 -0.7117 -0.2114
  152SAPE  H10R16791   6.877   4.203   5.886 -2.8055  0.0239  2.0347
  152SAPE  H10S16792   6.971   4.322   5.798 -0.8177 -3.6017 -3.2050
  152SAPE  C21116793   6.771   4.288   5.724  0.4750 -0.5383 -0.4568
  152SAPE  H11R16794   6.669   4.270   5.761  1.1872  0.4282  2.1724
  152SAPE  C21216795   6.786   4.284   5.589  0.3537  0.4540 -0.0248
  152SAPE  H12R16796   6.692   4.275   5.532  1.2297  0.9122 -1.5864
  152SAPE  C21316797   6.904   4.314   5.501  0.8515  0.0927  0.7980
  152SAPE  H13R16798   6.939   4.218   5.457  1.7046  0.8145 -0.1601
  152SAPE  H13S16799   6.990   4.360   5.554  1.9523 -0.7881 -0.1669
  152SAPE  C21416800   6.860   4.402   5.388  0.2725 -0.2898  0.6651
  152SAPE  H14R16801   6.876   4.508   5.411 -1.5282  0.3025 -0.6063
  152SAPE  C21516802   6.825   4.365   5.258 -0.1046 -0.4981  0.2302
  152SAPE  H15R16803   6.798   4.451   5.195 -0.0379  1.4712  2.7299
  152SAPE  C21616804   6.801   4.227   5.208 -0.8167 -0.8952  0.4221
  152SAPE  H16R16805   6.704   4.226   5.154 -0.5444  0.6773 -0.1562
  152SAPE  H16S16806   6.792   4.144   5.280 -1.7342 -3.0080 -1.9688
  152SAPE  C21716807   6.902   4.198   5.095 -0.1821  0.2588  0.7007
  152SAPE  H17R16808   6.886   4.097   5.051 -1.4431  0.3069  1.0146
  152SAPE  H17S16809   7.010   4.190   5.120  0.0531 -1.1942 -0.6049
  152SAPE  C21816810   6.894   4.303   4.980 -0.0289  1.0829  0.3205
  152SAPE  H18R16811   6.932   4.395   5.029 -0.9271  1.9079 -0.4989
  152SAPE  H18S16812   6.789   4.322   4.948 -0.5781  2.3675  2.6604
  152SAPE  C21916813   6.991   4.271   4.866  0.3554  0.1872  0.0905
  152SAPE  H19R16814   6.971   4.170   4.824 -0.9620  0.1718  0.7259
  152SAPE  H19S16815   7.095   4.265   4.905  0.0212 -0.4361  0.8895
  152SAPE  C22016816   6.972   4.366   4.750 -0.6014  0.5141 -0.1200
  152SAPE  H20R16817   7.013   4.319   4.658 -0.8691  2.6018 -1.3726
  152SAPE  H20S16818   7.034   4.458   4.759  0.8575 -0.5575  1.6001
  152SAPE  H20T16819   6.865   4.393   4.733 -0.9881  0.3216  1.8131
  152SAPE   C3316820   7.345   4.280   6.389 -0.2087 -0.4716 -0.1716
  152SAPE   H3X16821   7.288   4.189   6.417 -0.1042 -0.7430 -0.8390
  152SAPE   H3Y16822   7.450   4.251   6.372 -0.1604 -0.6265  0.3588
  152SAPE   C3416823   7.290   4.358   6.267 -0.2106  0.6876 -0.8298
  152SAPE   H4X16824   7.357   4.445   6.253  1.8033 -0.6454  0.1448
  152SAPE   H4Y16825   7.185   4.383   6.293  0.4682  0.6216  2.3487
  152SAPE   C3516826   7.290   4.263   6.145  0.5540 -0.2129 -0.0912
  152SAPE   H5X16827   7.233   4.170   6.166  1.3998 -0.7981 -0.3389
  152SAPE   H5Y16828   7.396   4.234   6.134  0.6052  0.3480 -1.2061
  152SAPE   C3616829   7.245   4.325   6.007  0.0240 -0.0323  0.1534
  152SAPE   H6X16830   7.288   4.427   6.003 -1.3207  0.5220 -1.5879
  152SAPE   H6Y16831   7.137   4.348   6.001 -0.0927 -0.6980 -0.4765
  152SAPE   C3716832   7.286   4.245   5.881  0.1020  0.4087  0.0383
  152SAPE   H7X16833   7.244   4.143   5.879  0.8182  0.1092 -0.1438
  152SAPE   H7Y16834   7.397   4.236   5.888  0.1842  0.8327 -0.6362
  152SAPE   C3816835   7.256   4.307   5.747 -0.1206 -0.9639 -0.0660
  152SAPE   H8X16836   7.307   4.404   5.727  0.2249 -1.2116 -0.4092
  152SAPE   H8Y16837   7.147   4.327   5.733 -0.1461 -0.3489  0.9546
  152SAPE   C3916838   7.286   4.207   5.635 -0.0675  0.6408  0.1957
  152SAPE   H9X16839   7.212   4.123   5.637 -0.5333  0.9422 -1.8779
  152SAPE   H9Y16840   7.384   4.156   5.647 -1.1365 -1.1496  2.0671
  152SAPE  C31016841   7.275   4.285   5.505 -0.2321  0.4186 -0.9680
  152SAPE  H10X16842   7.355   4.362   5.512  0.7710 -0.6897  0.2972
  152SAPE  H10Y16843   7.181   4.344   5.506  0.3664  1.3895  0.8864
  152SAPE  C31116844   7.302   4.204   5.378  0.2555  0.0251  0.2907
  152SAPE  H11X16845   7.200   4.193   5.336  0.5777 -1.6745 -0.1124
  152SAPE  H11Y16846   7.336   4.103   5.408  0.4541 -0.6045 -1.8578
  152SAPE  C31216847   7.383   4.283   5.275 -0.4783 -0.3796 -0.8343
  152SAPE  H12X16848   7.475   4.323   5.324  0.1267 -1.4045 -1.1066
  152SAPE  H12Y16849   7.327   4.369   5.231 -0.7588  0.4853  1.1110
  152SAPE  C31316850   7.430   4.188   5.167  0.0044  0.0869 -0.0517
  152SAPE  H13X16851   7.362   4.103   5.143 -0.3294  0.2827  0.2010
  152SAPE  H13Y16852   7.519   4.136   5.210  0.1324 -0.1173 -0.5551
  152SAPE  C31416853   7.486   4.248   5.039 -0.2744  0.4407 -0.2011
  152SAPE  H14X16854   7.534   4.163   4.985 -2.5792  0.8827 -3.2705
  152SAPE  H14Y16855   7.556   4.325   5.077 -0.7910  0.2820  1.1263
  152SAPE  C31516856   7.386   4.297   4.941  1.0403  0.1423 -0.8749
  152SAPE  H15X16857   7.347   4.397   4.971  0.0219 -0.5395  0.1618
  152SAPE  H15Y16858   7.306   4.221   4.939  1.4726 -0.5972  2.6528
  152SAPE  C31616859   7.442   4.305   4.803 -0.6939  0.0008 -0.8093
  152SAPE  H16X16860   7.505   4.214   4.790  0.4556  0.3996  1.3910
  152SAPE  H16Y16861   7.520   4.384   4.803  2.2948 -2.7333  0.0261
  152SAPE  C31716862   7.348   4.337   4.689  0.1492  0.0481  0.0088
  152SAPE  H17X16863   7.294   4.428   4.723  2.0945  0.4275  2.3352
  152SAPE  H17Y16864   7.275   4.255   4.674  0.9410 -0.4679 -1.2041
  152SAPE  C31816865   7.432   4.363   4.560 -0.0838 -0.1725 -0.2407
  152SAPE  H18X16866   7.454   4.266   4.511 -1.0018 -1.0311  0.9740
  152SAPE  H18Y16867   7.532   4.398   4.594 -1.2322  0.9980  2.2429
  152SAPE  H18Z16868   7.384   4.435   4.490  2.6373  0.1869 -1.8732
  153SAPE     N16869   0.140   3.076   6.742  0.0639 -0.1754  0.3739
  153SAPE   HN116870   0.104   3.025   6.826  0.8682 -0.7586  0.3810
  153SAPE   HN216871   0.224   3.133   6.765  0.0745 -1.1274  3.0028
  153SAPE   HN316872   0.065   3.143   6.716  0.5999  0.0754 -0.5890
  153SAPE   C1216873   0.158   2.990   6.623  0.4870  0.5854  0.6079
  153SAPE  H12A16874   0.266   2.961   6.619  0.6078  1.1111 -0.8899
  153SAPE  H12B16875   0.142   3.052   6.532  0.6782  1.6981  1.3243
  153SAPE   C1116876   0.062   2.870   6.629 -0.4754  0.6556  0.2809
  153SAPE  H11A16877   0.098   2.803   6.549  0.5374  2.1319 -0.5433
  153SAPE  H11B16878  -0.044   2.895   6.610 -1.7649 -1.0421  4.1562
  153SAPE     P16879  -0.014   2.686   6.796 -0.3028 -0.2176 -0.1087
  153SAPE   O1316880   0.060   2.605   6.892  0.4635  0.2032  0.2061
  153SAPE   O1416881  -0.138   2.750   6.845  0.2172 -0.4639  0.0536
  153SAPE   O1216882   0.084   2.803   6.754  0.5021 -0.1999 -0.2465
  153SAPE   O1116883  -0.035   2.615   6.658  0.5425 -0.1305 -0.0203
  153SAPE    C116884  -0.157   2.622   6.584  0.1240 -0.2719  0.4748
  153SAPE    HA16885  -0.199   2.519   6.591 -0.9654  0.2627  2.7220
  153SAPE    HB16886  -0.232   2.691   6.628 -0.7626  1.2378 -3.0816
  153SAPE    C216887  -0.137   2.652   6.431  0.6848 -0.1683  0.0447
  153SAPE    HS16888  -0.107   2.759   6.428 -1.7463  0.5605 -0.5827
  153SAPE   O2116889  -0.257   2.626   6.350  0.3071 -0.0273 -0.2481
  153SAPE   C2116890  -0.358   2.714   6.370  0.0051  0.0225 -0.7283
  153SAPE   O2216891  -0.358   2.813   6.444 -1.3011  0.0146 -0.1554
  153SAPE   C2216892  -0.473   2.686   6.267 -0.4907  0.0347 -1.3115
  153SAPE   H2R16893  -0.568   2.710   6.318  0.2679  1.2447 -0.4266
  153SAPE   H2S16894  -0.461   2.762   6.187  1.0150  0.9118 -0.2930
  153SAPE    C316895  -0.017   2.567   6.367  0.3196  0.4043 -0.2723
  153SAPE    HX16896  -0.052   2.462   6.368 -0.5870  0.7033  0.1933
  153SAPE    HY16897   0.075   2.585   6.426 -0.7060 -0.6595  1.7213
  153SAPE   O3116898  -0.001   2.602   6.230 -0.4476 -0.4535 -0.0444
  153SAPE   C3116899   0.087   2.706   6.203 -0.4622  0.6464 -0.2969
  153SAPE   O3216900   0.139   2.778   6.287 -0.0921 -0.6721 -0.3598
  153SAPE   C3216901   0.099   2.716   6.051  0.1039  0.1961  0.6765
  153SAPE   H2X16902  -0.000   2.750   6.014  0.7677  1.8452  0.3063
  153SAPE   H2Y16903   0.119   2.617   6.004  1.3797  0.8321 -0.1702
  153SAPE   C2316904  -0.471   2.552   6.198  0.1417  0.2939 -0.4679
  153SAPE   H3R16905  -0.429   2.477   6.268  0.9542  0.6902 -0.5134
  153SAPE   H3S16906  -0.402   2.549   6.110  1.7600 -1.0683  0.7798
  153SAPE   C2416907  -0.603   2.492   6.148 -0.4575 -0.0200 -0.5888
  153SAPE   H4R16908  -0.658   2.561   6.079  1.1934  0.2546 -1.6813
  153SAPE   H4S16909  -0.680   2.484   6.228 -0.1120 -0.6605 -0.3142
  153SAPE   C2516910  -0.578   2.363   6.065 -0.5905  0.3079 -0.4478
  153SAPE   H5R16911  -0.550   2.387   5.961 -1.0106  0.5804 -0.5005
  153SAPE   C2616912  -0.581   2.237   6.111  0.1869 -0.0489  0.0111
  153SAPE   H6R16913  -0.567   2.147   6.048 -0.9358 -2.3496  2.8064
  153SAPE   C2716914  -0.604   2.196   6.251  0.9496 -0.2466 -0.0849
  153SAPE   H7R16915  -0.580   2.276   6.324  0.2645 -0.1706  0.0617
  153SAPE   H7S16916  -0.533   2.114   6.278 -1.0690 -1.7976  0.7347
  153SAPE   C2816917  -0.741   2.128   6.281  0.2299  0.0255  0.4929
  153SAPE   H8R16918  -0.815   2.194   6.329  0.0910 -1.4574  2.4573
  153SAPE   C2916919  -0.779   2.002   6.267 -0.3320  0.2067  0.7833
  153SAPE   H9R16920  -0.885   1.985   6.288  0.1896 -1.5776  2.2569
  153SAPE  C21016921  -0.701   1.883   6.210 -0.4341  0.3511  0.2366
  153SAPE  H10R16922  -0.650   1.822   6.288  2.0647 -0.2503 -1.7288
  153SAPE  H10S16923  -0.610   1.928   6.164  0.2507 -0.8904  0.3355
  153SAPE  C21116924  -0.785   1.791   6.118  0.8678 -0.0569  0.4098
  153SAPE  H11R16925  -0.869   1.733   6.160 -0.6887  0.2636 -2.0420
  153SAPE  C21216926  -0.767   1.772   5.989  0.5601  0.1873  0.5735
  153SAPE  H12R16927  -0.838   1.699   5.946  1.4766  0.4235 -1.4563
  153SAPE  C21316928  -0.663   1.831   5.907  0.1449  0.2089  0.3801
  153SAPE  H13R16929  -0.561   1.817   5.949  0.5871 -3.6089 -1.5301
  153SAPE  H13S16930  -0.686   1.937   5.881  2.3416  0.7523  0.3791
  153SAPE  C21416931  -0.639   1.768   5.770  0.4747  0.0018 -0.6512
  153SAPE  H14R16932  -0.662   1.663   5.748  1.9093 -0.1546 -1.5110
  153SAPE  C21516933  -0.608   1.844   5.660  0.7753  0.8028 -0.4953
  153SAPE  H15R16934  -0.610   1.792   5.563 -1.5604  1.0950 -0.6594
  153SAPE  C21616935  -0.563   1.983   5.654  0.1123  0.2907 -0.4564
  153SAPE  H16R16936  -0.480   1.993   5.579 -0.6311  0.2960 -1.2944
  153SAPE  H16S16937  -0.517   2.014   5.750  1.8399 -0.1381 -1.0920
  153SAPE  C21716938  -0.674   2.081   5.617 -0.4681  0.4628  0.1293
  153SAPE  H17R16939  -0.625   2.179   5.603  2.1287 -0.2857  2.9514
  153SAPE  H17S16940  -0.752   2.086   5.696 -0.6640  2.4466 -0.1572
  153SAPE  C21816941  -0.766   2.053   5.492  0.1265  0.7653  0.3921
  153SAPE  H18R16942  -0.833   1.966   5.510 -0.0672  0.8852  0.2569
  153SAPE  H18S16943  -0.707   2.033   5.399 -1.3120  0.0406 -0.3973
  153SAPE  C21916944  -0.863   2.171   5.455  0.4416 -0.3845 -0.1731
  153SAPE  H19R16945  -0.808   2.267   5.443  1.4122 -0.8963  0.0260
  153SAPE  H19S16946  -0.936   2.187   5.537 -0.0234 -4.1359  0.2973
  153SAPE  C22016947  -0.935   2.141   5.320  0.1739  0.3171 -0.1189
  153SAPE  H20R16948  -0.856   2.109   5.250  2.1477  0.0697  2.0914
  153SAPE  H20S16949  -1.004   2.219   5.281 -1.3403 -1.2049 -0.6188
  153SAPE  H20T16950  -1.004   2.054   5.324  0.2743 -0.1206 -4.0918
  153SAPE   C3316951   0.200   2.825   6.002 -0.3378  0.5088 -0.4590
  153SAPE   H3X16952   0.298   2.774   6.011 -0.2552  0.7400 -0.0158
  153SAPE   H3Y16953   0.182   2.913   6.068 -0.2146  1.4768 -1.6878
  153SAPE   C3416954   0.169   2.871   5.857 -0.4529 -0.4464 -0.2565
  153SAPE   H4X16955   0.253   2.940   5.836 -0.0481 -0.1403  2.0818
  153SAPE   H4Y16956   0.072   2.925   5.854 -0.2018  0.2888  2.4127
  153SAPE   C3516957   0.174   2.758   5.755  0.4334  0.6921  0.0235
  153SAPE   H5X16958   0.104   2.677   5.786  1.4969 -0.4187 -0.3920
  153SAPE   H5Y16959   0.271   2.703   5.753  0.2324  0.3553 -0.7321
  153SAPE   C3616960   0.144   2.802   5.612 -0.2333 -0.0094 -0.0219
  153SAPE   H6X16961   0.042   2.846   5.610 -0.4886 -0.5606  0.6235
  153SAPE   H6Y16962   0.128   2.710   5.551  1.0533  0.9597 -1.9590
  153SAPE   C3716963   0.258   2.886   5.545  0.1851  0.0358  0.7242
  153SAPE   H7X16964   0.350   2.827   5.565 -0.0146 -0.6047 -0.1518
  153SAPE   H7Y16965   0.259   2.976   5.609 -0.5594  0.3653  0.2931
  153SAPE   C3816966   0.237   2.923   5.399  0.0499  0.2282  0.0339
  153SAPE   H8X16967   0.142   2.977   5.379  0.0868  0.1790 -0.2744
  153SAPE   H8Y16968   0.235   2.834   5.334 -0.8542  0.1443  0.1716
  153SAPE   C3916969   0.340   3.014   5.321  0.2739 -0.2096 -0.3529
  153SAPE   H9X16970   0.437   2.959   5.316 -0.0139 -0.6926 -0.7491
  153SAPE   H9Y16971   0.355   3.109   5.375 -0.7078 -0.6687  0.7618
  153SAPE  C31016972   0.301   3.039   5.171  0.4263  0.1274 -0.3118
  153SAPE  H10X16973   0.198   3.078   5.179 -0.5241 -1.9455 -1.7696
  153SAPE  H10Y16974   0.300   2.944   5.113  2.1803 -0.5513  0.6973
  153SAPE  C31116975   0.396   3.141   5.109 -0.5966 -0.0327 -0.1506
  153SAPE  H11X16976   0.483   3.080   5.080  0.1238  1.3598 -1.0631
  153SAPE  H11Y16977   0.420   3.220   5.184 -1.6515  0.1202  0.0434
  153SAPE  C31216978   0.339   3.210   4.986  0.6435  0.0900  0.6089
  153SAPE  H12X16979   0.230   3.231   4.996  0.6204  0.1168  0.3066
  153SAPE  H12Y16980   0.350   3.139   4.901 -2.0997  1.8689 -1.4077
  153SAPE  C31316981   0.408   3.345   4.941 -1.1794  0.3835 -0.1922
  153SAPE  H13X16982   0.511   3.322   4.907 -1.0920 -1.8428  1.3567
  153SAPE  H13Y16983   0.425   3.405   5.032  1.3142 -2.0644  1.1094
  153SAPE  C31416984   0.330   3.420   4.838  0.1853  0.4181  0.2111
  153SAPE  H14X16985   0.226   3.408   4.874  0.5403 -1.6653  0.6973
  153SAPE  H14Y16986   0.326   3.368   4.740  3.0248  0.6262 -0.1179
  153SAPE  C31516987   0.365   3.569   4.811 -0.4978  0.4778 -0.3501
  153SAPE  H15X16988   0.382   3.580   4.702  0.5462  1.3279 -0.1181
  153SAPE  H15Y16989   0.465   3.595   4.852  0.1744 -2.8280  0.4412
  153SAPE  C31616990   0.258   3.672   4.866 -0.0255  0.4335  0.1265
  153SAPE  H16X16991   0.256   3.659   4.976  2.4752  1.0753  0.3029
  153SAPE  H16Y16992   0.161   3.653   4.816 -0.0417 -1.7033  0.8628
  153SAPE  C31716993   0.292   3.816   4.843  0.8658 -0.6242  0.2448
  153SAPE  H17X16994   0.281   3.828   4.733 -0.2618  0.3142  0.4394
  153SAPE  H17Y16995   0.401   3.830   4.860  0.7683  1.2725 -0.4636
  153SAPE  C31816996   0.205   3.918   4.919 -0.4502 -0.7662 -0.2783
  153SAPE  H18X16997   0.097   3.909   4.896 -0.0202 -0.5093 -2.6297
  153SAPE  H18Y16998   0.232   4.022   4.890 -4.5001  0.8565  1.0417
  153SAPE  H18Z16999   0.215   3.913   5.030  0.7530  0.2580 -0.3180
  154SAPE     N17000   5.067   1.151   6.691  0.4262 -0.9431  0.0199
  154SAPE   HN117001   5.124   1.067   6.673  0.1431 -0.6455 -2.6745
  154SAPE   HN217002   5.139   1.220   6.720  1.2168 -2.6167  2.3279
  154SAPE   HN317003   4.987   1.141   6.758 -0.8788 -0.5443 -1.4123
  154SAPE   C1217004   5.017   1.200   6.553 -0.0671  0.4882  0.0964
  154SAPE  H12A17005   4.987   1.113   6.491 -0.4792 -0.0768  1.0632
  154SAPE  H12B17006   5.099   1.262   6.510 -0.3367  0.6117 -0.2465
  154SAPE   C1117007   4.887   1.283   6.572  0.2069 -0.0260  0.3762
  154SAPE  H11A17008   4.804   1.222   6.614  1.1278 -1.0638  0.7370
  154SAPE  H11B17009   4.857   1.322   6.472 -3.3757 -2.1927  0.4536
  154SAPE     P17010   4.967   1.530   6.627  0.5813 -0.3133 -0.3357
  154SAPE   O1317011   4.855   1.621   6.647  0.1513 -0.3298 -0.3278
  154SAPE   O1417012   5.096   1.559   6.698 -0.3359  0.3573 -0.0687
  154SAPE   O1217013   4.911   1.389   6.660  0.4186 -0.0782 -0.2459
  154SAPE   O1117014   4.986   1.526   6.474 -0.4672  0.0499 -0.1913
  154SAPE    C117015   5.119   1.534   6.419 -0.1893 -0.0258 -0.0179
  154SAPE    HA17016   5.166   1.633   6.439  2.1870 -0.6474 -2.0256
  154SAPE    HB17017   5.190   1.461   6.463 -0.0529  0.7495  1.0904
  154SAPE    C217018   5.123   1.525   6.267  0.4186 -0.2743 -0.0901
  154SAPE    HS17019   5.046   1.601   6.242  1.4768  1.4288  1.5189
  154SAPE   O2117020   5.103   1.388   6.222  0.0271  0.1561 -0.4872
  154SAPE   C2117021   5.007   1.378   6.125  0.6410  0.2529 -1.0903
  154SAPE   O2217022   4.924   1.465   6.099  0.2511  0.1749 -0.3372
  154SAPE   C2217023   5.007   1.242   6.068  0.7370  1.1772  0.3500
  154SAPE   H2R17024   5.098   1.227   6.007 -0.0760 -2.4191 -0.2457
  154SAPE   H2S17025   5.004   1.165   6.149  0.7963  0.7720 -0.0275
  154SAPE    C317026   5.251   1.586   6.218 -0.0174 -0.1259 -0.6138
  154SAPE    HX17027   5.334   1.530   6.268 -1.4723 -0.5100  1.4885
  154SAPE    HY17028   5.265   1.690   6.253  2.3339 -1.1495  1.8784
  154SAPE   O3117029   5.269   1.581   6.073 -0.0927 -0.0072 -0.0862
  154SAPE   C3117030   5.349   1.499   6.017 -0.9978  0.0419 -0.0091
  154SAPE   O3217031   5.431   1.432   6.077  0.2462  0.4561  0.0668
  154SAPE   C3217032   5.322   1.493   5.873 -0.1180 -0.0633  0.0134
  154SAPE   H2X17033   5.345   1.595   5.835 -2.9835  1.0629  0.9789
  154SAPE   H2Y17034   5.212   1.480   5.862  0.0084 -1.9340  0.7231
  154SAPE   C2317035   4.884   1.218   5.981  0.5729  0.3622  0.1751
  154SAPE   H3R17036   4.888   1.275   5.886  1.7880 -0.2474 -0.1594
  154SAPE   H3S17037   4.794   1.254   6.035 -0.1468  2.8779 -2.4557
  154SAPE   C2417038   4.881   1.067   5.930 -0.1499  0.5566 -0.2565
  154SAPE   H4R17039   4.874   1.012   6.027  0.4348 -0.7161 -0.9043
  154SAPE   H4S17040   4.987   1.051   5.899  0.9165  2.1775  2.2353
  154SAPE   C2517041   4.766   1.031   5.834  0.7308  0.4251  0.8387
  154SAPE   H5R17042   4.670   1.018   5.886  1.1256 -0.5607  1.3403
  154SAPE   C2617043   4.783   1.019   5.701 -0.2909  0.5713  0.0203
  154SAPE   H6R17044   4.687   1.007   5.648 -0.8119  0.3148  1.0008
  154SAPE   C2717045   4.909   1.028   5.623 -0.0635  0.3111  0.6244
  154SAPE   H7R17046   4.995   1.057   5.687 -0.0730 -0.8962  1.2153
  154SAPE   H7S17047   4.899   1.107   5.545 -1.0436  0.3948  0.8289
  154SAPE   C2817048   4.957   0.900   5.562 -0.2080 -0.1767  0.2882
  154SAPE   H8R17049   5.032   0.848   5.624 -0.2079 -1.3165 -0.6450
  154SAPE   C2917050   4.917   0.837   5.449  0.0799  0.1087  0.4475
  154SAPE   H9R17051   4.950   0.737   5.419 -1.1518 -0.3445  0.5279
  154SAPE  C21017052   4.827   0.911   5.352 -0.0726 -0.1679  0.6431
  154SAPE  H10R17053   4.738   0.955   5.402 -0.5383 -1.4630  0.9937
  154SAPE  H10S17054   4.785   0.835   5.283 -1.4569  1.7740 -0.7248
  154SAPE  C21117055   4.887   1.015   5.263 -0.0925  0.0722  0.8251
  154SAPE  H11R17056   4.887   1.112   5.315 -0.3473 -0.0005  0.9608
  154SAPE  C21217057   4.947   1.001   5.144  0.0053  0.4926  0.3996
  154SAPE  H12R17058   4.987   1.094   5.102 -1.1895  0.8019 -0.0835
  154SAPE  C21317059   4.966   0.873   5.068 -0.1150  0.1183 -0.0994
  154SAPE  H13R17060   4.859   0.845   5.057 -0.4627  0.8810  1.1389
  154SAPE  H13S17061   5.019   0.799   5.132  0.2065 -0.3172 -0.8531
  154SAPE  C21417062   5.022   0.872   4.931 -0.4567 -0.5418 -0.2195
  154SAPE  H14R17063   5.104   0.943   4.913 -1.4258  0.9257  0.8767
  154SAPE  C21517064   4.983   0.786   4.836 -0.3586  0.4013  0.7524
  154SAPE  H15R17065   5.022   0.786   4.733 -2.0811  0.0668  0.0596
  154SAPE  C21617066   4.879   0.681   4.852 -0.6336 -0.4680 -0.3964
  154SAPE  H16R17067   4.792   0.695   4.785 -1.7967  0.3051  1.2241
  154SAPE  H16S17068   4.825   0.679   4.949  0.4831 -0.0044  0.2501
  154SAPE  C21717069   4.956   0.548   4.832 -0.5210  0.1055 -0.7309
  154SAPE  H17R17070   4.876   0.475   4.856 -0.0846 -0.3476 -0.6369
  154SAPE  H17S17071   5.041   0.533   4.902 -0.4527 -1.9038 -1.1792
  154SAPE  C21817072   5.003   0.505   4.693  0.3712 -0.5964  0.6777
  154SAPE  H18R17073   5.090   0.569   4.667  0.6750 -1.2255  0.1011
  154SAPE  H18S17074   4.924   0.529   4.620  0.6022  0.6529  0.8224
  154SAPE  C21917075   5.039   0.356   4.676 -0.2376  0.1175  0.4407
  154SAPE  H19R17076   5.103   0.305   4.750  0.0374  0.0008  0.1265
  154SAPE  H19S17077   5.094   0.348   4.580  2.9364 -1.2448  2.2448
  154SAPE  C22017078   4.918   0.264   4.668  0.9287 -0.3056  0.0982
  154SAPE  H20R17079   4.821   0.310   4.637  0.8916 -0.8059 -0.5260
  154SAPE  H20S17080   4.898   0.226   4.771  1.0311 -1.6340 -0.3549
  154SAPE  H20T17081   4.942   0.171   4.613  1.8068 -1.6487  2.5910
  154SAPE   C3317082   5.389   1.387   5.792 -0.3433 -0.1695  0.1526
  154SAPE   H3X17083   5.393   1.285   5.838  0.9891 -0.4013 -0.4278
  154SAPE   H3Y17084   5.498   1.409   5.785 -0.5633  0.5726 -1.1069
  154SAPE   C3417085   5.328   1.379   5.658  0.3721  0.1636  0.6824
  154SAPE   H4X17086   5.417   1.370   5.591 -1.2971 -0.8892 -1.4949
  154SAPE   H4Y17087   5.271   1.470   5.630 -0.3477 -1.0149 -1.9735
  154SAPE   C3517088   5.240   1.252   5.627 -0.5590  0.1746  0.0419
  154SAPE   H5X17089   5.155   1.249   5.698  0.6657 -0.4319  1.5535
  154SAPE   H5Y17090   5.299   1.165   5.664 -0.2281  1.3089  2.3327
  154SAPE   C3617091   5.176   1.247   5.494 -0.0034  0.2698  0.2807
  154SAPE   H6X17092   5.095   1.323   5.491  0.0641  0.3475 -2.9452
  154SAPE   H6Y17093   5.132   1.145   5.487  2.1505 -0.7911  1.1304
  154SAPE   C3717094   5.279   1.260   5.376 -0.9894  0.1147  0.8234
  154SAPE   H7X17095   5.384   1.238   5.404 -0.5379  0.6000 -0.4276
  154SAPE   H7Y17096   5.283   1.365   5.339 -1.3280 -0.4499 -0.9302
  154SAPE   C3817097   5.246   1.173   5.260  0.9932  0.0370  0.2669
  154SAPE   H8X17098   5.136   1.177   5.244  1.0522  0.1278 -0.1268
  154SAPE   H8Y17099   5.280   1.071   5.286  0.1139 -0.3783 -0.1656
  154SAPE   C3917100   5.305   1.219   5.123 -0.5730 -0.1337  0.1843
  154SAPE   H9X17101   5.416   1.210   5.124 -0.4771  0.6789 -1.1509
  154SAPE   H9Y17102   5.305   1.330   5.116  1.0907 -0.0120  1.4257
  154SAPE  C31017103   5.235   1.168   4.991 -0.3253  0.6799 -0.5648
  154SAPE  H10X17104   5.129   1.203   4.991 -1.1832 -1.7545 -0.7110
  154SAPE  H10Y17105   5.237   1.057   4.999  1.0638  0.6953 -0.4389
  154SAPE  C31117106   5.318   1.201   4.869  0.5404  0.0332 -0.2152
  154SAPE  H11X17107   5.425   1.174   4.886  0.6841  1.5968  1.7234
  154SAPE  H11Y17108   5.307   1.310   4.854 -0.6363  0.0070  0.3476
  154SAPE  C31217109   5.275   1.146   4.735  0.0350 -0.0456  0.2572
  154SAPE  H12X17110   5.303   1.207   4.648  1.5996 -1.6116 -0.4038
  154SAPE  H12Y17111   5.164   1.141   4.733 -0.2375  3.0687  1.8890
  154SAPE  C31317112   5.342   1.010   4.713 -0.7302 -0.0952 -0.8677
  154SAPE  H13X17113   5.348   0.952   4.807 -1.0792  0.6452 -0.3775
  154SAPE  H13Y17114   5.451   1.028   4.697  0.3467 -2.0329  3.0177
  154SAPE  C31417115   5.276   0.926   4.603 -0.4547  0.9139  0.1065
  154SAPE  H14X17116   5.178   0.893   4.645 -0.3450  0.8211  0.2936
  154SAPE  H14Y17117   5.339   0.838   4.578  0.6320  1.3363  1.2266
  154SAPE  C31517118   5.246   1.000   4.473 -0.7634  0.2333 -0.2553
  154SAPE  H15X17119   5.162   1.072   4.483 -2.4458 -1.3443 -2.0953
  154SAPE  H15Y17120   5.197   0.932   4.400 -1.8370 -1.2473  1.7722
  154SAPE  C31617121   5.375   1.049   4.405  0.3302  0.4602  0.0050
  154SAPE  H16X17122   5.434   0.955   4.401 -0.1228  0.1920 -0.5955
  154SAPE  H16Y17123   5.424   1.119   4.476  0.5902  0.9151 -0.6178
  154SAPE  C31717124   5.344   1.103   4.267  0.1352 -0.2981 -1.1749
  154SAPE  H17X17125   5.264   1.043   4.217 -1.3027  0.1296  0.4852
  154SAPE  H17Y17126   5.436   1.098   4.205  1.2002 -1.5151  0.4270
  154SAPE  C31817127   5.297   1.246   4.275 -0.7489 -1.1488  0.5461
  154SAPE  H18X17128   5.316   1.303   4.182 -0.8078 -1.2434  0.4765
  154SAPE  H18Y17129   5.359   1.302   4.349  0.7241  0.0954 -1.5321
  154SAPE  H18Z17130   5.191   1.259   4.306 -0.4951  2.1081  0.4202
  155SAPE     N17131   6.663   1.515   7.085  0.0672 -0.3921 -0.1860
  155SAPE   HN117132   6.726   1.581   7.036 -1.7190  2.0661  0.6135
  155SAPE   HN217133   6.710   1.473   7.168  0.1858  2.2109  1.1797
  155SAPE   HN317134   6.628   1.452   7.010  0.5738  1.9490 -2.4992
  155SAPE   C1217135   6.536   1.581   7.131 -0.3461  0.0693  0.3920
  155SAPE  H12A17136   6.563   1.670   7.192  0.5779  0.6766 -0.8639
  155SAPE  H12B17137   6.496   1.501   7.197 -0.7120 -0.9014 -0.9867
  155SAPE   C1117138   6.441   1.611   7.012 -0.6687  0.0888 -0.2884
  155SAPE  H11A17139   6.459   1.705   6.956  0.3491 -0.5062 -0.9816
  155SAPE  H11B17140   6.337   1.620   7.050 -0.0757  0.0425  1.4264
  155SAPE     P17141   6.396   1.532   6.765  0.2690  0.3564  0.1581
  155SAPE   O1317142   6.437   1.416   6.681 -0.1206  0.2033 -0.3430
  155SAPE   O1417143   6.253   1.570   6.760  0.3010 -0.6441  0.2943
  155SAPE   O1217144   6.450   1.508   6.910  0.4676 -0.1532 -0.1360
  155SAPE   O1117145   6.462   1.666   6.718  0.1924  0.3814 -0.6217
  155SAPE    C117146   6.604   1.673   6.734  0.4077  0.1746  0.1901
  155SAPE    HA17147   6.630   1.766   6.789 -3.2651  0.5572  1.6190
  155SAPE    HB17148   6.656   1.587   6.781 -1.9756 -1.1336  0.6010
  155SAPE    C217149   6.686   1.676   6.599 -0.5262  0.5271  0.3063
  155SAPE    HS17150   6.685   1.782   6.565  2.8696  0.0779 -1.6418
  155SAPE   O2117151   6.634   1.587   6.499 -0.0609 -0.5053  0.4362
  155SAPE   C2117152   6.531   1.625   6.428 -0.0523  0.0617  0.7815
  155SAPE   O2217153   6.471   1.728   6.452  0.0848  0.4560 -0.4146
  155SAPE   C2217154   6.487   1.507   6.335  0.0208  0.3364 -0.3415
  155SAPE   H2R17155   6.568   1.434   6.315 -0.2953 -0.0799 -0.1102
  155SAPE   H2S17156   6.403   1.463   6.394 -1.4972  1.7781 -1.3483
  155SAPE    C317157   6.837   1.636   6.625 -0.0557  0.0178  0.2079
  155SAPE    HX17158   6.835   1.528   6.651  2.5662  0.2110  1.5763
  155SAPE    HY17159   6.875   1.683   6.718  0.6129  0.5147 -0.3010
  155SAPE   O3117160   6.916   1.660   6.505  0.1860  0.1578 -0.0841
  155SAPE   C3117161   6.974   1.559   6.435  0.2176  0.5008  0.2828
  155SAPE   O3217162   6.996   1.450   6.475 -0.2703  0.4987  0.0793
  155SAPE   C3217163   7.013   1.600   6.297  0.2131  0.7978 -0.3328
  155SAPE   H2X17164   7.092   1.528   6.266 -2.3764 -1.2527 -2.5963
  155SAPE   H2Y17165   7.051   1.704   6.313 -0.9696  0.9539  1.7250
  155SAPE   C2317166   6.420   1.559   6.213  0.0259  0.3602  0.3733
  155SAPE   H3R17167   6.485   1.606   6.137 -0.6276  0.9905  0.1868
  155SAPE   H3S17168   6.351   1.642   6.238  0.5420  1.1880 -0.8856
  155SAPE   C2417169   6.328   1.463   6.137  0.1135 -0.1705 -0.4951
  155SAPE   H4R17170   6.285   1.520   6.052 -2.4837  0.0697  0.8681
  155SAPE   H4S17171   6.236   1.434   6.193 -0.2893  1.2995 -0.3643
  155SAPE   C2517172   6.400   1.341   6.102 -0.3953  0.9415  0.3879
  155SAPE   H5R17173   6.416   1.276   6.189 -0.0234 -1.1966 -1.1819
  155SAPE   C2617174   6.447   1.307   5.981  0.2726  0.4659  0.8003
  155SAPE   H6R17175   6.515   1.221   5.971  1.4666  1.4319  0.3420
  155SAPE   C2717176   6.413   1.377   5.853  0.5646 -0.8713 -0.7966
  155SAPE   H7R17177   6.377   1.480   5.872  1.0288 -0.3818 -2.3432
  155SAPE   H7S17178   6.319   1.335   5.811  0.9439 -1.1758 -1.3613
  155SAPE   C2817179   6.529   1.364   5.766 -0.3858 -0.1209  0.2563
  155SAPE   H8R17180   6.628   1.368   5.814  0.1080  3.3179 -0.7473
  155SAPE   C2917181   6.529   1.364   5.629 -0.4857 -0.5754 -0.7135
  155SAPE   H9R17182   6.625   1.374   5.576 -0.6225  0.9279 -0.7123
  155SAPE  C21017183   6.411   1.358   5.534 -0.6532  0.2486 -0.0245
  155SAPE  H10R17184   6.448   1.392   5.435  1.1937  1.1925  0.9254
  155SAPE  H10S17185   6.324   1.419   5.566 -1.2489 -0.0897 -0.9574
  155SAPE  C21117186   6.354   1.222   5.532 -0.6139  0.0460 -0.2312
  155SAPE  H11R17187   6.347   1.172   5.629  0.8720  2.0161  0.9495
  155SAPE  C21217188   6.305   1.152   5.424  0.7489 -0.1621  0.2532
  155SAPE  H12R17189   6.272   1.049   5.444 -0.3491  0.4069  1.5078
  155SAPE  C21317190   6.313   1.208   5.282  0.7522  0.0586 -0.1320
  155SAPE  H13R17191   6.409   1.171   5.241  0.8486  1.3261 -1.0987
  155SAPE  H13S17192   6.308   1.319   5.284 -0.8990  0.0349 -1.0211
  155SAPE  C21417193   6.193   1.163   5.203  0.7071  0.8840 -0.5395
  155SAPE  H14R17194   6.095   1.169   5.253  0.8426 -4.3006  0.9791
  155SAPE  C21517195   6.201   1.094   5.092 -0.4484 -0.1042 -0.3142
  155SAPE  H15R17196   6.108   1.067   5.041 -2.7177  1.6324  2.6302
  155SAPE  C21617197   6.323   1.058   5.011 -0.7363  1.0855  0.0955
  155SAPE  H16R17198   6.414   1.096   5.062 -1.1617  0.0899  1.6464
  155SAPE  H16S17199   6.321   1.100   4.908 -0.8726  1.2592  0.1675
  155SAPE  C21717200   6.345   0.900   4.989 -0.2084 -0.0538 -0.7593
  155SAPE  H17R17201   6.275   0.867   4.909  0.5632 -2.6857 -0.4445
  155SAPE  H17S17202   6.335   0.842   5.083  0.5985  0.8627 -0.0725
  155SAPE  C21817203   6.488   0.885   4.930 -0.2120  0.2343 -1.1085
  155SAPE  H18R17204   6.552   0.916   5.015 -1.8823 -0.1347  0.3492
  155SAPE  H18S17205   6.505   0.965   4.855  1.0287  0.9194 -0.1408
  155SAPE  C21917206   6.519   0.761   4.858 -1.2438  0.7519 -1.2879
  155SAPE  H19R17207   6.489   0.674   4.920 -0.6282  0.2307 -1.7102
  155SAPE  H19S17208   6.625   0.740   4.832 -0.8565  0.4111  0.4568
  155SAPE  C22017209   6.448   0.732   4.727  0.5442 -0.2729  0.9055
  155SAPE  H20R17210   6.340   0.707   4.740  0.7465 -1.2633  0.6874
  155SAPE  H20S17211   6.500   0.650   4.674  2.4940  0.8954  0.8903
  155SAPE  H20T17212   6.452   0.820   4.659  0.5086 -1.0996 -0.1904
  155SAPE   C3317213   6.893   1.605   6.204 -0.4792  0.3026 -0.3455
  155SAPE   H3X17214   6.810   1.667   6.244 -0.7397 -1.7295  2.6062
  155SAPE   H3Y17215   6.847   1.505   6.196 -0.9446  0.6937 -3.8578
  155SAPE   C3417216   6.930   1.639   6.057  0.6722  0.2786 -0.5323
  155SAPE   H4X17217   6.999   1.562   6.016  0.7224 -0.1343  0.3180
  155SAPE   H4Y17218   6.985   1.736   6.058  0.5917  0.4700  3.8219
  155SAPE   C3517219   6.806   1.625   5.974 -0.9949  0.0228  0.8436
  155SAPE   H5X17220   6.741   1.707   6.009 -1.8456 -0.9830  1.6999
  155SAPE   H5Y17221   6.753   1.530   5.999  3.1181 -2.3332  1.7191
  155SAPE   C3617222   6.849   1.643   5.831 -0.2905  0.2509 -0.4500
  155SAPE   H6X17223   6.888   1.542   5.806 -1.2707 -0.3286  0.3052
  155SAPE   H6Y17224   6.933   1.716   5.832  1.0183 -1.1830  1.6436
  155SAPE   C3717225   6.739   1.679   5.735  0.3615 -0.2369  0.4939
  155SAPE   H7X17226   6.693   1.774   5.771  0.0194  0.1227 -0.8345
  155SAPE   H7Y17227   6.655   1.607   5.745 -0.7130  0.9344  0.1084
  155SAPE   C3817228   6.777   1.697   5.589 -0.2776 -0.3594 -0.1643
  155SAPE   H8X17229   6.825   1.604   5.553  5.4010  2.8143 -2.0529
  155SAPE   H8Y17230   6.852   1.779   5.591 -1.2484  0.6349 -1.8201
  155SAPE   C3917231   6.665   1.738   5.491 -0.0268 -0.6439  0.3634
  155SAPE   H9X17232   6.628   1.841   5.510 -0.5050 -0.2270 -2.4184
  155SAPE   H9Y17233   6.581   1.666   5.493  0.6618 -1.7560 -3.2613
  155SAPE  C31017234   6.709   1.752   5.342 -0.1119  0.3368  0.5086
  155SAPE  H10X17235   6.723   1.646   5.312 -0.7290  0.2348  0.5786
  155SAPE  H10Y17236   6.810   1.800   5.344  1.8956 -3.4968  1.2065
  155SAPE  C31117237   6.599   1.812   5.249  0.3211  0.2300  0.0244
  155SAPE  H11X17238   6.555   1.906   5.290  2.1224  0.4475  1.6142
  155SAPE  H11Y17239   6.516   1.740   5.232  0.4440  0.0562  0.1523
  155SAPE  C31217240   6.640   1.872   5.113 -0.1516 -0.1983 -0.1979
  155SAPE  H12X17241   6.645   1.788   5.039  0.8169  1.0368 -1.5889
  155SAPE  H12Y17242   6.742   1.917   5.107 -0.7851  1.2494 -0.4094
  155SAPE  C31317243   6.545   1.981   5.051 -0.6891  0.5364 -0.7741
  155SAPE  H13X17244   6.454   1.918   5.043  0.6192 -1.2363 -2.7761
  155SAPE  H13Y17245   6.573   2.010   4.947  2.2368  0.5715 -0.0582
  155SAPE  C31417246   6.508   2.104   5.137 -0.1639  0.8336 -0.6136
  155SAPE  H14X17247   6.605   2.153   5.162 -0.2736  1.7209 -1.8496
  155SAPE  H14Y17248   6.457   2.069   5.229  0.7879 -1.8683 -1.0185
  155SAPE  C31517249   6.429   2.213   5.067 -0.0719 -0.7814  0.9500
  155SAPE  H15X17250   6.321   2.187   5.070 -0.3133  0.1012  0.2824
  155SAPE  H15Y17251   6.456   2.213   4.959 -0.1579 -1.9607  0.9172
  155SAPE  C31617252   6.454   2.355   5.119 -0.6411  0.1132 -0.1433
  155SAPE  H16X17253   6.444   2.428   5.036  2.5922 -0.1174 -0.8776
  155SAPE  H16Y17254   6.561   2.359   5.150 -0.8754 -1.3841  0.9926
  155SAPE  C31717255   6.370   2.392   5.236  1.0249  0.2966  0.5186
  155SAPE  H17X17256   6.264   2.393   5.203  0.4686 -0.5470  2.1580
  155SAPE  H17Y17257   6.394   2.497   5.262  0.6207  0.4624  0.2294
  155SAPE  C31817258   6.363   2.314   5.364 -0.0681 -0.4343  0.1472
  155SAPE  H18X17259   6.286   2.370   5.423  0.4646  1.2293 -0.6718
  155SAPE  H18Y17260   6.461   2.318   5.416  0.0625 -1.0755 -0.0487
  155SAPE  H18Z17261   6.329   2.210   5.347 -0.1212 -0.4380  0.2747
  156SAPE     N17262   1.647   3.019   6.935 -0.0853  0.1504  0.1979
  156SAPE   HN117263   1.681   2.922   6.920 -0.3886 -0.2004  1.5973
  156SAPE   HN217264   1.545   3.027   6.918 -0.7452 -0.7645  3.0849
  156SAPE   HN317265   1.693   3.075   6.861  0.4086  0.3884  0.6746
  156SAPE   C1217266   1.677   3.073   7.071  0.0143  0.0258  0.2659
  156SAPE  H12A17267   1.781   3.112   7.076 -0.6484  1.8968  0.2670
  156SAPE  H12B17268   1.664   2.995   7.149 -1.7551 -0.5845 -0.5910
  156SAPE   C1117269   1.585   3.191   7.101  0.1915 -0.3730  0.3485
  156SAPE  H11A17270   1.604   3.247   7.195 -0.9825  2.3999 -0.9695
  156SAPE  H11B17271   1.481   3.153   7.110 -0.2818  0.8129  0.0682
  156SAPE     P17272   1.698   3.387   6.959  0.3627 -0.0646  0.4833
  156SAPE   O1317273   1.630   3.512   6.925 -0.1430  0.4522 -0.2342
  156SAPE   O1417274   1.797   3.402   7.066  0.0769 -0.0239 -0.5151
  156SAPE   O1217275   1.592   3.283   6.995  0.4062  0.6553 -0.1179
  156SAPE   O1117276   1.763   3.328   6.829  0.4004 -0.1615 -0.3331
  156SAPE    C117277   1.868   3.401   6.765  0.2293  0.1163  0.1802
  156SAPE    HA17278   1.917   3.484   6.820  2.5708 -2.3900  2.0947
  156SAPE    HB17279   1.951   3.330   6.748 -0.4580 -1.0292  1.4349
  156SAPE    C217280   1.808   3.450   6.632 -0.2708  1.0965  0.3294
  156SAPE    HS17281   1.710   3.501   6.642 -1.2410  0.6920 -4.5592
  156SAPE   O2117282   1.784   3.333   6.552 -0.4315  0.4631  0.3580
  156SAPE   C2117283   1.695   3.349   6.453 -0.1618  0.1861 -0.1558
  156SAPE   O2217284   1.618   3.442   6.439 -1.2769 -0.2742  0.9036
  156SAPE   C2217285   1.700   3.226   6.369  0.3482 -0.1068  0.2798
  156SAPE   H2R17286   1.750   3.143   6.423  2.6644 -0.3125 -1.9997
  156SAPE   H2S17287   1.592   3.207   6.349  0.5547  1.1228 -2.4346
  156SAPE    C317288   1.915   3.551   6.566 -0.1401 -0.6509  1.0935
  156SAPE    HX17289   2.003   3.485   6.547 -0.1266 -0.0787 -1.0298
  156SAPE    HY17290   1.937   3.640   6.628 -1.7550  2.1148 -1.9760
  156SAPE   O3117291   1.870   3.611   6.441  0.3005  1.2957 -0.4694
  156SAPE   C3117292   1.796   3.716   6.441  0.0869 -0.1079  0.4751
  156SAPE   O3217293   1.786   3.798   6.531 -0.0268 -0.4990 -0.0901
  156SAPE   C3217294   1.720   3.742   6.312 -0.4171 -0.0028 -0.8022
  156SAPE   H2X17295   1.633   3.810   6.326 -0.2785  0.0324 -0.0363
  156SAPE   H2Y17296   1.680   3.644   6.277 -3.1118  0.4196  0.7791
  156SAPE   C2317297   1.768   3.252   6.233 -0.4606 -0.0236  0.5113
  156SAPE   H3R17298   1.720   3.338   6.182  3.0144  1.2966 -0.8063
  156SAPE   H3S17299   1.774   3.165   6.164  3.0026  0.9427 -0.5720
  156SAPE   C2417300   1.917   3.289   6.247  0.4708 -0.2760  0.0778
  156SAPE   H4R17301   1.919   3.385   6.302 -1.5311 -1.2757  2.0790
  156SAPE   H4S17302   1.949   3.309   6.143 -3.3532 -1.7094 -1.5800
  156SAPE   C2517303   1.988   3.182   6.332  0.0556  0.2018 -0.1106
  156SAPE   H5R17304   1.955   3.193   6.437 -3.2389 -0.0972 -1.0095
  156SAPE   C2617305   2.071   3.083   6.286  0.0559 -0.0690 -0.1536
  156SAPE   H6R17306   2.112   3.008   6.356  0.8089  0.0477 -0.4587
  156SAPE   C2717307   2.103   3.067   6.140 -0.6497 -0.1829  0.1133
  156SAPE   H7R17308   2.058   3.140   6.069  0.2126 -0.0356 -0.2963
  156SAPE   H7S17309   2.070   2.969   6.101 -3.2903  0.4294  0.5638
  156SAPE   C2817310   2.251   3.086   6.127  0.1867 -0.0974 -0.4315
  156SAPE   H8R17311   2.308   3.102   6.220 -1.5909 -0.3498  0.7428
  156SAPE   C2917312   2.325   3.077   6.014 -0.1114 -0.4809  0.2926
  156SAPE   H9R17313   2.428   3.116   6.017 -0.2524 -0.0788 -0.0518
  156SAPE  C21017314   2.285   3.038   5.877  0.4660  0.1732 -0.0315
  156SAPE  H10R17315   2.186   2.990   5.890 -0.7194  2.7747  1.1865
  156SAPE  H10S17316   2.362   2.959   5.862  0.2495 -0.4583  1.9162
  156SAPE  C21117317   2.266   3.140   5.769  0.4309  0.2822  0.3233
  156SAPE  H11R17318   2.301   3.242   5.792 -0.5655  1.0807 -1.4646
  156SAPE  C21217319   2.213   3.120   5.644 -0.0632  0.3425 -0.9360
  156SAPE  H12R17320   2.218   3.214   5.588  2.1546  0.8693  0.0424
  156SAPE  C21317321   2.136   2.994   5.588 -0.0749 -1.3114  0.0901
  156SAPE  H13R17322   2.196   2.908   5.623  0.3784 -1.1372 -0.2452
  156SAPE  H13S17323   2.137   2.988   5.477 -0.1768  0.1885 -0.0126
  156SAPE  C21417324   1.999   2.992   5.649  0.3735  0.4225 -0.2769
  156SAPE  H14R17325   1.991   3.035   5.750 -0.1107  1.1299 -0.6091
  156SAPE  C21517326   1.887   2.966   5.577 -0.6945 -0.0432 -0.0699
  156SAPE  H15R17327   1.788   2.948   5.621  0.1145  0.0693  1.9055
  156SAPE  C21617328   1.891   2.951   5.427  0.5377 -0.9138  0.3314
  156SAPE  H16R17329   1.855   2.849   5.401  0.6879 -0.9977  0.4489
  156SAPE  H16S17330   1.984   2.978   5.374  0.3321  0.4124  0.6093
  156SAPE  C21717331   1.786   3.052   5.370 -1.0185  0.6702  0.4072
  156SAPE  H17R17332   1.807   3.151   5.417  2.2148 -0.6254  2.0330
  156SAPE  H17S17333   1.679   3.033   5.392 -0.3089 -3.1741  1.2107
  156SAPE  C21817334   1.801   3.069   5.213  0.3825 -0.3903  0.0266
  156SAPE  H18R17335   1.894   3.127   5.191 -0.2548 -0.5028 -3.6218
  156SAPE  H18S17336   1.713   3.127   5.179  0.4685 -0.7054 -0.7690
  156SAPE  C21917337   1.801   2.946   5.117 -0.2721  0.3273  0.5670
  156SAPE  H19R17338   1.712   2.886   5.147 -0.7765  0.2258 -0.9941
  156SAPE  H19S17339   1.892   2.887   5.140  0.1307  0.1844 -1.2213
  156SAPE  C22017340   1.789   2.984   4.971 -0.5323  0.3653 -0.1561
  156SAPE  H20R17341   1.886   3.017   4.928 -0.2359 -0.9281 -0.5349
  156SAPE  H20S17342   1.725   3.074   4.962  0.3952  1.3012  1.9198
  156SAPE  H20T17343   1.752   2.892   4.921 -0.0975 -1.1850  2.1918
  156SAPE   C3317344   1.807   3.816   6.209 -0.0900 -0.0097  0.2966
  156SAPE   H3X17345   1.915   3.792   6.215  0.0286  0.2616 -0.6761
  156SAPE   H3Y17346   1.809   3.927   6.219  1.9643 -0.0789  1.2473
  156SAPE   C3417347   1.763   3.781   6.067  0.4215 -0.5797 -0.0415
  156SAPE   H4X17348   1.660   3.819   6.051  0.3647 -0.5647  0.3406
  156SAPE   H4Y17349   1.752   3.671   6.055  0.2188 -0.8652  2.2497
  156SAPE   C3517350   1.842   3.852   5.961  0.0499 -0.2977  0.4516
  156SAPE   H5X17351   1.941   3.801   5.957 -0.3903 -1.1112 -1.6667
  156SAPE   H5Y17352   1.857   3.960   5.980 -1.6292  0.6626 -2.8501
  156SAPE   C3617353   1.780   3.851   5.816  0.3088  0.1654  0.2162
  156SAPE   H6X17354   1.683   3.902   5.833  0.8476  0.8221  1.5095
  156SAPE   H6Y17355   1.766   3.745   5.786 -1.4254  0.7485 -1.1899
  156SAPE   C3717356   1.869   3.917   5.707  0.0635 -0.5922 -0.3810
  156SAPE   H7X17357   1.961   3.855   5.711  0.5882 -0.1752 -3.6051
  156SAPE   H7Y17358   1.899   4.023   5.721 -0.4875 -0.7787  3.3619
  156SAPE   C3817359   1.802   3.913   5.565  0.5506  0.4189  0.7750
  156SAPE   H8X17360   1.705   3.966   5.576 -0.1315 -0.1673 -1.8117
  156SAPE   H8Y17361   1.777   3.807   5.544 -0.7532  0.5908  1.3558
  156SAPE   C3917362   1.898   3.968   5.463  0.3084 -0.2018  0.7623
  156SAPE   H9X17363   1.989   3.906   5.477 -0.1464 -1.5667 -1.7778
  156SAPE   H9Y17364   1.913   4.078   5.467  1.5301 -0.3492  0.4298
  156SAPE  C31017365   1.844   3.929   5.324  0.1737  0.0583  0.1830
  156SAPE  H10X17366   1.761   3.996   5.294 -1.2698 -1.6177  0.2348
  156SAPE  H10Y17367   1.800   3.827   5.327  1.5204 -0.5919 -1.1030
  156SAPE  C31117368   1.940   3.936   5.217 -0.3133 -0.3166  0.3506
  156SAPE  H11X17369   2.034   3.880   5.236 -0.1014 -0.5034 -1.0804
  156SAPE  H11Y17370   1.975   4.041   5.214  0.0784 -0.4031  1.5126
  156SAPE  C31217371   1.888   3.912   5.080  0.0026 -0.3804  0.5324
  156SAPE  H12X17372   1.833   3.995   5.031 -0.1391  0.1552  1.5830
  156SAPE  H12Y17373   1.829   3.819   5.092  0.0565 -0.2413  1.9677
  156SAPE  C31317374   2.003   3.880   4.976 -0.1415 -0.0552  0.0943
  156SAPE  H13X17375   2.055   3.791   5.017 -3.0736 -1.3154  1.3472
  156SAPE  H13Y17376   2.063   3.972   4.963 -2.9197  1.8811  0.0754
  156SAPE  C31417377   1.957   3.851   4.826 -0.3915  0.4885 -0.2543
  156SAPE  H14X17378   1.894   3.761   4.818  1.1881 -0.6181 -0.6715
  156SAPE  H14Y17379   2.054   3.830   4.777 -0.2317  1.2003 -0.2636
  156SAPE  C31517380   1.885   3.973   4.764 -0.2136  0.1222 -0.8737
  156SAPE  H15X17381   1.943   4.066   4.784  2.1745 -1.4148 -0.1633
  156SAPE  H15Y17382   1.786   3.976   4.813  1.1679 -0.4955  2.2073
  156SAPE  C31617383   1.863   3.957   4.611 -0.2348 -0.2090 -0.4126
  156SAPE  H16X17384   1.803   3.866   4.591  0.3449 -1.0185  1.3735
  156SAPE  H16Y17385   1.964   3.945   4.566 -0.1606 -0.0182 -0.2970
  156SAPE  C31717386   1.787   4.072   4.535 -0.2671 -0.1089 -0.2227
  156SAPE  H17X17387   1.796   4.044   4.427  0.8297 -0.8890  0.0544
  156SAPE  H17Y17388   1.844   4.165   4.551 -2.4686  1.2950 -0.1924
  156SAPE  C31817389   1.646   4.109   4.586 -0.3220  0.1978 -0.2012
  156SAPE  H18X17390   1.611   4.206   4.545 -0.3557  0.5704  0.6799
  156SAPE  H18Y17391   1.646   4.110   4.697  0.2129  0.6398 -0.2000
  156SAPE  H18Z17392   1.576   4.023   4.576 -0.0253 -0.1957  0.9212
  157SAPE     N17393   0.788   6.538   7.345  0.0416  0.0424  0.0663
  157SAPE   HN117394   0.833   6.468   7.283  0.0339  0.4155 -0.3708
  157SAPE   HN217395   0.823   6.525   7.441 -1.5732 -0.5712  0.6094
  157SAPE   HN317396   0.688   6.512   7.359 -0.5520  2.3621  0.5648
  157SAPE   C1217397   0.798   6.683   7.293  0.1899 -0.1355  0.1793
  157SAPE  H12A17398   0.902   6.692   7.253  1.3478  0.2788  2.9929
  157SAPE  H12B17399   0.784   6.751   7.380  0.0041 -0.5968  0.5133
  157SAPE   C1117400   0.696   6.707   7.184  0.3657  0.5266 -0.2248
  157SAPE  H11A17401   0.709   6.633   7.102 -0.5383  1.1654 -0.9735
  157SAPE  H11B17402   0.723   6.806   7.140  1.3252  0.4780  0.2217
  157SAPE     P17403   0.497   6.836   7.293  0.3194  0.0996  0.1722
  157SAPE   O1317404   0.357   6.803   7.335  0.3796  0.1580 -0.5833
  157SAPE   O1417405   0.586   6.902   7.394  0.1790  0.3973  0.2656
  157SAPE   O1217406   0.560   6.706   7.229  0.1779  0.4373 -0.0991
  157SAPE   O1117407   0.493   6.935   7.167 -0.0602 -0.0153 -0.1105
  157SAPE    C117408   0.394   6.904   7.067 -0.1189  0.3645 -0.5803
  157SAPE    HA17409   0.383   6.795   7.048 -0.2666 -0.0539  1.6745
  157SAPE    HB17410   0.296   6.942   7.103  0.8564  2.0237  0.3875
  157SAPE    C217411   0.419   6.968   6.928 -0.4254 -0.5201  0.0344
  157SAPE    HS17412   0.341   6.930   6.858 -0.6862 -0.2602  0.1818
  157SAPE   O2117413   0.553   6.927   6.884 -0.0753  0.3058 -0.3162
  157SAPE   C2117414   0.556   6.804   6.827 -0.4311 -0.4128  0.4811
  157SAPE   O2217415   0.464   6.731   6.805  0.2856  0.3500 -0.2728
  157SAPE   C2217416   0.703   6.772   6.795  0.9164 -0.3068 -0.0295
  157SAPE   H2R17417   0.758   6.855   6.745  0.5865 -0.9914 -1.5896
  157SAPE   H2S17418   0.745   6.749   6.895 -0.3886  1.3233  0.9556
  157SAPE    C317419   0.420   7.128   6.933 -0.3397  0.4304  0.2050
  157SAPE    HX17420   0.516   7.157   6.982 -0.2891  0.8643 -0.1470
  157SAPE    HY17421   0.329   7.165   6.983 -0.8838  1.0432 -1.2041
  157SAPE   O3117422   0.398   7.191   6.800 -0.3752 -0.0709 -0.5396
  157SAPE   C3117423   0.507   7.200   6.722  0.3370  0.3295 -0.6360
  157SAPE   O3217424   0.627   7.179   6.752  0.6463  0.0247 -0.4528
  157SAPE   C3217425   0.462   7.246   6.583  0.1234 -1.0298 -0.5509
  157SAPE   H2X17426   0.537   7.323   6.558 -0.4479  0.1318  1.1514
  157SAPE   H2Y17427   0.358   7.286   6.584  0.6434  0.3595  0.7833
  157SAPE   C2317428   0.729   6.656   6.702  0.5052  0.0666  0.4688
  157SAPE   H3R17429   0.689   6.559   6.738 -0.1834  1.0974  2.5995
  157SAPE   H3S17430   0.839   6.645   6.693  0.2333 -1.4279 -1.9736
  157SAPE   C2417431   0.679   6.698   6.554  0.6243 -0.2269 -0.4794
  157SAPE   H4R17432   0.581   6.752   6.563  2.0551  2.4158  0.3258
  157SAPE   H4S17433   0.655   6.602   6.504 -1.5940  1.0855 -2.2041
  157SAPE   C2517434   0.775   6.788   6.477  0.3664  0.5466 -1.2661
  157SAPE   H5R17435   0.842   6.854   6.535  1.0088 -1.3139  0.2259
  157SAPE   C2617436   0.790   6.775   6.344  0.4306 -0.3225  0.6763
  157SAPE   H6R17437   0.856   6.852   6.302  0.0958  0.7004  1.9588
  157SAPE   C2717438   0.716   6.683   6.246 -0.0778  0.1056 -0.3351
  157SAPE   H7R17439   0.614   6.653   6.277 -0.4290  3.3004  2.0296
  157SAPE   H7S17440   0.774   6.589   6.231  1.9565  1.6170 -2.9383
  157SAPE   C2817441   0.713   6.749   6.107  0.7040  0.8580 -0.4783
  157SAPE   H8R17442   0.644   6.834   6.108  1.9018  1.8662 -0.2344
  157SAPE   C2917443   0.774   6.714   5.994  0.1105 -0.2583  0.0978
  157SAPE   H9R17444   0.740   6.773   5.908 -0.4646  2.6459  2.1511
  157SAPE  C21017445   0.873   6.607   5.965  0.0931  0.4224 -0.7122
  157SAPE  H10R17446   0.827   6.537   5.892  1.2341 -2.5242  1.2141
  157SAPE  H10S17447   0.895   6.551   6.058  1.3486  1.6330 -0.2435
  157SAPE  C21117448   0.997   6.676   5.903 -0.2601 -0.7740 -0.7163
  157SAPE  H11R17449   1.044   6.743   5.977 -3.8996  1.7176 -0.4059
  157SAPE  C21217450   1.051   6.662   5.784 -0.1752 -0.6654 -0.1153
  157SAPE  H12R17451   1.147   6.714   5.779 -1.3329  1.6892  0.4237
  157SAPE  C21317452   1.003   6.567   5.679 -0.5084  0.0525 -0.7949
  157SAPE  H13R17453   0.936   6.617   5.605 -0.4534 -2.4442 -2.6921
  157SAPE  H13S17454   0.945   6.483   5.723 -3.4012  0.9219 -2.6161
  157SAPE  C21417455   1.125   6.517   5.607 -0.1083  0.5349  0.8279
  157SAPE  H14R17456   1.181   6.432   5.649 -2.9582 -1.5442  0.7427
  157SAPE  C21517457   1.175   6.555   5.487  0.3044  0.2883 -0.0079
  157SAPE  H15R17458   1.265   6.502   5.455 -0.4825  0.0829 -2.0327
  157SAPE  C21617459   1.125   6.664   5.389 -0.1354  0.2920  0.4693
  157SAPE  H16R17460   1.206   6.699   5.322  2.5294 -0.1888  3.2461
  157SAPE  H16S17461   1.082   6.750   5.445 -0.4982  0.7929 -0.5529
  157SAPE  C21717462   1.019   6.616   5.296  0.6807 -0.2870  0.4286
  157SAPE  H17R17463   0.936   6.584   5.363 -0.9174  2.8095  0.1419
  157SAPE  H17S17464   1.040   6.516   5.251 -3.5636 -2.0265  1.7798
  157SAPE  C21817465   0.974   6.708   5.187  0.0186 -0.3208 -0.2316
  157SAPE  H18R17466   1.055   6.733   5.115 -0.3978 -0.7510 -0.8623
  157SAPE  H18S17467   0.947   6.795   5.251 -3.5463 -1.5492  0.2027
  157SAPE  C21917468   0.846   6.652   5.121  0.4438 -0.4841  0.1743
  157SAPE  H19R17469   0.792   6.743   5.086 -0.9310 -1.3473 -0.0397
  157SAPE  H19S17470   0.782   6.608   5.200  2.4021 -0.9144  1.5910
  157SAPE  C22017471   0.861   6.549   5.006 -0.5849 -0.3499  0.6641
  157SAPE  H20R17472   0.898   6.591   4.910 -2.8146 -2.0993 -1.0891
  157SAPE  H20S17473   0.765   6.511   4.965 -0.6065 -0.9821  1.2836
  157SAPE  H20T17474   0.930   6.467   5.035 -0.4928 -0.4135  0.2770
  157SAPE   C3317475   0.490   7.133   6.476  0.4329  0.3600 -0.4114
  157SAPE   H3X17476   0.582   7.077   6.503 -0.1605 -0.6404 -0.4227
  157SAPE   H3Y17477   0.497   7.174   6.373 -0.2758 -0.5067 -0.8205
  157SAPE   C3417478   0.374   7.031   6.487 -0.8920 -0.0051  0.1221
  157SAPE   H4X17479   0.284   7.092   6.463 -1.8176 -0.5598  2.0199
  157SAPE   H4Y17480   0.364   6.971   6.579 -0.8708 -0.9564 -0.4872
  157SAPE   C3517481   0.398   6.934   6.373  0.5683 -0.0107  0.0717
  157SAPE   H5X17482   0.353   6.835   6.391 -0.0021  0.0086 -1.1836
  157SAPE   H5Y17483   0.506   6.908   6.368  0.1639 -1.9618  0.6812
  157SAPE   C3617484   0.345   6.981   6.241  0.3460 -0.1521  0.4117
  157SAPE   H6X17485   0.401   7.070   6.207 -0.4370  0.9902  1.9490
  157SAPE   H6Y17486   0.237   7.003   6.260  0.4584  0.1022  0.7527
  157SAPE   C3717487   0.353   6.864   6.143  0.0335 -0.0435  0.0160
  157SAPE   H7X17488   0.304   6.775   6.186 -0.1398  0.0942  0.1041
  157SAPE   H7Y17489   0.459   6.830   6.137 -0.4165 -1.7816  1.1409
  157SAPE   C3817490   0.293   6.889   6.005  0.0048 -0.0151  0.4723
  157SAPE   H8X17491   0.362   6.956   5.948 -0.7959  0.3976 -0.0317
  157SAPE   H8Y17492   0.196   6.941   6.018 -1.2275 -1.6399 -1.5909
  157SAPE   C3917493   0.264   6.760   5.926  0.4183  0.8555  0.2535
  157SAPE   H9X17494   0.191   6.704   5.989 -1.8604 -0.2112 -3.0598
  157SAPE   H9Y17495   0.361   6.707   5.926  0.9530  1.7781 -1.2128
  157SAPE  C31017496   0.194   6.779   5.794 -0.4874  0.8374 -0.3484
  157SAPE  H10X17497   0.266   6.844   5.739  0.2354 -1.1632 -1.8780
  157SAPE  H10Y17498   0.099   6.836   5.806 -2.2903 -1.2853 -3.3012
  157SAPE  C31117499   0.151   6.655   5.717 -0.4419  0.2555  0.2813
  157SAPE  H11X17500   0.068   6.599   5.763 -4.3921  2.5478 -3.2998
  157SAPE  H11Y17501   0.233   6.580   5.713 -0.0990  0.6543 -2.8490
  157SAPE  C31217502   0.120   6.686   5.566 -0.2213  0.5718  0.4001
  157SAPE  H12X17503   0.198   6.753   5.524 -1.5703  0.8866 -1.7503
  157SAPE  H12Y17504   0.017   6.727   5.561 -0.8327 -0.6671  1.8318
  157SAPE  C31317505   0.133   6.557   5.474  0.1415  0.0132  0.3422
  157SAPE  H13X17506   0.051   6.495   5.516 -1.4222  1.2746 -0.7205
  157SAPE  H13Y17507   0.233   6.511   5.485 -0.5754 -1.7766 -0.3370
  157SAPE  C31417508   0.114   6.575   5.323 -0.8602 -0.2569  0.0184
  157SAPE  H14X17509   0.012   6.618   5.308 -1.1699 -1.2117 -0.7069
  157SAPE  H14Y17510   0.114   6.477   5.272  0.6782 -0.0768 -0.3844
  157SAPE  C31517511   0.215   6.665   5.251  0.1459 -0.0351  0.2255
  157SAPE  H15X17512   0.315   6.629   5.283 -0.3793  0.0678  2.1217
  157SAPE  H15Y17513   0.213   6.773   5.277 -0.5864 -0.4042  1.8155
  157SAPE  C31617514   0.185   6.666   5.095  0.9946 -0.3792 -0.5519
  157SAPE  H16X17515   0.076   6.665   5.076  1.0363  0.0246 -0.8239
  157SAPE  H16Y17516   0.233   6.572   5.059 -0.4665 -1.9102  1.2655
  157SAPE  C31717517   0.256   6.783   5.010 -0.5294  0.5424 -0.0178
  157SAPE  H17X17518   0.364   6.763   5.028  0.0825  3.8925  0.7954
  157SAPE  H17Y17519   0.230   6.881   5.055 -2.0235  0.6965 -1.1420
  157SAPE  C31817520   0.231   6.785   4.857 -0.7536  0.5643  0.0210
  157SAPE  H18X17521   0.125   6.813   4.839  0.0697  2.7743 -1.8811
  157SAPE  H18Y17522   0.265   6.693   4.804 -0.9563  1.4035 -1.6183
  157SAPE  H18Z17523   0.294   6.856   4.800  0.0078 -0.4022 -0.3894
  158SAPE     N17524   3.223   5.621   6.694 -0.8549  0.0232 -0.3247
  158SAPE   HN117525   3.274   5.646   6.607  1.5527  0.1012  1.0029
  158SAPE   HN217526   3.267   5.679   6.768  2.7963 -0.9753 -1.5055
  158SAPE   HN317527   3.253   5.524   6.715 -1.5796 -1.2529 -4.3116
  158SAPE   C1217528   3.071   5.629   6.692 -0.0731  0.0722  0.2479
  158SAPE  H12A17529   3.036   5.571   6.779  1.2005 -0.6514  0.3081
  158SAPE  H12B17530   3.036   5.576   6.600  2.3527 -3.1375  1.0021
  158SAPE   C1117531   3.031   5.778   6.706 -0.3540  0.0110 -0.4127
  158SAPE  H11A17532   3.069   5.814   6.804  1.1057 -0.8237 -0.6308
  158SAPE  H11B17533   2.922   5.789   6.723  0.0390 -0.0556  2.7817
  158SAPE     P17534   3.029   5.997   6.592 -0.3396 -0.5169 -0.2055
  158SAPE   O1317535   2.918   6.027   6.684 -0.1716 -0.3149  0.1260
  158SAPE   O1417536   3.150   6.084   6.615  0.0571  0.1048  0.0730
  158SAPE   O1217537   3.080   5.856   6.603 -0.3887 -0.6251 -0.5946
  158SAPE   O1117538   2.993   6.016   6.439  0.2430 -0.8155 -0.1525
  158SAPE    C117539   2.925   5.919   6.367 -0.0163  0.8371 -0.2538
  158SAPE    HA17540   2.992   5.887   6.284 -1.5922 -0.5254 -1.0641
  158SAPE    HB17541   2.901   5.829   6.427 -1.3181  1.8072  0.7436
  158SAPE    C217542   2.793   5.977   6.311  0.5674 -0.6401  0.8629
  158SAPE    HS17543   2.752   5.900   6.243  1.1462  0.7491 -1.1654
  158SAPE   O2117544   2.811   6.089   6.229 -0.2928 -0.2616 -0.2182
  158SAPE   C2117545   2.854   6.078   6.106 -0.2638  0.0442 -0.0676
  158SAPE   O2217546   2.891   5.978   6.052 -0.1707 -0.6041 -0.6183
  158SAPE   C2217547   2.860   6.216   6.036 -0.6766  0.0030 -0.1257
  158SAPE   H2R17548   2.765   6.273   6.037 -0.6333  0.2627 -3.1898
  158SAPE   H2S17549   2.933   6.278   6.093 -0.1204  0.1716 -1.0044
  158SAPE    C317550   2.697   6.007   6.426  0.3589 -0.1826 -0.2388
  158SAPE    HX17551   2.744   6.077   6.498  0.2539  0.6352 -0.9460
  158SAPE    HY17552   2.675   5.911   6.478  0.4850 -0.0211  0.1162
  158SAPE   O3117553   2.573   6.069   6.381  0.0916  1.0277 -0.0396
  158SAPE   C3117554   2.563   6.203   6.395 -0.9569 -0.8451  0.1644
  158SAPE   O3217555   2.641   6.272   6.456  0.0813  0.2627 -0.0329
  158SAPE   C3217556   2.429   6.249   6.340 -0.1323  0.3110 -0.0689
  158SAPE   H2X17557   2.373   6.286   6.429  0.8397 -1.2545  1.2588
  158SAPE   H2Y17558   2.386   6.160   6.290  1.8823 -0.1790 -1.0322
  158SAPE   C2317559   2.890   6.217   5.883  0.1801  0.1289  0.2783
  158SAPE   H3R17560   2.812   6.148   5.845  0.9873 -1.2039  0.9593
  158SAPE   H3S17561   2.991   6.173   5.866  0.4142  1.0487 -0.8826
  158SAPE   C2417562   2.888   6.360   5.817  0.2027  0.4915 -0.1122
  158SAPE   H4R17563   2.976   6.419   5.849 -1.1094  2.4915  0.0009
  158SAPE   H4S17564   2.796   6.413   5.851  0.6153  0.4810  1.0593
  158SAPE   C2517565   2.890   6.361   5.666 -0.2807 -0.5460 -0.0790
  158SAPE   H5R17566   2.818   6.293   5.620  0.0040 -1.0683  0.2351
  158SAPE   C2617567   2.978   6.423   5.584  0.1202  0.2589  0.2772
  158SAPE   H6R17568   2.977   6.405   5.475 -2.8896  0.6081  0.1512
  158SAPE   C2717569   3.095   6.511   5.623 -0.3644 -0.6548  0.7051
  158SAPE   H7R17570   3.168   6.478   5.546 -0.7193 -1.7591  0.8300
  158SAPE   H7S17571   3.135   6.490   5.725  0.0218  0.2619  0.7515
  158SAPE   C2817572   3.066   6.661   5.623 -0.2984  0.2617 -0.4909
  158SAPE   H8R17573   3.053   6.707   5.722 -2.5736  0.3234 -0.7639
  158SAPE   C2917574   3.059   6.744   5.519 -0.5223  0.3609 -0.4827
  158SAPE   H9R17575   3.049   6.852   5.542 -2.5385 -0.0891  1.0743
  158SAPE  C21017576   3.081   6.717   5.367 -0.4451 -0.3409  0.0118
  158SAPE  H10R17577   3.026   6.628   5.330  0.0914  0.7125 -3.8494
  158SAPE  H10S17578   3.183   6.679   5.346 -0.8027 -0.4120 -1.7586
  158SAPE  C21117579   3.035   6.836   5.286  0.1151  0.6021 -0.2331
  158SAPE  H11R17580   3.029   6.929   5.344  2.0845  0.0860  0.8840
  158SAPE  C21217581   3.019   6.829   5.156  0.2463  0.2232  0.0803
  158SAPE  H12R17582   3.005   6.914   5.087  2.7804  0.4656 -0.2269
  158SAPE  C21317583   3.062   6.704   5.079  0.1421  0.1385  0.0257
  158SAPE  H13R17584   2.983   6.626   5.090  0.5269 -0.2799 -0.1326
  158SAPE  H13S17585   3.153   6.658   5.122 -0.1578  0.8872  1.5347
  158SAPE  C21417586   3.082   6.722   4.930  0.2571 -0.0830  0.4754
  158SAPE  H14R17587   2.987   6.744   4.878  1.6176  1.8513 -1.3983
  158SAPE  C21517588   3.192   6.709   4.858 -0.3807  0.1794  0.0001
  158SAPE  H15R17589   3.196   6.719   4.748  1.4779  0.7506  0.0904
  158SAPE  C21617590   3.329   6.683   4.915 -0.1680 -0.2899  0.1054
  158SAPE  H16R17591   3.336   6.691   5.026  1.3130 -1.4529  0.1303
  158SAPE  H16S17592   3.400   6.764   4.889  1.5338 -2.0944 -1.2035
  158SAPE  C21717593   3.400   6.557   4.866  0.5127  0.5026  0.4991
  158SAPE  H17R17594   3.445   6.577   4.766  0.3848 -1.9290 -0.1295
  158SAPE  H17S17595   3.320   6.482   4.846  1.8525 -0.6985 -0.5636
  158SAPE  C21817596   3.508   6.499   4.956  0.1431  0.0686  0.5764
  158SAPE  H18R17597   3.456   6.455   5.044  0.6865  0.4588  1.0980
  158SAPE  H18S17598   3.573   6.582   4.992  0.8138 -1.0286  1.9979
  158SAPE  C21917599   3.589   6.388   4.885  0.5526 -1.3789  0.5415
  158SAPE  H19R17600   3.502   6.335   4.839 -2.0738  1.9632  1.2131
  158SAPE  H19S17601   3.657   6.320   4.940  2.0751 -0.0695  0.3323
  158SAPE  C22017602   3.681   6.458   4.780 -0.2721  0.2695  0.1991
  158SAPE  H20R17603   3.633   6.518   4.699  0.1346 -0.9176 -0.9567
  158SAPE  H20S17604   3.740   6.375   4.735  0.1181 -0.3660  1.8432
  158SAPE  H20T17605   3.768   6.512   4.824  2.1406 -1.7150 -1.8161
  158SAPE   C3317606   2.446   6.364   6.236  0.1495  0.3970 -0.2911
  158SAPE   H3X17607   2.537   6.421   6.264 -0.0283 -0.5065  2.4495
  158SAPE   H3Y17608   2.358   6.432   6.239  0.1728  0.4204 -0.1362
  158SAPE   C3417609   2.466   6.301   6.098 -0.2585  0.4682  0.2275
  158SAPE   H4X17610   2.374   6.245   6.071 -0.3871  0.1607  1.2687
  158SAPE   H4Y17611   2.546   6.223   6.093 -1.2151 -0.5164 -0.1762
  158SAPE   C3517612   2.491   6.407   5.990  0.6155 -0.9074 -0.3998
  158SAPE   H5X17613   2.581   6.454   6.034  0.6517 -0.7693 -0.6196
  158SAPE   H5Y17614   2.404   6.475   6.002  1.6741  0.4286 -0.0641
  158SAPE   C3617615   2.506   6.345   5.851  0.2343 -0.5695 -0.2672
  158SAPE   H6X17616   2.436   6.259   5.841 -0.3487 -0.1978  0.5315
  158SAPE   H6Y17617   2.608   6.303   5.840  1.4083  1.5914  1.5355
  158SAPE   C3717618   2.475   6.449   5.752 -0.0301  0.4567  0.1755
  158SAPE   H7X17619   2.547   6.527   5.783  1.0720 -0.3589 -0.2764
  158SAPE   H7Y17620   2.372   6.486   5.771 -0.2826 -1.1651  2.2899
  158SAPE   C3817621   2.504   6.416   5.602  0.2010 -0.4398  0.5434
  158SAPE   H8X17622   2.461   6.322   5.561  0.3633  0.2159 -1.2279
  158SAPE   H8Y17623   2.613   6.402   5.591  0.4059  1.9758 -1.2477
  158SAPE   C3917624   2.455   6.520   5.507 -1.1710 -0.1109  0.0185
  158SAPE   H9X17625   2.483   6.623   5.537 -0.1347 -0.3737 -0.0164
  158SAPE   H9Y17626   2.344   6.510   5.509 -1.3842  1.4377  3.8617
  158SAPE  C31017627   2.499   6.517   5.366 -0.5930  0.1102  0.1354
  158SAPE  H10X17628   2.446   6.596   5.309 -0.0722  0.3923  0.0394
  158SAPE  H10Y17629   2.486   6.418   5.318 -2.1635  1.0637 -1.5449
  158SAPE  C31117630   2.658   6.532   5.354 -0.2316  0.0239  0.0097
  158SAPE  H11X17631   2.708   6.437   5.382  2.5981  1.5140  0.3110
  158SAPE  H11Y17632   2.679   6.599   5.440 -2.2802 -0.1476  0.7132
  158SAPE  C31217633   2.697   6.596   5.227 -0.8698  0.1289  0.0843
  158SAPE  H12X17634   2.807   6.576   5.220 -0.6138  1.8796 -1.9628
  158SAPE  H12Y17635   2.695   6.706   5.244  2.0338 -0.0123  2.1522
  158SAPE  C31317636   2.642   6.540   5.097  0.6662  0.2401 -0.2880
  158SAPE  H13X17637   2.696   6.580   5.008  0.8163 -2.5948 -1.6199
  158SAPE  H13Y17638   2.533   6.556   5.088  0.8004  1.2238 -0.2527
  158SAPE  C31417639   2.668   6.390   5.081 -0.0765  0.3358 -0.1586
  158SAPE  H14X17640   2.604   6.337   5.154  1.2545  1.2738  1.7565
  158SAPE  H14Y17641   2.775   6.372   5.105 -0.7901 -1.6612  1.8982
  158SAPE  C31517642   2.637   6.328   4.943 -0.5013 -0.8204  0.1747
  158SAPE  H15X17643   2.531   6.357   4.925 -0.8903 -3.0063 -1.4070
  158SAPE  H15Y17644   2.642   6.217   4.946 -0.8937 -0.8526  3.1991
  158SAPE  C31617645   2.713   6.389   4.825 -0.3980  0.3137  0.6263
  158SAPE  H16X17646   2.705   6.497   4.800  4.0966  0.5335 -0.7456
  158SAPE  H16Y17647   2.679   6.328   4.738  1.2219 -1.5795  1.2604
  158SAPE  C31717648   2.870   6.366   4.840 -0.3535  0.6589  0.3433
  158SAPE  H17X17649   2.886   6.262   4.877 -4.0563 -0.1826 -0.0367
  158SAPE  H17Y17650   2.917   6.439   4.910 -0.9629 -0.0966  1.5758
  158SAPE  C31817651   2.941   6.379   4.707 -0.3311  0.5712 -0.1050
  158SAPE  H18X17652   2.905   6.297   4.642 -1.3966 -0.3168  1.5333
  158SAPE  H18Y17653   3.049   6.367   4.729 -0.2860 -1.1020 -1.1463
  158SAPE  H18Z17654   2.930   6.479   4.660  0.1212 -0.0222 -1.4975
  159SAPE     N17655   3.840   3.239   2.707 -0.3061 -0.1051  0.5735
  159SAPE   HN117656   3.941   3.214   2.703 -0.8147 -2.2098 -1.8107
  159SAPE   HN217657   3.817   3.277   2.802 -0.9041 -0.9757  0.7857
  159SAPE   HN317658   3.782   3.153   2.699 -2.3056  1.1042  1.1846
  159SAPE   C1217659   3.813   3.349   2.605 -0.8608 -0.3463 -0.7905
  159SAPE  H12A17660   3.705   3.374   2.603 -0.4528  1.7040  0.0100
  159SAPE  H12B17661   3.821   3.311   2.501 -0.0910  0.7539 -1.1589
  159SAPE   C1117662   3.890   3.481   2.636  0.1579  0.0437 -0.6407
  159SAPE  H11A17663   3.874   3.517   2.740  0.5070  0.8915 -0.8718
  159SAPE  H11B17664   3.840   3.560   2.577  0.3353  2.2382  1.9623
  159SAPE     P17665   4.143   3.412   2.681  0.0698  0.1904 -0.7205
  159SAPE   O1317666   4.122   3.268   2.666 -0.3562  0.0077  0.0235
  159SAPE   O1417667   4.274   3.470   2.644 -0.1444 -0.0628 -0.0724
  159SAPE   O1217668   4.026   3.479   2.596 -0.7737 -0.2658  0.1229
  159SAPE   O1117669   4.114   3.456   2.829 -0.6769  0.7057 -0.2396
  159SAPE    C117670   4.178   3.577   2.883 -0.0670 -0.1908  0.0214
  159SAPE    HA17671   4.275   3.602   2.834 -0.3756  1.8724  0.3557
  159SAPE    HB17672   4.111   3.659   2.850 -0.0945 -0.7621 -1.3748
  159SAPE    C217673   4.190   3.565   3.042  0.1083 -0.5299 -0.4982
  159SAPE    HS17674   4.221   3.667   3.074 -2.9794  0.3110  0.0694
  159SAPE   O2117675   4.293   3.473   3.072 -0.0100 -0.1596  0.2203
  159SAPE   C2117676   4.416   3.512   3.066  0.7812 -0.8285 -0.8286
  159SAPE   O2217677   4.457   3.617   3.014  0.1146 -0.2958  0.4855
  159SAPE   C2217678   4.501   3.408   3.132  0.3506  0.0191 -0.5479
  159SAPE   H2R17679   4.458   3.307   3.113 -2.9083  0.8007  1.7789
  159SAPE   H2S17680   4.608   3.410   3.101  0.5810 -1.6512  0.0734
  159SAPE    C317681   4.055   3.532   3.112  0.2845  0.3235  0.0768
  159SAPE    HX17682   4.006   3.447   3.060  2.6366  0.2126 -2.1653
  159SAPE    HY17683   3.993   3.622   3.091  1.7960  1.1650 -0.9517
  159SAPE   O3117684   4.073   3.506   3.252  0.5714 -0.0506  0.2696
  159SAPE   C3117685   3.972   3.456   3.312 -0.6039 -0.4696 -0.6408
  159SAPE   O3217686   3.872   3.419   3.257  0.4375  0.7872  0.3205
  159SAPE   C3217687   4.001   3.457   3.466  0.6356  0.1431 -0.8254
  159SAPE   H2X17688   3.984   3.563   3.495  0.3323  0.3227 -1.6338
  159SAPE   H2Y17689   4.109   3.432   3.471  0.2090 -2.1855 -1.8053
  159SAPE   C2317690   4.503   3.425   3.287  0.3319  0.9609  0.3176
  159SAPE   H3R17691   4.404   3.412   3.334 -0.3853  2.2536 -0.7733
  159SAPE   H3S17692   4.533   3.531   3.304  0.8705  0.8901 -0.1474
  159SAPE   C2417693   4.604   3.314   3.334 -0.7256 -0.0713 -0.0101
  159SAPE   H4R17694   4.702   3.343   3.291 -0.7551 -2.1003 -1.5960
  159SAPE   H4S17695   4.583   3.212   3.296 -0.8990 -0.1128  0.1979
  159SAPE   C2517696   4.603   3.323   3.484  0.5868  0.3039 -0.1744
  159SAPE   H5R17697   4.507   3.352   3.528 -0.7078 -0.8754 -2.0532
  159SAPE   C2617698   4.714   3.310   3.559  0.6127  0.1915  0.7333
  159SAPE   H6R17699   4.713   3.323   3.668 -1.6013 -2.3149  1.1284
  159SAPE   C2717700   4.851   3.274   3.501 -0.6502  0.1257  0.0858
  159SAPE   H7R17701   4.848   3.211   3.410 -1.7226 -0.5923  0.6055
  159SAPE   H7S17702   4.905   3.211   3.574 -0.8382  0.3990  0.4612
  159SAPE   C2817703   4.923   3.398   3.454 -0.7303 -0.5834 -0.0291
  159SAPE   H8R17704   4.940   3.411   3.346  0.9019  2.2672  0.4843
  159SAPE   C2917705   4.993   3.487   3.529  0.1002 -0.6110  0.2844
  159SAPE   H9R17706   5.044   3.572   3.481 -1.2193  0.0083 -0.0660
  159SAPE  C21017707   4.991   3.491   3.678 -0.0016 -0.0969 -0.0572
  159SAPE  H10R17708   4.884   3.481   3.704 -0.2688 -1.0036 -1.3817
  159SAPE  H10S17709   5.027   3.590   3.714 -1.0967  0.4316 -0.3602
  159SAPE  C21117710   5.057   3.378   3.758  0.3773  0.2765 -0.0764
  159SAPE  H11R17711   4.999   3.284   3.760 -1.0779  1.1516  0.0560
  159SAPE  C21217712   5.163   3.377   3.834  0.3116 -0.5648  0.2440
  159SAPE  H12R17713   5.206   3.279   3.857  0.5344 -0.0163  2.3670
  159SAPE  C21317714   5.255   3.494   3.846 -0.3072 -0.2007 -0.2594
  159SAPE  H13R17715   5.212   3.570   3.916 -0.4615 -1.0964  0.6333
  159SAPE  H13S17716   5.260   3.528   3.740 -1.4429 -2.3571 -1.0553
  159SAPE  C21417717   5.390   3.450   3.891  0.2362 -0.2354 -0.2353
  159SAPE  H14R17718   5.448   3.447   3.797 -3.1332 -1.1330 -2.4989
  159SAPE  C21517719   5.442   3.430   4.015 -0.0359  0.2230  0.1369
  159SAPE  H15R17720   5.551   3.415   4.018  0.1369  1.4754  0.8295
  159SAPE  C21617721   5.387   3.458   4.154 -0.4689  0.2036  0.6140
  159SAPE  H16R17722   5.359   3.358   4.196 -0.1920 -1.3620 -2.6173
  159SAPE  H16S17723   5.299   3.524   4.141  1.0448  1.7737 -2.3957
  159SAPE  C21717724   5.497   3.512   4.248 -0.0476 -0.6172 -0.2088
  159SAPE  H17R17725   5.558   3.586   4.192  0.0550 -0.5453 -0.0023
  159SAPE  H17S17726   5.568   3.429   4.269 -0.3550 -0.2864  2.6361
  159SAPE  C21817727   5.442   3.565   4.380 -0.3314  0.9221 -0.5985
  159SAPE  H18R17728   5.419   3.478   4.445  1.4893  2.5608  2.5036
  159SAPE  H18S17729   5.353   3.628   4.358 -0.3049  0.9153 -0.7214
  159SAPE  C21917730   5.543   3.647   4.468  0.3939  0.9250  0.5642
  159SAPE  H19R17731   5.494   3.685   4.561  0.7560  2.4865  0.1477
  159SAPE  H19S17732   5.580   3.739   4.418  0.3692  0.0518 -1.0977
  159SAPE  C22017733   5.660   3.557   4.499 -0.2816  0.3133 -0.0442
  159SAPE  H20R17734   5.719   3.526   4.410  0.3615  0.5771  0.2815
  159SAPE  H20S17735   5.625   3.470   4.558  3.0264 -1.3906 -0.3696
  159SAPE  H20T17736   5.731   3.619   4.558 -2.4051 -0.0912  3.2069
  159SAPE   C3317737   3.923   3.350   3.555 -0.5715 -0.8861 -0.0506
  159SAPE   H3X17738   3.924   3.253   3.501 -1.8356 -1.1119  0.3263
  159SAPE   H3Y17739   3.816   3.374   3.567 -0.5745 -0.5472 -0.6764
  159SAPE   C3417740   3.993   3.302   3.689 -0.2815 -0.3929  0.0907
  159SAPE   H4X17741   4.093   3.260   3.663 -0.5734 -0.8826 -0.2431
  159SAPE   H4Y17742   3.926   3.226   3.733 -1.4684  1.0813  0.9491
  159SAPE   C3517743   4.021   3.422   3.783  0.5082  0.0657 -0.6580
  159SAPE   H5X17744   3.924   3.467   3.813 -0.7217 -2.3825 -0.6918
  159SAPE   H5Y17745   4.081   3.504   3.738  2.2800 -1.3781 -1.0397
  159SAPE   C3617746   4.073   3.379   3.915 -0.3651 -0.1121 -0.0890
  159SAPE   H6X17747   4.174   3.333   3.901 -0.5954 -0.4458 -0.7133
  159SAPE   H6Y17748   4.011   3.292   3.945 -0.3945 -0.1971 -0.3956
  159SAPE   C3717749   4.062   3.480   4.023 -0.1683 -0.1760 -0.1535
  159SAPE   H7X17750   3.960   3.523   4.033 -0.1552 -0.2838  0.4579
  159SAPE   H7Y17751   4.135   3.557   3.990 -0.4833  0.5848  0.8812
  159SAPE   C3817752   4.109   3.434   4.165  0.6221 -0.5000 -0.7254
  159SAPE   H8X17753   4.216   3.409   4.150  1.0922  0.9353  0.0727
  159SAPE   H8Y17754   4.066   3.343   4.210  1.9972 -0.5093  0.6193
  159SAPE   C3917755   4.108   3.547   4.269  1.1433 -0.0061  0.3542
  159SAPE   H9X17756   4.004   3.581   4.288  0.5323 -1.5505 -0.0917
  159SAPE   H9Y17757   4.171   3.632   4.233  1.4588 -1.0129 -1.6603
  159SAPE  C31017758   4.166   3.492   4.402  0.7455  0.0298 -0.0018
  159SAPE  H10X17759   4.258   3.434   4.379  1.2953  1.0473 -0.4546
  159SAPE  H10Y17760   4.094   3.425   4.452  0.3537  1.3013  1.2077
  159SAPE  C31117761   4.193   3.594   4.514 -0.5642 -0.5549  0.0976
  159SAPE  H11X17762   4.098   3.642   4.546  0.4041 -0.6195  3.5258
  159SAPE  H11Y17763   4.265   3.676   4.491 -1.3580  1.0878  2.9082
  159SAPE  C31217764   4.256   3.514   4.638 -0.0337 -0.4077  0.6510
  159SAPE  H12X17765   4.326   3.439   4.594 -2.1520 -1.3970 -1.2721
  159SAPE  H12Y17766   4.171   3.457   4.682 -2.7440  1.1271 -2.1494
  159SAPE  C31317767   4.323   3.605   4.737 -0.2193  0.3726  0.3309
  159SAPE  H13X17768   4.270   3.700   4.759  1.2853  1.3512 -0.1425
  159SAPE  H13Y17769   4.422   3.629   4.694  0.8403 -2.5238  0.9722
  159SAPE  C31417770   4.344   3.533   4.872  0.2454 -0.2283  0.4415
  159SAPE  H14X17771   4.317   3.427   4.851  4.7144 -1.6869  0.9626
  159SAPE  H14Y17772   4.273   3.579   4.944  0.7007 -1.5089  1.7686
  159SAPE  C31517773   4.488   3.526   4.921 -0.1902  0.7006 -0.5583
  159SAPE  H15X17774   4.522   3.621   4.969 -2.0667  0.2829  1.8234
  159SAPE  H15Y17775   4.556   3.502   4.838  0.1881  1.1509 -0.3842
  159SAPE  C31617776   4.498   3.415   5.032 -0.2689  0.4986 -0.1653
  159SAPE  H16X17777   4.448   3.321   4.998  2.6347 -1.5839  0.9888
  159SAPE  H16Y17778   4.434   3.443   5.119 -2.6898 -1.5167 -1.1710
  159SAPE  C31717779   4.642   3.386   5.088 -0.1590 -0.3806 -0.1875
  159SAPE  H17X17780   4.644   3.333   5.186 -2.5716 -2.5132 -1.2041
  159SAPE  H17Y17781   4.689   3.486   5.101 -3.3796  1.5643 -2.2127
  159SAPE  C31817782   4.746   3.313   4.992  0.4868 -0.4166  0.1874
  159SAPE  H18X17783   4.715   3.328   4.886 -1.1069  0.3375  0.7250
  159SAPE  H18Y17784   4.726   3.207   5.016  0.5950 -0.2683  0.9609
  159SAPE  H18Z17785   4.841   3.365   5.020 -0.1605  1.6365 -1.1491
  160SAPE     N17786   3.759   0.771   2.217 -0.4302 -0.6642  0.5095
  160SAPE   HN117787   3.825   0.753   2.296 -0.0699 -0.7051  0.2005
  160SAPE   HN217788   3.671   0.725   2.247 -1.1859  0.1086 -0.4613
  160SAPE   HN317789   3.799   0.735   2.128  0.0509 -0.9244  0.8255
  160SAPE   C1217790   3.740   0.922   2.191 -0.1248 -0.1446 -0.1679
  160SAPE  H12A17791   3.718   0.932   2.082  0.0867  0.2265 -0.1792
  160SAPE  H12B17792   3.841   0.963   2.211 -0.2154 -0.3985  0.8707
  160SAPE   C1117793   3.635   0.986   2.276 -0.0331 -0.2035  0.6828
  160SAPE  H11A17794   3.637   1.090   2.236  0.7173 -1.7780 -4.0924
  160SAPE  H11B17795   3.649   0.970   2.385 -2.0150 -1.5468  0.7775
  160SAPE     P17796   3.423   0.821   2.307  0.2661  0.1583  0.2100
  160SAPE   O1317797   3.280   0.833   2.264 -0.1090  0.2884  0.3475
  160SAPE   O1417798   3.498   0.702   2.263  0.1384  0.1344  0.6960
  160SAPE   O1217799   3.500   0.947   2.245 -0.2694 -0.2054  0.0121
  160SAPE   O1117800   3.440   0.837   2.462  0.2509 -0.3365  0.0714
  160SAPE    C117801   3.539   0.764   2.537  0.5705  0.7832  0.3741
  160SAPE    HA17802   3.599   0.688   2.482  0.9802  0.9201  0.6304
  160SAPE    HB17803   3.611   0.836   2.580  0.5459 -0.8968  3.5187
  160SAPE    C217804   3.492   0.677   2.657  0.4845 -0.0009  0.5999
  160SAPE    HS17805   3.452   0.586   2.607 -0.5328  0.7238  0.0627
  160SAPE   O2117806   3.407   0.750   2.739  0.6699  0.4296  0.4956
  160SAPE   C2117807   3.277   0.756   2.719 -0.4092  0.5038  0.1274
  160SAPE   O2217808   3.222   0.704   2.623  0.1030  0.1593  0.5125
  160SAPE   C2217809   3.216   0.833   2.842  0.0863  0.4930  0.4211
  160SAPE   H2R17810   3.270   0.814   2.937  0.4452 -0.3121  0.0668
  160SAPE   H2S17811   3.230   0.942   2.822 -2.0655  0.6774 -0.2752
  160SAPE    C317812   3.618   0.644   2.736 -0.0808  0.3604  0.0811
  160SAPE    HX17813   3.660   0.739   2.775  1.4542  0.5742 -1.9340
  160SAPE    HY17814   3.689   0.596   2.666  0.9313 -0.7756  1.8257
  160SAPE   O3117815   3.588   0.552   2.836 -0.0735  0.1921  0.5421
  160SAPE   C3117816   3.530   0.595   2.944  0.0320 -0.9939 -0.5042
  160SAPE   O3217817   3.522   0.713   2.987 -0.1671  0.2790 -0.3479
  160SAPE   C3217818   3.467   0.478   3.016 -0.2175 -0.4246 -0.0017
  160SAPE   H2X17819   3.503   0.381   2.975  0.4144 -0.1719 -0.0628
  160SAPE   H2Y17820   3.359   0.498   3.006 -0.0022  0.3451 -0.8719
  160SAPE   C2317821   3.063   0.807   2.863  0.2693  0.5347 -0.0674
  160SAPE   H3R17822   3.045   0.698   2.871 -2.0772  0.7276 -1.6370
  160SAPE   H3S17823   3.012   0.830   2.766 -0.2994 -1.8871 -0.4072
  160SAPE   C2417824   3.016   0.896   2.972 -0.4324  0.1450 -0.1508
  160SAPE   H4R17825   3.034   1.002   2.944 -0.3338  0.0823 -0.3308
  160SAPE   H4S17826   3.084   0.875   3.057  1.0501 -1.0179 -1.5569
  160SAPE   C2517827   2.870   0.874   3.013  0.7367 -0.2019 -0.2935
  160SAPE   H5R17828   2.832   0.772   3.003  2.1017 -0.8292  0.6466
  160SAPE   C2617829   2.775   0.972   3.035 -0.9693 -0.5312  0.6331
  160SAPE   H6R17830   2.671   0.951   3.066 -1.0059  1.6262  2.1871
  160SAPE   C2717831   2.797   1.118   3.032  0.4205 -0.5386 -0.2790
  160SAPE   H7R17832   2.705   1.172   3.001 -0.2314 -0.9719  0.8141
  160SAPE   H7S17833   2.871   1.147   2.954  0.7789 -0.8904 -0.0781
  160SAPE   C2817834   2.843   1.175   3.168 -0.2222 -0.8396  0.0402
  160SAPE   H8R17835   2.949   1.156   3.193 -0.4464 -1.0649  0.8454
  160SAPE   C2917836   2.762   1.241   3.251  0.2728 -0.5082  0.0753
  160SAPE   H9R17837   2.799   1.284   3.346 -0.2862  0.4994 -0.1455
  160SAPE  C21017838   2.618   1.288   3.227 -0.0731 -0.3579  0.8095
  160SAPE  H10R17839   2.584   1.268   3.124 -0.5262  0.3302  0.8221
  160SAPE  H10S17840   2.606   1.397   3.246 -0.3908 -0.3635  0.6424
  160SAPE  C21117841   2.536   1.219   3.330  0.7115 -0.0817 -0.0780
  160SAPE  H11R17842   2.509   1.118   3.298  1.6090 -1.0236  1.9556
  160SAPE  C21217843   2.502   1.256   3.456  0.2925 -0.0949 -0.4703
  160SAPE  H12R17844   2.442   1.178   3.505 -0.7855  0.3317 -1.0804
  160SAPE  C21317845   2.530   1.391   3.519  0.3241 -0.1344  0.5883
  160SAPE  H13R17846   2.438   1.444   3.487  0.8617 -0.9431 -2.6310
  160SAPE  H13S17847   2.610   1.453   3.472 -1.9213  1.0227 -1.9931
  160SAPE  C21417848   2.538   1.400   3.668  0.0735 -0.4952  0.0165
  160SAPE  H14R17849   2.593   1.318   3.717  1.3698 -0.0129 -0.6160
  160SAPE  C21517850   2.464   1.483   3.742  0.2510 -0.9516  0.2557
  160SAPE  H15R17851   2.479   1.496   3.850 -1.0222  1.8737  0.2055
  160SAPE  C21617852   2.378   1.599   3.698 -0.0461  0.3163 -0.0563
  160SAPE  H16R17853   2.277   1.565   3.666 -0.1188  1.1056 -0.7047
  160SAPE  H16S17854   2.428   1.639   3.607  2.9024 -0.8716  0.9093
  160SAPE  C21717855   2.368   1.705   3.805  0.0678 -0.2950 -0.2606
  160SAPE  H17R17856   2.298   1.670   3.884  0.8757 -2.1480 -0.3183
  160SAPE  H17S17857   2.332   1.802   3.765  1.3966  1.3775  2.2725
  160SAPE  C21817858   2.498   1.752   3.872  0.1374 -0.6461 -0.1751
  160SAPE  H18R17859   2.552   1.810   3.794 -0.8115 -1.1877 -1.2569
  160SAPE  H18S17860   2.570   1.671   3.899  1.1011 -1.0307 -3.4099
  160SAPE  C21917861   2.479   1.849   3.992 -0.5903 -0.3320 -0.4180
  160SAPE  H19R17862   2.418   1.792   4.066  0.1761 -0.9077 -0.2119
  160SAPE  H19S17863   2.405   1.923   3.955  1.2068  1.8025  0.0527
  160SAPE  C22017864   2.591   1.918   4.068 -0.3867 -0.2537  0.7676
  160SAPE  H20R17865   2.655   1.998   4.026 -1.6359  2.2312  3.2439
  160SAPE  H20S17866   2.655   1.843   4.120  0.4695 -2.2004 -2.7915
  160SAPE  H20T17867   2.536   1.964   4.153 -2.1298 -1.6046  0.4392
  160SAPE   C3317868   3.486   0.483   3.174  0.4131 -0.7190  0.0754
  160SAPE   H3X17869   3.419   0.407   3.220 -2.2941 -0.3026 -2.8709
  160SAPE   H3Y17870   3.460   0.586   3.207  1.6853  0.3155 -1.9231
  160SAPE   C3417871   3.628   0.459   3.220 -0.1207  0.4558 -0.0074
  160SAPE   H4X17872   3.691   0.539   3.175  0.5096 -0.9549 -1.7376
  160SAPE   H4Y17873   3.657   0.370   3.160  2.9113  1.7976 -0.7340
  160SAPE   C3517874   3.635   0.434   3.366  0.0952  0.2830  0.1440
  160SAPE   H5X17875   3.742   0.425   3.395  0.7893 -1.0348 -2.5943
  160SAPE   H5Y17876   3.581   0.338   3.378 -0.9743  0.6938 -1.1122
  160SAPE   C3617877   3.564   0.539   3.455 -0.6938  0.2546 -0.4381
  160SAPE   H6X17878   3.573   0.494   3.556 -0.2688 -2.9155 -1.7700
  160SAPE   H6Y17879   3.456   0.548   3.430 -0.3125  1.3161 -1.8306
  160SAPE   C3717880   3.627   0.678   3.463 -0.6631 -0.7725 -0.4767
  160SAPE   H7X17881   3.640   0.711   3.358 -0.2083 -1.0087 -0.5006
  160SAPE   H7Y17882   3.734   0.658   3.489 -0.5729 -2.6576 -2.1141
  160SAPE   C3817883   3.559   0.773   3.560 -0.0814 -0.4573  0.3642
  160SAPE   H8X17884   3.450   0.774   3.542  0.0575  0.3320 -0.5174
  160SAPE   H8Y17885   3.586   0.880   3.553  2.0292 -0.9943 -0.5202
  160SAPE   C3917886   3.595   0.744   3.705  0.4936 -0.2733 -0.3420
  160SAPE   H9X17887   3.702   0.728   3.729  0.3240 -0.1517  0.5451
  160SAPE   H9Y17888   3.544   0.648   3.730  0.2931  0.5334  2.7686
  160SAPE  C31017889   3.539   0.846   3.808  0.8325 -0.5551  0.2861
  160SAPE  H10X17890   3.432   0.869   3.787  0.8141  0.7394  1.6212
  160SAPE  H10Y17891   3.587   0.944   3.786  1.3510 -0.4317  1.8491
  160SAPE  C31117892   3.568   0.797   3.948 -1.0009  0.2634 -0.1376
  160SAPE  H11X17893   3.677   0.784   3.965 -1.0662 -2.4080 -1.2006
  160SAPE  H11Y17894   3.530   0.692   3.951  1.6730 -1.2586 -6.1423
  160SAPE  C31217895   3.502   0.890   4.055 -0.0279 -0.7455 -0.5862
  160SAPE  H12X17896   3.517   0.996   4.025 -3.3664 -0.0953 -0.3496
  160SAPE  H12Y17897   3.557   0.871   4.150  0.9975 -1.9634 -1.4003
  160SAPE  C31317898   3.346   0.869   4.061 -0.3972 -0.3023 -0.1209
  160SAPE  H13X17899   3.320   0.772   4.108 -1.2499  0.2236  0.5104
  160SAPE  H13Y17900   3.298   0.862   3.961 -2.9890 -0.7035  1.0596
  160SAPE  C31417901   3.277   0.980   4.148  0.4550 -0.1387 -0.6542
  160SAPE  H14X17902   3.308   1.077   4.105 -0.2067 -0.1564 -1.1766
  160SAPE  H14Y17903   3.322   0.998   4.248  0.6064  1.6743 -1.0170
  160SAPE  C31517904   3.132   0.962   4.159 -0.3508  0.4129  0.1591
  160SAPE  H15X17905   3.114   0.870   4.219 -0.1275  0.6372  0.5737
  160SAPE  H15Y17906   3.087   0.943   4.059  1.8263 -1.2963 -0.5848
  160SAPE  C31617907   3.059   1.079   4.225  0.2317 -0.6820 -0.3856
  160SAPE  H16X17908   2.948   1.070   4.224  0.0526  0.6461  1.7769
  160SAPE  H16Y17909   3.089   1.166   4.163  1.4720 -0.5630  0.3540
  160SAPE  C31717910   3.099   1.116   4.365  0.6206  0.8788  0.0216
  160SAPE  H17X17911   3.195   1.170   4.351  0.8597  0.1956 -1.0857
  160SAPE  H17Y17912   3.119   1.021   4.419 -0.9123  1.3592  1.5194
  160SAPE  C31817913   2.995   1.196   4.444 -0.5774 -0.3452  0.2543
  160SAPE  H18X17914   2.982   1.302   4.412 -1.1132 -0.6967 -0.7489
  160SAPE  H18Y17915   3.025   1.202   4.551  1.8571  0.8704 -0.4247
  160SAPE  H18Z17916   2.894   1.154   4.425 -0.5492  0.3533 -1.6809
  161SAPE     N17917   3.311   5.887   2.556  0.5173 -0.4456 -0.3623
  161SAPE   HN117918   3.410   5.855   2.557  0.3929 -0.8239  0.0677
  161SAPE   HN217919   3.259   5.798   2.550 -1.1101  0.4871 -0.7360
  161SAPE   HN317920   3.290   5.946   2.473  1.1006 -0.6512 -0.6646
  161SAPE   C1217921   3.285   5.967   2.682  0.0480 -0.3323  0.0486
  161SAPE  H12A17922   3.332   5.902   2.759  1.5624 -0.2148 -0.7448
  161SAPE  H12B17923   3.176   5.979   2.701  0.4980 -0.1814  2.9470
  161SAPE   C1117924   3.360   6.105   2.670  0.0064  0.2195  0.4631
  161SAPE  H11A17925   3.470   6.089   2.669 -0.1322 -1.1542  1.9323
  161SAPE  H11B17926   3.340   6.167   2.760 -0.4864  0.2645  0.3219
  161SAPE     P17927   3.362   6.324   2.533 -0.2324  0.1280  0.1087
  161SAPE   O1317928   3.504   6.345   2.561  0.2653  0.0780  0.1594
  161SAPE   O1417929   3.313   6.363   2.399  0.3934  0.1258 -0.4605
  161SAPE   O1217930   3.318   6.168   2.554  0.7783  0.2823  0.2032
  161SAPE   O1117931   3.272   6.386   2.647  0.2899  0.1931  0.0461
  161SAPE    C117932   3.136   6.417   2.637 -0.0347 -0.2769  0.4501
  161SAPE    HA17933   3.116   6.521   2.603 -0.2854 -0.1191  1.0569
  161SAPE    HB17934   3.084   6.351   2.565 -0.5068  2.3825 -1.7948
  161SAPE    C217935   3.058   6.393   2.766 -0.0142 -0.3639  1.0545
  161SAPE    HS17936   2.950   6.412   2.751  0.4137  2.5884  1.1813
  161SAPE   O2117937   3.108   6.477   2.874 -0.4925 -0.1000  0.5074
  161SAPE   C2117938   3.048   6.594   2.870  0.7705  0.4758  0.1130
  161SAPE   O2217939   2.960   6.623   2.795  0.5390  0.2490  0.2426
  161SAPE   C2217940   3.112   6.681   2.978 -0.0039 -0.0652  0.1897
  161SAPE   H2R17941   3.104   6.627   3.075  0.6330  1.1984  0.9708
  161SAPE   H2S17942   3.217   6.711   2.959  0.1794 -0.6499  0.2375
  161SAPE    C317943   3.062   6.243   2.807 -0.8919  0.0882 -0.5045
  161SAPE    HX17944   3.168   6.222   2.832 -0.2735  2.3534 -0.9450
  161SAPE    HY17945   3.036   6.172   2.726  0.3332 -1.1856  0.1645
  161SAPE   O3117946   2.973   6.212   2.915 -0.6952 -0.2922 -0.0459
  161SAPE   C3117947   2.975   6.090   2.971 -0.1849 -0.2402 -0.1138
  161SAPE   O3217948   3.051   5.999   2.939  0.5386  0.0126  0.5260
  161SAPE   C3217949   2.862   6.077   3.070  0.2216 -0.1727 -1.1401
  161SAPE   H2X17950   2.773   6.029   3.022 -2.3765  3.7564 -0.6634
  161SAPE   H2Y17951   2.833   6.182   3.091 -0.8613 -0.2135 -2.2719
  161SAPE   C2317952   3.027   6.817   3.003 -0.3065 -0.3180 -0.2124
  161SAPE   H3R17953   2.922   6.794   3.032 -0.1094  2.3184  3.1959
  161SAPE   H3S17954   3.024   6.881   2.913 -3.4009 -0.2741 -0.1653
  161SAPE   C2417955   3.083   6.908   3.111  0.0171 -0.1492 -0.6671
  161SAPE   H4R17956   3.074   6.855   3.208  1.5615 -0.6766 -0.7788
  161SAPE   H4S17957   3.024   7.002   3.109  0.8088  0.5837  2.9197
  161SAPE   C2517958   3.227   6.948   3.084 -0.3003  0.2744  0.2448
  161SAPE   H5R17959   3.259   6.960   2.980  1.5970 -2.8170  0.3513
  161SAPE   C2617960   3.301   6.997   3.177 -0.2056 -0.2655 -0.2095
  161SAPE   H6R17961   3.403   7.032   3.155  0.3816 -0.0667  2.4802
  161SAPE   C2717962   3.259   7.015   3.323  0.0648 -0.3464 -0.2772
  161SAPE   H7R17963   3.151   6.997   3.340  0.4490 -3.0918 -0.1934
  161SAPE   H7S17964   3.281   7.121   3.344  2.7206 -1.1051  1.2643
  161SAPE   C2817965   3.339   6.936   3.424 -0.1998  0.5485 -0.4635
  161SAPE   H8R17966   3.409   6.863   3.381 -0.7884 -0.6321  0.5087
  161SAPE   C2917967   3.340   6.955   3.558  0.3302 -0.1766  0.2208
  161SAPE   H9R17968   3.406   6.892   3.620 -0.4330  1.4358  2.8206
  161SAPE  C21017969   3.267   7.067   3.632  0.7854  0.1339  0.0338
  161SAPE  H10R17970   3.249   7.030   3.735  0.3719  2.3919  0.8263
  161SAPE  H10S17971   3.174   7.086   3.576  0.5855 -2.0168 -0.4275
  161SAPE  C21117972   3.368   7.183   3.641  0.4453  0.6659  0.3074
  161SAPE  H11R17973   3.402   7.224   3.545 -0.8634 -1.2020 -1.0249
  161SAPE  C21217974   3.409   7.252   3.755  0.7050  0.3547 -0.0789
  161SAPE  H12R17975   3.498   7.317   3.752  1.1720 -0.1024  2.0215
  161SAPE  C21317976   3.372   7.224   3.903  0.3768  0.5199 -0.7757
  161SAPE  H13R17977   3.375   7.116   3.929 -1.8756  0.2743 -1.3532
  161SAPE  H13S17978   3.262   7.239   3.907  0.1076 -0.9514 -1.7589
  161SAPE  C21417979   3.442   7.294   4.015  0.7141 -0.4074 -0.0397
  161SAPE  H14R17980   3.524   7.358   3.981  0.9404 -0.3813  0.5559
  161SAPE  C21517981   3.416   7.299   4.141  0.1259 -0.3712  0.1861
  161SAPE  H15R17982   3.480   7.357   4.210 -3.2564  1.8775  1.6967
  161SAPE  C21617983   3.300   7.235   4.203  0.0935 -0.3750 -0.2506
  161SAPE  H16R17984   3.328   7.132   4.234 -1.1324 -1.0859 -1.3983
  161SAPE  H16S17985   3.212   7.226   4.135  0.4043 -0.8017 -0.5940
  161SAPE  C21717986   3.243   7.306   4.338  0.3551 -0.4761  0.8490
  161SAPE  H17R17987   3.328   7.328   4.406  2.2986 -0.6587 -1.3891
  161SAPE  H17S17988   3.186   7.219   4.376  0.3264 -1.3450 -1.0821
  161SAPE  C21817989   3.151   7.429   4.303  0.1386 -0.3309  0.2514
  161SAPE  H18R17990   3.049   7.400   4.270 -0.4780  0.2135  1.5949
  161SAPE  H18S17991   3.193   7.491   4.222  1.2050 -0.6284  0.5551
  161SAPE  C21917992   3.132   7.531   4.423  0.4422 -0.1621 -0.4895
  161SAPE  H19R17993   3.085   7.478   4.509  0.8749  2.2655  1.3695
  161SAPE  H19S17994   3.056   7.605   4.391  2.3205  1.4396 -1.4875
  161SAPE  C22017995   3.254   7.613   4.459 -0.3081  0.8959 -0.2380
  161SAPE  H20R17996   3.286   7.669   4.369 -3.2262  0.8995 -1.3862
  161SAPE  H20S17997   3.336   7.550   4.499 -0.8465  1.3139  1.6198
  161SAPE  H20T17998   3.223   7.687   4.536  2.0005 -0.5683  2.2654
  161SAPE   C3317999   2.904   6.008   3.200  0.2481  0.0533  0.2464
  161SAPE   H3X18000   3.012   5.986   3.192  0.4308  1.1724 -0.6926
  161SAPE   H3Y18001   2.842   5.919   3.224  1.5830 -0.2795  2.7037
  161SAPE   C3418002   2.863   6.089   3.325  0.4493  0.7210  0.1333
  161SAPE   H4X18003   2.760   6.129   3.315  0.2254 -0.0056 -0.5582
  161SAPE   H4Y18004   2.934   6.175   3.319  2.5226 -0.8706  0.8105
  161SAPE   C3518005   2.863   6.021   3.461 -0.1246  0.4829  0.4263
  161SAPE   H5X18006   2.963   5.996   3.501 -0.2436  1.0730  1.1077
  161SAPE   H5Y18007   2.796   5.932   3.463 -1.2586  1.3042  0.0728
  161SAPE   C3618008   2.821   6.127   3.567  0.3609  0.0988 -0.2878
  161SAPE   H6X18009   2.717   6.153   3.537  0.0501 -0.0322  0.6229
  161SAPE   H6Y18010   2.887   6.215   3.553  1.7830 -1.1357 -1.6968
  161SAPE   C3718011   2.822   6.077   3.714  0.5490  0.1253  0.5221
  161SAPE   H7X18012   2.913   6.015   3.730  0.7724  0.9801  2.9051
  161SAPE   H7Y18013   2.739   6.004   3.726  0.0826  0.7723  1.3365
  161SAPE   C3818014   2.810   6.198   3.812  0.0123  0.4146  0.7805
  161SAPE   H8X18015   2.723   6.261   3.786 -0.6922 -0.1707  1.6705
  161SAPE   H8Y18016   2.907   6.252   3.805 -0.1024  0.3668 -2.6647
  161SAPE   C3918017   2.791   6.151   3.957  0.4672 -0.8061 -0.6609
  161SAPE   H9X18018   2.823   6.235   4.022 -0.2652  1.6490 -3.2708
  161SAPE   H9Y18019   2.851   6.062   3.987  0.5214 -0.7554 -0.6208
  161SAPE  C31018020   2.642   6.098   3.990 -0.4123  0.1235  0.1933
  161SAPE  H10X18021   2.617   6.033   3.904 -0.5263 -1.4858  1.4044
  161SAPE  H10Y18022   2.574   6.186   3.984 -0.7209 -0.2230 -2.4754
  161SAPE  C31118023   2.633   6.025   4.128  0.5745  0.4490  0.4940
  161SAPE  H11X18024   2.689   5.931   4.112  0.2403  0.5293 -1.3536
  161SAPE  H11Y18025   2.527   5.998   4.148  0.3879 -3.4849 -4.0661
  161SAPE  C31218026   2.685   6.108   4.247  0.3120 -0.4405  0.3268
  161SAPE  H12X18027   2.619   6.196   4.268 -0.7063 -0.8959 -0.8675
  161SAPE  H12Y18028   2.792   6.129   4.225  0.3271 -2.2129 -1.4842
  161SAPE  C31318029   2.683   6.019   4.365  0.2296 -0.4182 -0.3217
  161SAPE  H13X18030   2.756   5.936   4.354 -2.4411 -3.0474  0.4226
  161SAPE  H13Y18031   2.580   5.976   4.368  0.4190 -0.9023 -0.6851
  161SAPE  C31418032   2.709   6.100   4.501 -0.1743 -0.6109  0.2247
  161SAPE  H14X18033   2.649   6.192   4.485 -1.0557 -1.2035 -0.0028
  161SAPE  H14Y18034   2.815   6.131   4.487  0.9973 -3.6345  1.5371
  161SAPE  C31518035   2.667   6.030   4.632  0.3507 -0.4713  0.4425
  161SAPE  H15X18036   2.693   6.088   4.723 -3.3087  1.0010  0.7296
  161SAPE  H15Y18037   2.703   5.926   4.640 -0.8982 -1.0114 -0.6256
  161SAPE  C31618038   2.510   6.010   4.640 -0.5878 -0.1870 -0.2705
  161SAPE  H16X18039   2.486   5.931   4.714 -0.5757 -0.8618 -0.9753
  161SAPE  H16Y18040   2.463   5.969   4.548 -0.1701 -0.8491 -0.1921
  161SAPE  C31718041   2.443   6.135   4.688 -0.7814  0.2683 -0.1825
  161SAPE  H17X18042   2.455   6.212   4.608  2.8382 -0.2684 -0.3129
  161SAPE  H17Y18043   2.488   6.171   4.782 -0.8053 -2.5563  1.0097
  161SAPE  C31818044   2.290   6.104   4.718  0.7527  0.0526 -0.1350
  161SAPE  H18X18045   2.235   6.187   4.767 -1.4042 -1.0675 -0.5642
  161SAPE  H18Y18046   2.287   6.024   4.795 -1.0424 -1.7173 -1.9361
  161SAPE  H18Z18047   2.249   6.069   4.621  2.9759 -0.5986 -0.8978
  162SAPE     N18048   1.740   6.788   2.346 -0.1833  0.2026  0.4081
  162SAPE   HN118049   1.722   6.815   2.247  2.3104  0.6177 -0.0087
  162SAPE   HN218050   1.770   6.689   2.360  1.6605  1.0397  3.0632
  162SAPE   HN318051   1.652   6.793   2.401  0.1407 -3.0350  1.4658
  162SAPE   C1218052   1.848   6.873   2.402  0.7809  0.2448  0.3054
  162SAPE  H12A18053   1.889   6.937   2.321 -1.9589 -0.3065 -1.6823
  162SAPE  H12B18054   1.928   6.804   2.435  0.1981 -0.4917  0.2154
  162SAPE   C1118055   1.789   6.958   2.515 -0.3434  0.2824 -0.0997
  162SAPE  H11A18056   1.863   7.038   2.538 -0.1763  0.6703 -1.8512
  162SAPE  H11B18057   1.769   6.895   2.604  0.0965  1.4398  0.8437
  162SAPE     P18058   1.592   7.122   2.567 -0.3900 -0.0508  0.3237
  162SAPE   O1318059   1.562   7.245   2.496  0.2578 -0.2012 -0.3933
  162SAPE   O1418060   1.480   7.040   2.622  0.3716  0.5705 -0.3891
  162SAPE   O1218061   1.671   7.024   2.473 -0.9121 -0.7611  0.0583
  162SAPE   O1118062   1.698   7.144   2.687 -0.6408 -0.2921 -0.2179
  162SAPE    C118063   1.771   7.273   2.697  0.4738  0.1421  0.6326
  162SAPE    HA18064   1.864   7.268   2.636  0.5547  0.6154  0.7138
  162SAPE    HB18065   1.706   7.357   2.665 -2.9306 -1.9700  1.4115
  162SAPE    C218066   1.812   7.280   2.846  0.1674 -0.5694 -0.0012
  162SAPE    HS18067   1.887   7.362   2.852  0.1755 -0.5248 -0.6664
  162SAPE   O2118068   1.860   7.164   2.899 -0.7248  0.3436 -0.5144
  162SAPE   C2118069   1.960   7.093   2.849  0.2558 -0.7143  1.0762
  162SAPE   O2218070   2.030   7.130   2.756  0.1577 -0.3324 -0.1238
  162SAPE   C2218071   1.958   6.946   2.898  0.1377 -0.2408 -0.0781
  162SAPE   H2R18072   1.898   6.941   2.991 -1.3911 -1.7366 -1.0908
  162SAPE   H2S18073   1.907   6.891   2.816  2.1659 -1.4813 -0.5586
  162SAPE    C318074   1.699   7.324   2.941 -0.0581  0.9726 -0.4940
  162SAPE    HX18075   1.616   7.249   2.946  1.9528 -1.3778 -0.4275
  162SAPE    HY18076   1.650   7.410   2.891 -1.5507 -0.7026 -2.0727
  162SAPE   O3118077   1.747   7.358   3.073 -0.9552  0.7366 -0.6104
  162SAPE   C3118078   1.729   7.263   3.169  0.3375 -0.1024 -0.6029
  162SAPE   O3218079   1.704   7.147   3.142 -0.2535 -0.4316  0.0033
  162SAPE   C3218080   1.775   7.307   3.303 -0.5370  0.0285 -0.2097
  162SAPE   H2X18081   1.730   7.398   3.347 -0.0347 -0.3658  1.1749
  162SAPE   H2Y18082   1.883   7.333   3.304 -0.4740 -0.2520  0.8374
  162SAPE   C2318083   2.098   6.877   2.898  0.4180  0.1593  0.2707
  162SAPE   H3R18084   2.150   6.928   2.814  0.2902  0.5184  0.4046
  162SAPE   H3S18085   2.092   6.770   2.869  1.5888 -0.0562  0.7789
  162SAPE   C2418086   2.179   6.901   3.031 -0.6790  0.9900 -0.1587
  162SAPE   H4R18087   2.257   6.823   3.042 -1.4921  0.2751  0.7750
  162SAPE   H4S18088   2.106   6.888   3.114 -0.5843 -2.8133 -0.5046
  162SAPE   C2518089   2.234   7.041   3.040 -0.5799  0.7611  0.4115
  162SAPE   H5R18090   2.303   7.077   2.962  1.1953 -0.5490  1.2914
  162SAPE   C2618091   2.215   7.129   3.135  0.3711 -0.4244 -0.5563
  162SAPE   H6R18092   2.251   7.232   3.119  0.4418 -0.3813 -0.1331
  162SAPE   C2718093   2.136   7.106   3.264 -0.3382  0.1376  0.6522
  162SAPE   H7R18094   2.033   7.075   3.236  0.2919  0.7429 -2.6950
  162SAPE   H7S18095   2.118   7.206   3.307 -0.6608 -0.8292  2.9168
  162SAPE   C2818096   2.190   7.008   3.366 -0.5260 -0.4321  0.2980
  162SAPE   H8R18097   2.219   6.914   3.318  1.7929  0.0831  0.5822
  162SAPE   C2918098   2.215   7.020   3.498  0.5746 -0.0132  0.8403
  162SAPE   H9R18099   2.235   6.922   3.544 -0.5603 -0.3236  0.7122
  162SAPE  C21018100   2.158   7.137   3.574  0.3894  0.6252 -0.0042
  162SAPE  H10R18101   2.118   7.095   3.669 -0.5779  4.2612  1.3629
  162SAPE  H10S18102   2.072   7.188   3.524  0.7789  1.7776  0.4628
  162SAPE  C21118103   2.278   7.225   3.587  0.4460  0.2827  0.1739
  162SAPE  H11R18104   2.340   7.247   3.498 -0.4995  4.4203  0.3410
  162SAPE  C21218105   2.302   7.291   3.702  0.1414 -0.1141 -0.5191
  162SAPE  H12R18106   2.384   7.364   3.699  0.3203 -0.3439 -1.2912
  162SAPE  C21318107   2.237   7.289   3.839  0.0703  0.0520 -0.4335
  162SAPE  H13R18108   2.284   7.202   3.890 -3.2496 -1.9892 -0.5740
  162SAPE  H13S18109   2.132   7.254   3.832  0.6410 -1.5560 -1.7033
  162SAPE  C21418110   2.233   7.424   3.915 -0.1503  0.5812  0.4066
  162SAPE  H14R18111   2.168   7.500   3.871  0.5580  0.7505 -0.3843
  162SAPE  C21518112   2.311   7.452   4.023  0.1563 -0.4339 -0.0115
  162SAPE  H15R18113   2.302   7.554   4.063  2.7771  0.2004 -0.8199
  162SAPE  C21618114   2.416   7.363   4.088 -0.5160 -1.1451  0.3569
  162SAPE  H16R18115   2.514   7.416   4.089 -0.3106 -1.5173  0.1461
  162SAPE  H16S18116   2.434   7.271   4.029  0.2731  0.6293 -2.3853
  162SAPE  C21718117   2.380   7.320   4.229 -0.6493 -0.2075 -0.1587
  162SAPE  H17R18118   2.446   7.233   4.251 -0.3023  0.5634  2.1472
  162SAPE  H17S18119   2.278   7.277   4.221 -0.3345 -0.7554 -1.5417
  162SAPE  C21818120   2.395   7.430   4.331  0.3021  0.1811 -0.3862
  162SAPE  H18R18121   2.336   7.521   4.307 -0.1619 -0.0816 -0.2433
  162SAPE  H18S18122   2.502   7.460   4.322  0.5213 -0.9640 -2.3292
  162SAPE  C21918123   2.364   7.392   4.470  0.3436 -1.1639 -0.1441
  162SAPE  H19R18124   2.368   7.281   4.476  0.5166 -1.0825  1.6951
  162SAPE  H19S18125   2.258   7.413   4.493  0.3682  2.1474 -2.3852
  162SAPE  C22018126   2.444   7.476   4.571  0.5456  0.4431 -0.0299
  162SAPE  H20R18127   2.551   7.459   4.546  0.1763 -0.8853 -0.8135
  162SAPE  H20S18128   2.432   7.440   4.675  0.2163 -2.3288 -0.9392
  162SAPE  H20T18129   2.419   7.584   4.565  2.0243  0.8061  0.1417
  162SAPE   C3318130   1.738   7.197   3.408 -1.2813 -0.0908  0.0962
  162SAPE   H3X18131   1.786   7.101   3.379 -2.1936  0.3604 -3.3747
  162SAPE   H3Y18132   1.631   7.167   3.406 -1.4005  0.3016  0.4694
  162SAPE   C3418133   1.771   7.246   3.554 -0.2826 -0.6675  0.1823
  162SAPE   H4X18134   1.819   7.346   3.544 -2.7693  0.4417 -1.5811
  162SAPE   H4Y18135   1.853   7.180   3.591  0.1613 -0.1609  0.1260
  162SAPE   C3518136   1.661   7.249   3.653 -0.1304 -1.7088  0.1287
  162SAPE   H5X18137   1.607   7.153   3.670 -0.1832 -1.4102  1.7223
  162SAPE   H5Y18138   1.588   7.321   3.609  1.6382 -0.9247 -1.6874
  162SAPE   C3618139   1.698   7.314   3.778  0.3928 -0.7366 -0.5168
  162SAPE   H6X18140   1.773   7.395   3.769  0.3370 -0.4831  0.9367
  162SAPE   H6Y18141   1.753   7.234   3.832 -0.2084 -1.3577 -0.8157
  162SAPE   C3718142   1.579   7.354   3.864 -0.2012  0.1176  0.3354
  162SAPE   H7X18143   1.504   7.272   3.867 -1.5718  1.2775 -0.4757
  162SAPE   H7Y18144   1.525   7.439   3.817 -1.5838  0.1036  1.8088
  162SAPE   C3818145   1.619   7.399   4.006 -0.1549  0.0149 -0.1810
  162SAPE   H8X18146   1.689   7.483   3.989 -0.3698  1.2962  4.0796
  162SAPE   H8Y18147   1.669   7.317   4.062 -1.1190  0.4286  1.3459
  162SAPE   C3918148   1.496   7.443   4.092  0.4905  0.5478  0.0042
  162SAPE   H9X18149   1.414   7.369   4.101 -1.1152  2.1788 -0.5726
  162SAPE   H9Y18150   1.455   7.539   4.053  1.2915  0.6182 -0.6827
  162SAPE  C31018151   1.544   7.482   4.232 -0.5282  0.3742  0.0283
  162SAPE  H10X18152   1.595   7.580   4.227  1.1331 -0.3841  1.1602
  162SAPE  H10Y18153   1.601   7.406   4.290 -2.6874 -0.5057  1.0870
  162SAPE  C31118154   1.421   7.500   4.327  0.1962 -0.2120 -0.6975
  162SAPE  H11X18155   1.367   7.404   4.334 -0.2978  0.1234  0.2866
  162SAPE  H11Y18156   1.354   7.572   4.276  1.3780  0.2061 -1.7374
  162SAPE  C31218157   1.467   7.542   4.466  0.0293 -0.6304  0.7058
  162SAPE  H12X18158   1.533   7.461   4.503 -0.2724 -1.0264  0.3934
  162SAPE  H12Y18159   1.374   7.553   4.526 -1.7801 -1.3051 -1.8144
  162SAPE  C31318160   1.544   7.677   4.481 -0.2411 -1.2899 -0.4652
  162SAPE  H13X18161   1.473   7.754   4.443 -1.0822 -1.6481  0.3602
  162SAPE  H13Y18162   1.639   7.680   4.423 -0.1257  0.9045 -0.2558
  162SAPE  C31418163   1.573   7.707   4.629  0.4767  0.5993  0.4786
  162SAPE  H14X18164   1.632   7.625   4.675 -1.9984 -1.9087 -0.4925
  162SAPE  H14Y18165   1.478   7.723   4.686 -1.1947 -1.4485 -1.5768
  162SAPE  C31518166   1.657   7.838   4.637  0.2236 -0.3498  0.3715
  162SAPE  H15X18167   1.603   7.924   4.591  0.7231  0.0381  0.5041
  162SAPE  H15Y18168   1.756   7.824   4.590  0.0759  0.4621 -0.2024
  162SAPE  C31618169   1.671   7.890   4.781 -0.2865  0.2102  0.7399
  162SAPE  H16X18170   1.745   7.972   4.778 -0.6274  0.4993 -0.6325
  162SAPE  H16Y18171   1.709   7.814   4.852  0.1328 -1.2862 -0.9934
  162SAPE  C31718172   1.539   7.950   4.839  0.2141  0.1116 -0.1010
  162SAPE  H17X18173   1.472   7.862   4.850 -1.8365  1.3613 -1.7706
  162SAPE  H17Y18174   1.501   8.026   4.768 -0.2590 -0.1156 -0.0951
  162SAPE  C31818175   1.572   8.001   4.978  0.4488 -0.2940  0.0812
  162SAPE  H18X18176   1.483   8.013   5.042  0.0538 -0.4112 -0.4400
  162SAPE  H18Y18177   1.607   8.105   4.958  0.1535  0.3476  2.5272
  162SAPE  H18Z18178   1.641   7.937   5.036 -1.2164 -1.5179  0.7760
  163SAPE     N18179   1.277   5.386   2.149  0.1401 -0.5600 -0.2154
  163SAPE   HN118180   1.329   5.324   2.084  3.4399  2.0061 -0.3493
  163SAPE   HN218181   1.325   5.478   2.159  0.5620 -1.0047  4.3710
  163SAPE   HN318182   1.279   5.353   2.248  0.9227  2.4955  0.9217
  163SAPE   C1218183   1.126   5.392   2.108 -0.2551  0.0123  0.3554
  163SAPE  H12A18184   1.123   5.369   2.000  1.1156 -2.2017  0.7175
  163SAPE  H12B18185   1.102   5.499   2.127 -0.5639 -0.0160  0.1192
  163SAPE   C1118186   1.059   5.288   2.187  0.1995 -0.4979 -1.0637
  163SAPE  H11A18187   1.117   5.194   2.184 -0.0230 -0.6963  0.4001
  163SAPE  H11B18188   0.957   5.269   2.146 -0.1979  2.0170 -1.4679
  163SAPE     P18189   0.942   5.388   2.396  0.4249  0.0816  0.1947
  163SAPE   O1318190   0.918   5.523   2.340  0.3241 -0.2326  0.6224
  163SAPE   O1418191   0.830   5.291   2.369  0.0156  0.3691  0.2970
  163SAPE   O1218192   1.063   5.328   2.325 -0.2517  0.1283 -0.1179
  163SAPE   O1118193   0.981   5.402   2.549  0.1354 -0.3698  0.3022
  163SAPE    C118194   1.060   5.294   2.593 -0.2764  0.5737 -0.6165
  163SAPE    HA18195   1.003   5.199   2.592 -1.3405  1.0722  2.3656
  163SAPE    HB18196   1.153   5.276   2.534  1.0495 -3.0361  2.2347
  163SAPE    C218197   1.104   5.302   2.748  0.4802  0.0357  0.5025
  163SAPE    HS18198   1.156   5.213   2.789  0.7886 -0.2920 -0.5762
  163SAPE   O2118199   0.997   5.342   2.835  0.2225  0.0880  0.2755
  163SAPE   C2118200   0.882   5.289   2.824  0.3926  0.8289 -0.1064
  163SAPE   O2218201   0.845   5.189   2.758  0.2497  0.3181  0.1005
  163SAPE   C2218202   0.787   5.369   2.910 -0.4144  0.8940 -0.0785
  163SAPE   H2R18203   0.841   5.460   2.943  0.2058  0.6083 -0.2766
  163SAPE   H2S18204   0.716   5.418   2.840  1.1151  0.9748 -1.6441
  163SAPE    C318205   1.211   5.417   2.766  1.1542  0.3357  0.0557
  163SAPE    HX18206   1.150   5.509   2.756 -1.7278 -1.5544 -0.8604
  163SAPE    HY18207   1.290   5.415   2.688  1.3810  0.1803  0.2836
  163SAPE   O3118208   1.269   5.398   2.898  0.0080 -0.2688  0.1983
  163SAPE   C3118209   1.301   5.521   2.952 -0.8027  0.3110  0.0649
  163SAPE   O3218210   1.308   5.624   2.888  0.3682 -0.8571 -0.0874
  163SAPE   C3218211   1.360   5.500   3.092 -0.5589 -0.0007 -0.2425
  163SAPE   H2X18212   1.341   5.593   3.151 -2.3316 -0.8597  0.6333
  163SAPE   H2Y18213   1.470   5.488   3.082 -0.4517  0.6574  0.0926
  163SAPE   C2318214   0.717   5.284   3.018 -0.1146 -0.1503 -0.6219
  163SAPE   H3R18215   0.686   5.357   3.097  0.6907 -0.2406 -0.2096
  163SAPE   H3S18216   0.792   5.216   3.064 -1.1569 -1.7183 -1.1811
  163SAPE   C2418217   0.585   5.204   2.978  0.1663 -0.2682  0.1290
  163SAPE   H4R18218   0.602   5.138   2.890 -2.3977  0.9555 -1.4296
  163SAPE   H4S18219   0.503   5.275   2.952  0.5263  0.3328  0.6065
  163SAPE   C2518220   0.540   5.100   3.086 -0.7674  0.2118  0.1945
  163SAPE   H5R18221   0.574   4.998   3.063 -1.4621 -0.3064  1.3785
  163SAPE   C2618222   0.494   5.123   3.206 -0.2097  0.7057 -0.1308
  163SAPE   H6R18223   0.471   5.038   3.272  2.0500 -0.5956 -0.9085
  163SAPE   C2718224   0.447   5.251   3.264  0.1187  0.6166 -0.7168
  163SAPE   H7R18225   0.397   5.306   3.181 -0.3256 -0.4501 -1.1724
  163SAPE   H7S18226   0.531   5.315   3.300 -0.5740  0.8961  0.4783
  163SAPE   C2818227   0.333   5.242   3.367 -0.0088  0.0930 -0.0449
  163SAPE   H8R18228   0.237   5.218   3.319  0.1156  0.0995 -0.2991
  163SAPE   C2918229   0.357   5.230   3.499 -0.2852  0.8632 -0.3855
  163SAPE   H9R18230   0.281   5.223   3.578 -0.4282 -0.1459 -0.5982
  163SAPE  C21018231   0.496   5.225   3.557  0.7208 -0.3405 -0.1236
  163SAPE  H10R18232   0.519   5.334   3.566 -0.3199  0.0025 -1.2889
  163SAPE  H10S18233   0.568   5.189   3.480 -0.9174 -1.1763 -1.3318
  163SAPE  C21118234   0.507   5.144   3.685  0.0833 -1.1377  0.2045
  163SAPE  H11R18235   0.546   5.042   3.672 -1.7189 -1.9906  1.1866
  163SAPE  C21218236   0.469   5.173   3.812  0.4821  0.0598  0.1708
  163SAPE  H12R18237   0.498   5.101   3.889  1.5125  0.7143  0.4129
  163SAPE  C21318238   0.423   5.312   3.854  0.6630  0.0443  0.4389
  163SAPE  H13R18239   0.329   5.288   3.910  1.1437 -3.1206  0.0776
  163SAPE  H13S18240   0.390   5.368   3.764  0.1231  0.5724  0.9549
  163SAPE  C21418241   0.511   5.404   3.931  0.4031  1.0890  0.4905
  163SAPE  H14R18242   0.611   5.411   3.887  0.2332 -0.3109 -0.1468
  163SAPE  C21518243   0.490   5.461   4.049 -0.4625 -0.0248  0.3148
  163SAPE  H15R18244   0.554   5.543   4.085  0.2892  0.0857 -1.1910
  163SAPE  C21618245   0.363   5.455   4.119  0.1539  0.3223 -0.1289
  163SAPE  H16R18246   0.376   5.471   4.228 -1.2954  1.4404 -0.0795
  163SAPE  H16S18247   0.322   5.354   4.101  0.0781  0.5179 -1.1271
  163SAPE  C21718248   0.257   5.558   4.067  0.2635 -0.2451 -0.0844
  163SAPE  H17R18249   0.157   5.543   4.113  0.4510  2.1987  1.3090
  163SAPE  H17S18250   0.237   5.537   3.960  0.5742  0.5460 -0.2997
  163SAPE  C21818251   0.296   5.704   4.078 -0.2036 -0.7669  0.5871
  163SAPE  H18R18252   0.371   5.725   3.998  0.3991  2.0537  1.7587
  163SAPE  H18S18253   0.341   5.725   4.177 -0.7424  1.9447  0.3365
  163SAPE  C21918254   0.176   5.806   4.070  0.2292  1.3490  0.0537
  163SAPE  H19R18255   0.097   5.772   4.140  0.1296 -2.1933 -1.6100
  163SAPE  H19S18256   0.130   5.797   3.970  0.9598 -2.9175 -0.0613
  163SAPE  C22018257   0.216   5.945   4.109  0.4354 -0.1991  0.3500
  163SAPE  H20R18258   0.242   5.955   4.216  0.0493 -0.0695  0.4321
  163SAPE  H20S18259   0.142   6.024   4.086 -0.0250 -0.8456 -0.4746
  163SAPE  H20T18260   0.309   5.962   4.050 -0.1740 -3.1881 -1.7189
  163SAPE   C3318261   1.291   5.381   3.165 -0.3051  0.3070  0.4577
  163SAPE   H3X18262   1.285   5.293   3.097 -3.0501 -0.3338  1.4049
  163SAPE   H3Y18263   1.188   5.421   3.175  0.2306  1.6828  0.6829
  163SAPE   C3418264   1.350   5.341   3.289  0.1591 -1.0045  0.7940
  163SAPE   H4X18265   1.294   5.248   3.312 -0.5915 -0.8336 -0.2721
  163SAPE   H4Y18266   1.329   5.414   3.370  0.5116 -0.7777  0.6831
  163SAPE   C3518267   1.503   5.307   3.287 -0.3021  0.8780  0.3569
  163SAPE   H5X18268   1.564   5.399   3.273 -0.7051  1.4055  1.9113
  163SAPE   H5Y18269   1.541   5.242   3.206  0.3321 -0.0557  1.3924
  163SAPE   C3618270   1.550   5.236   3.417 -0.1318  0.0084 -0.4973
  163SAPE   H6X18271   1.661   5.240   3.425 -0.2139 -1.0881  2.5273
  163SAPE   H6Y18272   1.521   5.129   3.407  0.5677 -0.5235  2.3888
  163SAPE   C3718273   1.498   5.305   3.546  0.5261  0.2193  0.2135
  163SAPE   H7X18274   1.387   5.298   3.551  0.5220  0.2734  0.2070
  163SAPE   H7Y18275   1.530   5.411   3.557 -0.2437  0.6523 -1.3892
  163SAPE   C3818276   1.551   5.229   3.667 -0.0850 -0.2182 -0.1149
  163SAPE   H8X18277   1.662   5.225   3.663 -0.1519 -3.3169 -2.2574
  163SAPE   H8Y18278   1.523   5.122   3.669  1.2301 -0.5896  2.4302
  163SAPE   C3918279   1.493   5.291   3.797 -0.2282  0.8960 -1.1236
  163SAPE   H9X18280   1.382   5.291   3.788 -0.3765 -0.6475  0.3050
  163SAPE   H9Y18281   1.525   5.397   3.808 -1.1202  1.2813 -2.1038
  163SAPE  C31018282   1.535   5.217   3.923 -0.3309  0.2841  0.3700
  163SAPE  H10X18283   1.645   5.218   3.933 -0.4034 -1.0257  1.7014
  163SAPE  H10Y18284   1.513   5.108   3.916 -1.6093  0.5879 -0.8755
  163SAPE  C31118285   1.478   5.266   4.054 -0.2780  0.8050  0.4558
  163SAPE  H11X18286   1.388   5.205   4.078 -1.0840  2.4518  1.8267
  163SAPE  H11Y18287   1.437   5.370   4.054 -2.9520 -0.1657  0.5165
  163SAPE  C31218288   1.583   5.267   4.169  0.7050  0.7348 -0.0385
  163SAPE  H12X18289   1.652   5.347   4.136 -0.8878  1.6231 -1.3760
  163SAPE  H12Y18290   1.637   5.170   4.166 -2.0793 -0.9844  0.9024
  163SAPE  C31318291   1.508   5.295   4.305 -0.3620 -0.5492  0.3430
  163SAPE  H13X18292   1.475   5.197   4.345  1.1413 -1.2493 -0.0721
  163SAPE  H13Y18293   1.423   5.366   4.302 -0.0610 -0.1814  0.4424
  163SAPE  C31418294   1.614   5.345   4.401 -0.3110 -0.1763 -0.7439
  163SAPE  H14X18295   1.702   5.279   4.387  0.3310  0.2395  1.0885
  163SAPE  H14Y18296   1.580   5.330   4.506 -1.2137 -1.8032 -1.2273
  163SAPE  C31518297   1.661   5.491   4.385 -0.3723  0.5412 -0.0672
  163SAPE  H15X18298   1.702   5.495   4.282 -1.0039  1.5424 -0.2913
  163SAPE  H15Y18299   1.746   5.523   4.450  2.6276 -1.7130 -2.5847
  163SAPE  C31618300   1.549   5.590   4.405  0.0208 -0.2566 -0.3314
  163SAPE  H16X18301   1.505   5.577   4.506 -0.2873  0.4667 -0.3629
  163SAPE  H16Y18302   1.464   5.576   4.335 -0.0783  0.0319 -0.2709
  163SAPE  C31718303   1.603   5.734   4.403  0.2077 -0.1223  0.0196
  163SAPE  H17X18304   1.687   5.741   4.476  0.4703  0.3891 -0.3248
  163SAPE  H17Y18305   1.522   5.797   4.446 -0.2965 -0.8397  0.1344
  163SAPE  C31818306   1.641   5.781   4.265 -0.7016 -0.1284 -0.5280
  163SAPE  H18X18307   1.579   5.733   4.186 -0.2011  1.4497 -1.9287
  163SAPE  H18Y18308   1.750   5.771   4.244 -0.3251  4.8510 -2.2807
  163SAPE  H18Z18309   1.611   5.888   4.264 -2.3151 -0.5425  0.2245
  164SAPE     N18310   5.002   4.374   2.699  0.2421 -0.6763 -0.0484
  164SAPE   HN118311   5.084   4.416   2.651  0.5841 -2.1231 -0.7949
  164SAPE   HN218312   5.037   4.280   2.723 -2.1347 -1.9643 -1.2288
  164SAPE   HN318313   4.934   4.360   2.622 -0.3198 -0.0953  0.3321
  164SAPE   C1218314   4.936   4.448   2.812 -0.7981  0.3658  0.6938
  164SAPE  H12A18315   5.014   4.470   2.887  2.2502 -1.1684 -1.8064
  164SAPE  H12B18316   4.855   4.388   2.858  0.6592 -1.1793  1.3021
  164SAPE   C1118317   4.871   4.585   2.783 -0.1157 -0.3663  0.5470
  164SAPE  H11A18318   4.871   4.640   2.880  1.5296 -2.1728  1.6367
  164SAPE  H11B18319   4.769   4.582   2.738 -0.0073  1.6590  0.0505
  164SAPE     P18320   4.996   4.792   2.693  0.4308  0.0845 -0.1830
  164SAPE   O1318321   5.098   4.812   2.585  0.6353 -0.1229 -0.0890
  164SAPE   O1418322   4.880   4.888   2.694  0.3069  0.2934  0.7901
  164SAPE   O1218323   4.956   4.642   2.689 -0.3296 -0.4798 -0.2739
  164SAPE   O1118324   5.075   4.790   2.825 -0.5022 -0.0311  1.0159
  164SAPE    C118325   5.123   4.921   2.863  0.1650  0.5671  0.1450
  164SAPE    HA18326   5.185   4.969   2.784  0.4250  1.6126  0.9509
  164SAPE    HB18327   5.030   4.978   2.885 -1.8039 -1.4497 -2.4276
  164SAPE    C218328   5.214   4.893   2.990 -0.2197  0.1093  0.2474
  164SAPE    HS18329   5.293   4.825   2.954  0.1512  0.7569 -0.1831
  164SAPE   O2118330   5.131   4.824   3.090 -0.0287  0.3314  0.2508
  164SAPE   C2118331   5.154   4.697   3.102 -0.0350 -0.1487  0.1387
  164SAPE   O2218332   5.234   4.630   3.041  0.6687 -0.3848 -0.3301
  164SAPE   C2218333   5.042   4.646   3.192  0.0029 -0.2192 -0.2195
  164SAPE   H2R18334   5.044   4.707   3.285  3.1745 -2.4875  1.3981
  164SAPE   H2S18335   4.940   4.657   3.149  0.2213  1.0651 -0.4816
  164SAPE    C318336   5.269   5.021   3.058 -0.5824 -0.4803  0.0985
  164SAPE    HX18337   5.180   5.087   3.071  0.2437  0.4509  1.2452
  164SAPE    HY18338   5.340   5.060   2.982 -1.4968 -0.4330 -0.7476
  164SAPE   O3118339   5.327   4.988   3.188  0.0159  0.3165  0.4485
  164SAPE   C3118340   5.364   5.095   3.260  0.2347 -0.8416  0.4082
  164SAPE   O3218341   5.330   5.209   3.240 -0.4766  0.2401  0.5223
  164SAPE   C3218342   5.444   5.046   3.379  0.2959  0.3320 -0.3653
  164SAPE   H2X18343   5.551   5.040   3.350  0.8379 -0.0799  1.5762
  164SAPE   H2Y18344   5.412   4.941   3.398  1.3115  0.2135  0.7762
  164SAPE   C2318345   5.062   4.494   3.221 -0.0808 -0.5856 -0.0736
  164SAPE   H3R18346   5.160   4.475   3.269  0.1479  2.0520  0.6338
  164SAPE   H3S18347   5.052   4.432   3.129  2.1522  0.4267 -1.0657
  164SAPE   C2418348   4.951   4.448   3.320  0.8683 -0.0808  0.5496
  164SAPE   H4R18349   4.857   4.476   3.267 -0.0922 -0.2767  2.0761
  164SAPE   H4S18350   4.957   4.518   3.406 -3.1817  0.3205  0.7177
  164SAPE   C2518351   4.966   4.296   3.353 -0.1430  0.4380  0.4107
  164SAPE   H5R18352   4.943   4.230   3.269  0.5618  0.5324  0.1372
  164SAPE   C2618353   4.973   4.244   3.472  0.4281  0.1074 -0.6316
  164SAPE   H6R18354   4.977   4.135   3.488 -1.2942  0.3872  2.5179
  164SAPE   C2718355   4.984   4.323   3.603 -0.0367  0.3342  0.2788
  164SAPE   H7R18356   4.984   4.433   3.584  1.3354  0.3625  0.2945
  164SAPE   H7S18357   5.091   4.316   3.631  0.4623  0.0322 -1.5459
  164SAPE   C2818358   4.891   4.272   3.708  0.0157 -0.3170 -0.1286
  164SAPE   H8R18359   4.814   4.206   3.666 -0.1094  0.0415 -0.4716
  164SAPE   C2918360   4.888   4.299   3.843 -0.3238 -0.2876  0.1358
  164SAPE   H9R18361   4.812   4.242   3.899  0.6109 -1.9251 -0.2003
  164SAPE  C21018362   4.994   4.380   3.919  0.1194 -0.0411  0.2085
  164SAPE  H10R18363   4.944   4.467   3.967  2.1405  1.0120  0.5516
  164SAPE  H10S18364   5.057   4.434   3.845 -1.9150 -0.6669 -2.1073
  164SAPE  C21118365   5.091   4.299   4.006 -0.3697  0.1547  0.5743
  164SAPE  H11R18366   5.179   4.260   3.952 -0.4699 -0.5088  0.8791
  164SAPE  C21218367   5.087   4.262   4.136 -0.1838  0.0444 -0.0959
  164SAPE  H12R18368   5.165   4.203   4.185 -1.5231 -1.4023  0.3761
  164SAPE  C21318369   4.971   4.284   4.228  0.2853 -0.2662  0.0070
  164SAPE  H13R18370   4.925   4.188   4.262 -1.0972  0.6130  0.6965
  164SAPE  H13S18371   4.880   4.330   4.184 -1.6194  0.4293  4.1939
  164SAPE  C21418372   5.002   4.385   4.342 -0.3311  0.0284  0.5405
  164SAPE  H14R18373   4.983   4.488   4.308  0.6197 -0.4521 -1.5966
  164SAPE  C21518374   5.057   4.352   4.461 -0.8615 -0.4003  0.0603
  164SAPE  H15R18375   5.084   4.434   4.528  0.6593 -0.9778  0.1944
  164SAPE  C21618376   5.097   4.215   4.502  0.4813  0.3352 -0.3317
  164SAPE  H16R18377   5.207   4.203   4.507  0.2606 -1.8041  0.1630
  164SAPE  H16S18378   5.063   4.134   4.434  2.9246 -0.8331 -0.2740
  164SAPE  C21718379   5.030   4.193   4.644  0.0782 -0.2753 -0.8997
  164SAPE  H17R18380   4.923   4.223   4.636  0.1012  0.1296  0.2187
  164SAPE  H17S18381   5.084   4.259   4.715 -1.3936 -1.0739  1.0348
  164SAPE  C21818382   5.038   4.048   4.691  0.5915 -0.6523  0.7498
  164SAPE  H18R18383   5.139   4.001   4.690  0.6449 -0.8116 -3.4548
  164SAPE  H18S18384   4.967   3.995   4.624  0.0760  2.3320 -1.2368
  164SAPE  C21918385   4.983   4.045   4.830 -0.2271 -0.6031 -0.2926
  164SAPE  H19R18386   4.897   4.114   4.843 -0.4900 -0.7469 -1.1961
  164SAPE  H19S18387   5.063   4.080   4.899 -1.3203  0.0601  0.6801
  164SAPE  C22018388   4.937   3.906   4.867  0.1502  0.0666 -0.0512
  164SAPE  H20R18389   4.853   3.869   4.804 -0.7122 -0.1951  1.1994
  164SAPE  H20S18390   4.919   3.895   4.976  2.2617 -2.7065  0.1204
  164SAPE  H20T18391   5.030   3.850   4.845  1.7627  1.9841  1.4921
  164SAPE   C3318392   5.432   5.140   3.506 -0.2587  0.3912  0.2881
  164SAPE   H3X18393   5.326   5.131   3.537 -0.5916 -0.9779 -1.1007
  164SAPE   H3Y18394   5.455   5.245   3.476 -0.8756  0.7170  0.9449
  164SAPE   C3418395   5.509   5.074   3.623  0.5313  0.5953 -0.0934
  164SAPE   H4X18396   5.549   5.148   3.696  1.2097  2.8660 -2.6380
  164SAPE   H4Y18397   5.590   5.012   3.579 -0.3024 -1.2471  0.8489
  164SAPE   C3518398   5.415   4.973   3.699  0.4289 -0.6987 -0.2209
  164SAPE   H5X18399   5.357   4.921   3.620 -0.8472 -2.0883  1.5523
  164SAPE   H5Y18400   5.335   5.018   3.762 -1.3392 -1.0620 -2.0882
  164SAPE   C3618401   5.498   4.870   3.771 -0.6018  0.2351  0.0551
  164SAPE   H6X18402   5.562   4.821   3.694 -2.6447 -2.1474 -0.2424
  164SAPE   H6Y18403   5.438   4.782   3.801  1.5928 -0.8081  1.6713
  164SAPE   C3718404   5.578   4.913   3.893 -0.5415 -0.1637  0.3749
  164SAPE   H7X18405   5.662   4.980   3.866 -0.5451  1.0361  3.0419
  164SAPE   H7Y18406   5.634   4.829   3.940  0.5117  0.3358  0.0205
  164SAPE   C3818407   5.499   4.978   4.010  0.7025  0.2382  0.8124
  164SAPE   H8X18408   5.452   4.889   4.056  0.2630 -0.1135 -0.3035
  164SAPE   H8Y18409   5.418   5.046   3.977  0.8228 -0.5789 -1.3009
  164SAPE   C3918410   5.598   5.029   4.108 -0.1450  0.0985 -0.4325
  164SAPE   H9X18411   5.646   5.115   4.057  2.5664 -1.8990 -1.4843
  164SAPE   H9Y18412   5.680   4.955   4.117  0.4002  0.7296 -0.0772
  164SAPE  C31018413   5.542   5.066   4.249 -0.1362 -0.3145  0.7400
  164SAPE  H10X18414   5.456   5.133   4.230  0.2900 -0.1280 -0.6768
  164SAPE  H10Y18415   5.626   5.123   4.295 -0.5316  0.6867  0.2609
  164SAPE  C31118416   5.493   4.954   4.338  0.5774 -0.4533 -0.7804
  164SAPE  H11X18417   5.577   4.883   4.350  2.0153  1.3976  0.8472
  164SAPE  H11Y18418   5.409   4.902   4.289 -0.4339 -0.1505  0.5896
  164SAPE  C31218419   5.436   5.014   4.473 -0.3122 -0.2537  0.3174
  164SAPE  H12X18420   5.377   5.105   4.450  1.3275  0.5743 -0.8296
  164SAPE  H12Y18421   5.532   5.049   4.517  1.5843 -1.7072 -2.4275
  164SAPE  C31318422   5.370   4.922   4.572  0.2992  0.2888 -0.1927
  164SAPE  H13X18423   5.448   4.845   4.589 -0.7213 -0.6792  0.2531
  164SAPE  H13Y18424   5.273   4.880   4.537  0.2943 -0.9314  1.1796
  164SAPE  C31418425   5.331   4.998   4.699  0.7836  0.7218  0.5145
  164SAPE  H14X18426   5.249   5.069   4.673  0.0481 -1.1561 -2.9741
  164SAPE  H14Y18427   5.416   5.054   4.743  0.9117  2.4515 -1.7284
  164SAPE  C31518428   5.276   4.908   4.811  0.3604 -1.0705  0.6204
  164SAPE  H15X18429   5.232   4.976   4.887 -1.4027 -2.6981  1.1534
  164SAPE  H15Y18430   5.354   4.849   4.863 -1.0914 -1.0091  3.0201
  164SAPE  C31618431   5.177   4.814   4.751  0.2844 -0.1206  0.0792
  164SAPE  H16X18432   5.227   4.728   4.700 -2.3001 -0.7796 -1.5247
  164SAPE  H16Y18433   5.119   4.881   4.685  1.4076  0.9625  0.1542
  164SAPE  C31718434   5.093   4.748   4.861  0.1821 -0.1084 -0.1670
  164SAPE  H17X18435   5.007   4.689   4.821 -1.0118  0.4153  1.5179
  164SAPE  H17Y18436   5.042   4.821   4.927 -2.1023 -1.5011 -0.2713
  164SAPE  C31818437   5.166   4.646   4.951  0.3168  0.0952  0.3276
  164SAPE  H18X18438   5.226   4.570   4.897  1.0900  0.5448  0.5417
  164SAPE  H18Y18439   5.092   4.595   5.016 -0.9235  3.5920  1.8991
  164SAPE  H18Z18440   5.235   4.705   5.014  0.2847  1.4877 -0.8972
  165SAPE     N18441   3.745   6.200   2.518  0.9560  0.0355  0.5535
  165SAPE   HN118442   3.658   6.254   2.500  1.5589  1.5362  1.8823
  165SAPE   HN218443   3.710   6.106   2.495  0.7852  0.0457  0.7741
  165SAPE   HN318444   3.753   6.203   2.621  0.0989  1.0083  0.6155
  165SAPE   C1218445   3.859   6.263   2.436  0.2657  1.1591  0.1223
  165SAPE  H12A18446   3.867   6.372   2.458 -0.6531  0.9876  1.4906
  165SAPE  H12B18447   3.833   6.234   2.332 -1.6394 -1.8792  1.3069
  165SAPE   C1118448   3.997   6.198   2.456  0.1060  0.5478  0.1031
  165SAPE  H11A18449   4.021   6.193   2.565 -1.1353 -1.6722  0.3299
  165SAPE  H11B18450   4.066   6.268   2.404 -0.8131 -1.6292 -4.5058
  165SAPE     P18451   4.139   6.014   2.385 -0.0215 -0.1752 -0.1772
  165SAPE   O1318452   4.130   5.881   2.325 -0.1139 -0.1181  0.0286
  165SAPE   O1418453   4.212   6.114   2.297  0.2133 -0.4180  0.3528
  165SAPE   O1218454   3.994   6.068   2.404  0.6902  0.1241 -0.3510
  165SAPE   O1118455   4.200   6.020   2.530 -0.2118  0.1208 -0.0700
  165SAPE    C118456   4.134   5.934   2.627 -0.4113 -0.0900  0.0720
  165SAPE    HA18457   4.034   5.977   2.650 -0.7973  0.5433 -2.5032
  165SAPE    HB18458   4.125   5.832   2.584  0.1066 -0.4673  0.8201
  165SAPE    C218459   4.224   5.918   2.744 -0.3368 -0.8485  0.0823
  165SAPE    HS18460   4.180   5.836   2.805 -0.3357 -2.2196 -1.6834
  165SAPE   O2118461   4.230   6.040   2.823  0.1161 -0.4432  0.0993
  165SAPE   C2118462   4.113   6.081   2.882  0.0115  0.0979 -0.6018
  165SAPE   O2218463   4.014   6.012   2.898 -0.2633  0.6929 -0.4654
  165SAPE   C2218464   4.129   6.217   2.942 -0.5672 -0.7695  0.4452
  165SAPE   H2R18465   4.211   6.260   2.880 -1.8321  0.3410 -0.5148
  165SAPE   H2S18466   4.049   6.287   2.910  1.3078  1.0230 -0.6147
  165SAPE    C318467   4.366   5.861   2.699  0.9333  0.0047  0.1160
  165SAPE    HX18468   4.397   5.957   2.652  0.3024 -0.6280 -1.6672
  165SAPE    HY18469   4.349   5.782   2.622 -1.1480  0.0733  0.4431
  165SAPE   O3118470   4.457   5.826   2.805 -0.0884  0.1469 -0.4025
  165SAPE   C3118471   4.577   5.823   2.750 -0.7576  0.6488  0.7229
  165SAPE   O3218472   4.614   5.850   2.637  0.0470  0.2058  0.1978
  165SAPE   C3218473   4.669   5.746   2.850 -0.0805  0.2237 -0.2025
  165SAPE   H2X18474   4.771   5.773   2.815  0.0283  1.4750  0.9662
  165SAPE   H2Y18475   4.656   5.637   2.839  0.6855  0.0501  0.4681
  165SAPE   C2318476   4.141   6.227   3.089 -0.2280 -0.4858 -0.3758
  165SAPE   H3R18477   4.100   6.138   3.141 -0.5544 -0.1149  0.0133
  165SAPE   H3S18478   4.073   6.312   3.112 -0.9165  0.0760 -3.8464
  165SAPE   C2418479   4.282   6.259   3.139  0.2265  0.5262 -0.2633
  165SAPE   H4R18480   4.266   6.303   3.239 -1.5374  0.4288 -0.4821
  165SAPE   H4S18481   4.328   6.335   3.072  0.4842 -0.2583 -0.9901
  165SAPE   C2518482   4.375   6.141   3.144  0.1563 -0.3667 -0.1295
  165SAPE   H5R18483   4.356   6.074   3.060  0.3482  0.3193 -0.7343
  165SAPE   C2618484   4.456   6.104   3.245 -0.1057  0.1556  0.2456
  165SAPE   H6R18485   4.518   6.014   3.230 -1.3719 -0.2479 -3.7132
  165SAPE   C2718486   4.482   6.181   3.372 -0.0145 -0.3473  0.1642
  165SAPE   H7R18487   4.446   6.124   3.460 -1.5230 -1.3961 -1.0867
  165SAPE   H7S18488   4.411   6.266   3.382 -0.7793 -0.7723 -1.4130
  165SAPE   C2818489   4.630   6.219   3.374  0.0243  0.2289  0.1496
  165SAPE   H8R18490   4.671   6.232   3.273 -1.1070 -0.2119 -0.3856
  165SAPE   C2918491   4.703   6.246   3.485 -0.3635 -1.2107 -0.4892
  165SAPE   H9R18492   4.811   6.262   3.480 -0.9082  3.8403 -0.7814
  165SAPE  C21018493   4.644   6.233   3.618 -0.2887  0.3048 -0.4143
  165SAPE  H10R18494   4.536   6.209   3.619 -0.6619  1.6868 -2.0400
  165SAPE  H10S18495   4.649   6.332   3.669  0.3151 -0.1447  0.4169
  165SAPE  C21118496   4.718   6.132   3.703 -1.0047 -0.0816 -0.1776
  165SAPE  H11R18497   4.768   6.052   3.647  2.4221  0.2308  2.1347
  165SAPE  C21218498   4.738   6.122   3.836 -0.8253 -0.5335 -0.6406
  165SAPE  H12R18499   4.801   6.037   3.866 -0.5633 -0.0554  0.1958
  165SAPE  C21318500   4.699   6.212   3.955 -0.8602 -0.4210  0.2307
  165SAPE  H13R18501   4.630   6.288   3.912 -1.8516 -0.4122  1.7424
  165SAPE  H13S18502   4.785   6.277   3.983  0.8841 -2.4632 -0.1631
  165SAPE  C21418503   4.633   6.133   4.062 -0.1385  0.3733 -0.5046
  165SAPE  H14R18504   4.541   6.078   4.035 -0.6694  0.9180  0.1844
  165SAPE  C21518505   4.663   6.134   4.197  0.6960 -0.1434  0.5761
  165SAPE  H15R18506   4.602   6.074   4.265  0.1940 -1.8832 -1.2866
  165SAPE  C21618507   4.777   6.198   4.268 -0.2705 -0.1156 -0.4763
  165SAPE  H16R18508   4.835   6.251   4.189  0.7974 -1.2664 -0.4877
  165SAPE  H16S18509   4.842   6.113   4.297  0.3395  1.1450  2.0944
  165SAPE  C21718510   4.748   6.290   4.383 -0.4979  0.2052 -0.0596
  165SAPE  H17R18511   4.674   6.366   4.349  0.1008  0.7035 -0.2813
  165SAPE  H17S18512   4.846   6.337   4.409  0.9439 -2.6185  0.0022
  165SAPE  C21818513   4.714   6.208   4.511  0.9690 -0.3294  0.0840
  165SAPE  H18R18514   4.664   6.113   4.483  1.8567 -0.3277 -1.6489
  165SAPE  H18S18515   4.636   6.266   4.564  0.6041 -0.7488  0.0133
  165SAPE  C21918516   4.841   6.178   4.595 -0.2501  0.2934  1.3636
  165SAPE  H19R18517   4.900   6.270   4.617  1.7063 -0.7984  0.9599
  165SAPE  H19S18518   4.910   6.110   4.540 -0.3942 -1.0783  2.7877
  165SAPE  C22018519   4.800   6.101   4.718 -0.4998 -0.5240 -0.2786
  165SAPE  H20R18520   4.734   6.163   4.782 -0.6907 -1.1454  0.1419
  165SAPE  H20S18521   4.883   6.060   4.780 -0.5814 -0.3906 -0.0813
  165SAPE  H20T18522   4.731   6.022   4.679 -1.8294  0.5867 -0.2546
  165SAPE   C3318523   4.658   5.797   2.995 -0.1886  0.0009 -0.2332
  165SAPE   H3X18524   4.560   5.760   3.031  0.9999 -1.9472  1.1563
  165SAPE   H3Y18525   4.659   5.908   3.003 -0.3337 -0.0729  0.9355
  165SAPE   C3418526   4.781   5.749   3.070 -0.0921  0.3103  0.5065
  165SAPE   H4X18527   4.870   5.809   3.042  1.0757  0.3510  3.8674
  165SAPE   H4Y18528   4.803   5.642   3.049  0.8666  0.4819  0.6098
  165SAPE   C3518529   4.763   5.757   3.222  0.6994 -0.7376 -0.0471
  165SAPE   H5X18530   4.693   5.675   3.250  0.4916 -0.1133  1.3717
  165SAPE   H5Y18531   4.706   5.851   3.240  1.3541 -0.2670 -0.4015
  165SAPE   C3618532   4.899   5.731   3.291 -0.9538  0.1027 -0.4831
  165SAPE   H6X18533   4.959   5.814   3.249  0.7996 -0.8179  0.0895
  165SAPE   H6Y18534   4.949   5.644   3.243  0.3877 -1.2777  3.0333
  165SAPE   C3718535   4.898   5.721   3.445  0.4662  0.2066 -0.3919
  165SAPE   H7X18536   4.849   5.628   3.480 -2.1101  0.9100 -1.9221
  165SAPE   H7Y18537   4.833   5.805   3.478  0.5507  0.6697 -1.3743
  165SAPE   C3818538   5.032   5.729   3.517 -0.3616 -0.2945  0.2644
  165SAPE   H8X18539   5.089   5.796   3.449 -0.4616  0.0026  0.4693
  165SAPE   H8Y18540   5.087   5.633   3.514  1.4127  0.6934 -0.8132
  165SAPE   C3918541   5.000   5.788   3.657 -0.9127  0.1333 -0.0002
  165SAPE   H9X18542   4.922   5.733   3.712  0.4352  0.4836  2.3944
  165SAPE   H9Y18543   4.967   5.894   3.650  2.1232  1.2707  1.1624
  165SAPE  C31018544   5.128   5.775   3.747 -0.0839  0.3862  0.4131
  165SAPE  H10X18545   5.206   5.842   3.705 -0.8338  1.4926  0.7569
  165SAPE  H10Y18546   5.165   5.670   3.740  2.5676  1.2185  0.8082
  165SAPE  C31118547   5.095   5.802   3.891 -0.2571 -0.4134  0.1880
  165SAPE  H11X18548   5.029   5.720   3.926  2.3571 -2.3381  0.9195
  165SAPE  H11Y18549   5.039   5.897   3.905 -1.2349 -0.7722 -1.1242
  165SAPE  C31218550   5.227   5.796   3.969  0.7807  0.8774  0.3150
  165SAPE  H12X18551   5.281   5.893   3.967 -0.0694  1.3821  1.1726
  165SAPE  H12Y18552   5.293   5.718   3.925  0.2491  0.0078  1.0190
  165SAPE  C31318553   5.202   5.760   4.117 -0.3320  0.0693 -0.6847
  165SAPE  H13X18554   5.170   5.655   4.135 -1.2174  0.5230  0.5972
  165SAPE  H13Y18555   5.130   5.837   4.152  0.6142  0.2124  1.0492
  165SAPE  C31418556   5.325   5.797   4.200  0.0867 -0.4672  0.3774
  165SAPE  H14X18557   5.360   5.899   4.175 -0.0862 -0.9317 -2.0283
  165SAPE  H14Y18558   5.405   5.725   4.171  0.8216 -0.1536  1.5391
  165SAPE  C31518559   5.284   5.767   4.342 -0.3941 -0.3807  0.2242
  165SAPE  H15X18560   5.220   5.677   4.349 -2.7713  1.0361 -1.8145
  165SAPE  H15Y18561   5.222   5.850   4.383  0.8986  1.2556 -0.9563
  165SAPE  C31618562   5.403   5.738   4.441  0.0219  0.1479  0.7206
  165SAPE  H16X18563   5.462   5.832   4.443  0.8690 -0.3332 -0.2924
  165SAPE  H16Y18564   5.467   5.650   4.413 -2.8173 -1.9692  0.4676
  165SAPE  C31718565   5.341   5.716   4.585  0.1007 -0.5609 -0.4038
  165SAPE  H17X18566   5.285   5.619   4.588  0.0374 -0.5158 -0.0665
  165SAPE  H17Y18567   5.271   5.798   4.611  1.7023  0.3686  1.1984
  165SAPE  C31818568   5.443   5.702   4.697 -0.2950 -0.4607 -0.3521
  165SAPE  H18X18569   5.508   5.615   4.672  0.2699 -0.1534  0.0233
  165SAPE  H18Y18570   5.403   5.680   4.798 -0.8714 -2.7381 -0.9928
  165SAPE  H18Z18571   5.506   5.793   4.707  2.3257 -2.0786 -1.0944
  166SAPE     N18572   4.917   5.861   2.128 -0.5068 -0.6446  0.2266
  166SAPE   HN118573   4.855   5.944   2.119 -2.4380 -2.1234 -1.1904
  166SAPE   HN218574   4.867   5.778   2.090 -0.3035 -1.0971  0.9243
  166SAPE   HN318575   4.943   5.838   2.226  0.8550 -0.0105  0.0434
  166SAPE   C1218576   5.041   5.875   2.035 -0.0083  0.5836 -0.4869
  166SAPE  H12A18577   4.999   5.851   1.935 -0.0088  0.1835 -0.3920
  166SAPE  H12B18578   5.112   5.793   2.058 -0.1141  0.7713  0.5725
  166SAPE   C1118579   5.111   6.012   2.042 -0.0875  0.1740 -0.1776
  166SAPE  H11A18580   5.037   6.085   2.005 -0.4914  0.1705  0.5996
  166SAPE  H11B18581   5.198   6.012   1.973  0.7998 -0.4677  0.9047
  166SAPE     P18582   5.202   6.172   2.220  0.0566  0.1279 -0.1486
  166SAPE   O1318583   5.330   6.199   2.141 -0.3243  0.1924 -0.3431
  166SAPE   O1418584   5.087   6.256   2.198  0.5663  0.3471 -0.1292
  166SAPE   O1218585   5.158   6.029   2.175 -0.2105  0.0776 -0.6238
  166SAPE   O1118586   5.235   6.165   2.375  0.0865 -1.2515  0.3717
  166SAPE    C118587   5.157   6.070   2.463 -0.7127 -0.9401  0.2731
  166SAPE    HA18588   5.066   6.032   2.412 -2.3385  1.8783  0.8537
  166SAPE    HB18589   5.228   5.991   2.495 -1.5677 -0.9713  2.2376
  166SAPE    C218590   5.116   6.147   2.592  0.7764  0.3786 -0.0783
  166SAPE    HS18591   5.062   6.240   2.564  1.1749  0.7944  0.5374
  166SAPE   O2118592   5.244   6.175   2.668  0.7638 -0.2445  0.3363
  166SAPE   C2118593   5.226   6.274   2.762 -0.0539 -1.2112 -0.7354
  166SAPE   O2218594   5.129   6.344   2.774  0.5159 -0.0275  0.0442
  166SAPE   C2218595   5.340   6.275   2.861 -0.8076  0.1204 -0.3193
  166SAPE   H2R18596   5.332   6.174   2.908 -1.2698  1.0726  1.7507
  166SAPE   H2S18597   5.436   6.286   2.806 -0.5455 -0.5588 -0.0044
  166SAPE    C318598   5.012   6.064   2.672 -0.2424  0.6180  0.0610
  166SAPE    HX18599   4.917   6.073   2.615  1.1141 -0.4862 -2.5357
  166SAPE    HY18600   4.999   6.117   2.769 -0.1651 -1.9559  1.5548
  166SAPE   O3118601   5.051   5.923   2.686  0.4100  0.0464 -0.1390
  166SAPE   C3118602   5.121   5.892   2.794 -0.2287 -0.3750  0.1967
  166SAPE   O3218603   5.159   5.971   2.878 -0.1356  0.4975 -0.7285
  166SAPE   C3218604   5.166   5.744   2.786 -0.2340 -0.2241 -0.2615
  166SAPE   H2X18605   5.217   5.714   2.692  0.5351 -1.9727  0.6737
  166SAPE   H2Y18606   5.071   5.687   2.797  0.0510 -0.5921  0.3990
  166SAPE   C2318607   5.327   6.377   2.979 -0.4925  0.6805  0.6016
  166SAPE   H3R18608   5.223   6.360   3.014 -0.4380  2.9557  2.0960
  166SAPE   H3S18609   5.339   6.481   2.941 -1.8283  0.9176  0.7788
  166SAPE   C2418610   5.418   6.339   3.098 -0.8879 -0.1626  0.8946
  166SAPE   H4R18611   5.422   6.232   3.127  1.5760 -0.5708 -0.6633
  166SAPE   H4S18612   5.373   6.386   3.189  0.4398 -0.8026  1.9196
  166SAPE   C2518613   5.564   6.393   3.092 -0.7614 -0.1172 -0.2876
  166SAPE   H5R18614   5.623   6.352   3.008 -1.0160  3.0448 -2.1867
  166SAPE   C2618615   5.630   6.466   3.187  0.1195  0.8029 -0.9183
  166SAPE   H6R18616   5.738   6.477   3.167  0.3599 -1.5116 -1.1429
  166SAPE   C2718617   5.569   6.532   3.310  0.1085  0.1173 -0.6249
  166SAPE   H7R18618   5.460   6.546   3.294  0.2639  0.8551 -1.1094
  166SAPE   H7S18619   5.611   6.634   3.326 -2.7100  1.3012 -0.1650
  166SAPE   C2818620   5.579   6.450   3.440  0.5463 -0.4715  0.1888
  166SAPE   H8R18621   5.603   6.344   3.423  1.6923 -0.1383 -0.3347
  166SAPE   C2918622   5.554   6.495   3.563 -0.0124 -0.1242 -0.1975
  166SAPE   H9R18623   5.558   6.419   3.643  2.9459 -1.5088 -1.5338
  166SAPE  C21018624   5.516   6.636   3.609  0.5263  0.1696 -0.1057
  166SAPE  H10R18625   5.519   6.702   3.520  0.7625 -2.3849 -2.1035
  166SAPE  H10S18626   5.595   6.666   3.682  0.7936 -0.7868  0.0101
  166SAPE  C21118627   5.376   6.646   3.673  0.7232 -0.6880 -0.3430
  166SAPE  H11R18628   5.286   6.632   3.613 -0.6306  2.3096  0.7580
  166SAPE  C21218629   5.363   6.672   3.808  0.6078  0.2338 -0.0723
  166SAPE  H12R18630   5.262   6.674   3.852  0.9849 -0.1058  0.8158
  166SAPE  C21318631   5.457   6.695   3.915 -0.3553  0.1461  0.0967
  166SAPE  H13R18632   5.400   6.771   3.973 -0.3848  1.5723 -1.7065
  166SAPE  H13S18633   5.547   6.750   3.878 -0.8046  0.8373  0.0168
  166SAPE  C21418634   5.497   6.573   4.005  0.3952 -0.4671 -0.1732
  166SAPE  H14R18635   5.513   6.477   3.954 -1.1587 -1.2468  0.7251
  166SAPE  C21518636   5.509   6.561   4.140  0.3699  0.0307  0.2114
  166SAPE  H15R18637   5.551   6.477   4.197 -0.3948  0.2991  1.1753
  166SAPE  C21618638   5.494   6.674   4.237 -0.2023  0.1261  0.1905
  166SAPE  H16R18639   5.385   6.695   4.244  0.1349  2.3859 -0.4440
  166SAPE  H16S18640   5.543   6.766   4.199  1.4958 -0.7837  0.1004
  166SAPE  C21718641   5.549   6.638   4.376 -1.2602  1.0065 -0.2766
  166SAPE  H17R18642   5.536   6.530   4.397 -0.1227  0.7455 -0.8379
  166SAPE  H17S18643   5.515   6.698   4.464 -1.2374  0.9313 -0.2167
  166SAPE  C21818644   5.710   6.660   4.372  0.0199 -0.0789 -0.1796
  166SAPE  H18R18645   5.713   6.761   4.327  1.4670  0.1512  0.3932
  166SAPE  H18S18646   5.753   6.600   4.289 -0.7989  2.0957 -2.3017
  166SAPE  C21918647   5.778   6.644   4.506  0.5531  0.1213  0.2316
  166SAPE  H19R18648   5.777   6.536   4.531 -0.8192  0.8030  3.7352
  166SAPE  H19S18649   5.717   6.699   4.580 -2.3225 -1.9288 -0.4247
  166SAPE  C22018650   5.913   6.708   4.510  0.4396 -0.0723 -0.0534
  166SAPE  H20R18651   5.946   6.713   4.616  0.9062  3.2579 -0.2447
  166SAPE  H20S18652   5.904   6.815   4.483 -0.0910  0.1807  1.0406
  166SAPE  H20T18653   5.992   6.661   4.448  0.5698  1.4923 -1.1271
  166SAPE   C3318654   5.268   5.696   2.896  0.0433 -0.9109  0.9341
  166SAPE   H3X18655   5.368   5.742   2.883  0.1312 -1.4224 -0.3422
  166SAPE   H3Y18656   5.297   5.592   2.870  3.4747  0.0924  0.2512
  166SAPE   C3418657   5.234   5.708   3.040  0.1200  0.3203 -0.4375
  166SAPE   H4X18658   5.131   5.670   3.063  0.0528  0.0151 -1.2077
  166SAPE   H4Y18659   5.230   5.814   3.071  0.8062  0.3383 -0.4166
  166SAPE   C3518660   5.337   5.634   3.134  0.0714 -0.0219 -0.0467
  166SAPE   H5X18661   5.436   5.681   3.119 -0.9600  1.7977 -1.5154
  166SAPE   H5Y18662   5.342   5.527   3.103 -1.1077 -0.1396  0.1089
  166SAPE   C3618663   5.294   5.622   3.273  0.0356 -0.6177  0.1132
  166SAPE   H6X18664   5.200   5.567   3.291 -0.0918  0.6034  4.2183
  166SAPE   H6Y18665   5.257   5.721   3.306  1.4324  0.1443 -0.4905
  166SAPE   C3718666   5.410   5.560   3.358  0.0818  0.1537  0.2993
  166SAPE   H7X18667   5.505   5.613   3.335 -0.7587  1.0662 -1.2650
  166SAPE   H7Y18668   5.421   5.454   3.327 -1.0984  0.1253 -0.0546
  166SAPE   C3818669   5.375   5.555   3.507 -0.1339 -0.2962 -0.5188
  166SAPE   H8X18670   5.295   5.481   3.526  0.3330 -0.9741 -1.1534
  166SAPE   H8Y18671   5.340   5.656   3.536  1.8179 -0.1176  1.5338
  166SAPE   C3918672   5.504   5.537   3.594  0.1976 -0.3396  0.3236
  166SAPE   H9X18673   5.575   5.619   3.570 -0.7568 -0.1861 -2.3613
  166SAPE   H9Y18674   5.554   5.446   3.555 -0.0533  0.5842 -2.3705
  166SAPE  C31018675   5.490   5.549   3.749 -0.6852  0.6148  0.3202
  166SAPE  H10X18676   5.400   5.487   3.768  1.0997 -2.4422 -0.5548
  166SAPE  H10Y18677   5.463   5.652   3.783  1.3551  1.2496  0.2151
  166SAPE  C31118678   5.613   5.497   3.829 -0.2036 -0.0578  0.2636
  166SAPE  H11X18679   5.700   5.556   3.794 -1.2025  1.9685  0.9859
  166SAPE  H11Y18680   5.624   5.390   3.801  0.7869 -0.4494  1.9897
  166SAPE  C31218681   5.591   5.527   3.978  0.3054 -0.8067 -0.7080
  166SAPE  H12X18682   5.488   5.497   4.005  0.2127 -0.6813 -0.9232
  166SAPE  H12Y18683   5.592   5.637   3.993 -3.1554 -0.9892  2.2890
  166SAPE  C31318684   5.681   5.457   4.080 -0.0014  0.0851 -0.1234
  166SAPE  H13X18685   5.783   5.494   4.056 -0.8420  1.0764 -2.3640
  166SAPE  H13Y18686   5.676   5.347   4.067  1.4301  0.0335 -0.3870
  166SAPE  C31418687   5.633   5.509   4.218 -1.5525  0.4696 -0.1955
  166SAPE  H14X18688   5.525   5.485   4.232 -1.3334 -0.2192  0.3649
  166SAPE  H14Y18689   5.638   5.620   4.226  0.7578  0.5512 -1.9514
  166SAPE  C31518690   5.717   5.452   4.337 -0.0173  0.4884 -0.3042
  166SAPE  H15X18691   5.784   5.520   4.393  1.1425 -1.4188  0.7354
  166SAPE  H15Y18692   5.776   5.368   4.295  1.0123 -1.2660  4.1385
  166SAPE  C31618693   5.625   5.392   4.448 -0.5037  0.2137 -0.1360
  166SAPE  H16X18694   5.545   5.340   4.390 -2.0666  2.0878  0.2671
  166SAPE  H16Y18695   5.578   5.471   4.509 -0.3216  1.6054 -1.7382
  166SAPE  C31718696   5.708   5.287   4.524 -0.1954  0.3886 -0.5941
  166SAPE  H17X18697   5.752   5.223   4.445 -2.5959 -2.3315  0.0867
  166SAPE  H17Y18698   5.635   5.233   4.589  0.6678 -1.2933 -0.9682
  166SAPE  C31818699   5.824   5.344   4.609 -0.8477 -0.4424 -0.4435
  166SAPE  H18X18700   5.889   5.267   4.656  1.1236  0.0819 -2.1254
  166SAPE  H18Y18701   5.790   5.409   4.692 -0.7295 -0.8387 -0.0839
  166SAPE  H18Z18702   5.902   5.392   4.545 -0.3719 -2.5004 -1.4967
  167SAPE     N18703   5.635   4.612   2.344 -0.6406 -0.2399  0.0161
  167SAPE   HN118704   5.731   4.591   2.378 -1.3130 -0.4913  1.8804
  167SAPE   HN218705   5.593   4.522   2.313 -1.9477  0.4591 -0.2995
  167SAPE   HN318706   5.649   4.675   2.262  2.3649  1.6207  1.7307
  167SAPE   C1218707   5.550   4.681   2.445 -0.5421 -0.5874 -0.2940
  167SAPE  H12A18708   5.443   4.668   2.418 -1.1809 -2.0851  2.5875
  167SAPE  H12B18709   5.586   4.786   2.439  0.4429 -0.8680  0.4218
  167SAPE   C1118710   5.587   4.632   2.586 -0.1983 -0.3579 -0.4707
  167SAPE  H11A18711   5.517   4.671   2.663 -0.4633 -3.3605  0.9496
  167SAPE  H11B18712   5.692   4.667   2.601 -1.1398  3.7783 -2.1433
  167SAPE     P18713   5.689   4.384   2.612  0.1315 -0.4231  0.5244
  167SAPE   O1318714   5.653   4.250   2.658  0.1390 -0.4454 -0.6967
  167SAPE   O1418715   5.753   4.387   2.477  0.3911 -0.0672 -0.2008
  167SAPE   O1218716   5.565   4.488   2.605  0.1391 -0.3214 -0.5098
  167SAPE   O1118717   5.783   4.450   2.718  0.1378  0.6120  0.4007
  167SAPE    C118718   5.897   4.388   2.780  1.3535  0.4881 -0.0590
  167SAPE    HA18719   5.913   4.282   2.751  0.9179 -0.5749  3.2419
  167SAPE    HB18720   5.984   4.447   2.746  1.5653 -0.6808 -1.6572
  167SAPE    C218721   5.872   4.391   2.931 -0.1813  0.5951 -0.4257
  167SAPE    HS18722   5.951   4.337   2.988 -1.1975  0.0040  0.4512
  167SAPE   O2118723   5.748   4.325   2.970  0.6575 -0.6200 -0.3568
  167SAPE   C2118724   5.753   4.202   2.959  0.0981  0.1417  0.4809
  167SAPE   O2218725   5.858   4.136   2.944  0.2637 -0.6492 -0.6792
  167SAPE   C2218726   5.615   4.136   2.968  0.7897 -0.3062 -0.3018
  167SAPE   H2R18727   5.531   4.205   2.992 -0.4850 -2.6834  2.7123
  167SAPE   H2S18728   5.591   4.093   2.868 -1.2579 -1.0156  0.4346
  167SAPE    C318729   5.879   4.531   2.979 -0.0068 -0.4772 -0.2366
  167SAPE    HX18730   5.827   4.601   2.909  2.1060  1.2093 -0.2011
  167SAPE    HY18731   5.985   4.564   2.973  0.1227 -0.1645  2.6774
  167SAPE   O3118732   5.830   4.543   3.117 -0.1360 -0.0809 -0.0200
  167SAPE   C3118733   5.702   4.581   3.130 -0.3991 -0.7488 -0.2057
  167SAPE   O3218734   5.630   4.623   3.042  0.7034 -0.4003 -0.0489
  167SAPE   C3218735   5.675   4.540   3.278  0.8106  0.0442 -0.2413
  167SAPE   H2X18736   5.743   4.592   3.348 -1.4299  0.4482  1.7735
  167SAPE   H2Y18737   5.682   4.429   3.285  0.1296  0.0605  0.9356
  167SAPE   C2318738   5.621   4.025   3.081  0.1160 -0.0262  0.0673
  167SAPE   H3R18739   5.626   4.066   3.184 -1.5346 -0.6682  0.4389
  167SAPE   H3S18740   5.712   3.962   3.073 -0.9716 -1.9023  1.6588
  167SAPE   C2418741   5.497   3.924   3.097 -0.7525 -0.2736  0.5313
  167SAPE   H4R18742   5.526   3.858   3.182  1.7517  0.5564  0.3905
  167SAPE   H4S18743   5.500   3.857   3.008 -0.1863  0.9541 -0.4043
  167SAPE   C2518744   5.376   4.001   3.129  0.8773  0.2631  0.1358
  167SAPE   H5R18745   5.316   4.039   3.045 -0.6123  0.4438  1.2412
  167SAPE   C2618746   5.318   4.032   3.248 -0.7709  0.5376  0.4878
  167SAPE   H6R18747   5.224   4.089   3.241 -0.6601  0.5155 -2.2831
  167SAPE   C2718748   5.369   3.988   3.387  0.2159  0.0957 -0.4140
  167SAPE   H7R18749   5.480   3.991   3.394  0.2007  1.3718 -0.4068
  167SAPE   H7S18750   5.342   3.883   3.408  1.2711  0.2341  1.9163
  167SAPE   C2818751   5.321   4.077   3.490  0.1737  0.1912  0.0766
  167SAPE   H8R18752   5.382   4.168   3.496  0.3034  0.3599 -2.6372
  167SAPE   C2918753   5.245   4.059   3.595  0.8247 -0.1920 -0.3942
  167SAPE   H9R18754   5.245   4.148   3.660  1.9760 -0.0338 -0.5861
  167SAPE  C21018755   5.165   3.937   3.645 -0.3403 -0.4507 -0.2232
  167SAPE  H10R18756   5.117   3.882   3.561  2.4876  0.1705 -2.4152
  167SAPE  H10S18757   5.070   3.976   3.690  0.6029 -0.1135  1.5583
  167SAPE  C21118758   5.235   3.838   3.734  0.6121 -0.3373 -0.3846
  167SAPE  H11R18759   5.256   3.735   3.700  0.7407 -1.8880  3.8748
  167SAPE  C21218760   5.290   3.871   3.855 -0.0750  0.0163 -0.0759
  167SAPE  H12R18761   5.341   3.792   3.912  2.3024 -0.6758 -2.8719
  167SAPE  C21318762   5.283   4.004   3.935 -1.0785 -0.2295 -0.3953
  167SAPE  H13R18763   5.239   3.994   4.037  2.6008  0.3202  1.4190
  167SAPE  H13S18764   5.214   4.072   3.880 -0.9952  0.3983  0.2567
  167SAPE  C21418765   5.418   4.067   3.958 -0.0435 -0.6255 -0.1414
  167SAPE  H14R18766   5.463   4.106   3.865  1.9238 -2.5835 -0.0849
  167SAPE  C21518767   5.484   4.096   4.074 -1.0044  0.3601  0.4676
  167SAPE  H15R18768   5.579   4.150   4.064 -0.1025 -0.8416  2.0327
  167SAPE  C21618769   5.447   4.063   4.214  0.1234  0.4407 -0.3610
  167SAPE  H16R18770   5.418   3.956   4.210  0.6784  0.3204 -1.6703
  167SAPE  H16S18771   5.361   4.129   4.239 -1.2963 -1.2422 -0.5591
  167SAPE  C21718772   5.560   4.108   4.309  0.3470  0.3819 -1.2550
  167SAPE  H17R18773   5.586   4.215   4.299  0.6971  0.4870  0.4189
  167SAPE  H17S18774   5.656   4.058   4.285  0.0056 -0.8252 -0.2714
  167SAPE  C21818775   5.519   4.090   4.455 -0.1936  0.4295  0.0490
  167SAPE  H18R18776   5.524   3.980   4.470  0.6639 -0.3713 -4.5792
  167SAPE  H18S18777   5.413   4.110   4.480 -0.0896 -0.3774  1.2214
  167SAPE  C21918778   5.607   4.159   4.562 -0.3609 -0.2356  0.4755
  167SAPE  H19R18779   5.614   4.267   4.535  0.4493  0.2897  2.6154
  167SAPE  H19S18780   5.710   4.120   4.543 -1.1475 -0.9619 -3.0740
  167SAPE  C22018781   5.563   4.156   4.707  0.0447  0.5188  0.0108
  167SAPE  H20R18782   5.590   4.062   4.760  1.2602  1.1776  0.6092
  167SAPE  H20S18783   5.452   4.163   4.711  0.0747  2.3983 -1.2288
  167SAPE  H20T18784   5.600   4.241   4.769  1.8221  0.3302 -0.7296
  167SAPE   C3318785   5.531   4.587   3.321 -0.8825 -0.1762 -0.2921
  167SAPE   H3X18786   5.448   4.552   3.256 -0.8810 -1.1114  0.1968
  167SAPE   H3Y18787   5.538   4.696   3.300  1.5214 -0.7307 -3.1714
  167SAPE   C3418788   5.506   4.570   3.467  0.3781 -0.5064 -0.0625
  167SAPE   H4X18789   5.397   4.580   3.485  0.4049  0.8811 -0.5365
  167SAPE   H4Y18790   5.567   4.649   3.517  0.2745 -0.1660 -0.4634
  167SAPE   C3518791   5.533   4.423   3.513  0.3271  0.2133  0.0756
  167SAPE   H5X18792   5.641   4.412   3.537  0.1350  1.1944  1.5140
  167SAPE   H5Y18793   5.500   4.345   3.442 -0.1536 -2.1596  2.6996
  167SAPE   C3618794   5.469   4.397   3.651  0.1157  0.1601 -0.2250
  167SAPE   H6X18795   5.458   4.290   3.679  2.3730  0.3821  1.8060
  167SAPE   H6Y18796   5.361   4.425   3.656  0.7258  2.8412 -0.2539
  167SAPE   C3718797   5.541   4.475   3.758  0.3494 -0.0439 -0.5670
  167SAPE   H7X18798   5.570   4.577   3.726  3.0536 -1.6449 -3.7985
  167SAPE   H7Y18799   5.639   4.428   3.781  1.0798  1.5805 -0.2153
  167SAPE   C3818800   5.470   4.467   3.903 -0.0779  0.5914  0.1195
  167SAPE   H8X18801   5.466   4.360   3.934  0.6701  0.1669 -1.1707
  167SAPE   H8Y18802   5.365   4.503   3.893 -0.4411 -0.9213 -2.6411
  167SAPE   C3918803   5.537   4.543   4.018 -1.0027 -0.8777 -0.5272
  167SAPE   H9X18804   5.500   4.647   4.028  0.6344 -0.4164  1.4867
  167SAPE   H9Y18805   5.647   4.552   4.001 -1.0206  0.9661  0.1017
  167SAPE  C31018806   5.476   4.486   4.154 -0.7402 -0.7363  0.7912
  167SAPE  H10X18807   5.506   4.380   4.165  0.5724 -0.5221 -0.4361
  167SAPE  H10Y18808   5.365   4.493   4.162 -0.6913 -1.1437  2.0755
  167SAPE  C31118809   5.535   4.567   4.267  0.1548 -0.0629 -0.0849
  167SAPE  H11X18810   5.512   4.673   4.242  2.1656 -0.0559 -2.2672
  167SAPE  H11Y18811   5.646   4.564   4.259  0.3013  0.4692  1.4210
  167SAPE  C31218812   5.485   4.511   4.399 -0.0925 -0.0543  0.3036
  167SAPE  H12X18813   5.477   4.400   4.411 -0.0101  0.0456  1.3251
  167SAPE  H12Y18814   5.386   4.558   4.418  0.9790  1.9818  1.0270
  167SAPE  C31318815   5.574   4.554   4.509 -0.4777  0.6251 -0.6707
  167SAPE  H13X18816   5.627   4.650   4.494  2.7933 -0.7665  0.9624
  167SAPE  H13Y18817   5.659   4.482   4.505 -1.5270 -0.8201  1.1303
  167SAPE  C31418818   5.498   4.547   4.647  0.0382  0.5642 -0.0823
  167SAPE  H14X18819   5.457   4.445   4.661 -0.0368  0.5764 -0.2154
  167SAPE  H14Y18820   5.419   4.625   4.641  0.3077  0.9313  0.8681
  167SAPE  C31518821   5.592   4.564   4.771 -0.6877 -0.8956  0.1164
  167SAPE  H15X18822   5.668   4.644   4.755  0.7902 -1.7394  2.4688
  167SAPE  H15Y18823   5.668   4.483   4.771 -1.2281 -1.4321 -1.4341
  167SAPE  C31618824   5.526   4.592   4.905  0.5033 -0.4494  0.5705
  167SAPE  H16X18825   5.446   4.521   4.936  0.5962 -0.6055  0.4525
  167SAPE  H16Y18826   5.484   4.693   4.923 -1.3286 -1.5115  2.6718
  167SAPE  C31718827   5.620   4.592   5.020  0.0175 -0.1429  0.0588
  167SAPE  H17X18828   5.580   4.639   5.112  0.2992  0.5324 -0.1576
  167SAPE  H17Y18829   5.712   4.645   4.987  0.3732  0.4729  1.9188
  167SAPE  C31818830   5.664   4.451   5.065 -0.1318 -0.2051  0.2583
  167SAPE  H18X18831   5.586   4.402   5.127  0.2651 -1.0183  0.1396
  167SAPE  H18Y18832   5.757   4.454   5.127 -0.6118 -2.1455  1.1544
  167SAPE  H18Z18833   5.681   4.384   4.978  1.1720 -0.5672  0.7663
  168SAPE     N18834   0.845   0.173   2.323  0.1399  0.1202  0.1973
  168SAPE   HN118835   0.871   0.232   2.241  0.7311 -1.3467 -0.7080
  168SAPE   HN218836   0.809   0.084   2.285  2.8325 -0.2782 -1.7241
  168SAPE   HN318837   0.763   0.222   2.365  0.3067 -0.1707  0.8905
  168SAPE   C1218838   0.966   0.160   2.418  0.4780 -0.2459  0.2029
  168SAPE  H12A18839   1.056   0.144   2.355  0.4501  0.2186  0.0377
  168SAPE  H12B18840   0.950   0.067   2.476 -2.1854  0.1257  0.1762
  168SAPE   C1118841   0.974   0.273   2.518 -0.1286  0.3742  0.3032
  168SAPE  H11A18842   1.056   0.254   2.591  0.9172 -0.8767 -1.1468
  168SAPE  H11B18843   0.879   0.284   2.574 -0.0555  1.0818  0.2971
  168SAPE     P18844   1.050   0.523   2.508  0.3524  0.4532 -0.2863
  168SAPE   O1318845   1.181   0.565   2.451  0.5009 -0.2470  0.3945
  168SAPE   O1418846   0.940   0.617   2.487  0.3604  0.1900  0.0352
  168SAPE   O1218847   1.004   0.388   2.441  0.0643 -0.2766 -0.0702
  168SAPE   O1118848   1.059   0.488   2.661 -0.2345 -0.4019 -0.2086
  168SAPE    C118849   1.192   0.492   2.727  0.8575 -0.0160 -0.0335
  168SAPE    HA18850   1.265   0.426   2.677 -0.3901 -0.9710 -0.6511
  168SAPE    HB18851   1.213   0.598   2.752 -0.2089  0.1277  0.3266
  168SAPE    C218852   1.174   0.434   2.867  0.1679  0.3437  0.1545
  168SAPE    HS18853   1.114   0.344   2.841  1.5522 -0.0046 -2.1454
  168SAPE   O2118854   1.115   0.537   2.947  0.3236  0.1939  0.3814
  168SAPE   C2118855   1.034   0.494   3.049  0.2274  0.0939  0.9011
  168SAPE   O2218856   1.001   0.376   3.066  0.3258 -0.8513  0.1792
  168SAPE   C2218857   0.998   0.606   3.147 -0.0458 -0.4677  0.0687
  168SAPE   H2R18858   1.087   0.670   3.164  0.1676 -1.5512  3.7102
  168SAPE   H2S18859   0.915   0.659   3.095 -0.0417  0.2231  0.7631
  168SAPE    C318860   1.316   0.396   2.926  0.3060 -0.7196 -0.0206
  168SAPE    HX18861   1.360   0.498   2.929  0.4024 -0.7538 -0.2411
  168SAPE    HY18862   1.375   0.336   2.853  1.2930  3.5861 -3.1583
  168SAPE   O3118863   1.313   0.347   3.059 -0.4204  0.3620  0.0995
  168SAPE   C3118864   1.300   0.215   3.066 -0.5399  0.2763 -0.2829
  168SAPE   O3218865   1.263   0.137   2.981  0.4509 -0.1873  0.1186
  168SAPE   C3218866   1.343   0.178   3.210  0.5343 -0.0052  0.3406
  168SAPE   H2X18867   1.252   0.177   3.273  2.4506 -0.1015  3.3192
  168SAPE   H2Y18868   1.407   0.258   3.252  0.9770 -0.6176  0.8581
  168SAPE   C2318869   0.947   0.553   3.284  0.3990 -0.3877 -0.3342
  168SAPE   H3R18870   0.999   0.464   3.325 -0.4009  0.1980  2.1048
  168SAPE   H3S18871   0.839   0.524   3.282  0.1025  0.6812 -0.4971
  168SAPE   C2418872   0.959   0.656   3.399  0.6289  0.0591  0.7200
  168SAPE   H4R18873   1.067   0.684   3.404  1.2228 -1.7747 -0.6801
  168SAPE   H4S18874   0.938   0.586   3.482  1.7996 -0.4265  0.6280
  168SAPE   C2518875   0.869   0.775   3.378 -0.0538  0.3638 -0.6970
  168SAPE   H5R18876   0.892   0.837   3.290 -1.9750 -0.7495 -2.0621
  168SAPE   C2618877   0.797   0.825   3.477  0.5838 -0.3457 -0.1014
  168SAPE   H6R18878   0.736   0.913   3.456  2.7393  0.9365 -1.3736
  168SAPE   C2718879   0.761   0.768   3.612  0.8580 -0.4955 -0.3015
  168SAPE   H7R18880   0.841   0.695   3.638  0.4438 -1.1883 -0.9371
  168SAPE   H7S18881   0.674   0.701   3.599  1.4390 -1.2386 -0.4189
  168SAPE   C2818882   0.742   0.865   3.725 -0.6658 -0.3108 -0.1807
  168SAPE   H8R18883   0.759   0.972   3.705 -0.4254  0.0105  1.5899
  168SAPE   C2918884   0.689   0.836   3.845  0.0760  0.2934  0.1827
  168SAPE   H9R18885   0.674   0.915   3.920 -1.2524 -0.7815  1.0858
  168SAPE  C21018886   0.645   0.697   3.885 -0.2550  0.2166 -0.6501
  168SAPE  H10R18887   0.704   0.672   3.976 -1.6321 -0.1519  0.1823
  168SAPE  H10S18888   0.675   0.619   3.812 -2.3530 -3.6378  2.2197
  168SAPE  C21118889   0.502   0.681   3.912 -0.2466 -0.4617 -0.1330
  168SAPE  H11R18890   0.443   0.722   3.829 -0.0756  0.4334  0.1858
  168SAPE  C21218891   0.441   0.642   4.019  0.3093 -0.7104 -0.0015
  168SAPE  H12R18892   0.331   0.639   4.009  0.3726  0.5972 -1.4758
  168SAPE  C21318893   0.504   0.591   4.149  0.0565 -0.4509 -0.0923
  168SAPE  H13R18894   0.609   0.629   4.151 -0.8529  2.7279 -2.7722
  168SAPE  H13S18895   0.517   0.481   4.139 -0.6263 -0.6395  0.9680
  168SAPE  C21418896   0.430   0.623   4.273  0.2003 -0.0632  0.1927
  168SAPE  H14R18897   0.442   0.726   4.309 -1.4622 -0.4200  1.8984
  168SAPE  C21518898   0.344   0.543   4.342  0.1850 -0.5682  0.6864
  168SAPE  H15R18899   0.295   0.585   4.432  0.2853  0.7746  0.1359
  168SAPE  C21618900   0.312   0.400   4.312  0.1468 -0.0958  0.2843
  168SAPE  H16R18901   0.353   0.372   4.213 -0.0386  0.6364 -0.0068
  168SAPE  H16S18902   0.202   0.389   4.305 -0.3169  3.2497  0.4009
  168SAPE  C21718903   0.365   0.307   4.426 -0.0839 -0.2902 -0.5654
  168SAPE  H17R18904   0.472   0.334   4.442  0.0571  0.4176 -2.4206
  168SAPE  H17S18905   0.368   0.198   4.404 -0.2862 -0.1531 -1.3115
  168SAPE  C21818906   0.290   0.333   4.547 -0.4465  0.2908 -0.8468
  168SAPE  H18R18907   0.182   0.315   4.530 -0.6762 -1.2944  1.7488
  168SAPE  H18S18908   0.302   0.442   4.570  0.5143  0.0744 -0.2635
  168SAPE  C21918909   0.344   0.253   4.675 -0.2066 -0.3038 -0.0965
  168SAPE  H19R18910   0.450   0.281   4.694  0.2050 -1.3036 -0.7975
  168SAPE  H19S18911   0.336   0.144   4.652 -1.2087 -0.1133 -0.6978
  168SAPE  C22018912   0.253   0.282   4.794 -0.6494 -0.1104 -0.4528
  168SAPE  H20R18913   0.307   0.240   4.882  1.6105 -0.6138 -1.9795
  168SAPE  H20S18914   0.164   0.218   4.777 -1.1648  1.1339 -2.8494
  168SAPE  H20T18915   0.226   0.390   4.801 -0.6714 -0.0579 -1.2502
  168SAPE   C3318916   1.405   0.035   3.214 -0.0791 -0.3736  0.0875
  168SAPE   H3X18917   1.462   0.004   3.124 -1.4717 -1.7825 -0.3484
  168SAPE   H3Y18918   1.323  -0.039   3.214 -0.2794 -0.1566  0.4147
  168SAPE   C3418919   1.466   0.000   3.352 -0.1511 -0.0851  0.0686
  168SAPE   H4X18920   1.561   0.059   3.355 -0.8107  0.9642  2.0585
  168SAPE   H4Y18921   1.489  -0.109   3.351  0.3155 -0.0158  1.1696
  168SAPE   C3518922   1.380   0.036   3.469  0.3565  0.0922  0.3713
  168SAPE   H5X18923   1.278  -0.008   3.461  1.4044 -2.6925  1.1547
  168SAPE   H5Y18924   1.381   0.146   3.486 -0.4633  0.1390  0.1750
  168SAPE   C3618925   1.433  -0.021   3.600  0.0236  0.4213 -0.0130
  168SAPE   H6X18926   1.540   0.007   3.606 -0.2741  1.9617 -1.2424
  168SAPE   H6Y18927   1.437  -0.129   3.573 -1.8235  0.2179  0.4036
  168SAPE   C3718928   1.339   0.013   3.715 -0.1513  0.0168  0.7789
  168SAPE   H7X18929   1.248  -0.038   3.677  0.5891  0.4790 -1.8132
  168SAPE   H7Y18930   1.316   0.122   3.717  0.8618  0.2602  0.0196
  168SAPE   C3818931   1.384  -0.031   3.852  0.1082 -0.2215 -0.4804
  168SAPE   H8X18932   1.477   0.023   3.878  1.6233 -2.6761 -0.4957
  168SAPE   H8Y18933   1.414  -0.137   3.858 -2.5767 -1.0445 -0.0529
  168SAPE   C3918934   1.290  -0.008   3.976  0.5014 -0.4777  0.2834
  168SAPE   H9X18935   1.337  -0.048   4.068  2.0896 -0.2925 -0.4054
  168SAPE   H9Y18936   1.202  -0.073   3.957 -1.3499  1.1946  2.6092
  168SAPE  C31018937   1.249   0.137   4.002 -0.7836  0.7234  0.2566
  168SAPE  H10X18938   1.170   0.155   3.926 -0.8691  0.9623  0.4009
  168SAPE  H10Y18939   1.337   0.203   3.983 -1.1493  0.9512 -0.6963
  168SAPE  C31118940   1.195   0.160   4.140 -0.6166  0.6436 -0.5354
  168SAPE  H11X18941   1.154   0.065   4.181  4.7689 -1.7223  0.3337
  168SAPE  H11Y18942   1.121   0.243   4.137 -0.8813  0.4015 -0.7990
  168SAPE  C31218943   1.306   0.205   4.240 -0.1552 -0.6170 -0.3019
  168SAPE  H12X18944   1.360   0.288   4.191 -0.1591  1.2580  2.6616
  168SAPE  H12Y18945   1.373   0.117   4.247 -0.5587 -0.9384 -0.4092
  168SAPE  C31318946   1.259   0.259   4.378 -0.1039 -0.0312 -0.2478
  168SAPE  H13X18947   1.180   0.335   4.362  1.5642  1.7412 -0.4889
  168SAPE  H13Y18948   1.344   0.311   4.429  0.7585 -1.9452  0.3681
  168SAPE  C31418949   1.210   0.162   4.480 -0.7394 -0.0438 -0.1797
  168SAPE  H14X18950   1.108   0.132   4.448 -1.1754  0.8748  0.3462
  168SAPE  H14Y18951   1.195   0.218   4.575 -0.4448 -1.4105  0.7103
  168SAPE  C31518952   1.299   0.041   4.510 -0.1728  0.2538  0.3481
  168SAPE  H15X18953   1.379   0.080   4.577 -1.0237  2.7498  0.0084
  168SAPE  H15Y18954   1.327   0.011   4.406  0.1075  1.2322  0.1322
  168SAPE  C31618955   1.223  -0.068   4.574  0.0591 -0.0032 -0.6544
  168SAPE  H16X18956   1.127  -0.077   4.518 -1.0804 -2.5455  1.5028
  168SAPE  H16Y18957   1.183  -0.042   4.674 -0.8808 -0.7720 -0.8167
  168SAPE  C31718958   1.291  -0.198   4.565 -0.7035  0.2709  0.2685
  168SAPE  H17X18959   1.374  -0.190   4.638  0.8497 -2.1996 -1.0754
  168SAPE  H17Y18960   1.336  -0.207   4.463  2.2959  0.8877  1.4289
  168SAPE  C31818961   1.205  -0.321   4.598 -0.0143 -0.0297 -0.5015
  168SAPE  H18X18962   1.190  -0.337   4.706  1.2266 -1.4050 -0.4973
  168SAPE  H18Y18963   1.259  -0.407   4.552 -1.4400 -1.3927  0.2832
  168SAPE  H18Z18964   1.110  -0.301   4.544 -0.1830 -1.6106 -0.8404
  169SAPE     N18965   6.001   5.052   2.595 -0.5442 -0.7549 -0.0787
  169SAPE   HN118966   6.001   5.076   2.696 -1.6342 -0.3432 -0.1661
  169SAPE   HN218967   6.099   5.030   2.566  0.1990  1.3283  0.6915
  169SAPE   HN318968   5.963   5.127   2.534 -1.1502 -0.8322  0.1966
  169SAPE   C1218969   5.918   4.921   2.578 -0.1541  0.6304 -0.3602
  169SAPE  H12A18970   5.910   4.901   2.469 -0.7111  2.0038 -0.5890
  169SAPE  H12B18971   5.817   4.951   2.611  0.3067  2.2589 -0.3447
  169SAPE   C1118972   5.969   4.807   2.661  0.7333 -0.0416  0.2796
  169SAPE  H11A18973   5.908   4.719   2.634  2.5702 -0.8810 -1.4148
  169SAPE  H11B18974   5.964   4.814   2.771 -0.1781 -0.3490  0.2631
  169SAPE     P18975   6.179   4.645   2.652 -0.2673 -0.3748 -0.3903
  169SAPE   O1318976   6.116   4.540   2.564 -0.9129 -0.5432  0.5994
  169SAPE   O1418977   6.328   4.663   2.642  0.3408 -0.7010  0.2271
  169SAPE   O1218978   6.105   4.784   2.625  0.1351  0.0442  0.5725
  169SAPE   O1118979   6.145   4.614   2.801  0.4508 -0.2787  0.0240
  169SAPE    C118980   6.239   4.621   2.908 -0.2094 -0.9962 -0.1094
  169SAPE    HA18981   6.300   4.714   2.908 -1.0206 -0.4469 -0.1539
  169SAPE    HB18982   6.174   4.636   2.996 -1.4191 -0.5811 -1.0412
  169SAPE    C218983   6.322   4.487   2.910  0.5213  0.0804  0.6787
  169SAPE    HS18984   6.367   4.470   2.810  0.5307 -0.1626  0.7238
  169SAPE   O2118985   6.240   4.380   2.959  0.0222  0.1876 -0.9101
  169SAPE   C2118986   6.291   4.260   2.939 -0.4390  0.5539 -0.0962
  169SAPE   O2218987   6.387   4.236   2.866  0.3303 -0.1143  0.7764
  169SAPE   C2218988   6.204   4.155   2.999  0.7460 -0.4620  0.4281
  169SAPE   H2R18989   6.208   4.169   3.109 -0.5517 -0.9765  0.5558
  169SAPE   H2S18990   6.097   4.169   2.973  0.7220  0.3169  0.9091
  169SAPE    C318991   6.450   4.506   3.002  0.1817  0.1377  0.2969
  169SAPE    HX18992   6.497   4.588   2.943 -0.4946 -0.7418 -1.5504
  169SAPE    HY18993   6.523   4.423   2.998  0.0398  0.0678 -1.1546
  169SAPE   O3118994   6.419   4.547   3.140  0.1033 -0.9683  0.1317
  169SAPE   C3118995   6.396   4.448   3.226 -0.2100 -1.1172  0.1730
  169SAPE   O3218996   6.405   4.331   3.208  0.5332 -0.3022  0.0907
  169SAPE   C3218997   6.368   4.514   3.367  0.1755 -0.5020 -0.3133
  169SAPE   H2X18998   6.271   4.565   3.351  0.2156 -0.2062  0.3819
  169SAPE   H2Y18999   6.446   4.588   3.392 -0.8849  1.0133 -1.3035
  169SAPE   C2319000   6.255   4.012   2.968 -0.0911  0.1005 -0.1044
  169SAPE   H3R19001   6.364   4.020   2.949 -0.1460 -0.5297 -0.7454
  169SAPE   H3S19002   6.212   3.987   2.868  0.3035  1.0316 -0.5183
  169SAPE   C2419003   6.216   3.904   3.068 -0.1939 -0.0864  0.3070
  169SAPE   H4R19004   6.273   3.924   3.161  0.0896  0.6967 -0.0310
  169SAPE   H4S19005   6.230   3.803   3.023 -0.1523  1.1105 -2.5240
  169SAPE   C2519006   6.067   3.915   3.089  0.0629 -0.4372 -0.5283
  169SAPE   H5R19007   6.008   3.869   3.008  0.8338 -0.3321 -1.1571
  169SAPE   C2619008   6.000   3.976   3.189  0.5895  0.6886  0.3737
  169SAPE   H6R19009   5.891   3.978   3.180  0.5410 -1.4229  0.0126
  169SAPE   C2719010   6.051   4.051   3.309  0.5722  0.0118 -0.1953
  169SAPE   H7R19011   6.162   4.057   3.313  0.7385 -1.7477 -1.1078
  169SAPE   H7S19012   6.022   3.992   3.398 -1.9786  1.7215  0.2145
  169SAPE   C2819013   5.986   4.189   3.317  0.4802 -0.3952 -0.6640
  169SAPE   H8R19014   6.045   4.275   3.282  0.8038 -0.3921 -0.1211
  169SAPE   C2919015   5.866   4.221   3.377 -0.5705 -0.3256  0.2954
  169SAPE   H9R19016   5.838   4.327   3.382 -1.9537 -0.6648  0.0872
  169SAPE  C21019017   5.759   4.144   3.450 -0.2712  0.0363 -0.4002
  169SAPE  H10R19018   5.770   4.037   3.421 -0.7008 -0.6527  1.7362
  169SAPE  H10S19019   5.662   4.187   3.420  0.3015  0.6903 -1.3651
  169SAPE  C21119020   5.775   4.159   3.600  0.7384 -0.5015  0.0071
  169SAPE  H11R19021   5.838   4.243   3.634 -1.7543  1.1308  0.8298
  169SAPE  C21219022   5.732   4.077   3.695  0.0046  0.2344 -0.4917
  169SAPE  H12R19023   5.751   4.096   3.802  0.9390  0.4055 -0.6722
  169SAPE  C21319024   5.646   3.955   3.670 -0.4759  0.0339  0.5293
  169SAPE  H13R19025   5.563   3.957   3.596 -1.6533 -3.1686  1.5829
  169SAPE  H13S19026   5.594   3.931   3.765 -2.2127  1.2460 -0.0634
  169SAPE  C21419027   5.719   3.825   3.642 -0.0051 -1.1500  0.3351
  169SAPE  H14R19028   5.828   3.844   3.650 -0.2826  0.0503  1.8376
  169SAPE  C21519029   5.668   3.707   3.608  0.4625  0.6709 -0.0383
  169SAPE  H15R19030   5.742   3.625   3.604  0.1244  0.3679 -0.0949
  169SAPE  C21619031   5.525   3.677   3.583  0.1901 -0.4847  0.0044
  169SAPE  H16R19032   5.464   3.768   3.600  0.7361 -0.2450  0.7520
  169SAPE  H16S19033   5.487   3.602   3.657  1.4493  0.2362  1.4424
  169SAPE  C21719034   5.499   3.616   3.448 -0.5063 -0.0598  0.0449
  169SAPE  H17R19035   5.573   3.537   3.423 -0.0051  0.9716 -2.0868
  169SAPE  H17S19036   5.502   3.698   3.372  0.2005  1.8341  2.0033
  169SAPE  C21819037   5.358   3.564   3.421 -0.0192  0.0822 -0.0520
  169SAPE  H18R19038   5.290   3.636   3.471  0.9363  0.7782  0.2609
  169SAPE  H18S19039   5.362   3.467   3.476  2.1567 -0.1229 -0.4797
  169SAPE  C21919040   5.323   3.540   3.274 -0.6618  0.2755 -0.2834
  169SAPE  H19R19041   5.394   3.463   3.237  0.8755  1.1653  0.6589
  169SAPE  H19S19042   5.339   3.639   3.226  0.5223 -0.4213 -1.3611
  169SAPE  C22019043   5.180   3.499   3.232  0.3195  0.3219  0.7405
  169SAPE  H20R19044   5.175   3.510   3.121  0.0637  1.2899  0.8330
  169SAPE  H20S19045   5.107   3.570   3.276 -0.7415 -2.2565  3.4870
  169SAPE  H20T19046   5.156   3.395   3.262  0.5061 -1.2527 -3.7567
  169SAPE   C3319047   6.353   4.418   3.481 -0.3349 -0.1412 -0.0142
  169SAPE   H3X19048   6.425   4.333   3.475 -0.3233 -0.2080  0.9683
  169SAPE   H3Y19049   6.262   4.356   3.490  0.6857 -1.6291  0.5978
  169SAPE   C3419050   6.379   4.477   3.620  0.4431 -0.0510  0.0240
  169SAPE   H4X19051   6.329   4.576   3.614 -1.1150 -0.8974 -1.7115
  169SAPE   H4Y19052   6.488   4.490   3.638  1.2448 -4.0203 -0.9708
  169SAPE   C3519053   6.316   4.392   3.732 -0.7061  0.1187  0.0804
  169SAPE   H5X19054   6.363   4.292   3.744 -0.6684  0.1962  0.5578
  169SAPE   H5Y19055   6.208   4.379   3.706 -1.0076  0.8888  0.9017
  169SAPE   C3619056   6.329   4.460   3.866  0.5220  0.8170 -0.5463
  169SAPE   H6X19057   6.243   4.421   3.925  0.0403  0.2121 -1.6283
  169SAPE   H6Y19058   6.324   4.570   3.850  5.1813  1.4069  0.5661
  169SAPE   C3719059   6.449   4.435   3.954  0.3985  0.0661 -1.4923
  169SAPE   H7X19060   6.447   4.511   4.035 -3.4020 -2.5610  1.2336
  169SAPE   H7Y19061   6.538   4.461   3.893  1.9398 -2.2719 -0.4216
  169SAPE   C3819062   6.460   4.293   4.017 -0.7182  0.3430 -0.3273
  169SAPE   H8X19063   6.562   4.294   4.063 -0.2494  1.6484 -1.3297
  169SAPE   H8Y19064   6.446   4.214   3.940  0.6303 -1.8551  1.5428
  169SAPE   C3919065   6.357   4.270   4.128 -0.2181 -0.1747 -0.0157
  169SAPE   H9X19066   6.258   4.293   4.084 -0.3925 -0.1910  0.3649
  169SAPE   H9Y19067   6.373   4.346   4.207  0.9695  0.3631 -0.7331
  169SAPE  C31019068   6.363   4.135   4.193 -0.2687  0.4604  0.1189
  169SAPE  H10X19069   6.466   4.119   4.233  0.8712  1.9581 -2.0630
  169SAPE  H10Y19070   6.349   4.051   4.121  0.9175  0.0348  0.3623
  169SAPE  C31119071   6.260   4.117   4.308  0.2233  0.4319 -0.0715
  169SAPE  H11X19072   6.236   4.009   4.321 -0.1639  0.5784  0.4849
  169SAPE  H11Y19073   6.166   4.164   4.273 -0.0412  0.0228  0.0835
  169SAPE  C31219074   6.297   4.187   4.436 -0.0728  0.4297 -0.7757
  169SAPE  H12X19075   6.300   4.295   4.408  0.0222  0.3741 -0.9826
  169SAPE  H12Y19076   6.402   4.158   4.458 -0.5253  0.7234  2.1572
  169SAPE  C31319077   6.194   4.160   4.547 -0.3320 -0.3926  0.7074
  169SAPE  H13X19078   6.216   4.057   4.583 -0.3606 -0.4870  0.4595
  169SAPE  H13Y19079   6.094   4.167   4.498  1.1660  2.2096 -2.4042
  169SAPE  C31419080   6.192   4.258   4.663 -0.1129  0.1592 -0.7335
  169SAPE  H14X19081   6.118   4.225   4.740  1.7215 -0.4714  0.8481
  169SAPE  H14Y19082   6.166   4.352   4.609  0.6818  1.4522  1.0303
  169SAPE  C31519083   6.324   4.300   4.724  0.3506  0.3563 -0.3496
  169SAPE  H15X19084   6.332   4.410   4.740  0.2798  0.2079  0.8213
  169SAPE  H15Y19085   6.407   4.282   4.652  0.7499 -4.1259  0.9116
  169SAPE  C31619086   6.357   4.222   4.852 -0.4013 -0.7157 -0.1548
  169SAPE  H16X19087   6.331   4.115   4.835 -2.3299  0.0875 -3.1198
  169SAPE  H16Y19088   6.297   4.271   4.931 -0.0333 -2.6253  1.3864
  169SAPE  C31719089   6.504   4.221   4.892 -0.4689 -0.7052 -0.1769
  169SAPE  H17X19090   6.503   4.158   4.984 -1.5198  1.4435  1.3880
  169SAPE  H17Y19091   6.531   4.327   4.916  0.5618 -1.0034  0.0522
  169SAPE  C31819092   6.589   4.163   4.782 -0.9515 -0.5662  1.0297
  169SAPE  H18X19093   6.689   4.132   4.820 -0.5065  0.1481  0.4583
  169SAPE  H18Y19094   6.618   4.234   4.702  1.8599 -1.7423  0.8823
  169SAPE  H18Z19095   6.548   4.072   4.734  0.1101 -1.3803  1.6103
  170SAPE     N19096   5.606   6.104   2.184 -0.4269  0.2225  0.0148
  170SAPE   HN119097   5.634   6.035   2.257  1.7455 -1.3413 -2.1526
  170SAPE   HN219098   5.504   6.100   2.167 -0.6275  2.0858  0.4925
  170SAPE   HN319099   5.655   6.083   2.095 -1.8533  0.3568 -0.8257
  170SAPE   C1219100   5.628   6.246   2.232  0.2824  0.2395 -0.2934
  170SAPE  H12A19101   5.608   6.248   2.342  2.1240 -1.3378  0.1252
  170SAPE  H12B19102   5.549   6.308   2.184  1.2294  0.9815 -0.9286
  170SAPE   C1119103   5.767   6.296   2.187 -0.5721 -0.1493 -0.4557
  170SAPE  H11A19104   5.783   6.260   2.083  2.5680 -1.5293  0.3764
  170SAPE  H11B19105   5.845   6.241   2.244 -1.7291 -0.4039  0.9277
  170SAPE     P19106   5.859   6.493   2.319  0.2799  0.0267  0.0526
  170SAPE   O1319107   6.004   6.453   2.297  0.3071  0.0130 -0.0599
  170SAPE   O1419108   5.837   6.640   2.340  0.0814  0.5423 -0.0347
  170SAPE   O1219109   5.774   6.437   2.191  0.3181 -0.1310 -0.0692
  170SAPE   O1119110   5.794   6.410   2.436  0.2253  0.4840 -0.0495
  170SAPE    C119111   5.666   6.440   2.486  0.4799  1.0293  0.0760
  170SAPE    HA19112   5.597   6.488   2.413 -2.3127  0.5188  2.2264
  170SAPE    HB19113   5.607   6.354   2.523 -0.0461  1.4679  0.2561
  170SAPE    C219114   5.674   6.535   2.614  0.2867 -0.0225 -0.2110
  170SAPE    HS19115   5.729   6.624   2.578  2.0124 -1.6399 -1.7842
  170SAPE   O2119116   5.743   6.456   2.710 -0.2561  0.5966 -0.5804
  170SAPE   C2119117   5.871   6.491   2.729 -0.6553  0.1362  0.3198
  170SAPE   O2219118   5.931   6.570   2.658  0.2813 -0.5736  0.5544
  170SAPE   C2219119   5.935   6.414   2.843 -0.5034  0.1491 -0.5428
  170SAPE   H2R19120   5.857   6.415   2.923  1.0050  2.7152  1.0220
  170SAPE   H2S19121   5.939   6.313   2.798 -0.5839  0.9516 -2.4266
  170SAPE    C319122   5.534   6.563   2.664  0.3793 -0.3611 -0.7213
  170SAPE    HX19123   5.461   6.479   2.659  0.9873 -1.0295  1.1005
  170SAPE    HY19124   5.495   6.650   2.607 -0.3019 -1.0184 -1.2957
  170SAPE   O3119125   5.537   6.600   2.807 -0.0720 -0.0091 -0.2500
  170SAPE   C3119126   5.562   6.730   2.831  0.3339 -0.0721  0.4035
  170SAPE   O3219127   5.614   6.812   2.754  0.2476  0.2335 -0.2610
  170SAPE   C3219128   5.502   6.761   2.970 -0.8795  0.5268  0.5337
  170SAPE   H2X19129   5.574   6.812   3.038 -1.5096  0.5841  1.1646
  170SAPE   H2Y19130   5.484   6.663   3.019  0.5362  0.9282  1.9711
  170SAPE   C2319131   6.075   6.458   2.889  0.5131 -0.0593  0.3494
  170SAPE   H3R19132   6.148   6.441   2.807  0.7217 -3.2708  1.0580
  170SAPE   H3S19133   6.105   6.388   2.970 -0.6112 -1.7287 -0.6164
  170SAPE   C2419134   6.066   6.599   2.956 -0.0827  0.0360 -0.0656
  170SAPE   H4R19135   5.988   6.594   3.034  0.0862  1.0553  0.1866
  170SAPE   H4S19136   6.035   6.676   2.881 -0.6326  0.1432  0.2697
  170SAPE   C2519137   6.201   6.646   3.006  0.1591  0.0080  0.4354
  170SAPE   H5R19138   6.258   6.677   2.917  0.0786  0.4959  0.5492
  170SAPE   C2619139   6.232   6.650   3.136  0.5579 -0.2434 -0.1904
  170SAPE   H6R19140   6.326   6.697   3.170 -0.0354  0.0963  1.0479
  170SAPE   C2719141   6.147   6.616   3.257  0.3111 -0.2521  0.1533
  170SAPE   H7R19142   6.037   6.624   3.240  0.3123  3.8474  0.8854
  170SAPE   H7S19143   6.174   6.690   3.336  0.4076 -0.8318  0.6722
  170SAPE   C2819144   6.189   6.480   3.309  0.0387 -0.3512  0.2508
  170SAPE   H8R19145   6.289   6.442   3.283  0.1879  1.5022 -2.2987
  170SAPE   C2919146   6.108   6.386   3.367 -0.0516 -0.2125 -0.5039
  170SAPE   H9R19147   6.163   6.291   3.379  0.5904  0.1311 -0.6948
  170SAPE  C21019148   5.962   6.392   3.401  0.2780 -0.2211  0.7760
  170SAPE  H10R19149   5.951   6.305   3.469 -0.4188 -1.4324 -0.8308
  170SAPE  H10S19150   5.893   6.373   3.317 -1.4989 -0.8185  2.3211
  170SAPE  C21119151   5.901   6.512   3.466  0.0824  0.1758 -0.7323
  170SAPE  H11R19152   5.866   6.593   3.401 -3.0196  0.3401  0.9758
  170SAPE  C21219153   5.912   6.552   3.598  0.1187  0.1305  0.6053
  170SAPE  H12R19154   5.859   6.647   3.616 -0.0964  0.3513 -1.0615
  170SAPE  C21319155   5.965   6.470   3.716  0.5790 -0.9601  0.2435
  170SAPE  H13R19156   6.067   6.511   3.728 -0.1557  1.6967 -1.6783
  170SAPE  H13S19157   5.971   6.363   3.686  1.1090 -1.1408  0.9838
  170SAPE  C21419158   5.878   6.480   3.838 -0.3908 -0.1589  0.5606
  170SAPE  H14R19159   5.770   6.460   3.825 -1.0317  2.0616  1.9406
  170SAPE  C21519160   5.921   6.483   3.962 -0.4634 -0.3335  0.3247
  170SAPE  H15R19161   5.848   6.482   4.044 -2.6374 -1.6705 -1.4984
  170SAPE  C21619162   6.064   6.493   4.014 -0.3287 -0.0838 -0.2034
  170SAPE  H16R19163   6.073   6.591   4.067 -1.4498  0.6710 -1.3545
  170SAPE  H16S19164   6.135   6.497   3.928 -0.7897  1.3614 -0.5470
  170SAPE  C21719165   6.089   6.378   4.122  0.1786 -0.2843  0.0219
  170SAPE  H17R19166   6.196   6.393   4.150 -0.0392  2.0151 -0.1630
  170SAPE  H17S19167   6.074   6.272   4.096 -0.9942 -0.6999  2.1429
  170SAPE  C21819168   6.009   6.402   4.254  0.7883 -0.3992  0.5063
  170SAPE  H18R19169   5.903   6.380   4.233  0.5541  1.8927 -1.0563
  170SAPE  H18S19170   6.032   6.505   4.289 -0.5455 -0.2049  0.8290
  170SAPE  C21919171   6.056   6.303   4.366  0.4318  0.0717  0.0346
  170SAPE  H19R19172   6.167   6.307   4.373  0.4612 -0.1756 -0.2498
  170SAPE  H19S19173   6.029   6.201   4.330 -0.6457 -0.5029  2.2722
  170SAPE  C22019174   6.014   6.343   4.506  0.0949  0.1493 -0.4188
  170SAPE  H20R19175   6.083   6.301   4.582  0.5701  2.8619  0.7759
  170SAPE  H20S19176   5.905   6.334   4.527  0.1709 -0.1972 -0.1630
  170SAPE  H20T19177   6.044   6.449   4.515  2.6182 -0.5242 -0.2137
  170SAPE   C3319178   5.373   6.850   2.958  0.1364  0.4748  0.1550
  170SAPE   H3X19179   5.302   6.795   2.892 -0.5971  0.9621  0.5218
  170SAPE   H3Y19180   5.398   6.947   2.910 -0.7309  0.9101  0.5625
  170SAPE   C3419181   5.313   6.867   3.092 -0.7866  0.3945  0.0580
  170SAPE   H4X19182   5.397   6.877   3.164 -0.2300  0.2181 -0.5601
  170SAPE   H4Y19183   5.252   6.778   3.118 -1.0372  0.4115 -0.4590
  170SAPE   C3519184   5.216   6.993   3.091 -0.1593 -0.0505 -0.7002
  170SAPE   H5X19185   5.139   6.991   3.010 -2.2238  1.3035  1.1039
  170SAPE   H5Y19186   5.282   7.081   3.078 -0.9305  0.7812  0.8064
  170SAPE   C3619187   5.166   7.024   3.231 -0.2499 -0.6361  0.8334
  170SAPE   H6X19188   5.087   6.951   3.260  0.0484 -0.7559  1.3510
  170SAPE   H6Y19189   5.110   7.121   3.233  1.0537  0.2315 -1.5278
  170SAPE   C3719190   5.273   7.033   3.342  0.1988 -0.0684  0.0705
  170SAPE   H7X19191   5.355   7.093   3.298  0.1974 -0.2603 -0.2010
  170SAPE   H7Y19192   5.330   6.939   3.363  0.8312  0.1337 -0.7069
  170SAPE   C3819193   5.225   7.098   3.469 -1.0983 -0.1972  0.7977
  170SAPE   H8X19194   5.149   7.030   3.513 -1.0167 -0.6616  0.2348
  170SAPE   H8Y19195   5.169   7.192   3.445 -2.2970 -0.3508  2.7533
  170SAPE   C3919196   5.335   7.102   3.576  0.4465 -0.5901 -0.1330
  170SAPE   H9X19197   5.395   7.196   3.567 -0.7654  0.1466 -0.7275
  170SAPE   H9Y19198   5.399   7.013   3.557 -0.1763 -1.4063  1.5193
  170SAPE  C31019199   5.269   7.096   3.716  0.5027 -0.6986 -0.4214
  170SAPE  H10X19200   5.207   7.004   3.723 -1.0743  0.2384 -1.3955
  170SAPE  H10Y19201   5.191   7.174   3.722  1.3142  0.1220 -0.3526
  170SAPE  C31119202   5.356   7.109   3.840 -0.0240 -0.1006 -1.3627
  170SAPE  H11X19203   5.437   7.184   3.825  1.1019 -0.2365  2.7020
  170SAPE  H11Y19204   5.406   7.010   3.852 -0.5494 -0.1964  0.3526
  170SAPE  C31219205   5.272   7.151   3.965  0.5364 -0.2206  0.1866
  170SAPE  H12X19206   5.230   7.249   3.937  0.9019  0.4755  1.9245
  170SAPE  H12Y19207   5.333   7.161   4.058 -0.3173  0.6485  0.6734
  170SAPE  C31319208   5.154   7.050   3.996 -0.2872 -0.3935 -0.3849
  170SAPE  H13X19209   5.183   6.952   3.953 -1.8379 -1.0649  0.0375
  170SAPE  H13Y19210   5.069   7.086   3.933  0.4182  0.1857 -1.0353
  170SAPE  C31419211   5.105   7.060   4.145  0.0358  0.1199 -0.1697
  170SAPE  H14X19212   4.994   7.052   4.152  0.1196 -0.2593  0.8646
  170SAPE  H14Y19213   5.137   7.163   4.170  2.4206 -0.0412 -2.1505
  170SAPE  C31519214   5.181   6.957   4.233 -0.0748  0.1933 -0.4471
  170SAPE  H15X19215   5.283   6.955   4.189  0.9625  2.7203  1.5726
  170SAPE  H15Y19216   5.135   6.856   4.231  1.2625 -0.4106 -1.1482
  170SAPE  C31619217   5.197   6.998   4.379 -0.3326 -1.1552 -0.2096
  170SAPE  H16X19218   5.095   7.020   4.418  0.6769  0.5186  1.6371
  170SAPE  H16Y19219   5.258   7.091   4.382 -0.7168 -0.8662 -0.8677
  170SAPE  C31719220   5.260   6.892   4.465 -0.5022 -0.1930 -0.4133
  170SAPE  H17X19221   5.348   6.847   4.413  0.0076  2.3920 -1.9960
  170SAPE  H17Y19222   5.181   6.815   4.478  0.8272 -1.9941 -2.2894
  170SAPE  C31819223   5.305   6.938   4.598 -0.2849 -0.4049  0.4553
  170SAPE  H18X19224   5.386   7.013   4.593  1.6194 -2.2945  1.3827
  170SAPE  H18Y19225   5.335   6.849   4.657 -0.1673 -0.6015  0.1004
  170SAPE  H18Z19226   5.219   6.980   4.655  1.1121  1.1647  1.5132
  171SAPE     N19227   6.102   6.510   2.026 -0.5713  0.1093 -0.0078
  171SAPE   HN119228   6.070   6.470   2.117 -1.8027 -0.7168 -0.7781
  171SAPE   HN219229   6.163   6.591   2.053  0.0095 -0.0840 -0.6941
  171SAPE   HN319230   6.018   6.544   1.976 -0.7533  0.0137  0.2308
  171SAPE   C1219231   6.174   6.402   1.951  0.1106 -0.3177 -0.8313
  171SAPE  H12A19232   6.210   6.447   1.856 -1.0138  1.9251 -0.2794
  171SAPE  H12B19233   6.106   6.315   1.942  1.0746 -1.1367 -0.4169
  171SAPE   C1119234   6.305   6.366   2.019  0.4008  0.1376 -0.1303
  171SAPE  H11A19235   6.366   6.457   2.039  1.4280  0.4112 -3.7961
  171SAPE  H11B19236   6.367   6.309   1.947 -1.4951 -0.6976 -1.1805
  171SAPE     P19237   6.410   6.251   2.227  0.0261  0.0635 -0.1929
  171SAPE   O1319238   6.353   6.155   2.323 -0.1420 -0.6129  0.5967
  171SAPE   O1419239   6.527   6.209   2.146 -0.4403  0.5590 -0.0864
  171SAPE   O1219240   6.289   6.291   2.140  0.2094  0.0602  0.1182
  171SAPE   O1119241   6.446   6.386   2.296  0.7291  0.5356 -0.0857
  171SAPE    C119242   6.354   6.454   2.382 -0.2271 -0.4856  0.6217
  171SAPE    HA19243   6.363   6.563   2.361  1.0312 -0.1309  2.6331
  171SAPE    HB19244   6.248   6.423   2.373 -0.2175 -0.1580 -0.8495
  171SAPE    C219245   6.400   6.448   2.529 -0.4904  0.1704 -0.1039
  171SAPE    HS19246   6.333   6.511   2.591 -0.5236  0.9659 -0.9340
  171SAPE   O2119247   6.537   6.495   2.532  0.0001  0.1376  0.3289
  171SAPE   C2119248   6.545   6.629   2.539  0.5691  0.1580  0.1476
  171SAPE   O2219249   6.452   6.704   2.524  1.1876 -0.2283 -0.3257
  171SAPE   C2219250   6.686   6.667   2.567  0.2978  0.3586  0.1063
  171SAPE   H2R19251   6.752   6.609   2.499 -1.5860  0.4406 -1.9225
  171SAPE   H2S19252   6.697   6.772   2.534  0.5519  0.6469  1.0977
  171SAPE    C319253   6.403   6.306   2.580  0.2840  0.3372  0.7683
  171SAPE    HX19254   6.496   6.265   2.536 -0.6555 -1.8029  0.6196
  171SAPE    HY19255   6.313   6.249   2.546 -0.9902  1.2055  2.5307
  171SAPE   O3119256   6.412   6.305   2.723  0.0680  0.3149  0.3536
  171SAPE   C3119257   6.528   6.282   2.788  0.5611 -0.0356  0.0662
  171SAPE   O3219258   6.636   6.255   2.745 -0.3429  0.0920 -0.0907
  171SAPE   C3219259   6.499   6.301   2.940  0.0187  0.1092  0.4328
  171SAPE   H2X19260   6.411   6.237   2.965 -0.2094  0.1732 -0.1864
  171SAPE   H2Y19261   6.474   6.409   2.952  0.8659  0.2951  0.5573
  171SAPE   C2319262   6.725   6.653   2.716 -0.2322  0.3183 -0.4043
  171SAPE   H3R19263   6.836   6.657   2.716 -0.1235 -1.5775 -1.7489
  171SAPE   H3S19264   6.702   6.551   2.755  3.9558 -1.1247 -1.1992
  171SAPE   C2419265   6.666   6.756   2.821  0.5452 -0.5484  0.3977
  171SAPE   H4R19266   6.672   6.723   2.927 -2.7131 -0.3898  0.7333
  171SAPE   H4S19267   6.558   6.744   2.799  1.3101 -4.4850 -2.0402
  171SAPE   C2519268   6.731   6.894   2.821  0.5713  0.8993 -0.3468
  171SAPE   H5R19269   6.764   6.920   2.719  1.7660 -1.4940 -0.6416
  171SAPE   C2619270   6.745   6.975   2.928 -0.0551 -0.1739 -0.7799
  171SAPE   H6R19271   6.793   7.074   2.926 -3.2233  1.6267  2.1951
  171SAPE   C2719272   6.693   6.943   3.070 -0.0754  0.2657 -0.5578
  171SAPE   H7R19273   6.745   7.015   3.136 -0.5869  0.2197 -0.0981
  171SAPE   H7S19274   6.711   6.840   3.106 -3.0096  0.2728  1.2654
  171SAPE   C2819275   6.543   6.975   3.087  0.2606  0.2575 -0.1504
  171SAPE   H8R19276   6.493   7.009   2.995 -0.9039  0.9283  0.7141
  171SAPE   C2919277   6.467   6.947   3.199 -0.0029 -0.2791  0.3828
  171SAPE   H9R19278   6.357   6.955   3.194 -0.1611 -1.2836  1.8227
  171SAPE  C21019279   6.506   6.889   3.331 -0.1891 -0.1380 -0.0262
  171SAPE  H10R19280   6.432   6.924   3.407 -0.9729  1.2140 -1.3637
  171SAPE  H10S19281   6.605   6.928   3.362 -0.5427 -0.3127  1.4104
  171SAPE  C21119282   6.526   6.739   3.322  0.2870  0.2865 -1.2852
  171SAPE  H11R19283   6.579   6.701   3.233  0.1835  1.8426 -2.0439
  171SAPE  C21219284   6.500   6.658   3.426 -0.2468  0.1291 -0.1807
  171SAPE  H12R19285   6.523   6.553   3.403  0.3937  0.1960  0.1302
  171SAPE  C21319286   6.441   6.686   3.563 -0.4395  0.0303 -0.0186
  171SAPE  H13R19287   6.353   6.754   3.550 -0.5501 -0.4857 -2.6891
  171SAPE  H13S19288   6.513   6.742   3.626 -0.7964  3.1210 -2.1487
  171SAPE  C21419289   6.369   6.570   3.618  0.0602 -0.0861  0.4066
  171SAPE  H14R19290   6.304   6.519   3.545  4.0181 -2.2409 -1.9718
  171SAPE  C21519291   6.377   6.526   3.743 -0.1206  0.4759  0.3252
  171SAPE  H15R19292   6.313   6.440   3.768 -0.1593  0.4353  0.0861
  171SAPE  C21619293   6.463   6.581   3.859 -0.0985 -1.0300 -0.4032
  171SAPE  H16R19294   6.530   6.666   3.835 -0.4608 -0.4684  0.5166
  171SAPE  H16S19295   6.530   6.499   3.892  0.7958 -0.2697 -0.2752
  171SAPE  C21719296   6.363   6.622   3.972 -0.1524 -0.2778  0.3449
  171SAPE  H17R19297   6.327   6.530   4.022 -0.5955  0.0351  0.6104
  171SAPE  H17S19298   6.279   6.672   3.919 -1.2343 -1.8037  0.5576
  171SAPE  C21819299   6.421   6.719   4.077 -0.0387 -0.1736  0.2880
  171SAPE  H18R19300   6.396   6.823   4.046 -1.1812 -0.8139 -0.9953
  171SAPE  H18S19301   6.529   6.707   4.101 -0.1214  0.6153  1.0930
  171SAPE  C21919302   6.358   6.716   4.222  0.1526 -0.6470  0.6058
  171SAPE  H19R19303   6.422   6.773   4.293 -2.6438  2.8517  0.6526
  171SAPE  H19S19304   6.350   6.610   4.253 -0.0549 -0.3968  1.4352
  171SAPE  C22019305   6.222   6.791   4.207 -0.4568 -0.9147  1.0335
  171SAPE  H20R19306   6.162   6.746   4.125 -0.5605  0.3138  0.4157
  171SAPE  H20S19307   6.241   6.897   4.180  1.5659 -1.4708  0.0254
  171SAPE  H20T19308   6.161   6.789   4.299 -0.3885  1.3056  1.1686
  171SAPE   C3319309   6.619   6.273   3.031 -0.0419 -0.1773  0.5365
  171SAPE   H3X19310   6.699   6.340   2.992 -2.0908  0.1850 -3.5593
  171SAPE   H3Y19311   6.647   6.168   3.009  0.8154 -0.0273  0.8687
  171SAPE   C3419312   6.588   6.296   3.176 -0.6551  0.0908  0.1597
  171SAPE   H4X19313   6.506   6.221   3.177  1.3369 -2.2767 -0.5563
  171SAPE   H4Y19314   6.555   6.397   3.207  0.0614 -0.1798  1.9697
  171SAPE   C3519315   6.696   6.247   3.276  0.1967 -0.4462  0.1367
  171SAPE   H5X19316   6.779   6.318   3.257 -0.2752  0.0979  0.1054
  171SAPE   H5Y19317   6.724   6.139   3.273 -0.7598 -0.7169  0.4880
  171SAPE   C3619318   6.660   6.275   3.421  0.6702 -0.0253 -0.4571
  171SAPE   H6X19319   6.576   6.204   3.440 -0.5647 -0.0430 -4.8069
  171SAPE   H6Y19320   6.611   6.374   3.419 -2.2717 -1.3492 -0.4810
  171SAPE   C3719321   6.776   6.285   3.519  0.1100 -0.1185  0.2233
  171SAPE   H7X19322   6.847   6.363   3.485 -0.1856 -0.4115 -1.1287
  171SAPE   H7Y19323   6.833   6.190   3.516 -1.8303 -1.3197 -0.7152
  171SAPE   C3819324   6.730   6.321   3.659  0.4188  0.6426 -0.4179
  171SAPE   H8X19325   6.647   6.248   3.675  0.3058  0.8475 -0.0503
  171SAPE   H8Y19326   6.698   6.427   3.663  0.1743  0.5663 -0.3062
  171SAPE   C3919327   6.835   6.293   3.764  0.1189  0.3455 -0.5320
  171SAPE   H9X19328   6.908   6.376   3.759 -1.4822  1.9486  1.0163
  171SAPE   H9Y19329   6.884   6.195   3.742 -2.8167 -1.2183 -0.6647
  171SAPE  C31019330   6.791   6.306   3.910  0.3785  0.0430 -0.0404
  171SAPE  H10X19331   6.721   6.225   3.939  2.3455 -0.6798  3.1601
  171SAPE  H10Y19332   6.734   6.401   3.921 -1.7017 -1.1468 -0.2091
  171SAPE  C31119333   6.906   6.293   4.014 -0.6725 -0.0712 -0.1230
  171SAPE  H11X19334   6.971   6.381   3.992 -1.8754  0.8764  0.0259
  171SAPE  H11Y19335   6.967   6.208   3.977  1.4343  2.2413 -2.3668
  171SAPE  C31219336   6.878   6.282   4.157  0.2559 -0.0055  0.6083
  171SAPE  H12X19337   6.964   6.252   4.221 -0.1273  0.2042  1.2267
  171SAPE  H12Y19338   6.792   6.217   4.183  1.4143 -1.5352  0.7090
  171SAPE  C31319339   6.853   6.424   4.214 -0.0279  0.1561  0.0982
  171SAPE  H13X19340   6.779   6.462   4.141 -1.8532 -0.9045  1.3064
  171SAPE  H13Y19341   6.946   6.484   4.210 -0.5269  0.9701  0.4507
  171SAPE  C31419342   6.777   6.423   4.351 -0.5721 -0.8947 -0.3062
  171SAPE  H14X19343   6.840   6.464   4.433  0.1843  1.0457 -1.7818
  171SAPE  H14Y19344   6.753   6.319   4.384 -1.7377 -0.2348  1.0415
  171SAPE  C31519345   6.637   6.496   4.344 -0.2086  0.0381 -0.3244
  171SAPE  H15X19346   6.587   6.470   4.248 -0.4379 -1.7284  0.2367
  171SAPE  H15Y19347   6.660   6.605   4.339  1.5721 -0.2861  0.3209
  171SAPE  C31619348   6.540   6.463   4.459 -0.3919 -0.2832  0.5302
  171SAPE  H16X19349   6.549   6.354   4.478 -1.2478 -0.9631 -2.5194
  171SAPE  H16Y19350   6.431   6.484   4.445 -1.0723 -1.7752  2.9845
  171SAPE  C31719351   6.570   6.549   4.579 -0.1315 -0.2670  0.2062
  171SAPE  H17X19352   6.600   6.647   4.538  3.9621 -2.9201 -4.1974
  171SAPE  H17Y19353   6.663   6.496   4.612 -0.5023 -1.0394  0.0434
  171SAPE  C31819354   6.450   6.552   4.680  0.1545  0.1658  0.6231
  171SAPE  H18X19355   6.440   6.446   4.713  1.6903 -0.6831 -1.4086
  171SAPE  H18Y19356   6.355   6.583   4.631  1.1946  0.2631 -1.4311
  171SAPE  H18Z19357   6.474   6.624   4.761 -3.8848  0.5230  1.7296
  172SAPE     N19358   6.057   0.434   2.385 -0.1799  0.0574 -0.4843
  172SAPE   HN119359   6.084   0.388   2.474  1.9324  0.0705 -1.0731
  172SAPE   HN219360   5.955   0.453   2.382  0.2283  2.4324 -0.8512
  172SAPE   HN319361   6.083   0.375   2.303 -1.4655  0.4274 -1.1847
  172SAPE   C1219362   6.133   0.568   2.386  0.7052 -0.0467 -0.3165
  172SAPE  H12A19363   6.056   0.638   2.424 -0.8144 -2.1631  0.6803
  172SAPE  H12B19364   6.159   0.583   2.278  1.6211  1.0674  0.0400
  172SAPE   C1119365   6.256   0.577   2.476  0.1934  0.5506 -0.1188
  172SAPE  H11A19366   6.328   0.497   2.450  0.4095  0.5023  0.6112
  172SAPE  H11B19367   6.240   0.549   2.583  2.4347 -1.0366 -0.1232
  172SAPE     P19368   6.466   0.738   2.447 -0.0604  0.2004  0.2536
  172SAPE   O1319369   6.535   0.623   2.395  0.5867  0.2783 -0.6058
  172SAPE   O1419370   6.475   0.870   2.376 -0.3667  0.3449  0.4497
  172SAPE   O1219371   6.307   0.708   2.463 -0.2313 -0.9504  0.0681
  172SAPE   O1119372   6.501   0.764   2.598 -0.5998  0.3737  0.0817
  172SAPE    C119373   6.522   0.652   2.677 -0.1756  0.2165 -0.5944
  172SAPE    HA19374   6.422   0.609   2.703 -0.3803  0.9083 -0.2315
  172SAPE    HB19375   6.586   0.571   2.635  0.4496  0.0463  0.6425
  172SAPE    C219376   6.613   0.691   2.802  0.4865 -0.1540  0.0504
  172SAPE    HS19377   6.548   0.759   2.862 -0.5049 -0.3678 -0.7422
  172SAPE   O2119378   6.732   0.753   2.748  0.8580 -0.6045 -0.3129
  172SAPE   C2119379   6.738   0.886   2.769 -0.1465  0.0428  0.3663
  172SAPE   O2219380   6.662   0.960   2.825 -0.6675 -0.1424 -0.0159
  172SAPE   C2219381   6.868   0.929   2.697 -0.4256  0.0008 -0.2651
  172SAPE   H2R19382   6.950   0.865   2.737  0.3953  1.1009 -0.1335
  172SAPE   H2S19383   6.855   0.919   2.588  1.3411  2.7455 -0.8421
  172SAPE    C319384   6.660   0.574   2.892  0.0291  0.0020 -0.1493
  172SAPE    HX19385   6.735   0.604   2.968 -2.2430  1.0040  1.8341
  172SAPE    HY19386   6.714   0.496   2.833 -1.6529 -0.5826 -0.9825
  172SAPE   O3119387   6.558   0.499   2.951 -0.1163 -0.4979  0.2146
  172SAPE   C3119388   6.516   0.556   3.064  0.5611 -0.2766 -0.1454
  172SAPE   O3219389   6.554   0.657   3.117 -0.4190 -0.4538  0.5688
  172SAPE   C3219390   6.406   0.469   3.124  0.3174 -0.1949 -0.2707
  172SAPE   H2X19391   6.429   0.362   3.109  1.8149  0.1249 -0.3721
  172SAPE   H2Y19392   6.308   0.503   3.083  0.0317  1.7411  1.8112
  172SAPE   C2319393   6.906   1.081   2.724  0.5301  0.1794  0.3645
  172SAPE   H3R19394   6.831   1.157   2.692  0.4855  0.3291  0.8240
  172SAPE   H3S19395   7.000   1.093   2.667  1.0629 -1.7603  0.7570
  172SAPE   C2419396   6.935   1.117   2.872  0.4445 -0.1068 -0.0946
  172SAPE   H4R19397   6.857   1.099   2.949 -0.7198 -0.3034 -1.2711
  172SAPE   H4S19398   6.953   1.227   2.866  0.6215 -0.1281  0.0631
  172SAPE   C2519399   7.066   1.059   2.922  0.1869 -0.7375  0.3170
  172SAPE   H5R19400   7.133   1.046   2.836  1.4603 -0.6127  1.2752
  172SAPE   C2619401   7.094   1.027   3.052  0.0827  0.5813  0.3429
  172SAPE   H6R19402   7.199   1.001   3.067  0.7633  1.6990 -1.9985
  172SAPE   C2719403   6.998   1.026   3.170 -0.4481 -0.6402  0.4938
  172SAPE   H7R19404   6.944   1.122   3.180  1.2261  0.1967  2.3313
  172SAPE   H7S19405   7.063   1.026   3.260 -2.2608  2.8001  1.9931
  172SAPE   C2819406   6.900   0.912   3.177  0.4098 -0.3810 -0.0535
  172SAPE   H8R19407   6.907   0.843   3.092 -0.3981  1.6439 -1.8784
  172SAPE   C2919408   6.832   0.866   3.286 -0.2603 -0.2221 -0.8480
  172SAPE   H9R19409   6.767   0.779   3.267 -0.7346 -0.4537  1.5266
  172SAPE  C21019410   6.805   0.923   3.427 -0.5397 -0.2695 -0.2687
  172SAPE  H10R19411   6.874   1.006   3.453  0.5317 -0.7707 -1.4277
  172SAPE  H10S19412   6.829   0.842   3.500  1.1942  0.9705  0.6308
  172SAPE  C21119413   6.666   0.961   3.441  0.0294 -0.1254  0.7973
  172SAPE  H11R19414   6.617   1.013   3.358  0.7181 -0.0846  0.4021
  172SAPE  C21219415   6.600   0.955   3.558  0.5472 -0.0459 -0.3006
  172SAPE  H12R19416   6.493   0.981   3.561 -0.3960 -3.3849  2.3611
  172SAPE  C21319417   6.639   0.908   3.700 -0.0578 -0.5277 -0.3603
  172SAPE  H13R19418   6.609   0.975   3.784  3.2190 -0.9028  1.2717
  172SAPE  H13S19419   6.749   0.906   3.715 -0.1292  0.2540  0.3590
  172SAPE  C21419420   6.598   0.763   3.725 -0.1473  0.0287  0.0269
  172SAPE  H14R19421   6.548   0.704   3.647  2.5473 -1.4448 -0.7087
  172SAPE  C21519422   6.595   0.697   3.842 -0.0004 -0.0249 -0.8638
  172SAPE  H15R19423   6.567   0.591   3.835  1.9294 -0.5205 -2.0598
  172SAPE  C21619424   6.644   0.748   3.976 -0.2154  0.1565 -0.4366
  172SAPE  H16R19425   6.584   0.701   4.057  1.5362 -0.6984  0.4411
  172SAPE  H16S19426   6.644   0.859   3.985 -0.6059  0.2223 -1.1707
  172SAPE  C21719427   6.794   0.706   4.002  0.9112  0.2761  0.5001
  172SAPE  H17R19428   6.837   0.739   4.099  0.3037  1.4767  0.3703
  172SAPE  H17S19429   6.859   0.761   3.931  1.4835 -2.5682 -1.3691
  172SAPE  C21819430   6.820   0.556   3.993  0.8219  0.2316 -0.4194
  172SAPE  H18R19431   6.782   0.515   3.897 -0.7039  1.3340 -0.3395
  172SAPE  H18S19432   6.760   0.498   4.068  0.3812 -0.3632 -1.2164
  172SAPE  C21919433   6.962   0.517   3.999 -0.0310  0.4957  0.0541
  172SAPE  H19R19434   6.985   0.475   4.099  2.2884  0.3172 -0.4815
  172SAPE  H19S19435   7.023   0.610   3.996  0.2092  0.3560  0.5592
  172SAPE  C22019436   7.014   0.424   3.879 -0.5744 -0.3952  0.0229
  172SAPE  H20R19437   6.963   0.325   3.880  1.6306 -1.6260  2.3864
  172SAPE  H20S19438   7.121   0.398   3.892 -0.9440 -2.2245 -0.2544
  172SAPE  H20T19439   6.999   0.481   3.785 -1.4603  1.7083  1.3624
  172SAPE   C3319440   6.404   0.501   3.277 -0.4915 -0.5876  0.3537
  172SAPE   H3X19441   6.302   0.474   3.311 -0.7575 -1.0097 -0.7266
  172SAPE   H3Y19442   6.417   0.609   3.300 -0.9478 -0.6577  0.9608
  172SAPE   C3419443   6.502   0.415   3.352 -0.2596  0.0786  0.0114
  172SAPE   H4X19444   6.607   0.440   3.325  1.4369 -0.2155  5.1700
  172SAPE   H4Y19445   6.483   0.310   3.319 -1.0327  0.0394  0.5660
  172SAPE   C3519446   6.484   0.434   3.504  0.1035  1.1845 -0.1883
  172SAPE   H5X19447   6.450   0.537   3.527 -2.6158 -0.0056  1.4673
  172SAPE   H5Y19448   6.576   0.405   3.559 -0.9229 -1.7067  0.1518
  172SAPE   C3619449   6.371   0.338   3.563  0.2635 -0.1228 -0.1347
  172SAPE   H6X19450   6.406   0.236   3.536  0.8382  0.3725 -1.3291
  172SAPE   H6Y19451   6.274   0.360   3.513  0.2272 -0.8430 -0.3993
  172SAPE   C3719452   6.364   0.342   3.716 -0.2885 -0.3703  0.4192
  172SAPE   H7X19453   6.337   0.448   3.737 -0.5932  0.4729 -3.4239
  172SAPE   H7Y19454   6.467   0.342   3.758 -0.4077  0.1763  0.7310
  172SAPE   C3819455   6.283   0.230   3.774  0.4417 -0.5711 -0.5153
  172SAPE   H8X19456   6.304   0.131   3.727 -0.7894 -0.8708 -0.4636
  172SAPE   H8Y19457   6.183   0.271   3.749  1.0649  1.0110 -0.5090
  172SAPE   C3919458   6.293   0.216   3.932  0.5443  0.0677  0.3182
  172SAPE   H9X19459   6.387   0.166   3.961  1.3334  0.7536 -0.9674
  172SAPE   H9Y19460   6.220   0.138   3.963 -0.0750  0.9081  1.0451
  172SAPE  C31019461   6.274   0.353   4.009 -0.0436  0.2478  0.6224
  172SAPE  H10X19462   6.171   0.395   4.004 -0.5824 -0.7132  2.5058
  172SAPE  H10Y19463   6.353   0.426   3.983 -0.4198 -0.0493 -1.5760
  172SAPE  C31119464   6.300   0.334   4.166  0.3355  0.3870  0.5116
  172SAPE  H11X19465   6.405   0.312   4.196  0.6696  0.8599 -0.2978
  172SAPE  H11Y19466   6.249   0.239   4.193 -0.7271  0.8754  0.2662
  172SAPE  C31219467   6.256   0.459   4.244 -0.3159  0.4361 -0.8611
  172SAPE  H12X19468   6.160   0.490   4.200 -0.7007  0.9799  0.3189
  172SAPE  H12Y19469   6.340   0.528   4.222  0.1998 -0.6936 -2.6266
  172SAPE  C31319470   6.228   0.447   4.400 -0.3623  0.4359  0.8644
  172SAPE  H13X19471   6.328   0.425   4.444 -0.3054  0.4980  0.7647
  172SAPE  H13Y19472   6.154   0.364   4.409 -3.4694  2.2824 -3.9027
  172SAPE  C31419473   6.157   0.568   4.456 -0.3354 -0.8425  0.0466
  172SAPE  H14X19474   6.204   0.661   4.416 -0.4767 -0.2301  1.2551
  172SAPE  H14Y19475   6.182   0.569   4.564  2.2910  0.2198 -0.4742
  172SAPE  C31519476   6.007   0.579   4.416 -0.4929 -0.4953 -0.0131
  172SAPE  H15X19477   5.963   0.479   4.399  0.4817 -0.6668 -1.7574
  172SAPE  H15Y19478   6.004   0.630   4.318  0.7992  0.5151  0.4449
  172SAPE  C31619479   5.933   0.663   4.520  0.0160  0.5770 -0.0973
  172SAPE  H16X19480   5.976   0.765   4.515  1.1078  0.1249 -0.5139
  172SAPE  H16Y19481   5.939   0.624   4.623 -1.8206  1.1723  0.2550
  172SAPE  C31719482   5.778   0.672   4.503 -0.1950 -0.2576  0.2525
  172SAPE  H17X19483   5.734   0.569   4.506 -4.1814  1.2774  0.5497
  172SAPE  H17Y19484   5.774   0.695   4.394  1.4152 -1.7232 -0.1770
  172SAPE  C31819485   5.705   0.762   4.605  0.8089 -0.0931 -0.0209
  172SAPE  H18X19486   5.729   0.740   4.711  1.4309  3.0729  0.5975
  172SAPE  H18Y19487   5.596   0.754   4.586  0.9631 -1.9014 -0.3266
  172SAPE  H18Z19488   5.727   0.870   4.595  0.7886  0.0706  1.4372
  173SLPC     N19489   0.365   1.799   7.199  0.5181  0.0613  0.6672
  173SLPC   C1319490   0.380   1.853   7.059  0.0745 -0.4684 -0.6271
  173SLPC  H13A19491   0.286   1.833   7.009  0.4509 -3.4693 -0.3153
  173SLPC  H13B19492   0.390   1.960   7.057 -1.0853 -0.3538 -1.2823
  173SLPC  H13C19493   0.453   1.798   7.002  0.2467 -0.4623 -0.4122
  173SLPC   C1419494   0.497   1.803   7.269 -0.4888 -0.0704  0.1824
  173SLPC  H14A19495   0.547   1.898   7.255  2.5975 -1.1827  2.5157
  173SLPC  H14B19496   0.483   1.797   7.376  0.9957  1.7733  0.5425
  173SLPC  H14C19497   0.573   1.739   7.228 -0.1261 -0.1980  1.0302
  173SLPC   C1519498   0.316   1.658   7.181 -0.0539 -0.3492  0.2788
  173SLPC  H15A19499   0.226   1.645   7.123 -0.4739  2.3560  0.1832
  173SLPC  H15B19500   0.392   1.591   7.145 -0.5366 -0.7119 -0.0705
  173SLPC  H15C19501   0.284   1.613   7.274  1.5767  1.6122  1.8921
  173SLPC   C1219502   0.263   1.881   7.276  0.7541  0.0082 -0.2726
  173SLPC  H12A19503   0.310   1.968   7.319  1.4041 -0.5106  0.0959
  173SLPC  H12B19504   0.223   1.820   7.356  0.6271 -0.3460 -0.6037
  173SLPC   C1119505   0.141   1.923   7.191 -0.7842 -0.2999 -0.6523
  173SLPC  H11A19506   0.165   1.998   7.113  1.0945  0.1595  0.3032
  173SLPC  H11B19507   0.071   1.976   7.259 -3.2224  0.0250 -3.2259
  173SLPC     P19508  -0.003   1.827   7.002  0.0527 -0.2109  0.0270
  173SLPC   O1319509  -0.063   1.695   6.980 -0.0903  0.0048 -0.7216
  173SLPC   O1419510  -0.090   1.945   7.025  0.4412  0.2785  0.1183
  173SLPC   O1219511   0.074   1.812   7.133 -0.0632  0.1633  0.0914
  173SLPC   O1119512   0.108   1.867   6.899 -0.7896  0.2135 -0.4058
  173SLPC    C119513   0.100   1.997   6.837 -0.5548 -0.4792 -0.1114
  173SLPC    HA19514  -0.003   2.008   6.799 -0.4073 -2.2146 -1.1276
  173SLPC    HB19515   0.121   2.074   6.914 -2.2484  2.3036 -2.2579
  173SLPC    C219516   0.205   2.011   6.724 -0.5421 -0.1935 -0.6969
  173SLPC    HS19517   0.309   2.003   6.762 -0.3472 -0.1972 -1.2220
  173SLPC   O2119518   0.181   2.139   6.674 -0.0744  0.0189 -0.2869
  173SLPC   C2119519   0.239   2.243   6.745  0.0737 -0.4567 -0.3085
  173SLPC   O2219520   0.315   2.235   6.841  0.8965  0.2619 -0.2757
  173SLPC   C2219521   0.190   2.375   6.684 -0.5492 -0.4607  0.4916
  173SLPC   H2R19522   0.081   2.371   6.663 -0.3303 -1.1075 -0.6016
  173SLPC   H2S19523   0.194   2.453   6.763 -0.2940  0.3034 -0.2579
  173SLPC    C319524   0.189   1.903   6.616  0.3886 -0.0711 -0.3627
  173SLPC    HX19525   0.087   1.898   6.574  0.4396 -0.4595 -0.4445
  173SLPC    HY19526   0.198   1.802   6.662 -1.8904  0.3057  1.0426
  173SLPC   O3119527   0.291   1.931   6.515 -0.1705 -0.0787  0.4551
  173SLPC   C3119528   0.362   1.834   6.472 -0.3421  0.1999 -0.1124
  173SLPC   O3219529   0.347   1.715   6.498 -0.1924  0.1573  0.1734
  173SLPC   C3219530   0.481   1.894   6.395 -0.1758 -0.3785  0.0805
  173SLPC   H2X19531   0.553   1.812   6.373  0.2256  0.9128 -4.4603
  173SLPC   H2Y19532   0.520   1.975   6.461 -0.5868  2.5494 -3.0170
  173SLPC   C2319533   0.275   2.421   6.556  0.2360 -0.0918 -0.3407
  173SLPC   H3R19534   0.383   2.434   6.582 -0.1067  1.2652  0.4807
  173SLPC   H3S19535   0.238   2.521   6.526  0.6173 -0.7014 -3.1901
  173SLPC   C2419536   0.251   2.333   6.437 -0.0573  0.4677 -0.4102
  173SLPC   H4R19537   0.141   2.342   6.419 -0.3566  0.5295  1.2853
  173SLPC   H4S19538   0.265   2.223   6.448 -1.1249  0.4928  1.7886
  173SLPC   C2519539   0.321   2.389   6.313 -0.2525  0.0420  0.2722
  173SLPC   H5R19540   0.430   2.369   6.315  0.1820  2.2905  1.6092
  173SLPC   H5S19541   0.302   2.498   6.311 -2.7172 -0.3135  0.4992
  173SLPC   C2619542   0.266   2.320   6.180  1.5706 -0.4037 -0.3772
  173SLPC   H6R19543   0.196   2.397   6.140 -0.2507 -2.3541 -1.1329
  173SLPC   H6S19544   0.204   2.229   6.196 -0.9684  1.3601  0.4892
  173SLPC   C2719545   0.374   2.302   6.079 -0.6459  0.8957  0.4588
  173SLPC   H7R19546   0.459   2.243   6.120  1.2234  1.7841 -1.9100
  173SLPC   H7S19547   0.418   2.401   6.054 -1.1898  1.2900  1.0363
  173SLPC   C2819548   0.320   2.226   5.955  0.7923 -0.0695 -1.4451
  173SLPC   H8R19549   0.233   2.282   5.915 -1.1665 -1.8060  0.1648
  173SLPC   H8S19550   0.277   2.126   5.975  3.1896 -0.8135  0.3884
  173SLPC   C2919551   0.421   2.195   5.854  0.6016  0.1125 -0.0223
  173SLPC   H9R19552   0.499   2.126   5.892  1.8826  1.3582 -0.2811
  173SLPC  C21019553   0.427   2.232   5.726 -0.2477 -0.7968 -0.4948
  173SLPC  H10R19554   0.519   2.204   5.673  0.7141 -0.0989  0.7419
  173SLPC  C21119555   0.337   2.325   5.653 -0.6086  0.7273 -0.3505
  173SLPC  H11R19556   0.251   2.353   5.719 -0.4754 -2.1041  1.1517
  173SLPC  H11S19557   0.297   2.263   5.569  2.7251 -3.8121  1.0277
  173SLPC  C21219558   0.398   2.451   5.598 -0.1648  0.6324  0.7834
  173SLPC  H12R19559   0.337   2.540   5.621  0.0220  1.4313 -1.5659
  173SLPC  C21319560   0.490   2.462   5.500 -0.0441  0.4704  0.3705
  173SLPC  H13R19561   0.524   2.558   5.460 -1.0622  0.4492 -0.6031
  173SLPC  C21419562   0.554   2.352   5.420  0.1815 -0.0791 -0.3537
  173SLPC  H14R19563   0.535   2.251   5.461  0.2092 -0.3362 -0.9719
  173SLPC  H14S19564   0.665   2.349   5.413  0.5021  2.8227  1.8133
  173SLPC  C21519565   0.488   2.344   5.283  0.3755  0.2839 -0.2764
  173SLPC  H15R19566   0.380   2.371   5.279  0.6200  1.3279 -0.0101
  173SLPC  H15S19567   0.502   2.246   5.232  1.4417 -0.0865  0.7064
  173SLPC  C21619568   0.549   2.455   5.185  0.1054  0.3219  0.2668
  173SLPC  H16R19569   0.654   2.421   5.192  0.6709  1.6382 -1.2037
  173SLPC  H16S19570   0.545   2.561   5.220 -0.3346  0.1701  0.6925
  173SLPC  C21719571   0.507   2.445   5.045 -0.6241  0.1766  0.6470
  173SLPC  H17R19572   0.397   2.459   5.040 -0.6848  0.2208  1.7868
  173SLPC  H17S19573   0.534   2.345   5.004  0.7935  0.9068 -0.3094
  173SLPC  C21819574   0.590   2.543   4.953  0.5485  0.7758 -1.0422
  173SLPC  H18R19575   0.550   2.560   4.851  1.3793  2.5064 -1.1073
  173SLPC  H18S19576   0.691   2.498   4.940  1.0493  1.6062 -0.1655
  173SLPC  H18T19577   0.590   2.648   4.988  0.0389  0.5275 -0.2641
  173SLPC   C3319578   0.439   1.962   6.259 -0.1842  0.3060 -0.0912
  173SLPC   H3X19579   0.524   2.020   6.217  0.7377  0.4943  1.9336
  173SLPC   H3Y19580   0.374   2.050   6.275  1.0725  1.2126  0.2105
  173SLPC   C3419581   0.384   1.864   6.152  0.0828  0.1735  0.6645
  173SLPC   H4X19582   0.353   1.925   6.065 -0.0111 -0.2486  0.4013
  173SLPC   H4Y19583   0.294   1.804   6.176 -0.5884  1.0664  0.4406
  173SLPC   C3519584   0.495   1.772   6.100 -0.2693 -0.4921 -0.3471
  173SLPC   H5X19585   0.492   1.677   6.158 -0.5171 -0.5238 -0.4119
  173SLPC   H5Y19586   0.601   1.794   6.126 -0.3743 -0.6639  0.2451
  173SLPC   C3619587   0.497   1.752   5.948  0.3761  0.0369 -0.0347
  173SLPC   H6X19588   0.587   1.691   5.924  1.4195  1.3782  0.3371
  173SLPC   H6Y19589   0.517   1.849   5.898 -0.0303 -0.0234 -0.3181
  173SLPC   C3719590   0.376   1.697   5.882  0.3330 -0.4334  0.3837
  173SLPC   H7X19591   0.288   1.750   5.925 -0.7219 -1.0272 -0.9571
  173SLPC   H7Y19592   0.359   1.591   5.909 -2.3956 -0.3947 -0.8411
  173SLPC   C3819593   0.375   1.687   5.724  0.1460  0.1150 -0.2995
  173SLPC   H8X19594   0.280   1.634   5.699  1.2692 -1.7342 -0.8448
  173SLPC   H8Y19595   0.463   1.635   5.680  0.6436  1.9859 -1.6232
  173SLPC   C3919596   0.379   1.831   5.664 -0.3844  0.1161  0.0071
  173SLPC   H9X19597   0.479   1.874   5.685 -0.1672 -1.1680  1.8514
  173SLPC   H9Y19598   0.298   1.883   5.720 -1.5147  1.2772 -2.5538
  173SLPC  C31019599   0.352   1.843   5.512 -0.3588  0.3803 -0.1712
  173SLPC  H10X19600   0.256   1.788   5.503 -0.0972  0.1034 -1.4986
  173SLPC  H10Y19601   0.430   1.805   5.442 -0.5285 -2.5982  1.1311
  173SLPC  C31119602   0.342   1.985   5.474 -0.0755  0.1239  0.2750
  173SLPC  H11X19603   0.431   2.046   5.501 -0.0598 -0.3732  1.3987
  173SLPC  H11Y19604   0.247   2.018   5.521  0.7028  0.6944  1.5228
  173SLPC  C31219605   0.300   1.987   5.320 -0.4743 -0.2970  0.1565
  173SLPC  H12X19606   0.393   1.960   5.265 -0.8431  0.6036 -0.9574
  173SLPC  H12Y19607   0.282   2.090   5.283 -1.7304 -1.3399 -2.3612
  173SLPC  C31319608   0.206   1.876   5.264 -0.2245 -0.1104  0.0212
  173SLPC  H13X19609   0.110   1.874   5.320 -0.5933  1.2789 -0.5150
  173SLPC  H13Y19610   0.258   1.780   5.282  0.2915  0.2840  0.7186
  173SLPC  C31419611   0.172   1.906   5.113 -0.9062  0.3024 -0.2360
  173SLPC  H14X19612   0.083   1.972   5.106 -0.5437  0.7220 -1.0377
  173SLPC  H14Y19613   0.157   1.803   5.073  0.6143 -0.1952  0.3667
  173SLPC  C31519614   0.284   1.966   5.026  0.3325 -0.3206 -0.0079
  173SLPC  H15X19615   0.389   1.937   5.045  0.5359  1.6059  2.2420
  173SLPC  H15Y19616   0.295   2.075   5.046  3.2022 -0.2011 -1.7300
  173SLPC  C31619617   0.258   1.929   4.876 -0.5872  0.6295 -0.5524
  173SLPC  H16X19618   0.307   1.992   4.799  0.6740 -0.5180 -0.7210
  173SLPC  H16Y19619   0.153   1.956   4.852  0.0328  1.7738 -2.1587
  173SLPC  C31719620   0.303   1.787   4.842  0.2717 -0.6591 -0.0243
  173SLPC  H17X19621   0.229   1.721   4.892  0.0727  0.5958  1.4196
  173SLPC  H17Y19622   0.403   1.766   4.886 -0.7669 -0.2219  2.7179
  173SLPC  C31819623   0.302   1.757   4.691 -0.3112  0.7877  0.0435
  173SLPC  H18X19624   0.198   1.755   4.653 -0.4330 -1.6790  0.3344
  173SLPC  H18Y19625   0.336   1.654   4.669  1.4980  1.4798 -0.6428
  173SLPC  H18Z19626   0.369   1.822   4.631  2.5823 -0.4822  1.6681
  174SLPC     N19627   2.577   1.741   6.943 -0.3180 -0.2468  0.1082
  174SLPC   C1319628   2.550   1.885   6.987  0.3501  0.1606  0.8025
  174SLPC  H13A19629   2.449   1.901   7.020  0.4329  2.8449 -0.0192
  174SLPC  H13B19630   2.605   1.901   7.079  1.0981 -3.3107  1.1002
  174SLPC  H13C19631   2.580   1.960   6.916  0.0682 -0.7465 -0.3112
  174SLPC   C1419632   2.489   1.708   6.831  0.8020 -0.3911 -0.1686
  174SLPC  H14A19633   2.505   1.605   6.805 -0.9402 -0.4311 -1.2553
  174SLPC  H14B19634   2.384   1.721   6.855  0.4055 -0.0377 -1.9808
  174SLPC  H14C19635   2.511   1.772   6.746  1.6228 -0.7351 -0.2239
  174SLPC   C1519636   2.534   1.650   7.054 -0.0019  0.2863  0.4092
  174SLPC  H15A19637   2.429   1.652   7.075 -0.1041 -1.1327  0.1550
  174SLPC  H15B19638   2.552   1.549   7.020  1.6685  0.5012  0.5678
  174SLPC  H15C19639   2.575   1.687   7.147  2.5475  0.6481 -0.7670
  174SLPC   C1219640   2.721   1.727   6.897 -0.4502  0.4474 -0.6086
  174SLPC  H12A19641   2.742   1.621   6.887  0.6830  0.8834 -4.4761
  174SLPC  H12B19642   2.785   1.759   6.977 -1.4346  1.1107 -0.0679
  174SLPC   C1119643   2.767   1.813   6.780 -0.5885  0.1918  0.3629
  174SLPC  H11A19644   2.683   1.813   6.707  0.2377  0.4380 -0.6162
  174SLPC  H11B19645   2.847   1.753   6.731 -1.5937 -1.5651  0.7940
  174SLPC     P19646   2.758   2.073   6.727  0.1603 -0.2317  0.0537
  174SLPC   O1319647   2.613   2.087   6.724  0.0371 -0.2005 -0.6584
  174SLPC   O1419648   2.837   2.194   6.773 -0.2639 -0.1559 -0.2774
  174SLPC   O1219649   2.798   1.946   6.816 -0.3416 -0.4102 -0.3853
  174SLPC   O1119650   2.802   2.028   6.576 -0.6291 -0.0717 -0.2181
  174SLPC    C119651   2.941   2.000   6.550 -0.2020  0.0727 -0.3075
  174SLPC    HA19652   3.004   2.075   6.602  0.6028 -1.1341  0.5314
  174SLPC    HB19653   2.968   1.903   6.597 -4.5735 -1.2979 -0.1937
  174SLPC    C219654   2.978   1.996   6.403 -0.8244 -0.0062  0.7251
  174SLPC    HS19655   2.953   2.099   6.369 -0.2719  0.6428  2.1793
  174SLPC   O2119656   2.895   1.893   6.347 -0.0153  0.1890 -0.1868
  174SLPC   C2119657   2.859   1.907   6.222 -0.2564 -0.1999  0.2459
  174SLPC   O2219658   2.887   2.005   6.156 -0.1663 -0.3850  0.4360
  174SLPC   C2219659   2.789   1.786   6.158 -0.0539  0.1844 -0.0229
  174SLPC   H2R19660   2.867   1.727   6.104  1.7330  3.0399 -0.7668
  174SLPC   H2S19661   2.736   1.731   6.239 -2.7139  0.7974 -1.2567
  174SLPC    C319662   3.122   1.956   6.368  0.4229 -0.4506  0.0212
  174SLPC    HX19663   3.136   1.847   6.382 -1.4473 -0.8624 -0.9899
  174SLPC    HY19664   3.188   2.008   6.441  0.9853 -1.7893  0.4943
  174SLPC   O3119665   3.153   1.973   6.231 -0.1736 -0.5025  0.1164
  174SLPC   C3119666   3.183   2.098   6.197  0.5091 -0.1828  0.0774
  174SLPC   O3219667   3.192   2.194   6.273  0.2703  0.3955 -0.1875
  174SLPC   C3219668   3.212   2.095   6.048 -0.0204  0.3758  0.0144
  174SLPC   H2X19669   3.127   2.061   5.985  1.8189  1.4435 -3.3075
  174SLPC   H2Y19670   3.294   2.023   6.030  0.2663  0.1804  1.8787
  174SLPC   C2319671   2.675   1.820   6.064  0.3358  0.3839 -0.1272
  174SLPC   H3R19672   2.724   1.870   5.978  1.3280  1.4165  0.9989
  174SLPC   H3S19673   2.614   1.905   6.100  1.0071  2.3882 -3.3677
  174SLPC   C2419674   2.582   1.702   6.022  0.6610  0.2122 -0.4319
  174SLPC   H4R19675   2.509   1.679   6.102  0.9627 -2.4886 -0.8139
  174SLPC   H4S19676   2.633   1.603   6.018 -2.7169 -1.7844  1.2733
  174SLPC   C2519677   2.524   1.716   5.881  0.2270  0.6006 -0.5415
  174SLPC   H5R19678   2.516   1.827   5.891  0.2161  0.3987  2.7249
  174SLPC   H5S19679   2.426   1.663   5.878  0.9733 -0.9104  0.4584
  174SLPC   C2619680   2.613   1.653   5.777  0.1972  0.3459  1.1818
  174SLPC   H6R19681   2.621   1.546   5.810 -0.2733 -0.0291  0.1051
  174SLPC   H6S19682   2.719   1.680   5.796  0.7610 -1.1788  0.3777
  174SLPC   C2719683   2.567   1.660   5.630  0.2396 -0.0116  1.1370
  174SLPC   H7R19684   2.458   1.642   5.634 -0.2735  2.5138  0.3465
  174SLPC   H7S19685   2.611   1.573   5.576  2.9850  2.2402 -0.4996
  174SLPC   C2819686   2.586   1.801   5.567 -0.1559  0.2841  0.5893
  174SLPC   H8R19687   2.588   1.870   5.655 -0.6861  0.2729  0.6154
  174SLPC   H8S19688   2.494   1.827   5.510  0.7343  2.8576  0.1841
  174SLPC   C2919689   2.717   1.801   5.493  0.1691 -0.0616  0.2052
  174SLPC   H9R19690   2.803   1.804   5.563  0.4425  2.4797 -0.1354
  174SLPC  C21019691   2.731   1.815   5.359  0.6606 -0.1979 -0.3015
  174SLPC  H10R19692   2.828   1.803   5.310 -0.4975  0.2947 -2.9262
  174SLPC  C21119693   2.614   1.823   5.271  0.0860 -0.0596  0.5051
  174SLPC  H11R19694   2.534   1.753   5.303  0.4355 -1.3622 -1.2666
  174SLPC  H11S19695   2.657   1.765   5.186 -0.2057  0.9515 -0.3532
  174SLPC  C21219696   2.557   1.955   5.214 -0.5587  0.5730 -0.0520
  174SLPC  H12R19697   2.526   2.021   5.295  1.9587 -2.3591  3.6352
  174SLPC  C21319698   2.543   1.993   5.082  0.0304  0.5727 -0.0313
  174SLPC  H13R19699   2.494   2.087   5.054 -2.6832 -0.6998  0.1461
  174SLPC  C21419700   2.572   1.909   4.956 -0.2034  0.3738 -0.4367
  174SLPC  H14R19701   2.552   1.799   4.960  1.3919  0.0200 -1.3814
  174SLPC  H14S19702   2.682   1.907   4.944  0.0140  1.4199  1.0786
  174SLPC  C21519703   2.500   1.957   4.828 -0.0891  0.0871  0.1085
  174SLPC  H15R19704   2.394   1.954   4.860 -0.3047 -5.0853 -0.2986
  174SLPC  H15S19705   2.513   1.886   4.744  1.7917  0.5107 -0.0081
  174SLPC  C21619706   2.546   2.100   4.771 -0.1449 -0.1050 -0.1932
  174SLPC  H16R19707   2.519   2.181   4.842  1.5658 -0.2372  0.6712
  174SLPC  H16S19708   2.492   2.111   4.675  0.1023 -0.8990 -0.4351
  174SLPC  C21719709   2.690   2.102   4.719 -0.7920  0.9412 -0.0214
  174SLPC  H17R19710   2.762   2.074   4.799  0.0287  1.9512 -0.3934
  174SLPC  H17S19711   2.713   2.206   4.687 -1.3146  0.5872 -1.6330
  174SLPC  C21819712   2.708   2.002   4.597 -0.0212 -0.4136 -0.6016
  174SLPC  H18R19713   2.689   1.903   4.642  0.8390  0.4135  1.6953
  174SLPC  H18S19714   2.812   2.000   4.558 -0.0488 -1.5129 -0.6395
  174SLPC  H18T19715   2.633   2.024   4.518 -1.5230  0.7480  1.0705
  174SLPC   C3319716   3.235   2.234   5.991  0.0259 -0.0128  0.2732
  174SLPC   H3X19717   3.322   2.279   6.044  0.8002 -0.3047 -0.7179
  174SLPC   H3Y19718   3.145   2.298   5.998  1.2867  1.7239  1.2565
  174SLPC   C3419719   3.276   2.208   5.845 -0.1262  0.6748 -0.3389
  174SLPC   H4X19720   3.184   2.170   5.795  1.2640 -2.8800 -0.4634
  174SLPC   H4Y19721   3.348   2.124   5.836 -0.1113  0.8183 -1.6382
  174SLPC   C3519722   3.331   2.329   5.782 -0.0890  0.8875  0.0429
  174SLPC   H5X19723   3.437   2.338   5.812  0.6750 -2.2891 -1.2701
  174SLPC   H5Y19724   3.282   2.426   5.805  0.4917  1.0237  0.7369
  174SLPC   C3619725   3.327   2.313   5.633 -0.3238 -0.3899  0.4132
  174SLPC   H6X19726   3.221   2.291   5.609 -0.3259 -0.8725  0.8525
  174SLPC   H6Y19727   3.384   2.221   5.607  2.4600  0.1697  3.8439
  174SLPC   C3719728   3.365   2.442   5.555  0.2266  0.1610 -0.3390
  174SLPC   H7X19729   3.467   2.466   5.592 -0.7453  0.4931  2.3071
  174SLPC   H7Y19730   3.291   2.511   5.600  2.6460  1.2256  2.3366
  174SLPC   C3819731   3.358   2.435   5.403  0.0728  0.1825  0.2808
  174SLPC   H8X19732   3.249   2.416   5.389 -0.1150  0.2797  1.4889
  174SLPC   H8Y19733   3.418   2.345   5.381  2.6251  1.4437  1.5759
  174SLPC   C3919734   3.405   2.566   5.338  0.6467 -0.0449 -0.4555
  174SLPC   H9X19735   3.514   2.568   5.317  0.3961  1.1715 -1.7645
  174SLPC   H9Y19736   3.370   2.643   5.411  1.5504 -0.0040 -0.0578
  174SLPC  C31019737   3.340   2.585   5.201  0.5211  0.2895  0.0593
  174SLPC  H10X19738   3.230   2.581   5.209  0.6526 -0.6796  1.8618
  174SLPC  H10Y19739   3.369   2.501   5.134 -0.4363 -1.0647  1.2898
  174SLPC  C31119740   3.380   2.717   5.138  0.0185 -0.3597 -0.0484
  174SLPC  H11X19741   3.491   2.713   5.134 -0.0202 -0.8333 -2.5044
  174SLPC  H11Y19742   3.352   2.800   5.206  1.2889 -0.7542  0.9945
  174SLPC  C31219743   3.339   2.739   4.991 -0.2787 -0.1585 -0.0386
  174SLPC  H12X19744   3.229   2.735   4.981 -0.1767 -1.0870 -0.9938
  174SLPC  H12Y19745   3.382   2.657   4.930  1.3554  1.3517 -1.0461
  174SLPC  C31319746   3.388   2.878   4.932  0.7522  0.1422  0.4064
  174SLPC  H13X19747   3.499   2.882   4.927  0.8731  0.6736  2.5672
  174SLPC  H13Y19748   3.352   2.952   5.007  1.5448 -0.1230  1.0642
  174SLPC  C31419749   3.322   2.908   4.802  0.1387 -0.3310 -0.2556
  174SLPC  H14X19750   3.217   2.941   4.822  0.3808  1.0489 -1.1239
  174SLPC  H14Y19751   3.314   2.817   4.739  2.5162  0.9627 -2.6382
  174SLPC  C31519752   3.384   3.026   4.727 -0.4748 -0.0529  0.5205
  174SLPC  H15X19753   3.493   3.008   4.712 -0.6005 -0.5827  0.1940
  174SLPC  H15Y19754   3.373   3.127   4.771 -0.2727  1.2575 -2.2086
  174SLPC  C31619755   3.333   3.029   4.576 -0.1592  0.0115 -0.0934
  174SLPC  H16X19756   3.359   3.129   4.537  0.9991  0.4847  1.7964
  174SLPC  H16Y19757   3.223   3.014   4.566 -0.0379  0.3179 -2.3977
  174SLPC  C31719758   3.422   2.935   4.495 -0.4726 -0.2444 -0.2412
  174SLPC  H17X19759   3.433   2.830   4.529  1.5424 -0.3252 -1.0240
  174SLPC  H17Y19760   3.521   2.982   4.509 -0.8181 -0.0735  1.9900
  174SLPC  C31819761   3.395   2.930   4.341  0.4479  0.3695 -0.2864
  174SLPC  H18X19762   3.489   2.894   4.295 -0.6191 -0.0107 -2.2900
  174SLPC  H18Y19763   3.375   3.027   4.291  1.1269 -0.4256 -2.1985
  174SLPC  H18Z19764   3.315   2.856   4.316  0.4267  0.7984 -1.5413
  175SLPC     N19765   5.019   5.426   7.023 -0.2967 -0.1402 -0.7102
  175SLPC   C1319766   4.974   5.456   6.883 -0.4154  0.5143  0.3050
  175SLPC  H13A19767   4.870   5.484   6.883  0.3521  4.1795 -2.5796
  175SLPC  H13B19768   5.024   5.546   6.850 -0.1611  0.5788  0.8657
  175SLPC  H13C19769   5.002   5.374   6.818 -1.2814  0.8284 -0.4845
  175SLPC   C1419770   5.016   5.552   7.117 -0.8354  0.3528  0.9227
  175SLPC  H14A19771   5.064   5.628   7.057 -0.8918 -1.1866 -1.2259
  175SLPC  H14B19772   4.912   5.573   7.138 -1.1139 -1.8255  1.9886
  175SLPC  H14C19773   5.066   5.536   7.211  1.5790  1.3244 -0.1296
  175SLPC   C1519774   5.161   5.390   7.018 -0.3334 -0.0599 -0.6709
  175SLPC  H15A19775   5.183   5.321   6.938 -0.1620  0.1382 -0.7966
  175SLPC  H15B19776   5.232   5.468   6.997  1.4393 -1.9061 -1.9899
  175SLPC  H15C19777   5.189   5.338   7.109  0.2304  0.5285 -0.5015
  175SLPC   C1219778   4.926   5.319   7.072 -0.0837  0.1171  0.4625
  175SLPC  H12A19779   4.832   5.368   7.094  0.3405  0.4750  1.5260
  175SLPC  H12B19780   4.965   5.286   7.166  2.3421 -0.3601 -0.6412
  175SLPC   C1119781   4.902   5.197   6.985 -0.0798 -0.3059  0.3063
  175SLPC  H11A19782   4.851   5.226   6.891 -3.2773 -1.5295  1.5405
  175SLPC  H11B19783   4.826   5.127   7.027 -0.8347  0.5630  0.4182
  175SLPC     P19784   5.087   5.002   6.999  0.3454 -0.0875  0.5653
  175SLPC   O1319785   5.209   5.028   7.085  0.1696  0.6078 -0.6293
  175SLPC   O1419786   4.986   4.913   7.052  0.4978  0.0525 -0.2431
  175SLPC   O1219787   5.019   5.136   6.948 -0.5989  0.0025  0.4271
  175SLPC   O1119788   5.137   4.932   6.872 -0.0239  0.0365 -0.0255
  175SLPC    C119789   5.201   5.008   6.767 -0.0394  0.4615  0.2674
  175SLPC    HA19790   5.114   5.061   6.724 -2.3280 -2.3581  1.0451
  175SLPC    HB19791   5.286   5.069   6.804 -0.2364  0.0312  1.5082
  175SLPC    C219792   5.263   4.920   6.656 -0.3299  0.8564 -0.0623
  175SLPC    HS19793   5.305   4.968   6.565 -1.2209  1.2188 -0.2925
  175SLPC   O2119794   5.194   4.805   6.615  0.3697 -0.1229 -0.3168
  175SLPC   C2119795   5.096   4.837   6.529 -0.2784 -0.4465 -0.2687
  175SLPC   O2219796   5.082   4.950   6.485 -0.9605 -0.1039  0.2519
  175SLPC   C2219797   5.003   4.718   6.511 -0.2759  0.2365 -0.7910
  175SLPC   H2R19798   5.068   4.628   6.504 -1.2171 -0.4477 -0.9447
  175SLPC   H2S19799   4.942   4.712   6.604  1.3350 -1.0321  0.2230
  175SLPC    C319800   5.398   4.868   6.713 -0.2312 -0.3963  0.6043
  175SLPC    HX19801   5.376   4.811   6.806  1.6703  0.2716  1.5172
  175SLPC    HY19802   5.457   4.960   6.733 -0.3399  0.8137 -3.5922
  175SLPC   O3119803   5.470   4.794   6.608  0.1518  0.3802  0.4752
  175SLPC   C3119804   5.466   4.661   6.614  0.0269  0.5414  0.2029
  175SLPC   O3219805   5.398   4.599   6.691  0.3783  0.0281  0.0394
  175SLPC   C3219806   5.561   4.605   6.514  0.4637  0.2440  0.8180
  175SLPC   H2X19807   5.562   4.497   6.543 -1.9412  0.3255  1.4113
  175SLPC   H2Y19808   5.658   4.658   6.522 -0.1013  1.3475  0.5806
  175SLPC   C2319809   4.920   4.750   6.386 -0.7258  0.2707 -0.4321
  175SLPC   H3R19810   4.984   4.784   6.302 -1.1132  1.4364 -0.2627
  175SLPC   H3S19811   4.842   4.828   6.398 -0.9502  0.0974 -0.7640
  175SLPC   C2419812   4.868   4.616   6.333 -0.0084 -0.0125  0.6243
  175SLPC   H4R19813   4.799   4.621   6.245  0.7506 -2.2679 -0.1496
  175SLPC   H4S19814   4.803   4.572   6.412 -1.0424  0.3969  0.0360
  175SLPC   C2519815   4.970   4.505   6.306 -0.1015 -0.6742 -0.5829
  175SLPC   H5R19816   4.930   4.417   6.250 -3.0026  0.5470 -0.6215
  175SLPC   H5S19817   4.991   4.453   6.401  1.4293  1.6190  0.4018
  175SLPC   C2619818   5.094   4.557   6.239  0.2697 -0.7318  0.4518
  175SLPC   H6R19819   5.164   4.471   6.246  0.7515 -0.4018 -0.2322
  175SLPC   H6S19820   5.153   4.638   6.286  1.2760 -1.2413  0.0841
  175SLPC   C2719821   5.081   4.582   6.090 -0.0970  0.0627  0.8925
  175SLPC   H7R19822   5.174   4.630   6.052 -1.6805  1.8945 -0.8603
  175SLPC   H7S19823   5.001   4.658   6.094 -2.1361 -1.8506 -1.1018
  175SLPC   C2819824   5.030   4.474   5.982 -0.9511 -0.0972 -0.3517
  175SLPC   H8R19825   5.014   4.531   5.888  0.7827  1.8097  0.4459
  175SLPC   H8S19826   4.929   4.437   6.012 -0.5160 -0.1733  1.0754
  175SLPC   C2919827   5.126   4.354   5.972  0.1015  0.2417  1.0589
  175SLPC   H9R19828   5.090   4.263   6.021  0.1978  0.0275  0.7334
  175SLPC  C21019829   5.239   4.340   5.897  0.7106 -0.6961 -0.1500
  175SLPC  H10R19830   5.286   4.242   5.883  0.0819 -1.1306  0.7326
  175SLPC  C21119831   5.298   4.451   5.820  0.0584  0.1451  0.0222
  175SLPC  H11R19832   5.235   4.542   5.830 -0.3331 -0.0831 -0.3688
  175SLPC  H11S19833   5.300   4.446   5.709  1.4230  4.8993 -0.4236
  175SLPC  C21219834   5.428   4.490   5.886  0.2405  0.2395 -0.5762
  175SLPC  H12R19835   5.424   4.491   5.996 -0.8105  1.1633 -0.6134
  175SLPC  C21319836   5.538   4.539   5.823  0.4283 -0.1010 -0.1271
  175SLPC  H13R19837   5.622   4.563   5.889  0.4733 -1.0717  0.1816
  175SLPC  C21419838   5.567   4.537   5.675 -0.3031  0.2898  0.0836
  175SLPC  H14R19839   5.524   4.446   5.630  1.1356 -1.0001  1.2051
  175SLPC  H14S19840   5.675   4.535   5.650  0.0397  1.1394  1.3502
  175SLPC  C21519841   5.493   4.653   5.598 -0.7138  0.1956  0.5294
  175SLPC  H15R19842   5.536   4.747   5.638  1.2627 -0.5961  0.3682
  175SLPC  H15S19843   5.386   4.651   5.627 -0.6680  2.3495  1.0204
  175SLPC  C21619844   5.501   4.632   5.441 -0.0208 -0.1927 -0.3902
  175SLPC  H16R19845   5.423   4.554   5.424 -0.8473  0.6363 -0.4457
  175SLPC  H16S19846   5.596   4.587   5.403 -0.1388 -1.0712  0.3154
  175SLPC  C21719847   5.477   4.765   5.363 -0.8768  0.2612  0.5748
  175SLPC  H17R19848   5.463   4.725   5.260 -0.0284 -1.6383  1.1536
  175SLPC  H17S19849   5.574   4.821   5.365 -0.4018 -0.5718  2.6351
  175SLPC  C21819850   5.359   4.851   5.389 -0.2479 -1.1241  0.0035
  175SLPC  H18R19851   5.365   4.908   5.485  0.4888 -1.2469  0.0417
  175SLPC  H18S19852   5.270   4.786   5.394 -1.2843  0.2745  0.2965
  175SLPC  H18T19853   5.345   4.917   5.301  1.7408 -0.2424  0.2894
  175SLPC   C3319854   5.501   4.599   6.373  0.0131 -0.1960  0.4874
  175SLPC   H3X19855   5.416   4.528   6.366  0.1420 -0.1583 -3.5456
  175SLPC   H3Y19856   5.579   4.573   6.298  1.9869  2.1338  1.5785
  175SLPC   C3419857   5.454   4.736   6.318  0.9694 -0.6583  0.7585
  175SLPC   H4X19858   5.516   4.823   6.350 -0.8693  0.4647  1.4475
  175SLPC   H4Y19859   5.355   4.759   6.361  0.7929 -1.1841  0.6326
  175SLPC   C3519860   5.446   4.750   6.159 -0.3812  0.2137 -0.0292
  175SLPC   H5X19861   5.404   4.654   6.122 -3.2087  0.5543  1.9648
  175SLPC   H5Y19862   5.548   4.758   6.114 -0.2420 -0.7244  0.0998
  175SLPC   C3619863   5.371   4.868   6.093 -0.6703 -0.3648 -0.5796
  175SLPC   H6X19864   5.421   4.962   6.124  1.7661 -1.4850 -0.9140
  175SLPC   H6Y19865   5.265   4.873   6.127 -0.7046  1.9356 -0.8739
  175SLPC   C3719866   5.356   4.863   5.940 -0.2457 -0.3752 -0.6616
  175SLPC   H7X19867   5.335   4.761   5.900 -0.3024  0.0087 -1.6244
  175SLPC   H7Y19868   5.440   4.908   5.884 -1.4392  0.8694 -1.5020
  175SLPC   C3819869   5.234   4.949   5.899  0.0854 -0.2350 -0.3413
  175SLPC   H8X19870   5.238   5.050   5.945 -1.7538 -0.5841  0.7011
  175SLPC   H8Y19871   5.145   4.898   5.942 -1.3655  2.3229 -0.1178
  175SLPC   C3919872   5.229   4.960   5.746  0.9647 -0.1987 -0.2851
  175SLPC   H9X19873   5.234   4.863   5.691  0.5114 -0.1918 -0.3423
  175SLPC   H9Y19874   5.313   5.024   5.714 -0.2425  1.1529 -0.8508
  175SLPC  C31019875   5.093   5.024   5.702 -0.0165 -0.6480 -0.0605
  175SLPC  H10X19876   5.059   5.103   5.772 -0.1401 -1.3583  0.6889
  175SLPC  H10Y19877   5.025   4.939   5.726  1.0864 -0.6823  3.6183
  175SLPC  C31119878   5.075   5.049   5.551 -0.0468 -0.3916  0.2752
  175SLPC  H11X19879   4.972   5.028   5.515 -0.2700  1.1776 -0.0753
  175SLPC  H11Y19880   5.136   4.972   5.499 -1.1609 -2.0642  1.3311
  175SLPC  C31219881   5.140   5.184   5.492  0.2590  0.1123  0.3830
  175SLPC  H12X19882   5.242   5.196   5.536  0.3361 -1.3594  0.6721
  175SLPC  H12Y19883   5.079   5.272   5.521  0.2679  0.4997 -0.7017
  175SLPC  C31319884   5.153   5.173   5.338  0.7446  0.0145  0.3301
  175SLPC  H13X19885   5.072   5.104   5.306  0.2662 -1.3908  4.0288
  175SLPC  H13Y19886   5.240   5.115   5.301  2.0045  1.1190  1.4335
  175SLPC  C31419887   5.157   5.306   5.268  0.1866 -0.1341  0.1483
  175SLPC  H14X19888   5.255   5.359   5.278 -1.3844  2.8389  1.1225
  175SLPC  H14Y19889   5.068   5.365   5.299 -0.1228 -0.4963 -0.0505
  175SLPC  C31519890   5.128   5.270   5.121  0.0722  0.4936  0.2269
  175SLPC  H15X19891   5.017   5.261   5.122 -0.0571  1.8307  0.5357
  175SLPC  H15Y19892   5.172   5.172   5.092  0.9531  0.9901 -0.1643
  175SLPC  C31619893   5.176   5.384   5.026  0.1746  0.7748  0.9109
  175SLPC  H16X19894   5.286   5.397   5.033  0.1651  0.9963  0.6919
  175SLPC  H16Y19895   5.147   5.481   5.071 -0.9812  0.2035  1.4165
  175SLPC  C31719896   5.130   5.365   4.876  0.5025  0.4151 -1.0507
  175SLPC  H17X19897   5.129   5.255   4.861 -2.2559  0.1476  0.3425
  175SLPC  H17Y19898   5.189   5.419   4.800 -0.1085 -0.4574 -2.1747
  175SLPC  C31819899   4.983   5.401   4.851  0.1491  0.1804 -0.4312
  175SLPC  H18X19900   4.953   5.409   4.745 -0.9193  2.0210 -0.0253
  175SLPC  H18Y19901   4.948   5.491   4.906  0.4661  0.1717 -0.2140
  175SLPC  H18Z19902   4.919   5.320   4.894  0.0589  0.6712  0.3674
  176SLPC     N19903   6.763   3.290   7.416 -0.0488  0.7236 -0.0160
  176SLPC   C1319904   6.633   3.245   7.360  0.1449  0.4435  0.5411
  176SLPC  H13A19905   6.560   3.220   7.435 -0.9436  0.5587 -0.4572
  176SLPC  H13B19906   6.599   3.326   7.298  0.0598 -1.0065 -1.3938
  176SLPC  H13C19907   6.627   3.158   7.295 -3.6186 -0.3622  1.7190
  176SLPC   C1419908   6.824   3.175   7.490 -0.0178  0.6081 -0.3538
  176SLPC  H14A19909   6.846   3.095   7.421  0.7763 -1.2296  1.8883
  176SLPC  H14B19910   6.921   3.204   7.527  0.4048 -2.1232  0.8995
  176SLPC  H14C19911   6.760   3.132   7.566  0.0153  1.4329  0.1551
  176SLPC   C1519912   6.727   3.392   7.522 -0.4591  0.5234  0.4966
  176SLPC  H15A19913   6.811   3.410   7.586  0.5366  2.2787 -1.1988
  176SLPC  H15B19914   6.701   3.490   7.482 -2.4349 -0.1157  0.1048
  176SLPC  H15C19915   6.646   3.364   7.587 -0.3467  1.0855  0.8840
  176SLPC   C1219916   6.846   3.354   7.307  0.2061  0.1189 -0.0937
  176SLPC  H12A19917   6.881   3.273   7.245  1.7109 -0.8819  1.9343
  176SLPC  H12B19918   6.934   3.390   7.359  1.0856 -2.4316  0.3257
  176SLPC   C1119919   6.784   3.473   7.233  0.5502 -0.5108 -0.2035
  176SLPC  H11A19920   6.855   3.531   7.170 -1.7932 -0.3246 -2.9265
  176SLPC  H11B19921   6.736   3.543   7.304  1.1632  1.2252 -1.4192
  176SLPC     P19922   6.717   3.349   7.015 -0.2845 -0.2082 -0.1096
  176SLPC   O1319923   6.789   3.224   7.056  0.4183  0.2370  0.1339
  176SLPC   O1419924   6.585   3.340   6.942 -0.1302  0.1593 -0.2784
  176SLPC   O1219925   6.677   3.430   7.142 -0.2741  0.5085  0.1083
  176SLPC   O1119926   6.815   3.446   6.939 -0.1362  0.2780  0.1708
  176SLPC    C119927   6.778   3.568   6.878 -0.0046 -0.2130 -0.5415
  176SLPC    HA19928   6.677   3.610   6.899  0.4890  0.7172  0.0107
  176SLPC    HB19929   6.843   3.649   6.917 -0.4685 -0.2672  0.3706
  176SLPC    C219930   6.792   3.561   6.721 -0.1017  0.1624  0.2509
  176SLPC    HS19931   6.765   3.657   6.672 -0.6823 -1.0886 -2.0457
  176SLPC   O2119932   6.703   3.464   6.668  0.0598  0.1098 -0.6137
  176SLPC   C2119933   6.575   3.493   6.665 -0.3652  0.8622 -0.7290
  176SLPC   O2219934   6.520   3.592   6.702 -0.1355  0.6949  0.1098
  176SLPC   C2219935   6.499   3.384   6.600 -0.7765  0.3165 -0.4989
  176SLPC   H2R19936   6.529   3.394   6.493 -1.6854 -0.6329 -0.8526
  176SLPC   H2S19937   6.543   3.285   6.626  1.2884  1.3654  0.2301
  176SLPC    C319938   6.940   3.525   6.688  0.5746 -0.0557 -0.3262
  176SLPC    HX19939   6.968   3.429   6.737  1.0907  0.1592 -0.1974
  176SLPC    HY19940   7.008   3.592   6.745  0.1391  0.1145 -0.0059
  176SLPC   O3119941   6.967   3.525   6.546 -0.5128  0.6208 -0.6650
  176SLPC   C3119942   7.020   3.414   6.496 -0.9536  0.4340  0.0374
  176SLPC   O3219943   7.059   3.314   6.557 -0.4013  0.1081  0.1505
  176SLPC   C3219944   7.005   3.429   6.347 -0.9372  1.1284  0.6064
  176SLPC   H2X19945   7.035   3.333   6.300 -2.6530 -0.1171  1.9290
  176SLPC   H2Y19946   7.087   3.501   6.323  1.2878 -0.9590  1.5666
  176SLPC   C2319947   6.356   3.381   6.642 -0.3463 -0.4964  0.1613
  176SLPC   H3R19948   6.306   3.460   6.582  3.1211 -0.7275 -3.4862
  176SLPC   H3S19949   6.342   3.384   6.752  0.2826 -2.1086  0.3083
  176SLPC   C2419950   6.295   3.255   6.586 -0.4712  0.3959  0.6806
  176SLPC   H4R19951   6.195   3.236   6.631 -1.0811  0.6872 -0.5056
  176SLPC   H4S19952   6.365   3.172   6.608  0.0108  0.8505  0.8788
  176SLPC   C2519953   6.276   3.264   6.428  0.7773  0.4187  0.3514
  176SLPC   H5R19954   6.371   3.288   6.377  0.8879  0.6035  0.6402
  176SLPC   H5S19955   6.199   3.344   6.423  0.7547  0.7803  3.6864
  176SLPC   C2619956   6.206   3.137   6.376  0.1255  0.1357 -0.5041
  176SLPC   H6R19957   6.112   3.128   6.433  1.3511  4.4034  2.7215
  176SLPC   H6S19958   6.253   3.040   6.403  0.5428  0.9991  2.1682
  176SLPC   C2719959   6.176   3.142   6.222 -0.6026  0.5823 -0.3173
  176SLPC   H7R19960   6.258   3.189   6.164  0.0916  0.9588  0.9286
  176SLPC   H7S19961   6.089   3.209   6.204 -0.6390  0.6297  0.0261
  176SLPC   C2819962   6.150   3.006   6.156  0.1114 -0.8729 -0.2414
  176SLPC   H8R19963   6.233   2.934   6.175 -1.0660 -1.6396  2.4318
  176SLPC   H8S19964   6.143   3.037   6.050  1.0291 -0.2225 -0.1220
  176SLPC   C2919965   6.013   2.958   6.192  0.1415  0.2684 -0.3300
  176SLPC   H9R19966   5.990   2.948   6.300 -4.8963 -2.1823 -1.3263
  176SLPC  C21019967   5.921   2.913   6.111 -0.6423 -0.1835  0.0180
  176SLPC  H10R19968   5.826   2.882   6.158 -1.1429  0.2078 -0.7208
  176SLPC  C21119969   5.923   2.904   5.958  0.0943 -0.3501  0.0417
  176SLPC  H11R19970   6.009   2.950   5.906 -0.8999  1.3226 -0.1843
  176SLPC  H11S19971   5.847   2.969   5.911  0.1969  0.5400  1.0630
  176SLPC  C21219972   5.898   2.763   5.917  0.8321 -0.7802  0.6017
  176SLPC  H12R19973   5.797   2.721   5.927  0.5362  0.0458  1.1951
  176SLPC  C21319974   5.985   2.675   5.871  0.5554  0.3244  0.4276
  176SLPC  H13R19975   5.948   2.576   5.841  0.1081  0.7724 -0.5499
  176SLPC  C21419976   6.132   2.708   5.834 -0.1003 -0.1268 -0.3156
  176SLPC  H14R19977   6.186   2.698   5.930  0.7780 -1.0070 -0.8777
  176SLPC  H14S19978   6.153   2.812   5.800 -0.2237 -0.2578 -0.8028
  176SLPC  C21519979   6.190   2.604   5.730  0.0896  0.2777  0.0675
  176SLPC  H15R19980   6.170   2.497   5.754  1.0818  0.1427  0.3435
  176SLPC  H15S19981   6.301   2.616   5.731  0.0245  0.8463  0.3432
  176SLPC  C21619982   6.155   2.642   5.586  0.4205  0.7011  0.1538
  176SLPC  H16R19983   6.229   2.598   5.516 -1.2959 -0.2439 -1.1507
  176SLPC  H16S19984   6.170   2.752   5.575 -1.2239  1.2635  2.6885
  176SLPC  C21719985   6.017   2.586   5.542 -0.0870  0.0281  0.3951
  176SLPC  H17R19986   5.926   2.638   5.580 -0.0075  1.5156 -1.3221
  176SLPC  H17S19987   6.006   2.481   5.577 -1.5710  0.0912  0.1608
  176SLPC  C21819988   6.000   2.570   5.389  0.1281  0.1958  0.0159
  176SLPC  H18R19989   6.030   2.660   5.331 -0.4249 -0.1082 -0.7570
  176SLPC  H18S19990   5.896   2.551   5.355  0.1381  0.5370 -0.2146
  176SLPC  H18T19991   6.061   2.484   5.353  2.8529  2.8388 -2.2760
  176SLPC   C3319992   6.872   3.478   6.283 -0.4290 -0.6958  0.0849
  176SLPC   H3X19993   6.892   3.555   6.205  0.5537 -0.5782  0.4382
  176SLPC   H3Y19994   6.801   3.523   6.356 -1.5971  0.1455 -1.5091
  176SLPC   C3419995   6.784   3.366   6.225 -0.4596  0.2677  0.1324
  176SLPC   H4X19996   6.809   3.336   6.121  0.5820  0.6349  0.2681
  176SLPC   H4Y19997   6.680   3.404   6.218 -0.1158  1.4215  1.0281
  176SLPC   C3519998   6.784   3.235   6.308 -0.1012  0.0566 -0.3356
  176SLPC   H5X19999   6.773   3.249   6.418 -1.4504 -3.5682  0.1365
  176SLPC   H5Y20000   6.883   3.184   6.304  0.0602  0.0502  2.2134
  176SLPC   C3620001   6.684   3.130   6.253  0.4003 -0.4201  0.1558
  176SLPC   H6X20002   6.586   3.181   6.245  0.5914 -0.3226 -2.6391
  176SLPC   H6Y20003   6.672   3.038   6.314  1.7029 -1.9113 -1.7047
  176SLPC   C3720004   6.720   3.088   6.109 -0.0021 -0.2117 -0.5179
  176SLPC   H7X20005   6.830   3.074   6.097  1.3114  2.5037  4.8818
  176SLPC   H7Y20006   6.695   3.176   6.046 -0.5353  0.3194  0.4054
  176SLPC   C3820007   6.648   2.960   6.065 -0.0121  0.5089  0.2730
  176SLPC   H8X20008   6.544   2.977   6.100  0.2157  0.1276  1.1677
  176SLPC   H8Y20009   6.671   2.863   6.114 -2.2373 -0.7239 -0.9658
  176SLPC   C3920010   6.645   2.942   5.910  0.0182  0.7599  0.1730
  176SLPC   H9X20011   6.745   2.908   5.874 -0.1008 -1.1459  1.4836
  176SLPC   H9Y20012   6.618   3.036   5.857 -0.8041 -0.3358 -1.4539
  176SLPC  C31020013   6.539   2.835   5.858 -0.0190  0.0049  0.4593
  176SLPC  H10X20014   6.443   2.846   5.912 -0.2724 -0.5318  0.1212
  176SLPC  H10Y20015   6.580   2.732   5.866 -4.0482 -1.7628  0.4036
  176SLPC  C31120016   6.502   2.854   5.714  0.0917  0.1402  0.3229
  176SLPC  H11X20017   6.489   2.963   5.700 -0.2318  0.0497 -0.0972
  176SLPC  H11Y20018   6.405   2.805   5.690  0.1788 -0.7078  1.5969
  176SLPC  C31220019   6.605   2.800   5.624  0.5518 -0.8740  0.1196
  176SLPC  H12X20020   6.616   2.695   5.660 -2.7040 -1.2282  0.3907
  176SLPC  H12Y20021   6.700   2.857   5.637 -0.0513  0.6318 -1.6548
  176SLPC  C31320022   6.563   2.799   5.476 -0.1740 -0.1636  0.8750
  176SLPC  H13X20023   6.569   2.903   5.437 -1.7191 -0.5596 -0.5212
  176SLPC  H13Y20024   6.456   2.770   5.475 -0.5272  1.0962  0.2769
  176SLPC  C31420025   6.638   2.698   5.385 -0.1323 -0.1945 -0.4319
  176SLPC  H14X20026   6.619   2.591   5.407  1.7278 -0.4855 -0.1270
  176SLPC  H14Y20027   6.747   2.709   5.402 -0.1124 -1.0076  0.0067
  176SLPC  C31520028   6.625   2.716   5.235  0.2615  0.7671  0.4427
  176SLPC  H15X20029   6.521   2.744   5.207 -0.0474  1.0249  1.7683
  176SLPC  H15Y20030   6.657   2.622   5.185 -0.3976 -1.2647  3.5812
  176SLPC  C31620031   6.716   2.836   5.179  0.4403  0.3855 -0.1175
  176SLPC  H16X20032   6.818   2.819   5.219 -0.1701 -1.6732  0.6887
  176SLPC  H16Y20033   6.686   2.933   5.223  2.2483  0.0558  1.9957
  176SLPC  C31720034   6.714   2.837   5.026 -0.3177 -0.3106  0.1444
  176SLPC  H17X20035   6.607   2.821   4.999 -1.0156  1.4714  1.6080
  176SLPC  H17Y20036   6.777   2.749   4.999 -2.8255 -1.8597 -1.0473
  176SLPC  C31820037   6.767   2.971   4.963 -0.1613 -0.3971 -0.3119
  176SLPC  H18X20038   6.725   2.985   4.861  0.6729 -2.0765 -0.9273
  176SLPC  H18Y20039   6.875   2.948   4.946  0.4142  0.7727  1.4633
  176SLPC  H18Z20040   6.746   3.062   5.023 -2.2547 -1.9664  1.5008
  177SLPC     N20041   6.310   3.908   6.901 -0.2789  0.7812  1.1638
  177SLPC   C1320042   6.294   3.825   7.023  0.1582 -0.3897 -0.1003
  177SLPC  H13A20043   6.193   3.840   7.056 -0.9249 -4.2392 -1.1311
  177SLPC  H13B20044   6.305   3.718   7.008 -0.1799 -0.5204  0.5802
  177SLPC  H13C20045   6.361   3.847   7.104  0.6705 -0.9709 -0.3537
  177SLPC   C1420046   6.321   4.058   6.932 -0.1448  0.4111  0.4530
  177SLPC  H14A20047   6.332   4.108   6.837 -4.0525 -0.3943 -0.5873
  177SLPC  H14B20048   6.236   4.108   6.975 -1.2637  0.5359 -1.7643
  177SLPC  H14C20049   6.406   4.077   6.995  1.1370 -0.0221 -1.0605
  177SLPC   C1520050   6.180   3.877   6.826 -0.4909 -0.2824  0.1558
  177SLPC  H15A20051   6.182   3.912   6.724  3.2691 -2.9391 -0.8749
  177SLPC  H15B20052   6.181   3.770   6.811  1.7564 -0.2223 -0.4297
  177SLPC  H15C20053   6.093   3.921   6.873 -1.4790 -0.9608 -0.9629
  177SLPC   C1220054   6.427   3.856   6.824 -0.3760  0.0572  0.7761
  177SLPC  H12A20055   6.424   3.748   6.815 -1.5601 -0.0840  2.4388
  177SLPC  H12B20056   6.523   3.887   6.860  0.8112 -1.5954 -0.8075
  177SLPC   C1120057   6.443   3.914   6.685 -0.3724 -0.0976  0.1588
  177SLPC  H11A20058   6.345   3.922   6.634  0.6485  1.5534 -1.6708
  177SLPC  H11B20059   6.511   3.845   6.632  2.0757  1.3203  1.2573
  177SLPC     P20060   6.640   4.089   6.719  0.0541 -0.0247 -0.0455
  177SLPC   O1320061   6.666   4.232   6.679 -1.0146 -0.0052  1.0686
  177SLPC   O1420062   6.688   4.044   6.851 -0.4931 -0.1845  0.2731
  177SLPC   O1220063   6.487   4.049   6.697 -0.1462  0.4097  0.4310
  177SLPC   O1120064   6.709   4.006   6.610  0.0127 -0.3145 -0.1301
  177SLPC    C120065   6.665   4.013   6.474  0.2944 -0.2820 -0.0214
  177SLPC    HA20066   6.554   4.007   6.472  0.3215 -0.5940 -0.9607
  177SLPC    HB20067   6.701   4.106   6.425  1.4683 -0.4995  0.4003
  177SLPC    C220068   6.713   3.887   6.401  0.2730  0.8833  0.8660
  177SLPC    HS20069   6.691   3.798   6.464 -0.4492  0.5840  0.2102
  177SLPC   O2120070   6.852   3.903   6.372  0.0062 -0.2436  0.0528
  177SLPC   C2120071   6.940   3.868   6.466  0.0515  0.5474  0.0185
  177SLPC   O2220072   6.913   3.815   6.573 -0.1639  0.4782  0.0824
  177SLPC   C2220073   7.080   3.914   6.427 -0.8718  0.1617  0.8635
  177SLPC   H2R20074   7.111   4.007   6.480  3.4381 -0.0190 -0.9260
  177SLPC   H2S20075   7.155   3.846   6.473  0.6965  0.2879 -1.3649
  177SLPC    C320076   6.641   3.857   6.273  0.0876  0.0165  0.1255
  177SLPC    HX20077   6.680   3.763   6.228 -0.1464 -0.2408  0.4493
  177SLPC    HY20078   6.669   3.938   6.203  1.3620 -0.6653 -0.1718
  177SLPC   O3120079   6.492   3.865   6.286  0.0440 -0.1220 -0.3882
  177SLPC   C3120080   6.440   3.757   6.333 -0.0258  0.1904  0.7925
  177SLPC   O3220081   6.498   3.651   6.352 -0.2027 -0.1109  0.2499
  177SLPC   C3220082   6.285   3.784   6.341  0.6404  0.1774  0.8557
  177SLPC   H2X20083   6.254   3.848   6.256  3.1037  0.0022 -0.2726
  177SLPC   H2Y20084   6.266   3.830   6.441 -0.0099 -0.0619  0.8451
  177SLPC   C2320085   7.103   3.942   6.277  0.2644 -0.0933 -0.1617
  177SLPC   H3R20086   7.204   3.987   6.264  0.1011  0.4121  0.2654
  177SLPC   H3S20087   7.034   4.021   6.240  0.0010  0.4334  1.3888
  177SLPC   C2420088   7.096   3.822   6.180  0.1394  0.0403  0.0705
  177SLPC   H4R20089   7.009   3.756   6.204  3.2384 -3.3365  3.1624
  177SLPC   H4S20090   7.180   3.750   6.173 -0.9802 -1.2305 -1.0887
  177SLPC   C2520091   7.077   3.876   6.035  0.1869  0.1867  0.5909
  177SLPC   H5R20092   7.171   3.926   6.004 -0.4733  0.3876 -1.1990
  177SLPC   H5S20093   7.002   3.958   6.028 -1.7991 -1.5221  1.0656
  177SLPC   C2620094   7.060   3.777   5.921  0.3597  0.0990  0.4361
  177SLPC   H6R20095   6.959   3.735   5.933 -0.8390  2.6407 -0.0133
  177SLPC   H6S20096   7.131   3.692   5.931 -1.8876 -2.1821 -1.6150
  177SLPC   C2720097   7.073   3.835   5.776  0.1786 -0.0606  0.2209
  177SLPC   H7R20098   7.067   3.747   5.707 -0.9334  0.1665  0.0165
  177SLPC   H7S20099   7.175   3.878   5.764  1.6537 -3.5045 -1.0797
  177SLPC   C2820100   6.954   3.927   5.742 -0.4162 -0.0728  0.2081
  177SLPC   H8R20101   6.954   4.025   5.794 -0.9237 -0.3148  0.6894
  177SLPC   H8S20102   6.858   3.885   5.781  0.5529  0.4498  3.4540
  177SLPC   C2920103   6.960   3.957   5.597 -1.0104 -0.1018  0.3027
  177SLPC   H9R20104   6.986   4.062   5.574 -0.4760 -0.6232 -1.7300
  177SLPC  C21020105   6.925   3.877   5.499  0.0025  0.5570  0.0075
  177SLPC  H10R20106   6.944   3.905   5.395  1.5972  2.0201  0.6331
  177SLPC  C21120107   6.884   3.733   5.512 -0.4099 -0.6607 -0.3213
  177SLPC  H11R20108   6.794   3.715   5.450 -0.5170  0.6413 -0.5824
  177SLPC  H11S20109   6.847   3.717   5.615  2.4132 -0.7562  0.7598
  177SLPC  C21220110   6.990   3.626   5.479  0.1634  0.3439 -0.4750
  177SLPC  H12R20111   7.016   3.570   5.570  1.6469  1.0689 -0.4213
  177SLPC  C21320112   7.048   3.601   5.355  0.1723 -0.4922 -0.4907
  177SLPC  H13R20113   7.122   3.520   5.342  1.0880  0.4225 -1.1493
  177SLPC  C21420114   7.010   3.685   5.232  0.1453  0.0861  0.4065
  177SLPC  H14R20115   7.078   3.678   5.145  1.5181  0.8584  1.3726
  177SLPC  H14S20116   7.025   3.793   5.253  1.3265 -0.3722  2.1402
  177SLPC  C21520117   6.867   3.666   5.167 -1.2038 -0.0338 -0.5265
  177SLPC  H15R20118   6.862   3.731   5.078  1.8624  3.1279  1.3607
  177SLPC  H15S20119   6.786   3.699   5.236 -2.1106  1.4496 -2.2473
  177SLPC  C21620120   6.851   3.526   5.113 -0.5906  0.3586  0.7772
  177SLPC  H16R20121   6.844   3.457   5.200 -0.1977 -0.0196  0.5128
  177SLPC  H16S20122   6.946   3.491   5.067 -1.7481 -2.7224  0.5012
  177SLPC  C21720123   6.733   3.496   5.022 -0.1651 -0.1827 -0.6191
  177SLPC  H17R20124   6.724   3.576   4.945 -1.4663  0.3387  0.0367
  177SLPC  H17S20125   6.637   3.507   5.076  0.7626 -3.1665  1.9143
  177SLPC  C21820126   6.747   3.361   4.948  0.5557  0.4104  0.0362
  177SLPC  H18R20127   6.679   3.342   4.863  0.7179 -0.0683  0.0127
  177SLPC  H18S20128   6.736   3.278   5.022 -2.0591  0.6673  0.0455
  177SLPC  H18T20129   6.843   3.367   4.893 -0.0076 -1.7109 -1.2954
  177SLPC   C3320130   6.196   3.660   6.334 -0.2589 -0.0074  0.3211
  177SLPC   H3X20131   6.090   3.692   6.324  0.2989  1.3580 -1.8169
  177SLPC   H3Y20132   6.229   3.597   6.420  0.3513  1.8980  1.5331
  177SLPC   C3420133   6.239   3.565   6.215  0.4504  0.1397  0.5740
  177SLPC   H4X20134   6.160   3.486   6.210  0.0346  0.2005  4.1287
  177SLPC   H4Y20135   6.342   3.528   6.237  1.0558  2.0193  1.0101
  177SLPC   C3520136   6.239   3.635   6.074  0.2116 -0.9294 -0.1766
  177SLPC   H5X20137   6.251   3.556   5.996  0.6872 -0.4530 -0.5876
  177SLPC   H5Y20138   6.322   3.708   6.072  0.8041 -1.3798  2.8785
  177SLPC   C3620139   6.098   3.708   6.046 -0.1986  0.1404 -0.3237
  177SLPC   H6X20140   6.069   3.770   6.133 -2.9317 -0.9942 -0.3260
  177SLPC   H6Y20141   6.017   3.632   6.046 -0.1304  0.0451  1.4860
  177SLPC   C3720142   6.080   3.787   5.910 -0.3924  0.0445  0.1960
  177SLPC   H7X20143   6.139   3.880   5.913 -0.6756  0.2200  0.4232
  177SLPC   H7Y20144   5.973   3.818   5.918 -0.0371  0.7697  3.8874
  177SLPC   C3820145   6.110   3.707   5.777  0.0304  0.0860  0.2657
  177SLPC   H8X20146   6.044   3.618   5.775 -0.4606  0.4331  0.8487
  177SLPC   H8Y20147   6.220   3.690   5.777 -0.1267 -1.1170 -0.8152
  177SLPC   C3920148   6.077   3.797   5.651 -0.1520 -0.1492  0.6203
  177SLPC   H9X20149   6.128   3.895   5.666  1.3729 -0.8922  0.4223
  177SLPC   H9Y20150   5.969   3.825   5.641  0.1029  0.9347  0.7052
  177SLPC  C31020151   6.149   3.758   5.518  0.0936  0.2801 -0.2181
  177SLPC  H10X20152   6.259   3.772   5.524  0.2491 -1.2673  0.9102
  177SLPC  H10Y20153   6.110   3.836   5.448  0.3902  0.8282  0.2185
  177SLPC  C31120154   6.100   3.630   5.454  0.4149  0.7946 -0.7183
  177SLPC  H11X20155   5.991   3.643   5.441  0.1868  1.1242  1.2883
  177SLPC  H11Y20156   6.110   3.544   5.523  0.4299 -0.1912 -1.9118
  177SLPC  C31220157   6.179   3.590   5.338 -0.9896 -0.1331 -0.5698
  177SLPC  H12X20158   6.263   3.525   5.371  1.2541  1.8868 -2.0727
  177SLPC  H12Y20159   6.231   3.677   5.295  1.7165 -1.0303  0.6799
  177SLPC  C31320160   6.093   3.511   5.241  0.3881  0.2066 -0.3036
  177SLPC  H13X20161   6.036   3.580   5.174 -1.6597 -1.3369 -0.2667
  177SLPC  H13Y20162   6.021   3.444   5.293  0.7978  1.1748  1.5948
  177SLPC  C31420163   6.178   3.430   5.149  0.3828 -0.2970  0.2829
  177SLPC  H14X20164   6.215   3.336   5.196  2.3566  1.2144  1.9174
  177SLPC  H14Y20165   6.269   3.492   5.135 -0.4511  0.6051 -1.3766
  177SLPC  C31520166   6.123   3.407   5.010 -0.1688  0.1270 -0.0516
  177SLPC  H15X20167   6.200   3.357   4.947 -2.6993 -3.7648 -0.4324
  177SLPC  H15Y20168   6.102   3.508   4.968  1.5717 -0.4151 -2.4957
  177SLPC  C31620169   5.990   3.322   5.010 -0.3688 -0.0504 -0.3428
  177SLPC  H16X20170   5.909   3.373   5.067  1.9999 -0.0005  3.3125
  177SLPC  H16Y20171   6.002   3.224   5.060 -1.0710  0.6348  1.2539
  177SLPC  C31720172   5.948   3.299   4.863 -0.3093 -0.7760 -0.7992
  177SLPC  H17X20173   6.025   3.232   4.817 -0.0362 -0.9411 -0.1152
  177SLPC  H17Y20174   5.937   3.402   4.825 -1.5146 -0.1233  1.2256
  177SLPC  C31820175   5.805   3.241   4.839 -0.6687 -0.0541  0.1381
  177SLPC  H18X20176   5.727   3.308   4.880 -2.0870 -1.1497 -0.6530
  177SLPC  H18Y20177   5.801   3.139   4.885 -2.8317 -0.0610  0.0684
  177SLPC  H18Z20178   5.797   3.233   4.729  0.9211 -2.0854  0.1154
  178SLPC     N20179   4.619   1.367   6.962 -0.1660  0.3192  0.2880
  178SLPC   C1320180   4.749   1.436   6.957  0.0776 -0.0624  0.0633
  178SLPC  H13A20181   4.738   1.527   7.013  0.3452  0.9605 -1.5021
  178SLPC  H13B20182   4.829   1.381   7.004  0.8759  0.7326 -0.3547
  178SLPC  H13C20183   4.772   1.444   6.852 -1.6675 -0.4364 -0.3892
  178SLPC   C1420184   4.552   1.398   7.088  0.1210 -0.4999 -0.7093
  178SLPC  H14A20185   4.599   1.347   7.171  1.5535  0.2643 -1.0167
  178SLPC  H14B20186   4.560   1.505   7.102  0.9187 -0.4574 -1.4059
  178SLPC  H14C20187   4.445   1.382   7.088 -0.1571  1.2094 -0.4819
  178SLPC   C1520188   4.646   1.217   6.953 -0.4913  0.0609 -0.0252
  178SLPC  H15A20189   4.550   1.168   6.959 -0.7957  0.5152 -0.9826
  178SLPC  H15B20190   4.693   1.198   6.858  2.3103  1.6444  0.9106
  178SLPC  H15C20191   4.715   1.170   7.022 -0.9589 -1.1230 -0.3350
  178SLPC   C1220192   4.526   1.409   6.845 -0.1607 -0.4572  0.2606
  178SLPC  H12A20193   4.484   1.508   6.854 -3.5869 -1.6719 -0.7468
  178SLPC  H12B20194   4.437   1.348   6.852 -1.2165  1.0252  0.2487
  178SLPC   C1120195   4.573   1.383   6.700  0.4726  0.2623 -0.2539
  178SLPC  H11A20196   4.682   1.403   6.689  0.1837  1.4169 -1.2137
  178SLPC  H11B20197   4.520   1.440   6.621  0.2910  0.0914 -0.2574
  178SLPC     P20198   4.426   1.188   6.628 -0.4455  0.2350 -0.2076
  178SLPC   O1320199   4.411   1.053   6.682  0.7697 -0.3715 -0.3252
  178SLPC   O1420200   4.318   1.280   6.672 -0.0449  0.4236  0.0699
  178SLPC   O1220201   4.564   1.244   6.668 -0.5079  0.1601  0.0068
  178SLPC   O1120202   4.430   1.194   6.469  0.1067  0.7176 -0.7305
  178SLPC    C120203   4.546   1.208   6.397 -0.4763  0.2718  0.1571
  178SLPC    HA20204   4.547   1.297   6.330 -0.5024  0.9247  1.0130
  178SLPC    HB20205   4.641   1.211   6.455 -0.8099 -0.3285  0.7412
  178SLPC    C220206   4.558   1.081   6.299 -0.1299 -0.3282 -0.1512
  178SLPC    HS20207   4.650   1.090   6.237 -0.4814 -2.2452 -1.0306
  178SLPC   O2120208   4.435   1.079   6.224 -0.3202 -0.1703  0.1193
  178SLPC   C2120209   4.437   1.021   6.116  0.2972 -0.5150  0.4008
  178SLPC   O2220210   4.534   0.976   6.058  0.1880 -0.6338 -0.4774
  178SLPC   C2220211   4.293   1.015   6.062 -0.1974 -0.4840  0.8207
  178SLPC   H2R20212   4.233   0.937   6.113 -1.4863 -0.4119 -0.5290
  178SLPC   H2S20213   4.243   1.113   6.073 -0.3702 -0.7637  2.9538
  178SLPC    C320214   4.572   0.953   6.383 -0.4269  0.0035  0.0760
  178SLPC    HX20215   4.467   0.928   6.411 -0.8267  0.0024 -1.3420
  178SLPC    HY20216   4.628   0.977   6.476 -0.3768 -1.5509  0.4878
  178SLPC   O3120217   4.619   0.841   6.308  0.0513 -0.3361  0.0941
  178SLPC   C3120218   4.754   0.847   6.285  0.4830 -0.4990 -0.6787
  178SLPC   O3220219   4.829   0.921   6.346 -0.3138 -0.2847 -0.5489
  178SLPC   C3220220   4.784   0.730   6.190 -0.3881  0.6114 -0.8735
  178SLPC   H2X20221   4.750   0.767   6.091 -2.4129 -1.4014 -1.0033
  178SLPC   H2Y20222   4.727   0.641   6.222 -0.9843  0.8054 -1.3864
  178SLPC   C2320223   4.288   0.974   5.912 -0.9859  0.4833  0.1114
  178SLPC   H3R20224   4.184   0.957   5.875 -1.9730 -0.0748  2.8727
  178SLPC   H3S20225   4.326   0.871   5.894  0.9191  0.8655  1.6482
  178SLPC   C2420226   4.355   1.077   5.818  0.1111 -0.1348 -0.6344
  178SLPC   H4R20227   4.449   1.110   5.867 -0.4004 -2.2968  1.9902
  178SLPC   H4S20228   4.286   1.163   5.802 -1.8318 -1.0453  2.0853
  178SLPC   C2520229   4.397   1.014   5.687  0.3095  0.4713 -0.3128
  178SLPC   H5R20230   4.315   0.949   5.652 -0.0973 -0.1800  1.7331
  178SLPC   H5S20231   4.491   0.958   5.709  0.2753 -0.4241 -2.2397
  178SLPC   C2620232   4.443   1.120   5.581  0.0837 -0.8069  0.5782
  178SLPC   H6R20233   4.535   1.173   5.616 -0.1048  0.4760 -0.7596
  178SLPC   H6S20234   4.360   1.193   5.583  0.8718  0.1101  0.6767
  178SLPC   C2720235   4.452   1.079   5.439 -0.2034 -0.6055  0.4611
  178SLPC   H7R20236   4.359   1.054   5.385  0.8968  0.7283 -2.2398
  178SLPC   H7S20237   4.498   0.979   5.449 -1.0666 -1.3828 -2.4625
  178SLPC   C2820238   4.534   1.154   5.344  0.7362 -0.6154  0.7876
  178SLPC   H8R20239   4.542   1.101   5.247  3.9340 -1.2927  1.3112
  178SLPC   H8S20240   4.637   1.168   5.384  1.1077  1.6663 -0.7841
  178SLPC   C2920241   4.480   1.295   5.309 -0.8059 -0.0978 -1.0590
  178SLPC   H9R20242   4.487   1.369   5.391 -1.2416 -0.1778 -0.9465
  178SLPC  C21020243   4.408   1.316   5.201  0.2449 -0.3132  0.2265
  178SLPC  H10R20244   4.371   1.418   5.184 -0.7862 -0.8324 -0.7068
  178SLPC  C21120245   4.377   1.216   5.094  0.5035  0.4235 -0.6813
  178SLPC  H11R20246   4.370   1.117   5.144 -4.1685  0.0653 -1.5831
  178SLPC  H11S20247   4.450   1.206   5.011 -0.2239 -1.6792 -1.1415
  178SLPC  C21220248   4.239   1.241   5.044  0.2616 -0.6175  0.1394
  178SLPC  H12R20249   4.162   1.244   5.123  0.9577  0.8419  0.8120
  178SLPC  C21320250   4.194   1.248   4.916  0.6919  0.1935  0.5658
  178SLPC  H13R20251   4.090   1.276   4.896  0.9489  0.9963  0.3110
  178SLPC  C21420252   4.271   1.238   4.786  0.6018  0.2402  0.0258
  178SLPC  H14R20253   4.249   1.148   4.725  2.0250  0.0569 -0.2548
  178SLPC  H14S20254   4.381   1.242   4.797  0.4606  1.3081  1.4629
  178SLPC  C21520255   4.227   1.365   4.709 -0.0526  0.4125  1.0128
  178SLPC  H15R20256   4.219   1.450   4.780 -0.8998  0.5584  0.7599
  178SLPC  H15S20257   4.128   1.362   4.657  0.7065 -1.1773 -0.4333
  178SLPC  C21620258   4.327   1.415   4.600  0.7806  0.2464 -0.0171
  178SLPC  H16R20259   4.355   1.336   4.528 -0.5602 -0.0649 -0.2324
  178SLPC  H16S20260   4.415   1.451   4.658  1.2238  0.9860 -1.1349
  178SLPC  C21720261   4.260   1.523   4.512 -0.4979 -0.3740  0.7797
  178SLPC  H17R20262   4.158   1.494   4.478  0.3321 -1.2897 -1.0830
  178SLPC  H17S20263   4.325   1.520   4.422 -1.0256  3.9618  0.0403
  178SLPC  C21820264   4.273   1.666   4.573  0.2668  0.1121  0.4932
  178SLPC  H18R20265   4.189   1.677   4.644  0.3871  2.2326  0.3627
  178SLPC  H18S20266   4.268   1.736   4.487 -2.2367 -0.9828 -0.3259
  178SLPC  H18T20267   4.372   1.679   4.622  0.6295  2.6075 -0.7429
  178SLPC   C3320268   4.933   0.678   6.197 -0.3600 -0.4469  0.0343
  178SLPC   H3X20269   4.955   0.636   6.298 -1.7640  3.5144  2.2542
  178SLPC   H3Y20270   5.002   0.765   6.184 -1.7901  1.0569  1.8460
  178SLPC   C3420271   4.965   0.572   6.089  0.0295 -0.7462 -0.6200
  178SLPC   H4X20272   4.893   0.490   6.113 -0.8654  0.2358  0.1319
  178SLPC   H4Y20273   5.072   0.544   6.088  0.2425  0.0738 -1.3777
  178SLPC   C3520274   4.931   0.630   5.948  0.4232  0.1929  0.2086
  178SLPC   H5X20275   4.999   0.715   5.927  0.4498  0.6375  1.9091
  178SLPC   H5Y20276   4.830   0.675   5.932  0.8395  1.5710  1.2008
  178SLPC   C3620277   4.934   0.525   5.831  0.2871  0.0203 -0.0380
  178SLPC   H6X20278   4.883   0.570   5.743 -1.0348 -0.0340  0.6703
  178SLPC   H6Y20279   4.887   0.429   5.860 -3.1468  1.5368 -0.0618
  178SLPC   C3720280   5.074   0.486   5.796  0.5251  0.1945  0.7365
  178SLPC   H7X20281   5.119   0.445   5.889  2.4455  2.3963  0.8642
  178SLPC   H7Y20282   5.139   0.573   5.772 -1.6770  1.2723 -1.7799
  178SLPC   C3820283   5.086   0.387   5.676  0.1064 -0.0560  0.1565
  178SLPC   H8X20284   5.021   0.297   5.682 -0.4238  0.3628  0.7301
  178SLPC   H8Y20285   5.190   0.348   5.678  0.2579  0.2866 -0.6000
  178SLPC   C3920286   5.063   0.464   5.546 -0.1914 -0.1677  0.0601
  178SLPC   H9X20287   5.126   0.554   5.560 -0.0726 -0.5608  2.5453
  178SLPC   H9Y20288   4.954   0.484   5.534 -0.1362 -0.4499 -0.9861
  178SLPC  C31020289   5.117   0.396   5.419 -0.5609 -0.7257  0.2186
  178SLPC  H10X20290   5.067   0.297   5.409 -2.2182 -0.0521  1.3249
  178SLPC  H10Y20291   5.227   0.389   5.421 -0.5576 -0.5423  1.8030
  178SLPC  C31120292   5.085   0.472   5.292  0.3061  0.6161 -0.0654
  178SLPC  H11X20293   5.146   0.437   5.206  0.3446  3.5434 -1.3605
  178SLPC  H11Y20294   5.099   0.581   5.306  1.0183  0.4782  0.3751
  178SLPC  C31220295   4.938   0.444   5.245  0.3592  0.3435  0.7564
  178SLPC  H12X20296   4.925   0.516   5.161 -0.5373  0.7722  1.2472
  178SLPC  H12Y20297   4.870   0.477   5.327  0.0792 -1.2797  1.2228
  178SLPC  C31320298   4.913   0.309   5.176  0.9684  0.0561 -0.3498
  178SLPC  H13X20299   4.914   0.221   5.244  1.0102 -1.3448 -2.0816
  178SLPC  H13Y20300   4.998   0.288   5.108  0.2000  1.4044 -1.7910
  178SLPC  C31420301   4.774   0.320   5.104  0.6925  0.6779  0.0633
  178SLPC  H14X20302   4.778   0.401   5.028 -0.9917 -1.7884 -2.8641
  178SLPC  H14Y20303   4.697   0.340   5.182  0.0609 -3.2924  0.6425
  178SLPC  C31520304   4.722   0.185   5.046 -0.1516  0.3071 -0.1489
  178SLPC  H15X20305   4.732   0.096   5.112 -2.9348 -1.0899 -1.4405
  178SLPC  H15Y20306   4.767   0.165   4.947 -1.6808 -0.5657 -0.7044
  178SLPC  C31620307   4.573   0.197   5.011 -0.1793  0.2105 -0.3004
  178SLPC  H16X20308   4.508   0.212   5.100 -0.2490 -0.7359 -0.1876
  178SLPC  H16Y20309   4.546   0.096   4.975  1.9920 -0.6145  0.2713
  178SLPC  C31720310   4.547   0.301   4.905  0.3726  0.3332 -0.4367
  178SLPC  H17X20311   4.617   0.286   4.821  0.7456 -0.5817  0.0249
  178SLPC  H17Y20312   4.551   0.406   4.940 -1.2091  1.3978 -3.1659
  178SLPC  C31820313   4.402   0.280   4.848  0.2690  0.1349  1.1646
  178SLPC  H18X20314   4.322   0.268   4.924 -2.2751 -1.2056 -1.5426
  178SLPC  H18Y20315   4.385   0.194   4.780 -2.0167  1.1173  0.4014
  178SLPC  H18Z20316   4.369   0.371   4.795 -1.6045 -0.6303  0.9392
  179SLPC     N20317   0.078   1.718   2.609  0.0964  0.2661 -0.4956
  179SLPC   C1320318   0.217   1.751   2.665  0.4000 -0.2007  0.3643
  179SLPC  H13A20319   0.232   1.854   2.695  1.0544  0.0037 -0.5973
  179SLPC  H13B20320   0.229   1.689   2.752 -1.3653 -0.7841  0.2427
  179SLPC  H13C20321   0.293   1.725   2.593  1.8586  1.5390  1.1833
  179SLPC   C1420322   0.059   1.802   2.483  0.0966 -0.1722 -0.0668
  179SLPC  H14A20323   0.051   1.907   2.510  0.0931 -0.0985 -0.3512
  179SLPC  H14B20324   0.150   1.782   2.428  0.7783  0.5314  0.7629
  179SLPC  H14C20325  -0.029   1.776   2.427  1.1755  0.9609 -2.4407
  179SLPC   C1520326  -0.026   1.749   2.713  0.2072 -0.7121 -0.0630
  179SLPC  H15A20327  -0.003   1.685   2.797  4.3875  0.0480 -0.4190
  179SLPC  H15B20328  -0.009   1.849   2.751  1.9137 -0.2559 -1.8516
  179SLPC  H15C20329  -0.129   1.745   2.680  0.4373  2.0131 -1.4439
  179SLPC   C1220330   0.070   1.570   2.568  0.0005 -0.8889 -0.4075
  179SLPC  H12A20331   0.131   1.564   2.480  0.8243  0.4628  0.0370
  179SLPC  H12B20332  -0.033   1.558   2.540  0.1110  0.4948 -1.5009
  179SLPC   C1120333   0.108   1.453   2.665 -1.0501 -0.9357  0.3968
  179SLPC  H11A20334   0.078   1.366   2.604  1.7152 -0.7069 -1.4441
  179SLPC  H11B20335   0.041   1.466   2.754  1.0773 -0.4828  2.0117
  179SLPC     P20336   0.354   1.401   2.605 -0.0779 -0.3197 -0.7603
  179SLPC   O1320337   0.289   1.323   2.498 -0.1319  0.0861 -0.5719
  179SLPC   O1420338   0.448   1.505   2.557 -0.0546  0.8158 -0.1687
  179SLPC   O1220339   0.246   1.451   2.699 -0.0147 -0.2950 -0.1508
  179SLPC   O1120340   0.436   1.297   2.702 -0.8883 -0.7732  0.3348
  179SLPC    C120341   0.407   1.302   2.847  0.5727 -0.1758  1.0544
  179SLPC    HA20342   0.299   1.299   2.874  0.4264  1.6408  0.7832
  179SLPC    HB20343   0.457   1.208   2.878 -0.7007 -3.1785 -4.5260
  179SLPC    C220344   0.463   1.431   2.921 -1.1080 -0.3921 -0.1760
  179SLPC    HS20345   0.394   1.508   2.880 -1.3761 -0.6589 -0.2297
  179SLPC   O2120346   0.600   1.459   2.875  0.6686  0.9317 -0.1643
  179SLPC   C2120347   0.640   1.585   2.878  0.1297  0.6858  0.2756
  179SLPC   O2220348   0.568   1.678   2.907  0.7728  0.4386  0.1573
  179SLPC   C2220349   0.783   1.586   2.815  0.4688  0.0037  0.4242
  179SLPC   H2R20350   0.805   1.491   2.762  1.0890  0.2212  0.2816
  179SLPC   H2S20351   0.792   1.667   2.741 -1.1747  0.6439  0.8882
  179SLPC    C320352   0.457   1.413   3.078 -0.8971 -0.2840 -0.3137
  179SLPC    HX20353   0.532   1.334   3.101  0.8033  1.0236 -1.1772
  179SLPC    HY20354   0.360   1.375   3.115 -0.9309  1.1104  1.1218
  179SLPC   O3120355   0.509   1.530   3.152  1.0394  0.1903 -0.1584
  179SLPC   C3120356   0.415   1.614   3.181 -0.1195 -0.0024  0.3535
  179SLPC   O3220357   0.298   1.600   3.176 -0.1209  0.3672 -0.0906
  179SLPC   C3220358   0.493   1.746   3.226 -0.0744 -0.3600  0.1266
  179SLPC   H2X20359   0.560   1.771   3.141  1.7815 -1.7032  1.1085
  179SLPC   H2Y20360   0.559   1.734   3.315  2.6466  4.7112 -0.8078
  179SLPC   C2320361   0.898   1.608   2.929 -0.3413 -0.1262  0.1564
  179SLPC   H3R20362   0.976   1.664   2.874  2.0228 -1.0254  2.3908
  179SLPC   H3S20363   0.937   1.508   2.957 -0.3407 -0.5715 -1.3687
  179SLPC   C2420364   0.846   1.689   3.051 -0.4759  0.1296 -0.1208
  179SLPC   H4R20365   0.771   1.623   3.100 -1.4180  0.8059 -0.6214
  179SLPC   H4S20366   0.800   1.784   3.020 -0.5055  1.0364  2.4292
  179SLPC   C2520367   0.949   1.728   3.164  0.4016  0.4876 -0.4862
  179SLPC   H5R20368   1.026   1.794   3.117  2.2953 -0.5248  1.0402
  179SLPC   H5S20369   1.012   1.646   3.205  0.4558 -0.0126 -1.5388
  179SLPC   C2620370   0.876   1.793   3.283  0.0282  0.2155 -0.4752
  179SLPC   H6R20371   0.799   1.719   3.312  0.9271 -0.7355 -0.4512
  179SLPC   H6S20372   0.810   1.877   3.252 -1.1076 -0.5722 -0.2247
  179SLPC   C2720373   0.966   1.829   3.399  0.4577  0.3840 -0.6942
  179SLPC   H7R20374   1.011   1.928   3.378 -0.3928  1.1124  0.7683
  179SLPC   H7S20375   1.051   1.759   3.416  1.3467  2.2530  4.5095
  179SLPC   C2820376   0.884   1.831   3.531 -0.2104 -0.0923  0.5798
  179SLPC   H8R20377   0.839   1.729   3.527 -3.2645  1.1562 -1.7890
  179SLPC   H8S20378   0.800   1.902   3.513 -0.0777  0.1075  0.7536
  179SLPC   C2920379   0.959   1.865   3.657 -0.2632 -0.1582  0.0985
  179SLPC   H9R20380   1.030   1.948   3.648  0.4121 -0.0444  4.3710
  179SLPC  C21020381   0.924   1.821   3.785 -0.5042  0.3511  0.6679
  179SLPC  H10R20382   0.987   1.847   3.871  2.1354 -3.8438  0.3168
  179SLPC  C21120383   0.831   1.712   3.837  0.1193  0.1258  0.1589
  179SLPC  H11R20384   0.844   1.685   3.945 -0.7732 -0.8083  0.0489
  179SLPC  H11S20385   0.847   1.620   3.776  0.3773 -0.2802  0.8210
  179SLPC  C21220386   0.686   1.751   3.848 -0.6892  0.3833 -0.3103
  179SLPC  H12R20387   0.677   1.856   3.882 -0.8577 -0.5104  2.6856
  179SLPC  C21320388   0.578   1.684   3.805 -0.5609 -0.3108  0.2621
  179SLPC  H13R20389   0.477   1.724   3.821 -0.1296  0.3098  1.5046
  179SLPC  C21420390   0.570   1.559   3.729 -0.2928 -0.0381 -0.8041
  179SLPC  H14R20391   0.577   1.483   3.810  2.6686  0.7212 -0.2381
  179SLPC  H14S20392   0.663   1.554   3.669  0.0629 -1.4404 -0.1864
  179SLPC  C21520393   0.451   1.533   3.634  0.2746  0.2380  0.0764
  179SLPC  H15R20394   0.455   1.611   3.554 -0.6738 -1.8529 -2.1158
  179SLPC  H15S20395   0.354   1.551   3.685  1.1090 -1.4369  2.3986
  179SLPC  C21620396   0.464   1.393   3.577  0.2292  0.1936 -0.0003
  179SLPC  H16R20397   0.482   1.315   3.654 -1.2436 -1.2564 -1.0464
  179SLPC  H16S20398   0.556   1.397   3.515 -0.0446  1.6480 -0.3514
  179SLPC  C21720399   0.357   1.363   3.471  0.4868  0.3176 -0.2315
  179SLPC  H17R20400   0.332   1.459   3.422 -0.4577 -0.4061 -1.2086
  179SLPC  H17S20401   0.262   1.321   3.510 -0.2005  0.1520 -1.9946
  179SLPC  C21820402   0.410   1.271   3.370 -0.1468 -0.2448  0.5272
  179SLPC  H18R20403   0.452   1.174   3.402  0.5022 -1.0065 -2.4194
  179SLPC  H18S20404   0.486   1.323   3.309 -1.0814  1.3041  0.6037
  179SLPC  H18T20405   0.335   1.261   3.288  1.3455 -1.1226 -0.7706
  179SLPC   C3320406   0.404   1.875   3.239 -0.7131 -0.2086 -0.2250
  179SLPC   H3X20407   0.316   1.871   3.171  1.3268 -2.7097 -2.9591
  179SLPC   H3Y20408   0.456   1.973   3.228  0.4489 -0.6771  0.8102
  179SLPC   C3420409   0.342   1.887   3.380 -0.8265  0.1949 -0.1225
  179SLPC   H4X20410   0.322   1.792   3.433  1.1820 -0.9958 -1.3428
  179SLPC   H4Y20411   0.248   1.945   3.371 -0.9845 -0.0180  0.1685
  179SLPC   C3520412   0.417   1.973   3.486 -0.5233  0.2372 -1.0391
  179SLPC   H5X20413   0.520   1.935   3.498 -1.1988 -1.3450  0.1549
  179SLPC   H5Y20414   0.434   2.066   3.428  2.2857 -1.0611 -2.4780
  179SLPC   C3620415   0.345   1.984   3.626 -0.2215  0.0666  0.0146
  179SLPC   H6X20416   0.307   1.888   3.666  0.5785  0.3780  1.5692
  179SLPC   H6Y20417   0.253   2.045   3.612  1.4643  2.7281 -0.0312
  179SLPC   C3720418   0.429   2.039   3.743 -0.1462  0.1821  0.6745
  179SLPC   H7X20419   0.469   2.141   3.721  0.2692 -0.5537 -2.3865
  179SLPC   H7Y20420   0.516   1.971   3.739  2.0973  2.8556  0.8296
  179SLPC   C3820421   0.363   2.033   3.878 -0.3159 -0.0017 -0.1110
  179SLPC   H8X20422   0.333   1.929   3.906  0.0113  0.3208  1.5560
  179SLPC   H8Y20423   0.271   2.095   3.876  1.3864  2.6416 -0.3216
  179SLPC   C3920424   0.452   2.082   3.996  0.5650 -0.1790 -0.2336
  179SLPC   H9X20425   0.470   2.191   4.000 -1.2124  0.0984  1.4501
  179SLPC   H9Y20426   0.553   2.036   3.988  0.2889 -1.0064  0.7582
  179SLPC  C31020427   0.394   2.038   4.129  0.1097 -0.4161  0.3514
  179SLPC  H10X20428   0.384   1.928   4.145 -0.2229 -0.3300  0.7423
  179SLPC  H10Y20429   0.297   2.091   4.120  0.5149  0.0756 -1.7569
  179SLPC  C31120430   0.472   2.084   4.254  0.3255  0.3530  0.5668
  179SLPC  H11X20431   0.489   2.187   4.214  1.6937  0.2096  0.7141
  179SLPC  H11Y20432   0.567   2.033   4.280 -1.4541 -2.0267  2.9129
  179SLPC  C31220433   0.389   2.086   4.377 -0.4174 -0.5941 -1.0363
  179SLPC  H12X20434   0.453   2.108   4.466 -0.9379 -0.5639 -0.6608
  179SLPC  H12Y20435   0.345   1.985   4.390 -1.6049 -0.3902 -3.0626
  179SLPC  C31320436   0.274   2.190   4.388 -0.0983 -0.1075  0.8265
  179SLPC  H13X20437   0.215   2.171   4.296 -2.1081 -0.8689  2.1837
  179SLPC  H13Y20438   0.321   2.290   4.384 -0.6993  0.1581  0.2652
  179SLPC  C31420439   0.186   2.179   4.511 -0.6823 -0.2284  0.1167
  179SLPC  H14X20440   0.111   2.260   4.501 -1.0566 -0.2427  2.3911
  179SLPC  H14Y20441   0.255   2.191   4.597 -0.2431 -1.4296 -0.0425
  179SLPC  C31520442   0.107   2.058   4.521  0.5907  0.4887  1.0345
  179SLPC  H15X20443   0.178   1.973   4.535  1.3393  0.7211 -1.0364
  179SLPC  H15Y20444   0.058   2.024   4.427  0.3070 -2.5089  2.1321
  179SLPC  C31620445  -0.010   2.065   4.621  0.5547 -0.4374  0.0296
  179SLPC  H16X20446   0.021   2.097   4.723  2.5703 -1.4694 -0.2075
  179SLPC  H16Y20447  -0.030   1.959   4.648 -0.9973  0.0204  0.7697
  179SLPC  C31720448  -0.132   2.137   4.569 -0.6258  0.2107 -0.3105
  179SLPC  H17X20449  -0.158   2.085   4.474 -1.3086 -0.1529  0.0644
  179SLPC  H17Y20450  -0.099   2.240   4.543  0.9330 -0.9559 -3.5050
  179SLPC  C31820451  -0.251   2.132   4.668  0.0427  0.7020 -0.8234
  179SLPC  H18X20452  -0.347   2.174   4.630 -0.9060 -0.9604 -0.3564
  179SLPC  H18Y20453  -0.225   2.189   4.760 -3.5129 -1.5075  1.8357
  179SLPC  H18Z20454  -0.277   2.024   4.677  1.9677  0.1925 -1.0153
  180SLPC     N20455   6.275   1.110   2.547 -0.1740 -0.5296 -0.0976
  180SLPC   C1320456   6.289   1.035   2.672 -0.3485  0.2387 -0.1558
  180SLPC  H13A20457   6.369   0.965   2.658  2.0171  2.7563 -0.2140
  180SLPC  H13B20458   6.324   1.103   2.748 -1.0154 -0.9608  1.2742
  180SLPC  H13C20459   6.196   0.990   2.705  1.2929 -2.5092  1.0685
  180SLPC   C1420460   6.215   1.019   2.449  0.4296 -0.2990 -0.0860
  180SLPC  H14A20461   6.232   1.064   2.352 -3.1803  1.7198  0.0208
  180SLPC  H14B20462   6.264   0.923   2.453  0.2373 -0.4160 -0.4631
  180SLPC  H14C20463   6.110   0.998   2.461 -0.3433  1.4267 -2.8284
  180SLPC   C1520464   6.408   1.162   2.498 -0.0295  1.0448 -0.0813
  180SLPC  H15A20465   6.396   1.223   2.410 -0.8371  0.7198 -0.2098
  180SLPC  H15B20466   6.435   1.239   2.569 -1.5008  1.4338  0.0998
  180SLPC  H15C20467   6.480   1.084   2.478 -0.7583 -0.2565  1.9906
  180SLPC   C1220468   6.182   1.231   2.577  0.1582  0.1532  0.0504
  180SLPC  H12A20469   6.238   1.301   2.637 -1.8255 -0.2642  2.5717
  180SLPC  H12B20470   6.106   1.187   2.640  2.0027 -4.2502 -0.4442
  180SLPC   C1120471   6.121   1.303   2.459 -0.3054  0.2901  0.0129
  180SLPC  H11A20472   6.031   1.360   2.491 -1.6707 -0.8189 -1.6396
  180SLPC  H11B20473   6.088   1.232   2.380 -0.5662 -1.2726  1.4580
  180SLPC     P20474   6.227   1.535   2.430 -0.3232  0.0581 -0.9600
  180SLPC   O1320475   6.347   1.603   2.371  0.6717  0.2837 -0.2181
  180SLPC   O1420476   6.094   1.592   2.397 -0.2526 -0.4840  0.8805
  180SLPC   O1220477   6.235   1.375   2.402 -0.1711 -0.0325  0.5187
  180SLPC   O1120478   6.241   1.535   2.589 -0.0832  0.1860  0.7160
  180SLPC    C120479   6.359   1.592   2.661  0.2575 -0.2264 -0.0875
  180SLPC    HA20480   6.398   1.513   2.729 -2.4632 -2.3065 -0.7646
  180SLPC    HB20481   6.445   1.614   2.594  0.1310  2.8961  0.6679
  180SLPC    C220482   6.327   1.720   2.743 -0.1459 -0.6390 -0.0418
  180SLPC    HS20483   6.422   1.750   2.793  0.2998  1.9458 -2.1566
  180SLPC   O2120484   6.218   1.709   2.839  0.1732  0.4631 -0.0903
  180SLPC   C2120485   6.257   1.638   2.945  0.2178 -0.8614 -0.3080
  180SLPC   O2220486   6.368   1.601   2.967  0.2817 -0.0600 -0.4008
  180SLPC   C2220487   6.152   1.622   3.056 -0.1162  0.5276  0.3496
  180SLPC   H2R20488   6.113   1.726   3.071  0.6965  1.2536 -2.0357
  180SLPC   H2S20489   6.074   1.558   3.009 -0.6673  0.2158  1.6634
  180SLPC    C320490   6.311   1.850   2.659  0.1039 -0.7588 -0.2924
  180SLPC    HX20491   6.214   1.845   2.606  0.5615 -1.0237 -1.1173
  180SLPC    HY20492   6.390   1.869   2.583  0.2382  1.8404  0.3992
  180SLPC   O3120493   6.299   1.973   2.733  0.5237 -0.6632  0.3577
  180SLPC   C3120494   6.415   2.022   2.775  0.3306  0.0855  0.0382
  180SLPC   O3220495   6.527   1.984   2.749 -0.2610  0.0012 -0.0540
  180SLPC   C3220496   6.403   2.154   2.860  0.6088  0.5903  0.7820
  180SLPC   H2X20497   6.300   2.197   2.852  0.3346 -0.3569 -1.6362
  180SLPC   H2Y20498   6.468   2.229   2.811 -0.4170  0.4593 -0.8651
  180SLPC   C2320499   6.210   1.553   3.187  0.3208 -0.7726 -0.5543
  180SLPC   H3R20500   6.139   1.574   3.270 -1.2772 -3.3066 -1.1529
  180SLPC   H3S20501   6.307   1.600   3.212  0.3053 -0.6611 -0.7036
  180SLPC   C2420502   6.212   1.396   3.170 -0.9242 -0.2835 -0.3029
  180SLPC   H4R20503   6.265   1.382   3.073 -1.2108  1.8854 -0.8212
  180SLPC   H4S20504   6.107   1.361   3.166 -0.8878 -0.3968 -0.2773
  180SLPC   C2520505   6.303   1.325   3.278  0.5169  0.2617  0.3311
  180SLPC   H5R20506   6.404   1.370   3.296  1.8566 -2.9300  1.5434
  180SLPC   H5S20507   6.336   1.225   3.243  0.3098  0.6229 -0.9434
  180SLPC   C2620508   6.236   1.315   3.420  0.0520  0.1671  0.0559
  180SLPC   H6R20509   6.142   1.255   3.416  0.6224 -0.8761  1.4100
  180SLPC   H6S20510   6.208   1.418   3.451  0.7597 -0.1606  1.9504
  180SLPC   C2720511   6.317   1.238   3.520 -0.0841 -0.5445  0.6537
  180SLPC   H7R20512   6.420   1.280   3.512  0.7244 -2.4647  0.3960
  180SLPC   H7S20513   6.312   1.131   3.490 -2.4959 -0.6304  1.2045
  180SLPC   C2820514   6.263   1.255   3.666 -0.5669  0.4718  0.0205
  180SLPC   H8R20515   6.173   1.190   3.663 -0.3331  0.0154  1.7686
  180SLPC   H8S20516   6.236   1.362   3.684  1.6620  0.8755  1.3274
  180SLPC   C2920517   6.346   1.200   3.789  0.0741 -0.8295  0.2645
  180SLPC   H9R20518   6.414   1.118   3.763  2.0922  0.7384  0.3736
  180SLPC  C21020519   6.339   1.236   3.921  0.3592  0.2914 -0.1294
  180SLPC  H10R20520   6.401   1.184   3.996  1.2403  3.1250  1.2376
  180SLPC  C21120521   6.255   1.354   3.980  0.1050 -0.2391  0.9900
  180SLPC  H11R20522   6.232   1.319   4.083  0.5226 -0.4420  1.0158
  180SLPC  H11S20523   6.160   1.382   3.930  0.7243 -1.1534 -0.7764
  180SLPC  C21220524   6.348   1.472   3.959 -0.3611 -0.0420 -0.5273
  180SLPC  H12R20525   6.354   1.504   3.854 -1.1670 -1.2322 -0.9612
  180SLPC  C21320526   6.424   1.526   4.049 -0.1537 -0.3197  0.0583
  180SLPC  H13R20527   6.485   1.615   4.024 -0.6292 -0.5997 -2.2637
  180SLPC  C21420528   6.425   1.485   4.191  0.2994 -0.3941 -0.1134
  180SLPC  H14R20529   6.328   1.455   4.236  0.8576 -0.2882  1.2455
  180SLPC  H14S20530   6.453   1.575   4.249  1.3619 -1.5163  1.2229
  180SLPC  C21520531   6.525   1.379   4.232  0.9278 -0.6822 -0.0134
  180SLPC  H15R20532   6.628   1.410   4.205 -0.3083  2.3889 -1.7337
  180SLPC  H15S20533   6.513   1.291   4.166  2.9219  0.1376 -1.5652
  180SLPC  C21620534   6.509   1.331   4.377  0.4643  0.1561 -0.8536
  180SLPC  H16R20535   6.424   1.260   4.389 -1.1259  2.2854  1.3455
  180SLPC  H16S20536   6.480   1.420   4.436 -0.3741 -1.7682  1.8665
  180SLPC  C21720537   6.635   1.260   4.441 -0.1831 -0.1281 -0.2333
  180SLPC  H17R20538   6.654   1.313   4.537 -1.9624 -0.1151  0.1547
  180SLPC  H17S20539   6.730   1.278   4.387  1.5231 -0.6181  2.4016
  180SLPC  C21820540   6.614   1.111   4.463  0.4371  0.4208 -0.2597
  180SLPC  H18R20541   6.692   1.064   4.526 -2.2264 -2.2255  1.3035
  180SLPC  H18S20542   6.605   1.055   4.367  3.7318 -2.1371  0.7177
  180SLPC  H18T20543   6.522   1.106   4.524 -2.1103  0.8636 -3.7253
  180SLPC   C3320544   6.443   2.133   3.003 -0.7925 -0.1805  0.5188
  180SLPC   H3X20545   6.483   2.227   3.046  2.3751 -1.5725  0.8687
  180SLPC   H3Y20546   6.532   2.067   3.005  0.6228  1.6533  0.7097
  180SLPC   C3420547   6.338   2.065   3.084  0.5530  0.3049 -0.2521
  180SLPC   H4X20548   6.301   1.976   3.028 -1.4785  1.3890 -0.7322
  180SLPC   H4Y20549   6.249   2.125   3.112  1.1347  1.2841 -0.4570
  180SLPC   C3520550   6.403   2.021   3.219  0.1556  0.0196 -0.1878
  180SLPC   H5X20551   6.439   2.113   3.270 -0.0230 -0.0230  0.0168
  180SLPC   H5Y20552   6.492   1.958   3.198 -0.1673 -0.0104 -1.5804
  180SLPC   C3620553   6.312   1.960   3.328  0.2569 -0.3490 -0.5302
  180SLPC   H6X20554   6.270   1.865   3.289 -1.3769  0.3518 -0.5570
  180SLPC   H6Y20555   6.225   2.026   3.351  1.5894  0.5855  2.3199
  180SLPC   C3720556   6.391   1.930   3.457 -0.6474  0.3443  0.3470
  180SLPC   H7X20557   6.431   2.027   3.492  0.0041  0.1386  0.1737
  180SLPC   H7Y20558   6.480   1.866   3.438 -1.2398  0.2796 -2.6901
  180SLPC   C3820559   6.298   1.867   3.559  0.2693  0.3752 -0.3550
  180SLPC   H8X20560   6.269   1.763   3.531 -1.1981  0.9984 -1.2844
  180SLPC   H8Y20561   6.211   1.930   3.586 -0.2002 -1.2574  2.2806
  180SLPC   C3920562   6.377   1.854   3.694  0.1953  0.0790 -0.4357
  180SLPC   H9X20563   6.467   1.791   3.676 -0.1672 -0.3595 -0.7482
  180SLPC   H9Y20564   6.309   1.798   3.762  0.5746 -0.1566 -0.2447
  180SLPC  C31020565   6.406   1.988   3.757  0.5770 -0.2915 -0.0066
  180SLPC  H10X20566   6.311   2.045   3.747  0.4627 -0.5945 -0.6647
  180SLPC  H10Y20567   6.491   2.042   3.710 -0.3154  1.2240  0.0654
  180SLPC  C31120568   6.443   1.974   3.910 -0.3613 -0.0536 -0.4104
  180SLPC  H11X20569   6.470   2.076   3.944 -0.8655  0.1755 -0.6921
  180SLPC  H11Y20570   6.525   1.899   3.913 -0.4563 -0.1731 -0.7094
  180SLPC  C31220571   6.319   1.928   3.994 -0.6277 -0.6253 -0.8861
  180SLPC  H12X20572   6.307   1.821   3.967  3.0526 -1.3022 -0.3659
  180SLPC  H12Y20573   6.230   1.995   3.980  0.7599  1.6560  0.5212
  180SLPC  C31320574   6.352   1.924   4.141 -0.3439  0.4830 -0.0230
  180SLPC  H13X20575   6.376   2.026   4.177 -4.3677  1.3477  0.5886
  180SLPC  H13Y20576   6.436   1.853   4.163  0.6904  1.3402 -1.0801
  180SLPC  C31420577   6.234   1.872   4.221 -0.0157 -0.7155 -0.7032
  180SLPC  H14X20578   6.210   1.765   4.203  2.3974 -1.4989  0.2723
  180SLPC  H14Y20579   6.153   1.937   4.184 -0.4689 -0.9147 -0.0901
  180SLPC  C31520580   6.230   1.889   4.375 -0.0662 -0.2678 -0.0169
  180SLPC  H15X20581   6.144   1.834   4.419  1.7107 -2.8421  0.4380
  180SLPC  H15Y20582   6.234   1.998   4.396  0.8911 -0.0274 -1.3019
  180SLPC  C31620583   6.359   1.839   4.442  0.0969 -0.3005  1.1748
  180SLPC  H16X20584   6.452   1.857   4.384  0.3338 -1.1639  1.2734
  180SLPC  H16Y20585   6.347   1.729   4.427 -0.3582  0.0112 -1.1694
  180SLPC  C31720586   6.371   1.885   4.582 -0.7895  0.0571  0.5571
  180SLPC  H17X20587   6.279   1.856   4.639  0.0972 -1.9634  1.0607
  180SLPC  H17Y20588   6.375   1.995   4.591 -0.9255 -0.0148  1.7695
  180SLPC  C31820589   6.475   1.805   4.664 -0.0157  0.3674  0.1333
  180SLPC  H18X20590   6.582   1.806   4.632 -0.2371 -0.2631 -0.6554
  180SLPC  H18Y20591   6.430   1.704   4.667 -0.4969  0.5679 -0.2126
  180SLPC  H18Z20592   6.477   1.852   4.765  1.6289  0.5432  0.0491
  181SLPC     N20593   5.620   0.248   2.007  0.0946  0.4959 -0.0693
  181SLPC   C1320594   5.519   0.353   2.014 -0.2392  0.3732 -0.3256
  181SLPC  H13A20595   5.449   0.359   1.931  0.8966  0.0235 -1.3298
  181SLPC  H13B20596   5.471   0.357   2.111  0.3620  2.8969 -0.0452
  181SLPC  H13C20597   5.569   0.449   2.017 -0.7834  0.6269  1.4704
  181SLPC   C1420598   5.694   0.268   1.876  0.3471  0.7439 -0.1669
  181SLPC  H14A20599   5.776   0.197   1.869 -0.7845 -0.5720 -0.6331
  181SLPC  H14B20600   5.629   0.256   1.791 -0.1771  3.4814 -0.2193
  181SLPC  H14C20601   5.738   0.366   1.882  0.8532  0.4371  3.1028
  181SLPC   C1520602   5.557   0.110   2.012  0.1134  0.6559 -0.0253
  181SLPC  H15A20603   5.530   0.080   2.112  3.7093 -1.0904  0.5698
  181SLPC  H15B20604   5.474   0.102   1.943  0.6671  0.1664 -0.6407
  181SLPC  H15C20605   5.625   0.033   1.980  0.2952  0.8589 -0.1303
  181SLPC   C1220606   5.726   0.259   2.114  0.0202  0.0710  0.2825
  181SLPC  H12A20607   5.798   0.325   2.068 -0.5808 -0.9133 -2.2352
  181SLPC  H12B20608   5.777   0.164   2.104  1.8761  1.0832 -0.3735
  181SLPC   C1120609   5.684   0.287   2.259  0.6065 -0.4989  0.4793
  181SLPC  H11A20610   5.780   0.281   2.315  1.5126  1.5877 -0.7078
  181SLPC  H11B20611   5.609   0.209   2.283 -1.5343  1.3918  0.2721
  181SLPC     P20612   5.728   0.538   2.275 -0.1182  0.1418 -0.1508
  181SLPC   O1320613   5.830   0.524   2.170  0.4869 -0.2308 -0.3039
  181SLPC   O1420614   5.650   0.657   2.282  0.3066 -0.3117  0.7162
  181SLPC   O1220615   5.627   0.417   2.278 -0.4079  0.2647 -0.3619
  181SLPC   O1120616   5.798   0.528   2.416  0.8152  0.3665  0.2644
  181SLPC    C120617   5.729   0.561   2.536  0.3572  1.2290  1.0063
  181SLPC    HA20618   5.623   0.593   2.527 -0.8578 -1.2875  4.2867
  181SLPC    HB20619   5.725   0.482   2.614  0.7611  0.9617  0.7622
  181SLPC    C220620   5.799   0.684   2.593 -0.2593 -0.7322 -0.2704
  181SLPC    HS20621   5.806   0.753   2.506 -0.3779 -1.2657 -0.7128
  181SLPC   O2120622   5.931   0.657   2.645 -0.5663  0.8119  0.3834
  181SLPC   C2120623   6.006   0.766   2.669  0.8485  0.5265 -0.5559
  181SLPC   O2220624   5.984   0.873   2.621  0.4343  0.4644  0.2521
  181SLPC   C2220625   6.106   0.731   2.785 -0.0280  0.2743  0.0114
  181SLPC   H2R20626   6.084   0.630   2.827 -0.9758  1.5218  2.7351
  181SLPC   H2S20627   6.207   0.725   2.739  0.0700 -0.5882  0.3213
  181SLPC    C320628   5.716   0.763   2.705 -0.4586 -0.0474  0.3636
  181SLPC    HX20629   5.607   0.756   2.681 -0.4771 -0.5581  0.5910
  181SLPC    HY20630   5.757   0.866   2.696 -0.2621 -0.2138 -0.8226
  181SLPC   O3120631   5.746   0.704   2.833  0.0682 -0.0808  0.7308
  181SLPC   C3120632   5.767   0.786   2.937 -0.5489 -0.0692  0.6727
  181SLPC   O3220633   5.787   0.905   2.930  0.0697 -0.5002  0.2491
  181SLPC   C3220634   5.765   0.712   3.067 -0.2375  0.1903  0.1209
  181SLPC   H2X20635   5.853   0.645   3.051  0.7031  1.6913 -1.3231
  181SLPC   H2Y20636   5.669   0.657   3.058  0.7647 -1.5076 -0.6757
  181SLPC   C2320637   6.105   0.831   2.898  0.3368 -0.5352 -0.4846
  181SLPC   H3R20638   6.012   0.828   2.958 -0.3038  1.7835 -1.2460
  181SLPC   H3S20639   6.125   0.936   2.867 -1.5665  0.3283  0.9643
  181SLPC   C2420640   6.210   0.815   3.014  0.2140 -0.0356 -0.0732
  181SLPC   H4R20641   6.313   0.825   2.974  0.5295  1.1129  0.9703
  181SLPC   H4S20642   6.192   0.716   3.062 -1.2026 -0.2534 -1.0010
  181SLPC   C2520643   6.193   0.924   3.128 -0.4624 -0.1171 -0.0806
  181SLPC   H5R20644   6.087   0.958   3.128 -0.7492 -0.6895 -3.2930
  181SLPC   H5S20645   6.264   1.003   3.096 -0.9638 -0.3221 -1.8140
  181SLPC   C2620646   6.251   0.884   3.267  0.0266 -0.4602  0.9502
  181SLPC   H6R20647   6.256   0.977   3.327 -2.7339  0.6581 -0.3422
  181SLPC   H6S20648   6.355   0.848   3.254  0.2931  0.3301  0.8133
  181SLPC   C2720649   6.165   0.772   3.335  0.4213 -0.3466  0.0802
  181SLPC   H7R20650   6.175   0.674   3.284  1.0526  0.4434 -1.3800
  181SLPC   H7S20651   6.056   0.795   3.338  0.6131  0.5051  1.7828
  181SLPC   C2820652   6.213   0.757   3.477  0.2304  0.3930 -0.0560
  181SLPC   H8R20653   6.179   0.851   3.525 -1.8506 -0.4785  0.2985
  181SLPC   H8S20654   6.324   0.758   3.488  0.2181  2.6976  0.2499
  181SLPC   C2920655   6.145   0.634   3.529  0.5560 -0.1878 -0.3541
  181SLPC   H9R20656   6.082   0.571   3.464 -2.2890  0.3049  1.7626
  181SLPC  C21020657   6.146   0.613   3.663 -0.1398  0.1297 -0.2463
  181SLPC  H10R20658   6.089   0.527   3.700 -0.4388  0.6974  0.6683
  181SLPC  C21120659   6.208   0.691   3.768  0.4167 -0.1343 -0.6929
  181SLPC  H11R20660   6.220   0.798   3.740 -0.3941  0.0805 -0.2648
  181SLPC  H11S20661   6.307   0.647   3.791  0.3483 -0.7089 -1.4584
  181SLPC  C21220662   6.116   0.703   3.889 -0.5499 -0.3153  0.6078
  181SLPC  H12R20663   6.013   0.667   3.878 -0.4795 -0.8676  1.6423
  181SLPC  C21320664   6.153   0.755   4.008  0.2044 -0.0268 -0.3088
  181SLPC  H13R20665   6.066   0.769   4.074  0.7645  0.4734  0.3441
  181SLPC  C21420666   6.289   0.805   4.046 -0.0310  0.2192  0.0882
  181SLPC  H14R20667   6.352   0.846   3.964  0.7842  1.0806  1.0986
  181SLPC  H14S20668   6.342   0.718   4.091  0.1516  0.2487 -0.0684
  181SLPC  C21520669   6.289   0.922   4.144 -0.1631  0.6130 -0.0849
  181SLPC  H15R20670   6.226   1.000   4.096 -1.1807  1.0573  1.8996
  181SLPC  H15S20671   6.393   0.960   4.155 -1.2595  4.0818 -0.2528
  181SLPC  C21620672   6.242   0.887   4.285 -0.0983  0.0626 -0.3511
  181SLPC  H16R20673   6.317   0.815   4.323  2.3609  1.9721 -1.2760
  181SLPC  H16S20674   6.139   0.846   4.277 -0.0087 -0.1852 -0.2201
  181SLPC  C21720675   6.246   1.011   4.368  0.8414  0.0571  0.5302
  181SLPC  H17R20676   6.173   1.084   4.329  0.0813 -1.7127 -1.5329
  181SLPC  H17S20677   6.344   1.062   4.356  1.5285 -1.1888  0.5900
  181SLPC  C21820678   6.219   0.990   4.514  0.1541  0.0674 -0.1303
  181SLPC  H18R20679   6.210   1.091   4.560  0.2918 -1.0192  2.4227
  181SLPC  H18S20680   6.284   0.923   4.574 -0.6190  0.0539  0.7244
  181SLPC  H18T20681   6.116   0.948   4.520  0.0636  0.2132 -0.5679
  181SLPC   C3320682   5.785   0.816   3.182 -0.7807  0.0506 -0.1483
  181SLPC   H3X20683   5.698   0.885   3.191  1.2726  2.7665  0.2526
  181SLPC   H3Y20684   5.880   0.870   3.161  0.1488 -1.4009  0.1568
  181SLPC   C3420685   5.787   0.757   3.324  0.7132  0.3028  0.3688
  181SLPC   H4X20686   5.874   0.689   3.329  0.7541  0.2544 -0.7956
  181SLPC   H4Y20687   5.697   0.700   3.356  0.4834 -0.1743 -1.0658
  181SLPC   C3520688   5.804   0.874   3.421  0.0160 -0.0867  0.0128
  181SLPC   H5X20689   5.716   0.942   3.412  0.3777  0.4992  0.7685
  181SLPC   H5Y20690   5.891   0.929   3.380  0.5070 -1.8561 -1.4476
  181SLPC   C3620691   5.829   0.832   3.570 -0.4945  0.1776 -0.0826
  181SLPC   H6X20692   5.898   0.745   3.568 -2.5372 -1.5027 -0.1288
  181SLPC   H6Y20693   5.737   0.793   3.617  0.2485 -1.6903 -0.0958
  181SLPC   C3720694   5.893   0.938   3.660  0.4104  0.0143 -0.0182
  181SLPC   H7X20695   5.864   1.037   3.619 -2.5123 -0.9326 -0.4969
  181SLPC   H7Y20696   6.003   0.939   3.642  0.1473 -0.1733 -1.9436
  181SLPC   C3820697   5.853   0.936   3.807 -0.6450  0.3174  0.2518
  181SLPC   H8X20698   5.865   0.832   3.843  0.8435  0.7532  1.0854
  181SLPC   H8Y20699   5.744   0.951   3.824 -0.8711  0.9270 -1.5564
  181SLPC   C3920700   5.933   1.040   3.886  0.0326 -0.3325  0.4157
  181SLPC   H9X20701   5.950   1.133   3.827  1.9486 -0.9712 -0.1360
  181SLPC   H9Y20702   6.035   1.007   3.915  1.6644  0.9993 -3.1557
  181SLPC  C31020703   5.863   1.075   4.006  0.3011  0.2398 -0.3862
  181SLPC  H10X20704   5.850   0.976   4.056 -1.8324 -0.3488 -1.9696
  181SLPC  H10Y20705   5.762   1.108   3.974  0.0984  1.7141  1.5579
  181SLPC  C31120706   5.925   1.188   4.083  0.1526 -0.1481  0.6727
  181SLPC  H11X20707   5.908   1.288   4.037 -0.9728 -1.0849 -1.1010
  181SLPC  H11Y20708   6.034   1.168   4.068  0.8179  1.6515  2.5387
  181SLPC  C31220709   5.911   1.184   4.239 -0.7439 -0.8442  0.3250
  181SLPC  H12X20710   5.953   1.094   4.290  0.7058 -0.1017  0.4973
  181SLPC  H12Y20711   5.802   1.188   4.262 -0.7015 -0.7569  0.5141
  181SLPC  C31320712   5.985   1.301   4.301 -0.5574 -1.1207  0.3089
  181SLPC  H13X20713   6.090   1.313   4.267 -1.0846  3.2147 -0.4063
  181SLPC  H13Y20714   5.989   1.289   4.411 -2.0059  0.9980  0.6531
  181SLPC  C31420715   5.907   1.435   4.285 -0.6351 -1.0230 -0.2468
  181SLPC  H14X20716   5.804   1.429   4.325 -0.0427  0.4833  1.6953
  181SLPC  H14Y20717   5.909   1.447   4.175  1.4408  1.2857 -0.0490
  181SLPC  C31520718   5.983   1.555   4.347  0.0958  0.3462 -0.0497
  181SLPC  H15X20719   5.945   1.633   4.277 -0.2019 -2.3863 -3.1631
  181SLPC  H15Y20720   6.092   1.537   4.334  0.1713  0.4232  0.4442
  181SLPC  C31620721   5.966   1.601   4.496  0.4376 -0.4963 -0.2088
  181SLPC  H16X20722   5.860   1.626   4.518  0.4303 -0.0141 -0.7417
  181SLPC  H16Y20723   6.031   1.690   4.512 -0.4601  0.2634 -0.6701
  181SLPC  C31720724   6.004   1.499   4.600  0.3020  0.1328 -0.7270
  181SLPC  H17X20725   5.954   1.403   4.574 -1.0111  1.0507 -1.6833
  181SLPC  H17Y20726   5.971   1.530   4.702  1.5011  2.0864 -0.8964
  181SLPC  C31820727   6.150   1.463   4.611  0.4358 -0.6576 -0.7016
  181SLPC  H18X20728   6.166   1.385   4.688  0.4234 -3.1115 -3.0157
  181SLPC  H18Y20729   6.204   1.555   4.642 -0.6231 -0.3691  0.3378
  181SLPC  H18Z20730   6.191   1.432   4.512  0.0981  1.1684 -1.4498
  182SLPC     N20731   3.541   6.867   2.117 -0.1122  0.4009 -0.0941
  182SLPC   C1320732   3.615   6.960   2.219  0.6909  0.1669  0.5530
  182SLPC  H13A20733   3.650   6.898   2.301  0.6220 -2.3612 -1.1922
  182SLPC  H13B20734   3.683   7.027   2.168  0.1323  1.1282  1.0539
  182SLPC  H13C20735   3.537   7.024   2.256 -0.6542 -0.2169 -1.4835
  182SLPC   C1420736   3.642   6.766   2.073  0.2347 -0.0851  0.9417
  182SLPC  H14A20737   3.603   6.683   2.016  1.9954  0.1810 -0.7392
  182SLPC  H14B20738   3.720   6.821   2.023 -1.2433 -0.1456 -1.6035
  182SLPC  H14C20739   3.674   6.709   2.159 -2.1955  0.1602  2.1012
  182SLPC   C1520740   3.504   6.945   1.992  0.3321  0.2065 -0.4412
  182SLPC  H15A20741   3.493   7.051   2.009  0.5307  0.2133 -0.3589
  182SLPC  H15B20742   3.570   6.925   1.909  0.1139 -0.3892 -0.4785
  182SLPC  H15C20743   3.404   6.919   1.961 -0.0330  1.1698 -0.0998
  182SLPC   C1220744   3.427   6.787   2.172  1.0027  0.4040 -0.4542
  182SLPC  H12A20745   3.459   6.739   2.264 -1.3138 -0.2069  0.1070
  182SLPC  H12B20746   3.398   6.719   2.094 -0.0052  0.2013  0.0771
  182SLPC   C1120747   3.301   6.859   2.222  0.0333 -0.2269  0.0990
  182SLPC  H11A20748   3.230   6.778   2.251  0.6718 -1.1656 -0.9064
  182SLPC  H11B20749   3.248   6.919   2.145  0.4659 -1.8154 -1.5142
  182SLPC     P20750   3.322   6.885   2.481 -0.0503  0.1214 -0.0325
  182SLPC   O1320751   3.180   6.896   2.522  0.4773 -0.0302 -0.2496
  182SLPC   O1420752   3.377   6.748   2.485 -0.0305  0.3781 -0.0967
  182SLPC   O1220753   3.337   6.945   2.336 -0.6649  0.2078 -0.6674
  182SLPC   O1120754   3.420   6.983   2.562 -0.2273 -0.1160 -0.0747
  182SLPC    C120755   3.391   7.120   2.577 -0.5789 -0.8993 -0.1049
  182SLPC    HA20756   3.477   7.180   2.541 -0.3305  0.7220  2.8726
  182SLPC    HB20757   3.307   7.155   2.514 -1.9537  1.0896  2.6312
  182SLPC    C220758   3.355   7.177   2.722  0.4201 -0.6792  0.4970
  182SLPC    HS20759   3.400   7.278   2.732 -0.4878 -0.1011 -0.9164
  182SLPC   O2120760   3.389   7.092   2.832  0.4127 -0.0256 -0.4587
  182SLPC   C2120761   3.518   7.050   2.820  1.0283 -0.0994  0.4821
  182SLPC   O2220762   3.613   7.119   2.783  0.0028 -0.1743  0.5287
  182SLPC   C2220763   3.527   6.905   2.856  0.3575  0.5760  0.5234
  182SLPC   H2R20764   3.444   6.866   2.918 -0.1416 -0.3894 -0.7051
  182SLPC   H2S20765   3.544   6.845   2.764  0.8256 -0.2313  1.1231
  182SLPC    C320766   3.199   7.192   2.731  0.3087 -0.0248  0.4710
  182SLPC    HX20767   3.160   7.088   2.725  1.5405 -0.4626 -0.4211
  182SLPC    HY20768   3.166   7.265   2.655  2.4719 -0.0951 -0.6145
  182SLPC   O3120769   3.159   7.257   2.859 -0.2418  0.0544  0.5120
  182SLPC   C3120770   3.022   7.232   2.868 -0.1085 -0.6688 -1.0648
  182SLPC   O3220771   2.957   7.176   2.791  0.1404  0.1605  0.3284
  182SLPC   C3220772   2.972   7.308   2.993  0.2767 -0.3373 -0.3114
  182SLPC   H2X20773   2.885   7.245   3.024  1.3910 -1.3317  0.8757
  182SLPC   H2Y20774   2.944   7.412   2.964  1.5725  0.5514  1.4517
  182SLPC   C2320775   3.662   6.873   2.932  0.5082 -0.1719  0.7545
  182SLPC   H3R20776   3.752   6.903   2.875 -0.5532  1.2576 -0.2158
  182SLPC   H3S20777   3.663   6.762   2.938 -1.3669 -0.3015 -0.5741
  182SLPC   C2420778   3.674   6.944   3.070 -0.3026 -0.2484  0.1000
  182SLPC   H4R20779   3.587   6.937   3.139 -1.1057  1.7400 -0.6206
  182SLPC   H4S20780   3.688   7.050   3.039  1.7696 -0.8300 -1.1812
  182SLPC   C2520781   3.787   6.880   3.146 -0.0298 -0.6405  0.8694
  182SLPC   H5R20782   3.881   6.875   3.086  0.1456  0.3463  1.0439
  182SLPC   H5S20783   3.749   6.776   3.151  0.0729 -0.7620 -0.3589
  182SLPC   C2620784   3.834   6.940   3.278  0.3085 -0.1121  0.5261
  182SLPC   H6R20785   3.865   7.044   3.255  0.2784 -0.1626  0.2510
  182SLPC   H6S20786   3.914   6.888   3.334  2.6966  3.4445  0.7420
  182SLPC   C2720787   3.711   6.946   3.382  0.5954  0.6443  0.3612
  182SLPC   H7R20788   3.654   6.851   3.384 -1.4495  1.7014 -1.8234
  182SLPC   H7S20789   3.632   7.007   3.333 -1.2963 -1.0057  1.2057
  182SLPC   C2820790   3.747   7.001   3.513 -0.8668 -0.0242  0.3352
  182SLPC   H8R20791   3.660   7.015   3.580  0.6662 -0.4292  2.5081
  182SLPC   H8S20792   3.791   7.103   3.512  0.4924 -0.5931 -0.2546
  182SLPC   C2920793   3.844   6.910   3.591 -0.0527 -0.1328  0.4717
  182SLPC   H9R20794   3.949   6.923   3.559 -0.8952  2.6228 -1.5254
  182SLPC  C21020795   3.797   6.812   3.672 -0.4025 -0.5607 -0.5023
  182SLPC  H10R20796   3.877   6.760   3.728 -0.5552  1.9705  2.3000
  182SLPC  C21120797   3.652   6.783   3.702  0.0077 -0.4543  0.1771
  182SLPC  H11R20798   3.612   6.717   3.622  0.7029 -2.5043  1.4472
  182SLPC  H11S20799   3.597   6.879   3.689  2.6771  1.0607 -0.7286
  182SLPC  C21220800   3.629   6.708   3.833  0.5943 -0.5336 -0.2171
  182SLPC  H12R20801   3.595   6.606   3.811  0.6545 -0.5711 -0.1392
  182SLPC  C21320802   3.631   6.756   3.956 -0.4098 -0.1600 -0.3413
  182SLPC  H13R20803   3.618   6.688   4.041 -1.3715  0.9167  0.4104
  182SLPC  C21420804   3.672   6.901   3.988  0.0555 -0.8772 -0.8670
  182SLPC  H14R20805   3.606   6.957   4.059  0.5018 -0.6150 -0.6582
  182SLPC  H14S20806   3.670   6.963   3.896 -2.1456  0.9249  0.2919
  182SLPC  C21520807   3.815   6.911   4.042 -0.1779 -0.4047 -0.6790
  182SLPC  H15R20808   3.849   7.017   4.051  0.9509 -0.7838 -0.3062
  182SLPC  H15S20809   3.894   6.867   3.979  1.0692  0.1015  0.4737
  182SLPC  C21620810   3.825   6.851   4.182  0.3796 -0.4146 -0.2188
  182SLPC  H16R20811   3.783   6.749   4.168 -2.3578  0.8198 -1.8799
  182SLPC  H16S20812   3.755   6.911   4.245  0.1628  0.0216 -0.8730
  182SLPC  C21720813   3.968   6.852   4.234  0.0761  0.3383 -0.4123
  182SLPC  H17R20814   4.016   6.947   4.205  2.1392 -1.0377 -1.7492
  182SLPC  H17S20815   4.024   6.771   4.183  0.4321 -0.5930  1.3482
  182SLPC  C21820816   3.980   6.825   4.387  0.2410 -0.3283  0.7360
  182SLPC  H18R20817   4.084   6.795   4.411 -0.3262 -1.4382  1.9212
  182SLPC  H18S20818   3.912   6.740   4.407 -0.1149 -0.2382 -0.0426
  182SLPC  H18T20819   3.940   6.908   4.448 -0.1578  0.5142 -0.6194
  182SLPC   C3320820   3.080   7.325   3.111  0.1523  0.7330  0.2682
  182SLPC   H3X20821   3.161   7.397   3.086 -0.7096  2.3117  1.7060
  182SLPC   H3Y20822   3.122   7.230   3.148  1.8834  1.1439 -0.5284
  182SLPC   C3420823   3.008   7.388   3.233  0.1663  0.1342  0.6263
  182SLPC   H4X20824   2.920   7.338   3.278  0.4059  0.4745  1.4940
  182SLPC   H4Y20825   2.974   7.490   3.205  1.1227  0.2800 -0.0720
  182SLPC   C3520826   3.109   7.399   3.349 -0.1578  0.1380  0.5382
  182SLPC   H5X20827   3.212   7.413   3.309 -0.2307 -1.8813 -0.4906
  182SLPC   H5Y20828   3.107   7.301   3.400  0.4273  0.4797  1.2379
  182SLPC   C3620829   3.079   7.506   3.456 -0.2108 -0.9009  0.8490
  182SLPC   H6X20830   2.971   7.509   3.481 -0.0066  0.1715  1.6697
  182SLPC   H6Y20831   3.108   7.606   3.418  1.1046 -1.1293  1.2065
  182SLPC   C3720832   3.154   7.482   3.590 -0.0561 -0.8703 -0.7923
  182SLPC   H7X20833   3.258   7.518   3.576 -0.7534  0.3620 -3.5216
  182SLPC   H7Y20834   3.160   7.380   3.633 -0.4602 -0.5095  0.1320
  182SLPC   C3820835   3.093   7.573   3.704  0.4177 -0.2720  0.2963
  182SLPC   H8X20836   3.036   7.660   3.664  1.3209 -0.1764 -0.8557
  182SLPC   H8Y20837   3.175   7.618   3.764  1.9167  0.0854 -1.8827
  182SLPC   C3920838   3.002   7.498   3.799  0.2879 -0.1632 -0.0477
  182SLPC   H9X20839   3.048   7.401   3.830  2.5003  1.3855  1.8784
  182SLPC   H9Y20840   2.916   7.466   3.737 -0.3173  1.5058 -0.1221
  182SLPC  C31020841   2.977   7.579   3.928 -0.1005 -0.3223  0.6889
  182SLPC  H10X20842   2.938   7.680   3.903 -1.0599 -0.0543  2.9483
  182SLPC  H10Y20843   3.073   7.574   3.983 -0.0336  0.5301  0.6628
  182SLPC  C31120844   2.862   7.511   4.008  0.1585  0.2379 -0.2979
  182SLPC  H11X20845   2.900   7.411   4.037 -1.5742 -0.6178 -0.8292
  182SLPC  H11Y20846   2.764   7.502   3.956 -0.3414  2.6046  0.1160
  182SLPC  C31220847   2.823   7.580   4.148 -0.5112  0.5417  0.3329
  182SLPC  H12X20848   2.916   7.583   4.209  0.3768  0.2986 -0.9664
  182SLPC  H12Y20849   2.752   7.516   4.204 -2.7605  1.4902 -1.2890
  182SLPC  C31320850   2.754   7.719   4.136 -0.5775  0.2986  0.0178
  182SLPC  H13X20851   2.671   7.711   4.062  0.6229 -3.0274 -1.1494
  182SLPC  H13Y20852   2.832   7.780   4.085  0.1958  0.5364  1.4498
  182SLPC  C31420853   2.693   7.772   4.268 -0.2319  0.2619  0.2264
  182SLPC  H14X20854   2.772   7.788   4.344  1.2378 -0.4998 -1.0704
  182SLPC  H14Y20855   2.623   7.692   4.300 -0.3447  0.9561  1.7936
  182SLPC  C31520856   2.607   7.900   4.246  0.0590 -0.1524  0.1384
  182SLPC  H15X20857   2.566   7.895   4.143  3.5040 -0.2453 -1.3664
  182SLPC  H15Y20858   2.663   7.994   4.262 -0.3339  0.5411 -2.1995
  182SLPC  C31620859   2.490   7.906   4.352 -0.3381  0.0294  0.3447
  182SLPC  H16X20860   2.535   7.896   4.453 -0.3630 -0.1299  0.3402
  182SLPC  H16Y20861   2.426   7.820   4.324  0.3339 -0.1541 -0.6721
  182SLPC  C31720862   2.396   8.023   4.332  0.1433  0.9920  0.3344
  182SLPC  H17X20863   2.353   8.008   4.231 -0.4759  0.0447  0.7144
  182SLPC  H17Y20864   2.448   8.121   4.332  0.5893  0.7766  1.6354
  182SLPC  C31820865   2.271   8.015   4.423 -0.7538 -0.1695 -0.0771
  182SLPC  H18X20866   2.211   7.924   4.402  1.8221 -1.7132 -1.3284
  182SLPC  H18Y20867   2.210   8.106   4.405 -1.5051 -0.7726 -0.6264
  182SLPC  H18Z20868   2.300   8.008   4.530  1.8275 -1.4560 -0.7629
  183SLPC     N20869   3.836   2.557   2.282 -0.3217 -0.2215 -0.2708
  183SLPC   C1320870   3.834   2.407   2.247  0.7713 -0.0595 -0.0575
  183SLPC  H13A20871   3.780   2.381   2.157 -1.0386 -0.6292  1.1457
  183SLPC  H13B20872   3.938   2.378   2.241  0.0923 -2.4644 -1.7695
  183SLPC  H13C20873   3.781   2.355   2.325 -1.2313 -2.2423 -2.6939
  183SLPC   C1420874   3.890   2.576   2.424 -0.2647  0.1510 -0.0665
  183SLPC  H14A20875   3.881   2.682   2.444  1.2053  0.0779  1.2092
  183SLPC  H14B20876   3.829   2.519   2.493 -0.9748  0.0450 -0.7648
  183SLPC  H14C20877   3.991   2.543   2.441 -0.3039  0.4058  0.6981
  183SLPC   C1520878   3.694   2.602   2.277 -0.1437 -0.2036 -0.3516
  183SLPC  H15A20879   3.636   2.564   2.360 -3.3148  0.1255 -2.2373
  183SLPC  H15B20880   3.698   2.710   2.280  1.4093  0.1238 -5.2778
  183SLPC  H15C20881   3.647   2.561   2.188 -2.5867 -0.8339  1.1474
  183SLPC   C1220882   3.917   2.626   2.173  0.1750 -0.8045  0.7654
  183SLPC  H12A20883   3.893   2.590   2.074 -0.7616 -0.5174  0.8811
  183SLPC  H12B20884   4.022   2.606   2.193  0.6217  1.8546  1.4679
  183SLPC   C1120885   3.913   2.780   2.170 -0.1336  0.2370 -0.3539
  183SLPC  H11A20886   3.806   2.808   2.168 -0.4730 -1.0329 -2.3356
  183SLPC  H11B20887   3.962   2.821   2.079  0.5748  3.6308  1.3838
  183SLPC     P20888   4.121   2.858   2.311  0.6184  0.1465  0.0100
  183SLPC   O1320889   4.193   2.845   2.181  0.1320  0.2145 -0.5677
  183SLPC   O1420890   4.140   2.981   2.393 -0.4867  0.2794  0.0914
  183SLPC   O1220891   3.965   2.832   2.295  0.5092  0.5223  0.4257
  183SLPC   O1120892   4.161   2.736   2.409 -0.2748  0.5523 -0.3117
  183SLPC    C120893   4.282   2.662   2.380  0.8710 -0.2159  0.7359
  183SLPC    HA20894   4.296   2.629   2.275  0.4894  0.6798  0.3906
  183SLPC    HB20895   4.371   2.725   2.396  0.6853  0.9160 -2.0645
  183SLPC    C220896   4.284   2.542   2.476  0.2732  0.0458  0.1899
  183SLPC    HS20897   4.194   2.481   2.453  1.4502 -0.9304 -2.3227
  183SLPC   O2120898   4.280   2.589   2.611  0.0111  0.1599  0.0531
  183SLPC   C2120899   4.232   2.512   2.701  0.4223 -0.0134 -0.7500
  183SLPC   O2220900   4.180   2.403   2.691 -0.5737  0.2265 -0.3165
  183SLPC   C2220901   4.259   2.578   2.835 -0.9965 -0.3520  0.6353
  183SLPC   H2R20902   4.359   2.627   2.827  0.0427 -2.2965  0.9750
  183SLPC   H2S20903   4.176   2.648   2.856 -0.0659  0.4737  1.7008
  183SLPC    C320904   4.416   2.461   2.439  0.1585 -0.9210 -0.0177
  183SLPC    HX20905   4.491   2.541   2.454 -0.6553 -0.2153  0.3383
  183SLPC    HY20906   4.420   2.442   2.330 -2.1683 -0.6883 -0.1887
  183SLPC   O3120907   4.441   2.331   2.507  0.3640  0.2650  0.5323
  183SLPC   C3120908   4.500   2.342   2.621  0.2976 -0.2555 -0.7659
  183SLPC   O3220909   4.531   2.445   2.677 -0.0179 -0.7601  0.1728
  183SLPC   C3220910   4.512   2.210   2.696  0.0322 -0.2638  0.5133
  183SLPC   H2X20911   4.527   2.129   2.620 -1.1688  0.2417 -0.2867
  183SLPC   H2Y20912   4.419   2.182   2.749 -0.5852 -1.7363 -1.2222
  183SLPC   C2320913   4.284   2.490   2.961  0.8281 -0.2693 -0.2087
  183SLPC   H3R20914   4.332   2.542   3.047  0.9171 -2.4338  1.1521
  183SLPC   H3S20915   4.363   2.412   2.951  0.6856 -0.5929  1.0050
  183SLPC   C2420916   4.157   2.412   3.001 -0.0007 -0.7893 -0.1444
  183SLPC   H4R20917   4.150   2.313   2.950  1.8489 -0.7742 -0.4933
  183SLPC   H4S20918   4.064   2.472   2.986  0.0224 -0.5715  0.5283
  183SLPC   C2520919   4.152   2.384   3.153  0.7634  0.5137 -0.1345
  183SLPC   H5R20920   4.116   2.478   3.201 -1.4896  0.0631 -0.8319
  183SLPC   H5S20921   4.254   2.358   3.188  0.5945 -0.4248 -0.3154
  183SLPC   C2620922   4.059   2.267   3.188 -0.4560  0.3533 -0.1813
  183SLPC   H6R20923   4.116   2.188   3.134  1.0503  1.1184  0.2352
  183SLPC   H6S20924   3.955   2.275   3.151 -0.4533 -1.1487 -0.5845
  183SLPC   C2720925   4.067   2.236   3.342  0.1248 -0.3682  0.0249
  183SLPC   H7R20926   4.164   2.265   3.387 -1.2053  1.1428  2.1057
  183SLPC   H7S20927   4.054   2.126   3.338 -1.2136 -0.2049 -1.3615
  183SLPC   C2820928   3.958   2.297   3.422 -0.6185  0.1201 -0.2150
  183SLPC   H8R20929   3.867   2.244   3.388 -1.5673 -0.5775  3.0447
  183SLPC   H8S20930   3.941   2.402   3.389 -0.2531 -0.0542 -0.9828
  183SLPC   C2920931   3.971   2.298   3.574 -0.1707  0.2870 -0.9583
  183SLPC   H9R20932   4.057   2.357   3.608  0.0188  0.1015 -1.1075
  183SLPC  C21020933   3.901   2.231   3.668  0.0940 -0.2166 -0.2996
  183SLPC  H10R20934   3.932   2.245   3.773 -0.2036 -2.3478  0.1093
  183SLPC  C21120935   3.787   2.142   3.646  0.9904 -0.3996 -0.0187
  183SLPC  H11R20936   3.754   2.145   3.539 -1.8746  0.5859  0.7954
  183SLPC  H11S20937   3.697   2.184   3.697  1.3284  2.3001 -1.4624
  183SLPC  C21220938   3.787   2.000   3.693 -0.1036  0.3661  0.6812
  183SLPC  H12R20939   3.726   1.972   3.780  0.1211  0.0803  0.7475
  183SLPC  C21320940   3.843   1.900   3.627  0.1426 -0.2557  0.9201
  183SLPC  H13R20941   3.839   1.796   3.662 -2.1364 -0.5718 -0.1106
  183SLPC  C21420942   3.928   1.925   3.497 -0.2805  0.3581 -0.6666
  183SLPC  H14R20943   4.018   1.861   3.503 -0.8849 -0.3448  1.9169
  183SLPC  H14S20944   3.971   2.027   3.490  0.1549  0.2647  0.4841
  183SLPC  C21520945   3.857   1.874   3.369  0.0257  0.1888  0.1311
  183SLPC  H15R20946   3.765   1.931   3.343  0.2390  0.0854 -0.8908
  183SLPC  H15S20947   3.827   1.768   3.378 -1.1052  0.6366  2.5779
  183SLPC  C21620948   3.956   1.873   3.253  0.2823  0.5304 -0.2680
  183SLPC  H16R20949   4.049   1.817   3.277 -0.7362 -0.6415  1.1216
  183SLPC  H16S20950   3.988   1.979   3.242 -0.2557  0.7608  0.3616
  183SLPC  C21720951   3.899   1.817   3.118  0.3824  0.3528  0.2450
  183SLPC  H17R20952   3.798   1.863   3.112  0.8018  1.1757 -0.7875
  183SLPC  H17S20953   3.887   1.707   3.119  2.4407  0.0153 -1.9145
  183SLPC  C21820954   3.986   1.855   2.995 -0.4109  0.1116 -0.4681
  183SLPC  H18R20955   4.080   1.796   2.993  1.1808  2.3813  1.5218
  183SLPC  H18S20956   4.018   1.962   2.997 -2.4000  0.7543 -0.2891
  183SLPC  H18T20957   3.935   1.834   2.899 -0.0573 -1.2419 -0.3834
  183SLPC   C3320958   4.630   2.199   2.796 -0.3192  0.8227  0.8443
  183SLPC   H3X20959   4.722   2.235   2.744 -0.2300 -0.4463  0.0859
  183SLPC   H3Y20960   4.648   2.094   2.826 -3.0627  0.0250 -0.0464
  183SLPC   C3420961   4.604   2.278   2.932 -0.0802 -0.5124 -0.6003
  183SLPC   H4X20962   4.498   2.257   2.959 -0.2039 -0.1205 -0.7835
  183SLPC   H4Y20963   4.632   2.384   2.918 -2.3341  0.5630  2.2237
  183SLPC   C3520964   4.698   2.222   3.043  0.0552 -0.1952  0.4030
  183SLPC   H5X20965   4.798   2.203   2.998 -0.0962 -1.4793  0.5691
  183SLPC   H5Y20966   4.668   2.121   3.078 -0.2821 -1.7757 -3.8301
  183SLPC   C3620967   4.702   2.317   3.165  0.0485  0.0885 -0.4655
  183SLPC   H6X20968   4.704   2.423   3.134 -0.2462  0.2861  0.1693
  183SLPC   H6Y20969   4.792   2.289   3.223  1.2706 -0.6623 -2.6021
  183SLPC   C3720970   4.575   2.296   3.252  0.2996  0.3961 -0.4843
  183SLPC   H7X20971   4.567   2.192   3.291  0.1096  1.0368  1.2627
  183SLPC   H7Y20972   4.485   2.308   3.187 -0.8102  2.8395  1.3250
  183SLPC   C3820973   4.559   2.377   3.377  0.7901  0.3784 -0.4314
  183SLPC   H8X20974   4.490   2.331   3.450 -0.8140  1.2423 -1.3403
  183SLPC   H8Y20975   4.531   2.483   3.355  0.3805  0.6634  1.3226
  183SLPC   C3920976   4.688   2.390   3.459  0.4320  0.5088 -0.5930
  183SLPC   H9X20977   4.748   2.467   3.406  1.2227 -1.3207 -2.4662
  183SLPC   H9Y20978   4.725   2.286   3.457 -3.6276 -1.1527  0.8710
  183SLPC  C31020979   4.656   2.437   3.604 -0.2719 -0.1276 -0.8126
  183SLPC  H10X20980   4.621   2.344   3.655 -0.7453  0.7981  0.6214
  183SLPC  H10Y20981   4.593   2.528   3.595  1.6557  1.2006 -1.6185
  183SLPC  C31120982   4.774   2.485   3.692  0.4791  0.3322  0.0553
  183SLPC  H11X20983   4.822   2.577   3.652 -1.3458  0.3763 -2.2764
  183SLPC  H11Y20984   4.852   2.406   3.694  0.2782  0.1578  1.2990
  183SLPC  C31220985   4.733   2.510   3.838 -0.3477  0.1389  0.4838
  183SLPC  H12X20986   4.679   2.421   3.877  0.2838  0.2997  1.7660
  183SLPC  H12Y20987   4.660   2.594   3.843 -0.2453  0.1528  2.2731
  183SLPC  C31320988   4.858   2.520   3.928 -1.0982  0.5870  0.3914
  183SLPC  H13X20989   4.930   2.597   3.891 -1.4046  1.0946  0.8243
  183SLPC  H13Y20990   4.913   2.426   3.909  1.4939  1.5839  2.2928
  183SLPC  C31420991   4.835   2.532   4.083 -0.2228 -0.0727  0.3642
  183SLPC  H14X20992   4.931   2.524   4.139 -1.0274 -2.3887  1.5414
  183SLPC  H14Y20993   4.767   2.450   4.115 -2.1144  0.6495 -1.5798
  183SLPC  C31520994   4.778   2.674   4.109  0.7291  0.2822 -0.1062
  183SLPC  H15X20995   4.673   2.664   4.076  0.1015  1.3947  1.4545
  183SLPC  H15Y20996   4.823   2.749   4.041  1.0273  1.0268  0.8916
  183SLPC  C31620997   4.776   2.709   4.254  0.1705  0.0347 -0.2370
  183SLPC  H16X20998   4.864   2.665   4.306 -0.4433 -1.2275 -0.2364
  183SLPC  H16Y20999   4.697   2.657   4.312 -0.1919  0.7943 -0.0267
  183SLPC  C31721000   4.758   2.864   4.277  0.1300  0.0974 -0.0669
  183SLPC  H17X21001   4.670   2.904   4.223 -0.8113 -0.1509  1.2302
  183SLPC  H17Y21002   4.843   2.910   4.223 -1.3170  1.3045 -1.4068
  183SLPC  C31821003   4.747   2.915   4.421 -0.2568 -0.1772  0.6055
  183SLPC  H18X21004   4.753   3.026   4.421  3.2666 -0.2574 -0.5710
  183SLPC  H18Y21005   4.830   2.879   4.485  2.6108  0.9039 -2.2295
  183SLPC  H18Z21006   4.647   2.900   4.468  0.0287 -0.4156  1.1440
  184SLPC     N21007   4.925   3.242   2.284  0.0117  0.5515  0.0934
  184SLPC   C1321008   4.822   3.131   2.276 -0.1677  0.3799  0.3907
  184SLPC  H13A21009   4.854   3.040   2.228 -0.5079  0.2929  0.3273
  184SLPC  H13B21010   4.790   3.112   2.377  0.7336  1.6673  0.9450
  184SLPC  H13C21011   4.730   3.157   2.227 -1.5925 -2.5952  1.2876
  184SLPC   C1421012   4.979   3.272   2.143 -0.2132  0.0797 -0.1180
  184SLPC  H14A21013   5.049   3.354   2.145  0.8667 -0.8266 -0.1317
  184SLPC  H14B21014   5.027   3.191   2.091 -1.8182  0.6631 -2.6905
  184SLPC  H14C21015   4.903   3.308   2.075  0.1738 -1.2402 -1.2828
  184SLPC   C1521016   5.047   3.195   2.357 -0.1668  0.1794  0.2815
  184SLPC  H15A21017   5.072   3.092   2.336  2.0518  0.9264 -1.0136
  184SLPC  H15B21018   5.127   3.263   2.335 -1.5460  0.8841 -3.2719
  184SLPC  H15C21019   5.017   3.196   2.461 -0.5463 -1.4598  0.2191
  184SLPC   C1221020   4.885   3.369   2.351  0.3248 -0.5691 -0.1202
  184SLPC  H12A21021   4.823   3.425   2.283  0.6664 -0.2019 -0.1290
  184SLPC  H12B21022   4.970   3.434   2.367  0.3133 -1.1226  2.7743
  184SLPC   C1121023   4.816   3.351   2.487  0.0918 -0.4754  0.0304
  184SLPC  H11A21024   4.728   3.283   2.476  0.3451 -0.7468 -0.3721
  184SLPC  H11B21025   4.792   3.457   2.508  3.7552  0.2300  1.4818
  184SLPC     P21026   4.996   3.380   2.680  0.0354  0.3544 -0.0572
  184SLPC   O1321027   5.127   3.309   2.702 -0.3286  0.2697  0.1312
  184SLPC   O1421028   5.011   3.518   2.629 -0.1974  0.3751 -0.0695
  184SLPC   O1221029   4.906   3.288   2.581  0.2892  0.2314  0.0004
  184SLPC   O1121030   4.919   3.391   2.819 -0.5594  0.4247  0.5193
  184SLPC    C121031   4.805   3.314   2.846 -0.1729 -0.5944 -0.2845
  184SLPC    HA21032   4.727   3.374   2.899  0.6951  1.5992 -1.3578
  184SLPC    HB21033   4.758   3.264   2.758  0.3292  0.1611 -0.9901
  184SLPC    C221034   4.840   3.186   2.937 -0.3856  0.1426  0.0523
  184SLPC    HS21035   4.898   3.112   2.879  1.6127  0.0495  2.0308
  184SLPC   O2121036   4.716   3.134   2.995 -0.4950  0.4133  0.0655
  184SLPC   C2121037   4.670   3.028   2.937 -0.5142  0.1261  0.1054
  184SLPC   O2221038   4.710   2.984   2.831 -0.3862  0.6805 -0.3302
  184SLPC   C2221039   4.556   2.982   3.013  0.4937 -0.1094 -0.5919
  184SLPC   H2R21040   4.543   3.034   3.110  0.9173 -2.3102  0.7082
  184SLPC   H2S21041   4.467   3.010   2.952  0.7480  1.5150 -0.2611
  184SLPC    C321042   4.935   3.239   3.047 -0.1543 -0.0222  0.6132
  184SLPC    HX21043   4.891   3.325   3.101  2.1747  0.2254  2.2521
  184SLPC    HY21044   5.030   3.275   3.002  1.0264 -2.8654  0.5922
  184SLPC   O3121045   4.969   3.131   3.142 -0.1060 -0.3681  1.0952
  184SLPC   C3121046   5.049   3.036   3.096 -0.6147  0.6508 -0.1145
  184SLPC   O3221047   5.113   3.043   2.992 -0.6971  0.7242 -0.2749
  184SLPC   C3221048   5.063   2.931   3.206 -0.0460 -0.4196 -0.8696
  184SLPC   H2X21049   5.154   2.871   3.183  0.2827 -0.1716 -0.2351
  184SLPC   H2Y21050   4.972   2.868   3.212 -1.2138  0.8889 -3.3215
  184SLPC   C2321051   4.559   2.833   3.048  0.4301 -0.6589 -0.0479
  184SLPC   H3R21052   4.570   2.782   2.950  1.5798  1.5765 -1.1572
  184SLPC   H3S21053   4.455   2.819   3.083  0.1734 -1.1382 -0.9905
  184SLPC   C2421054   4.659   2.793   3.162 -0.2888 -0.3383  0.4784
  184SLPC   H4R21055   4.752   2.853   3.156 -0.7171  0.3064  0.0521
  184SLPC   H4S21056   4.688   2.686   3.151  2.9055  0.5395 -0.6797
  184SLPC   C2521057   4.602   2.829   3.299 -0.8911 -0.2722  0.3107
  184SLPC   H5R21058   4.508   2.781   3.332 -0.1368 -1.6600  0.4940
  184SLPC   H5S21059   4.586   2.939   3.294 -0.1147 -0.1862 -0.6011
  184SLPC   C2621060   4.715   2.814   3.407 -0.0321  0.7480 -0.0109
  184SLPC   H6R21061   4.818   2.817   3.367 -0.0857  1.4177 -0.1132
  184SLPC   H6S21062   4.705   2.710   3.444  0.1413  0.8882  0.4379
  184SLPC   C2721063   4.710   2.913   3.517 -0.4781 -0.5617 -0.4927
  184SLPC   H7R21064   4.605   2.939   3.544 -0.1284 -1.1849  1.6354
  184SLPC   H7S21065   4.765   3.003   3.483 -1.7288  1.0588  1.5101
  184SLPC   C2821066   4.785   2.850   3.641  0.0416  0.0688 -0.5009
  184SLPC   H8R21067   4.885   2.809   3.613 -0.3558 -0.4347 -1.2293
  184SLPC   H8S21068   4.728   2.763   3.680 -0.6559  0.2691 -1.0569
  184SLPC   C2921069   4.792   2.953   3.752 -0.6926  0.0279  0.0356
  184SLPC   H9R21070   4.705   3.019   3.761 -1.7295 -1.5676  3.6815
  184SLPC  C21021071   4.904   2.978   3.819  0.4936 -0.3074  0.0341
  184SLPC  H10R21072   4.896   3.051   3.901 -1.0292  2.7226 -2.5852
  184SLPC  C21121073   5.041   2.911   3.793 -0.0641 -0.0896 -0.1913
  184SLPC  H11R21074   5.056   2.878   3.688 -0.1608  1.0316 -0.5744
  184SLPC  H11S21075   5.044   2.817   3.852 -0.0503  0.9762  1.5857
  184SLPC  C21221076   5.139   3.017   3.840  0.6043  0.4907  0.3961
  184SLPC  H12R21077   5.150   3.102   3.771  1.0370  0.4388  0.3991
  184SLPC  C21321078   5.175   3.040   3.968  0.3005 -0.0871 -0.4318
  184SLPC  H13R21079   5.219   3.139   3.985  0.7746 -0.0367 -1.8311
  184SLPC  C21421080   5.135   2.952   4.090  0.1930 -0.7697  0.6654
  184SLPC  H14R21081   5.037   2.905   4.069 -1.2392  2.3004 -0.0554
  184SLPC  H14S21082   5.128   3.020   4.177  1.3514  1.3428 -0.8097
  184SLPC  C21521083   5.235   2.839   4.135  0.5646 -0.0429  1.0269
  184SLPC  H15R21084   5.340   2.875   4.133 -0.4104  3.0593  0.5397
  184SLPC  H15S21085   5.213   2.758   4.062  2.6573 -1.3572  1.7774
  184SLPC  C21621086   5.212   2.799   4.284 -0.3824 -0.6286 -0.1926
  184SLPC  H16R21087   5.104   2.779   4.295 -0.5429  0.1873 -0.2175
  184SLPC  H16S21088   5.234   2.894   4.337 -0.3432  0.3941 -1.9535
  184SLPC  C21721089   5.300   2.685   4.330 -0.0326  0.3086 -0.3705
  184SLPC  H17R21090   5.408   2.705   4.311  0.3138 -1.6673 -0.6303
  184SLPC  H17S21091   5.273   2.596   4.270  0.6975  1.4030 -2.4238
  184SLPC  C21821092   5.278   2.651   4.483  0.2153 -0.0611  0.0392
  184SLPC  H18R21093   5.303   2.741   4.544 -1.2895 -0.4885  1.3365
  184SLPC  H18S21094   5.329   2.560   4.519  1.2543  0.8200  0.8651
  184SLPC  H18T21095   5.169   2.645   4.504  0.0715  3.1422  0.7996
  184SLPC   C3321096   5.094   2.988   3.349 -0.7393  0.1406  0.3243
  184SLPC   H3X21097   5.108   2.902   3.417  2.0819  0.6832  0.5831
  184SLPC   H3Y21098   5.004   3.049   3.370 -1.2582 -0.5088  0.0256
  184SLPC   C3421099   5.229   3.057   3.335 -0.0630  0.0800 -0.4144
  184SLPC   H4X21100   5.214   3.150   3.276 -0.7844 -0.7236 -1.5428
  184SLPC   H4Y21101   5.300   2.995   3.277  0.0425 -1.9282  1.6972
  184SLPC   C3521102   5.289   3.092   3.470 -0.1895  0.0832  0.6497
  184SLPC   H5X21103   5.294   2.995   3.524 -0.6483 -0.3889 -0.1290
  184SLPC   H5Y21104   5.221   3.162   3.523 -1.6930 -1.4764  0.8760
  184SLPC   C3621105   5.430   3.148   3.464  0.1081 -0.2444  0.8108
  184SLPC   H6X21106   5.425   3.242   3.405  1.0041 -0.0547  1.0229
  184SLPC   H6Y21107   5.485   3.070   3.408 -0.2225 -0.3254  0.5966
  184SLPC   C3721108   5.511   3.175   3.595  0.0783 -1.1257 -0.2637
  184SLPC   H7X21109   5.529   3.079   3.646  1.2403 -0.0234  1.5154
  184SLPC   H7Y21110   5.456   3.239   3.667  0.6884 -1.9392  0.9459
  184SLPC   C3821111   5.651   3.240   3.572 -0.4739  0.4753 -0.0562
  184SLPC   H8X21112   5.638   3.336   3.518  0.1954  0.8570  0.4484
  184SLPC   H8Y21113   5.714   3.171   3.512 -0.9752  0.5403 -0.6669
  184SLPC   C3921114   5.707   3.280   3.713 -0.1868  0.6367 -0.4038
  184SLPC   H9X21115   5.640   3.356   3.759 -0.7271 -0.6971  1.1127
  184SLPC   H9Y21116   5.808   3.320   3.693 -0.2569  0.2439 -1.6309
  184SLPC  C31021117   5.713   3.155   3.811  1.0398 -0.4838  0.4965
  184SLPC  H10X21118   5.770   3.069   3.768 -1.0123 -1.6246 -0.0684
  184SLPC  H10Y21119   5.610   3.114   3.821  0.3403  0.8962 -0.6696
  184SLPC  C31121120   5.754   3.184   3.950  0.4829  0.4178  0.0652
  184SLPC  H11X21121   5.723   3.287   3.980 -1.1966 -0.2258  0.6502
  184SLPC  H11Y21122   5.864   3.175   3.960  0.2971 -1.8639  0.7391
  184SLPC  C31221123   5.691   3.079   4.052 -0.4816  0.0961 -0.3219
  184SLPC  H12X21124   5.721   2.976   4.025  2.0626  0.5189  0.6186
  184SLPC  H12Y21125   5.580   3.069   4.059 -0.4081 -0.4763  0.1536
  184SLPC  C31321126   5.741   3.102   4.198  0.0141 -0.9627 -0.7131
  184SLPC  H13X21127   5.703   3.205   4.217 -1.1136 -1.4274 -0.3378
  184SLPC  H13Y21128   5.851   3.095   4.205 -0.0655 -1.5287  0.0868
  184SLPC  C31421129   5.674   3.025   4.309  0.7980  0.2684 -0.0616
  184SLPC  H14X21130   5.731   2.933   4.332  0.0204 -0.0432  0.6573
  184SLPC  H14Y21131   5.570   2.996   4.283  0.7357 -0.4869  0.9650
  184SLPC  C31521132   5.660   3.100   4.445  0.4914  0.1932 -0.0099
  184SLPC  H15X21133   5.649   3.209   4.426  0.7768  0.2124 -0.0780
  184SLPC  H15Y21134   5.764   3.098   4.486  0.8289 -0.5709 -0.8777
  184SLPC  C31621135   5.563   3.047   4.556 -0.7571 -0.0163  0.1429
  184SLPC  H16X21136   5.465   3.075   4.513 -0.1808  2.8508  0.5151
  184SLPC  H16Y21137   5.579   3.115   4.643 -0.1454 -0.0971  0.0980
  184SLPC  C31721138   5.594   2.902   4.593  0.5863  0.0908 -0.1142
  184SLPC  H17X21139   5.703   2.898   4.615  0.0220  0.4173  3.1027
  184SLPC  H17Y21140   5.574   2.842   4.501  0.7197  0.2373 -0.2388
  184SLPC  C31821141   5.519   2.834   4.714 -0.0595 -1.0590 -0.1639
  184SLPC  H18X21142   5.412   2.862   4.719  0.6729  2.0420  0.6769
  184SLPC  H18Y21143   5.569   2.873   4.805 -0.1037  0.2980 -0.6858
  184SLPC  H18Z21144   5.530   2.724   4.718 -1.5100 -1.2604 -1.1133
  185POPC     N21145   1.564   0.918   7.010  0.4124  0.3797 -0.7434
  185POPC   C1221146   1.636   0.935   6.882  0.4608  0.1526  0.7770
  185POPC  H12A21147   1.592   1.023   6.836  0.3773  2.5892  4.9711
  185POPC  H12B21148   1.603   0.854   6.819  0.4699 -1.3673  2.6523
  185POPC   C1321149   1.645   0.829   7.105  0.7697  0.1066  0.1329
  185POPC  H13A21150   1.649   0.729   7.062 -1.8638  0.4751 -1.1653
  185POPC  H13B21151   1.747   0.860   7.120  0.6391  1.6826 -1.8179
  185POPC  H13C21152   1.605   0.822   7.205  0.0697  2.2561  0.0389
  185POPC   C1421153   1.554   1.057   7.073 -0.0431  0.7986 -0.1011
  185POPC  H14A21154   1.497   1.129   7.015  0.9845  1.3032 -0.5011
  185POPC  H14B21155   1.506   1.047   7.169  0.0338 -1.5537 -0.2585
  185POPC  H14C21156   1.654   1.093   7.091  0.4255 -1.0459  1.2817
  185POPC   C1521157   1.429   0.867   6.989 -0.0574  0.3017  0.0542
  185POPC  H15A21158   1.376   0.936   6.925  1.1684 -0.5469 -1.9700
  185POPC  H15B21159   1.370   0.875   7.079  1.5358  1.8420  1.0326
  185POPC  H15C21160   1.440   0.770   6.943  0.9362  0.0707  0.7307
  185POPC   C1121161   1.787   0.943   6.881 -0.0105  0.0900 -0.4368
  185POPC  H11A21162   1.808   0.951   6.773  0.7414  1.9151 -0.1974
  185POPC  H11B21163   1.830   0.846   6.913  0.7377 -0.5505 -3.2003
  185POPC     P21164   1.999   1.071   6.954 -0.3393  0.1156  0.1117
  185POPC   O1321165   2.047   0.955   7.030  0.4397  0.0219  0.0145
  185POPC   O1421166   2.027   1.199   7.018  0.8340 -0.0677 -0.0731
  185POPC   O1221167   1.839   1.059   6.940 -0.1446 -0.3676 -0.6595
  185POPC   O1121168   2.062   1.076   6.801  0.3438  0.0585  0.0178
  185POPC    C121169   2.135   0.962   6.752  0.3518  0.1052  0.1121
  185POPC    HA21170   2.073   0.870   6.743 -2.3547  1.8354 -0.1886
  185POPC    HB21171   2.230   0.935   6.803 -0.6401 -3.1174  0.4988
  185POPC    C221172   2.186   0.991   6.612  0.0091 -0.1908 -0.0791
  185POPC    HS21173   2.262   1.070   6.628 -0.7364  0.3812  0.7471
  185POPC   O2121174   2.076   1.026   6.520 -1.1255 -0.5358 -0.3230
  185POPC   C2121175   2.088   1.142   6.456 -0.7949 -1.0269 -0.4128
  185POPC   O2221176   2.188   1.214   6.459  0.1208  0.0248 -0.5711
  185POPC   C2221177   1.953   1.170   6.386  0.1465  0.2230  0.1924
  185POPC   H2R21178   1.883   1.178   6.472  0.0469 -1.6233  0.3129
  185POPC   H2S21179   1.921   1.085   6.321 -0.3343 -0.0065  0.7258
  185POPC    C321180   2.254   0.872   6.550 -0.9021 -0.1160  0.2073
  185POPC    HX21181   2.183   0.787   6.547  0.3917 -1.2371  0.3549
  185POPC    HY21182   2.339   0.848   6.618  0.1712 -1.9516 -1.6833
  185POPC   O3121183   2.299   0.897   6.418  0.5157 -0.2078 -0.0876
  185POPC   C3121184   2.417   0.962   6.412 -0.1158  0.1115  0.3538
  185POPC   O3221185   2.490   0.987   6.506  0.2058  0.1474  0.9355
  185POPC   C3221186   2.439   1.006   6.267  0.3539 -0.5305  0.1367
  185POPC   H2X21187   2.363   0.973   6.193  2.4084  0.2962 -2.5174
  185POPC   H2Y21188   2.537   0.970   6.230 -0.1996  0.4526 -2.5353
  185POPC   C2321189   1.967   1.302   6.305 -0.0636 -0.4447 -0.4721
  185POPC   H3R21190   2.022   1.374   6.368  3.2119 -2.4607 -0.7799
  185POPC   H3S21191   1.871   1.357   6.290  1.1518  1.5673 -1.3108
  185POPC   C2421192   2.021   1.279   6.169 -0.6528  0.5593 -0.0159
  185POPC   H4R21193   1.945   1.226   6.107 -0.0086 -2.6323  1.6979
  185POPC   H4S21194   2.089   1.191   6.173 -2.9596 -1.2893  1.6056
  185POPC   C2521195   2.081   1.390   6.097 -0.8353 -0.0907 -0.3037
  185POPC   H5R21196   2.177   1.404   6.150 -1.1747  1.1469  0.0155
  185POPC   H5S21197   2.022   1.481   6.121  0.2352  0.1827  1.5205
  185POPC   C2621198   2.082   1.371   5.946 -0.7507  0.5819  0.7844
  185POPC   H6R21199   1.985   1.329   5.912  0.0687  0.4648 -1.6021
  185POPC   H6S21200   2.159   1.298   5.912  0.7232  2.4362 -0.0922
  185POPC   C2721201   2.112   1.507   5.880  0.5171 -0.0899 -0.7390
  185POPC   H7R21202   2.218   1.527   5.908  0.9779 -1.8391 -1.1136
  185POPC   H7S21203   2.045   1.585   5.921  1.6122  0.6643 -0.3382
  185POPC   C2821204   2.106   1.510   5.723  0.7222 -0.4835 -0.3195
  185POPC   H8R21205   1.999   1.500   5.695  0.0751 -0.2599  1.9071
  185POPC   H8S21206   2.169   1.425   5.691  1.7358 -0.1584  0.7701
  185POPC   C2921207   2.163   1.639   5.670  0.5263 -0.6190 -0.5143
  185POPC   H9121208   2.190   1.709   5.750  0.5635  1.7744 -2.4948
  185POPC  C21021209   2.191   1.659   5.539 -0.2945 -0.0146 -0.3051
  185POPC  H10121210   2.225   1.759   5.509  0.6471 -0.1511  0.2767
  185POPC  C21121211   2.170   1.549   5.436 -1.4939  0.5043 -0.6922
  185POPC  H11R21212   2.072   1.497   5.438 -0.8913 -0.7589 -2.3707
  185POPC  H11S21213   2.237   1.464   5.463 -3.5831 -0.5252  1.6849
  185POPC  C21221214   2.187   1.609   5.297  0.1068  0.2277 -0.4928
  185POPC  H12R21215   2.291   1.645   5.280 -0.6356  2.1415 -1.2685
  185POPC  H12S21216   2.112   1.688   5.272 -2.1377 -1.8988 -0.8202
  185POPC  C21321217   2.153   1.520   5.181  0.3648  0.6724  0.8532
  185POPC  H13R21218   2.044   1.502   5.190  0.6946 -1.7798  0.6004
  185POPC  H13S21219   2.195   1.417   5.187 -2.6825 -0.6750  0.5573
  185POPC  C21421220   2.175   1.591   5.047 -0.1471 -0.8467  0.0375
  185POPC  H14R21221   2.280   1.628   5.049 -0.2284 -0.5825 -0.2909
  185POPC  H14S21222   2.119   1.687   5.037  2.4800  0.7035 -0.9870
  185POPC  C21521223   2.148   1.516   4.913 -0.1438 -0.1840 -0.3536
  185POPC  H15R21224   2.037   1.512   4.908 -0.1550 -0.2763 -0.0686
  185POPC  H15S21225   2.179   1.410   4.913 -0.7595 -0.3744 -1.3678
  185POPC  C21621226   2.198   1.594   4.789  0.0232 -0.2366 -0.7075
  185POPC  H16R21227   2.308   1.581   4.780  0.2338  1.3858 -0.8618
  185POPC  H16S21228   2.196   1.702   4.813  0.2834 -0.5695  0.9222
  185POPC  C21721229   2.134   1.564   4.660  1.0058  0.1653 -0.5131
  185POPC  H17R21230   2.135   1.456   4.633 -1.8129 -0.7134  2.3015
  185POPC  H17S21231   2.200   1.616   4.588  1.5885  2.5747  1.6327
  185POPC  C21821232   1.990   1.616   4.635  0.6413  0.7130  0.3817
  185POPC  H18R21233   1.992   1.726   4.649  2.8137  1.0282 -1.6657
  185POPC  H18S21234   1.913   1.572   4.701 -0.6381  0.4184 -1.2518
  185POPC  H18T21235   1.966   1.611   4.527  1.2022  1.7538  0.1979
  185POPC   C3321236   2.431   1.162   6.270  0.4034 -0.0495 -0.2884
  185POPC   H3X21237   2.487   1.207   6.355  0.6279  1.7474 -1.3257
  185POPC   H3Y21238   2.325   1.186   6.292  0.4268 -0.1193 -0.0935
  185POPC   C3421239   2.486   1.232   6.149  0.2563  0.2036  0.0005
  185POPC   H4X21240   2.595   1.228   6.127 -0.0702 -2.6587 -1.5827
  185POPC   H4Y21241   2.452   1.337   6.161 -1.3358 -0.4905  2.4718
  185POPC   C3521242   2.426   1.186   6.016 -0.3593  0.9787  0.0733
  185POPC   H5X21243   2.321   1.149   6.010  0.2109 -0.6089 -0.5403
  185POPC   H5Y21244   2.478   1.092   5.989 -1.4159  0.2441  0.5339
  185POPC   C3621245   2.463   1.272   5.898 -0.3478 -0.5137  0.3541
  185POPC   H6X21246   2.573   1.289   5.891 -0.4707 -0.4618 -2.3170
  185POPC   H6Y21247   2.437   1.374   5.932  0.7172 -0.3233  0.6530
  185POPC   C3721248   2.411   1.222   5.767  0.7144 -0.4242 -0.0945
  185POPC   H7X21249   2.300   1.220   5.764  0.6936  0.0659  0.2269
  185POPC   H7Y21250   2.443   1.118   5.744  0.4682 -0.3390 -0.8807
  185POPC   C3821251   2.454   1.303   5.647 -0.2086 -0.5273  0.1390
  185POPC   H8X21252   2.563   1.321   5.656 -0.0616  0.4339 -2.5100
  185POPC   H8Y21253   2.401   1.400   5.643  0.5034 -0.1574 -1.4756
  185POPC   C3921254   2.429   1.226   5.510 -0.5315  0.9812 -0.4341
  185POPC   H9X21255   2.323   1.196   5.502 -0.4196  0.5358 -0.2719
  185POPC   H9Y21256   2.504   1.145   5.521  0.9839  1.6543 -4.1939
  185POPC  C31021257   2.472   1.283   5.382 -0.2004  0.2284  0.3277
  185POPC  H10X21258   2.573   1.319   5.411 -0.6093 -0.7775  3.3497
  185POPC  H10Y21259   2.422   1.380   5.358  1.0240  0.4720 -1.4781
  185POPC  C31121260   2.466   1.184   5.261 -0.2759 -0.2815 -0.0892
  185POPC  H11X21261   2.362   1.146   5.253  0.1020 -1.6382  1.1659
  185POPC  H11Y21262   2.529   1.098   5.292  0.4746  0.7743  1.4267
  185POPC  C31221263   2.498   1.261   5.131 -0.4919 -0.3706 -0.2703
  185POPC  H12X21264   2.597   1.311   5.135 -1.0800  1.0502 -1.9387
  185POPC  H12Y21265   2.421   1.341   5.118 -0.0384  0.0672 -0.2976
  185POPC  C31321266   2.502   1.165   5.016 -0.5075  0.1464 -0.2670
  185POPC  H13X21267   2.411   1.105   4.996  0.3116 -0.8465 -1.1536
  185POPC  H13Y21268   2.579   1.090   5.047 -1.8407 -1.3257 -0.3733
  185POPC  C31421269   2.546   1.213   4.877  0.6298  0.7482  0.6673
  185POPC  H14X21270   2.591   1.124   4.829  0.2265  0.1228  1.4108
  185POPC  H14Y21271   2.627   1.288   4.889  2.4430 -0.6881 -1.7834
  185POPC  C31521272   2.444   1.277   4.778  0.1235  0.8279  0.1840
  185POPC  H15X21273   2.391   1.356   4.836 -0.9913  1.1923 -1.2783
  185POPC  H15Y21274   2.370   1.195   4.764  1.1882 -0.1135 -0.0573
  185POPC  C31621275   2.487   1.316   4.631 -0.0891 -0.6843  0.0588
  185POPC  H16X21276   2.412   1.366   4.565  1.5495  0.8545 -0.7266
  185POPC  H16Y21277   2.541   1.231   4.585 -1.4328 -1.7848  0.4638
  185POPC  H16Z21278   2.564   1.395   4.642 -0.9849  0.3701 -0.9659
  186POPC     N21279   3.059   6.412   6.874 -0.0234  0.4944 -0.1411
  186POPC   C1221280   2.930   6.344   6.826  0.7496  0.9239  0.1424
  186POPC  H12A21281   2.851   6.346   6.899  0.6761  0.3122  0.0841
  186POPC  H12B21282   2.953   6.240   6.813  2.8881  1.3981 -0.3566
  186POPC   C1321283   3.041   6.551   6.915 -0.2918 -0.3456  0.2921
  186POPC  H13A21284   3.041   6.612   6.826 -0.2018  0.4248  0.8109
  186POPC  H13B21285   2.951   6.556   6.975  0.2652 -0.4698  1.1481
  186POPC  H13C21286   3.127   6.585   6.970 -0.4107  4.0855 -1.8310
  186POPC   C1421287   3.107   6.342   6.999 -0.2982 -0.3068 -0.3910
  186POPC  H14A21288   3.208   6.370   7.025 -1.2987  2.2123  1.1930
  186POPC  H14B21289   3.053   6.375   7.086  0.4882  0.5930 -0.2271
  186POPC  H14C21290   3.101   6.235   6.984  1.0145 -0.3715 -0.5797
  186POPC   C1521291   3.161   6.398   6.769 -0.4115  0.0590  0.4313
  186POPC  H15A21292   3.125   6.439   6.675 -0.5585  0.6293  0.7327
  186POPC  H15B21293   3.184   6.292   6.764  1.8621  0.5642 -2.5005
  186POPC  H15C21294   3.251   6.450   6.796 -1.1148  1.1921  0.6677
  186POPC   C1121295   2.879   6.402   6.691 -0.0814 -0.2464 -0.4448
  186POPC  H11A21296   2.794   6.345   6.649 -1.4723 -0.7828  2.8462
  186POPC  H11B21297   2.952   6.366   6.615  0.3283 -1.9460  0.6951
  186POPC     P21298   2.723   6.596   6.758 -0.4006 -0.5908  0.2789
  186POPC   O1321299   2.766   6.722   6.832 -0.0531 -0.4611 -0.6883
  186POPC   O1421300   2.671   6.498   6.850 -0.3484  0.1620  0.0137
  186POPC   O1221301   2.855   6.542   6.683  0.6028 -0.6874  0.0558
  186POPC   O1121302   2.619   6.620   6.631  0.2458  0.8313 -0.6943
  186POPC    C121303   2.581   6.748   6.586  0.5790 -0.3044  0.4284
  186POPC    HA21304   2.647   6.827   6.627 -1.6502  1.8992  0.0269
  186POPC    HB21305   2.483   6.769   6.633 -0.3747 -0.4865 -1.3845
  186POPC    C221306   2.559   6.766   6.434  0.8986  0.0251  0.0041
  186POPC    HS21307   2.491   6.687   6.394  0.4592 -0.7269  2.0969
  186POPC   O2121308   2.687   6.743   6.381  0.5787 -0.0074 -0.3663
  186POPC   C2121309   2.692   6.706   6.252  0.1528  0.3541  0.1781
  186POPC   O2221310   2.597   6.670   6.185  0.3620 -0.1524  0.4676
  186POPC   C2221311   2.840   6.717   6.204  0.1761 -0.7150  1.0875
  186POPC   H2R21312   2.898   6.664   6.283  1.0567 -0.2439  0.7739
  186POPC   H2S21313   2.872   6.823   6.202 -0.9119 -0.3746 -0.2367
  186POPC    C321314   2.506   6.916   6.403 -0.6736  0.3040 -0.8005
  186POPC    HX21315   2.589   6.983   6.434  1.3426 -2.1041 -0.6114
  186POPC    HY21316   2.419   6.936   6.468  0.1001 -1.3158  0.8132
  186POPC   O3121317   2.484   6.939   6.265  0.0038  0.3286  0.2113
  186POPC   C3121318   2.372   6.878   6.219 -0.3930 -0.5700 -0.8428
  186POPC   O3221319   2.287   6.830   6.292  0.4754  0.1183  0.5993
  186POPC   C3221320   2.369   6.887   6.063  0.7415  1.1358 -0.4366
  186POPC   H2X21321   2.442   6.810   6.031  0.2697  0.2133  0.6403
  186POPC   H2Y21322   2.403   6.988   6.031 -0.1529  1.6851  0.2850
  186POPC   C2321323   2.867   6.659   6.062 -0.3061  0.7895 -0.5811
  186POPC   H3R21324   2.799   6.575   6.037 -1.8116  2.5482 -2.9010
  186POPC   H3S21325   2.974   6.629   6.062 -0.5300 -0.1265  1.3468
  186POPC   C2421326   2.839   6.764   5.954 -1.0725  0.2291  0.3367
  186POPC   H4R21327   2.873   6.718   5.859  0.9696 -4.2934  2.9672
  186POPC   H4S21328   2.913   6.843   5.977  0.7035 -0.8824 -1.2810
  186POPC   C2521329   2.694   6.818   5.943 -0.1071  0.3070  0.7588
  186POPC   H5R21330   2.664   6.883   6.028  1.3655  0.8209  0.9056
  186POPC   H5S21331   2.622   6.734   5.934 -0.1906  0.5318 -1.2272
  186POPC   C2621332   2.673   6.908   5.821  0.4808  0.3479  0.1502
  186POPC   H6R21333   2.758   6.978   5.809  0.5892  0.3546  0.8883
  186POPC   H6S21334   2.592   6.985   5.821  0.3776  0.2557 -1.3112
  186POPC   C2721335   2.663   6.835   5.687 -0.8452  0.4703 -0.4200
  186POPC   H7R21336   2.560   6.797   5.671  0.5209 -2.6766 -2.5396
  186POPC   H7S21337   2.729   6.750   5.713 -0.4677  1.2398  1.3336
  186POPC   C2821338   2.712   6.912   5.566  0.5426  0.3594 -0.5224
  186POPC   H8R21339   2.729   6.837   5.485  3.2645 -1.5273  1.5992
  186POPC   H8S21340   2.812   6.954   5.590 -0.6006  1.7816  2.1672
  186POPC   C2921341   2.619   7.023   5.519 -0.3005  0.0341  0.6577
  186POPC   H9121342   2.643   7.123   5.556  1.3695  1.5534 -3.7848
  186POPC  C21021343   2.518   7.013   5.429  0.3245 -0.2888  0.2725
  186POPC  H10121344   2.461   7.103   5.402  0.1636 -0.6117 -0.4811
  186POPC  C21121345   2.485   6.885   5.358 -0.2222 -0.1923 -0.7442
  186POPC  H11R21346   2.425   6.819   5.424  1.9992 -1.0175  0.5595
  186POPC  H11S21347   2.579   6.826   5.344  0.2045  0.0001  1.1185
  186POPC  C21221348   2.405   6.916   5.228 -0.0305  0.0064 -0.2027
  186POPC  H12R21349   2.321   6.984   5.254 -0.4272 -0.2310 -0.8410
  186POPC  H12S21350   2.366   6.819   5.190  1.4409 -1.0340  0.8441
  186POPC  C21321351   2.481   6.986   5.119  0.3887  0.5490 -0.1364
  186POPC  H13R21352   2.577   6.934   5.100  0.2748  0.4304 -0.3932
  186POPC  H13S21353   2.493   7.085   5.167 -2.4526  1.0051 -0.1917
  186POPC  C21421354   2.402   7.000   4.984  0.1110 -0.7816 -0.4893
  186POPC  H14R21355   2.299   7.018   5.023  0.5248 -1.5001  1.0161
  186POPC  H14S21356   2.404   6.907   4.924  3.0309 -0.2456 -1.3555
  186POPC  C21521357   2.446   7.123   4.904  0.2051  0.4901 -0.1076
  186POPC  H15R21358   2.554   7.106   4.885 -0.1979 -2.8128  0.1151
  186POPC  H15S21359   2.429   7.215   4.965  0.8619 -0.3379  1.3804
  186POPC  C21621360   2.365   7.145   4.772 -0.0756 -0.1054 -0.1764
  186POPC  H16R21361   2.374   7.059   4.703  0.6313  0.2899 -0.5884
  186POPC  H16S21362   2.403   7.232   4.713  2.3036  0.2832  1.7277
  186POPC  C21721363   2.221   7.184   4.804  0.2168 -0.5031  0.0810
  186POPC  H17R21364   2.221   7.277   4.866 -0.5448 -0.0890 -0.5199
  186POPC  H17S21365   2.169   7.113   4.872 -2.0332  1.7886  0.9246
  186POPC  C21821366   2.138   7.206   4.679 -0.2408  0.2656 -0.5395
  186POPC  H18R21367   2.029   7.209   4.703 -0.4831  1.1378 -1.6551
  186POPC  H18S21368   2.151   7.125   4.605 -2.1689 -0.4406 -0.1736
  186POPC  H18T21369   2.173   7.303   4.637 -1.1872  0.6778 -0.4017
  186POPC   C3321370   2.228   6.849   5.998  0.2371 -0.0878  0.6031
  186POPC   H3X21371   2.148   6.925   6.011 -0.7695 -0.5492 -2.1622
  186POPC   H3Y21372   2.193   6.760   6.053 -2.0470  0.0923 -0.4574
  186POPC   C3421373   2.243   6.825   5.851  0.3538  0.3255  0.4074
  186POPC   H4X21374   2.314   6.741   5.838 -0.3560 -0.0194 -1.7834
  186POPC   H4Y21375   2.279   6.917   5.801 -0.9316  0.9375  0.5609
  186POPC   C3521376   2.117   6.768   5.791  0.0568  0.7530  0.7913
  186POPC   H5X21377   2.053   6.859   5.786 -3.0120 -1.2929 -1.8872
  186POPC   H5Y21378   2.076   6.693   5.862  1.0196 -1.4547 -0.8669
  186POPC   C3621379   2.132   6.719   5.648 -0.3389 -0.1623 -0.1974
  186POPC   H6X21380   2.189   6.624   5.644 -2.2736 -1.3844 -0.0767
  186POPC   H6Y21381   2.176   6.795   5.581 -1.2489  0.3226 -0.2594
  186POPC   C3721382   1.996   6.668   5.591  0.8629 -0.1682  0.0681
  186POPC   H7X21383   1.921   6.747   5.572  0.4508 -0.7139 -0.6091
  186POPC   H7Y21384   1.964   6.598   5.670 -0.0193  0.0446 -0.0957
  186POPC   C3821385   2.020   6.579   5.472 -0.0974  0.3126 -0.3112
  186POPC   H8X21386   1.932   6.521   5.437  0.2758 -1.1329  1.0672
  186POPC   H8Y21387   2.104   6.510   5.494 -1.1612 -1.4624 -1.6262
  186POPC   C3921388   2.071   6.654   5.352  0.5177 -0.8150  0.2232
  186POPC   H9X21389   2.168   6.702   5.378  0.4165 -0.1247 -0.6317
  186POPC   H9Y21390   2.002   6.736   5.323  1.3142  0.1143  0.8775
  186POPC  C31021391   2.095   6.557   5.235  0.5404 -0.0484 -0.5925
  186POPC  H10X21392   1.998   6.513   5.205  0.2377  1.4487 -1.9132
  186POPC  H10Y21393   2.166   6.475   5.261  2.2937  1.5879  0.0619
  186POPC  C31121394   2.154   6.626   5.115  0.6818  0.6697 -0.7151
  186POPC  H11X21395   2.257   6.662   5.137  1.8598 -1.9726 -1.5123
  186POPC  H11Y21396   2.104   6.724   5.099  1.9874  1.2624 -1.3797
  186POPC  C31221397   2.148   6.547   4.985 -0.3942 -0.2686 -0.4143
  186POPC  H12X21398   2.043   6.548   4.947 -0.3919  1.5400 -0.4425
  186POPC  H12Y21399   2.181   6.443   5.006 -1.0265 -0.1660  1.2328
  186POPC  C31321400   2.242   6.617   4.883  0.3869 -0.1497 -0.1087
  186POPC  H13X21401   2.346   6.594   4.915  0.6644 -1.3289 -1.7463
  186POPC  H13Y21402   2.208   6.720   4.859 -3.2927 -1.4851 -1.2976
  186POPC  C31421403   2.229   6.538   4.750 -0.3289  0.7171 -0.7316
  186POPC  H14X21404   2.124   6.555   4.718 -2.7005 -2.6463  4.0608
  186POPC  H14Y21405   2.235   6.428   4.765  0.8023  0.6053 -1.7934
  186POPC  C31521406   2.338   6.574   4.643  0.0143  0.1670  0.0926
  186POPC  H15X21407   2.434   6.528   4.675  0.2821 -1.3677 -2.5582
  186POPC  H15Y21408   2.349   6.684   4.639 -1.3064  0.2875 -0.6681
  186POPC  C31621409   2.309   6.505   4.506  0.3545 -0.1894 -0.6901
  186POPC  H16X21410   2.210   6.544   4.477  0.8509  1.9927  0.3395
  186POPC  H16Y21411   2.298   6.394   4.511 -1.6169 -0.0081 -0.2356
  186POPC  H16Z21412   2.384   6.534   4.429  0.4594 -0.2003 -0.5928
  187POPC     N21413   5.060   4.874   2.209  0.5675  0.0610 -0.7851
  187POPC   C1221414   5.103   4.923   2.071  0.4418  0.0084 -0.2866
  187POPC  H12A21415   5.020   4.932   2.001  1.9435 -1.7603 -2.4776
  187POPC  H12B21416   5.168   4.852   2.023 -0.3042  0.2509 -1.7364
  187POPC   C1321417   4.971   4.747   2.193  0.4827  0.1242 -0.4437
  187POPC  H13A21418   4.870   4.771   2.165 -0.3802  0.0316  2.2858
  187POPC  H13B21419   5.022   4.677   2.128 -0.6225 -0.2795 -0.8931
  187POPC  H13C21420   4.958   4.704   2.291  0.0999  0.2470 -0.4414
  187POPC   C1421421   5.179   4.848   2.292 -0.8723  0.0919  0.1689
  187POPC  H14A21422   5.173   4.802   2.389  1.0091 -0.2907  0.1472
  187POPC  H14B21423   5.238   4.778   2.234  1.5330  3.4188 -1.7505
  187POPC  H14C21424   5.243   4.935   2.296 -2.1098  1.1015 -0.8683
  187POPC   C1521425   4.981   4.986   2.277 -0.0029  0.3489 -0.3716
  187POPC  H15A21426   4.906   5.024   2.209 -0.5535 -1.5371 -0.8797
  187POPC  H15B21427   5.050   5.066   2.300 -2.4358  3.1480 -2.0116
  187POPC  H15C21428   4.933   4.960   2.370 -0.9701  0.1804 -0.9041
  187POPC   C1121429   5.172   5.055   2.061 -0.1689 -0.5800  0.1750
  187POPC  H11A21430   5.117   5.135   2.114 -0.5255 -1.3784  1.0453
  187POPC  H11B21431   5.169   5.072   1.951  2.2111 -1.2518 -0.0440
  187POPC     P21432   5.395   5.147   2.182  0.0421 -0.2131 -0.1978
  187POPC   O1321433   5.371   5.280   2.128 -0.1827  0.0947 -0.1183
  187POPC   O1421434   5.536   5.108   2.178 -0.1535  0.3439 -0.4651
  187POPC   O1221435   5.312   5.045   2.095  0.3912 -0.3927  0.1662
  187POPC   O1121436   5.330   5.126   2.322  0.3480 -0.2860  0.1187
  187POPC    C121437   5.266   5.242   2.386 -0.2353 -0.4882 -0.5138
  187POPC    HA21438   5.165   5.267   2.347 -1.1174 -0.5805  1.5585
  187POPC    HB21439   5.322   5.336   2.368 -1.5635  0.8752  1.9893
  187POPC    C221440   5.258   5.239   2.548 -0.7179 -0.0490 -0.2529
  187POPC    HS21441   5.266   5.347   2.570  0.8953 -0.0444 -0.7251
  187POPC   O2121442   5.357   5.151   2.599 -0.3816 -0.2291 -0.6982
  187POPC   C2121443   5.476   5.226   2.628  0.4426  0.0669 -0.1526
  187POPC   O2221444   5.483   5.350   2.612  0.6610 -0.1677  0.2326
  187POPC   C2221445   5.590   5.134   2.671  0.7931  0.6666 -0.1383
  187POPC   H2R21446   5.682   5.195   2.656  1.6083  0.1055  2.1789
  187POPC   H2S21447   5.589   5.040   2.610 -4.1462 -0.6390  1.4776
  187POPC    C321448   5.120   5.195   2.600 -0.2529 -0.0578  0.6557
  187POPC    HX21449   5.093   5.088   2.582 -0.0308 -0.1174  0.6672
  187POPC    HY21450   5.048   5.259   2.544 -0.1029 -0.5576 -0.1296
  187POPC   O3121451   5.104   5.212   2.739  0.3703  0.0442 -0.3905
  187POPC   C3121452   5.094   5.335   2.775 -0.7795 -0.5624 -0.2638
  187POPC   O3221453   5.098   5.435   2.706 -0.2002 -0.0712  0.0723
  187POPC   C3221454   5.078   5.350   2.928  0.5999 -0.2028  1.0621
  187POPC   H2X21455   5.079   5.461   2.942  0.3459  0.4751 -2.8693
  187POPC   H2Y21456   5.169   5.302   2.969  0.4745 -0.0650  1.4990
  187POPC   C2321457   5.556   5.103   2.821  0.3856  0.2729 -1.0723
  187POPC   H3R21458   5.456   5.054   2.818  1.0411 -1.3439  1.2255
  187POPC   H3S21459   5.542   5.195   2.881 -1.2907 -0.4972 -0.2239
  187POPC   C2421460   5.657   5.013   2.890 -0.3072  0.2514  0.2249
  187POPC   H4R21461   5.751   5.052   2.846 -0.4430 -1.0495 -1.2943
  187POPC   H4S21462   5.642   4.906   2.866 -1.2170 -0.3659  3.1310
  187POPC   C2521463   5.660   5.015   3.047  0.0111 -0.5573  0.2390
  187POPC   H5R21464   5.579   4.948   3.083  0.3944 -0.5594  1.1078
  187POPC   H5S21465   5.638   5.118   3.081 -1.8570 -0.1175 -2.0928
  187POPC   C2621466   5.799   4.971   3.105 -0.4789 -0.2317 -0.2855
  187POPC   H6R21467   5.876   5.045   3.072 -0.9746  1.1411  1.4430
  187POPC   H6S21468   5.828   4.874   3.060 -2.6502 -1.6288  1.1563
  187POPC   C2721469   5.781   4.963   3.259  0.1913 -0.0569 -0.4431
  187POPC   H7R21470   5.704   4.885   3.280 -1.3552  1.4539 -0.2394
  187POPC   H7S21471   5.742   5.059   3.299 -0.0220 -0.4150  0.2258
  187POPC   C2821472   5.915   4.948   3.335  0.5164  0.2059  0.5304
  187POPC   H8R21473   5.894   4.960   3.444 -0.8039  0.4730  0.2695
  187POPC   H8S21474   5.990   5.024   3.306 -1.5095  1.1974 -2.6483
  187POPC   C2921475   5.968   4.817   3.299 -0.5670  0.4114  0.9271
  187POPC   H9121476   5.968   4.787   3.193  1.3666  0.6939  0.8121
  187POPC  C21021477   6.033   4.732   3.381 -0.3922  0.0681  0.0782
  187POPC  H10121478   6.085   4.644   3.341  2.4317  1.4976  0.3433
  187POPC  C21121479   6.055   4.746   3.532 -0.2060 -0.2387 -0.1655
  187POPC  H11R21480   6.061   4.848   3.575 -0.3531 -1.1529  2.2242
  187POPC  H11S21481   6.154   4.703   3.558  0.4571  1.0224 -0.5623
  187POPC  C21221482   5.954   4.690   3.633 -0.0701 -0.8942  0.1534
  187POPC  H12R21483   5.951   4.580   3.618  0.0648 -0.8385 -0.3087
  187POPC  H12S21484   5.854   4.725   3.599  1.5574  1.1009 -3.1177
  187POPC  C21321485   5.995   4.732   3.772  0.7374  0.6640  0.0229
  187POPC  H13R21486   5.983   4.843   3.774 -3.3147  0.3661  0.0462
  187POPC  H13S21487   6.103   4.711   3.787  0.4722 -1.0106 -0.3000
  187POPC  C21421488   5.905   4.675   3.881  0.4210 -0.2760  0.3488
  187POPC  H14R21489   5.823   4.633   3.820 -0.0436  1.5343 -0.3407
  187POPC  H14S21490   5.880   4.755   3.954  1.8899 -0.1770  0.7930
  187POPC  C21521491   5.975   4.555   3.945  0.1776 -0.1906 -0.0963
  187POPC  H15R21492   6.067   4.585   4.000 -0.0279  0.9584 -0.3527
  187POPC  H15S21493   6.020   4.475   3.882  0.9335 -1.3186  1.7852
  187POPC  C21621494   5.897   4.467   4.037 -0.8439  0.9606  0.1618
  187POPC  H16R21495   5.819   4.410   3.981  0.7513 -1.2901  0.0714
  187POPC  H16S21496   5.850   4.525   4.119 -1.3958 -1.1324  1.4259
  187POPC  C21721497   5.988   4.365   4.110  0.0246 -0.4582 -0.6576
  187POPC  H17R21498   6.048   4.426   4.182 -1.1207  2.1922 -1.7891
  187POPC  H17S21499   6.056   4.303   4.048  2.3680 -0.2250  1.5252
  187POPC  C21821500   5.903   4.263   4.191 -0.1812 -0.2637  0.7775
  187POPC  H18R21501   5.863   4.321   4.276  2.5395  1.8465  0.7713
  187POPC  H18S21502   5.977   4.185   4.220  1.4131 -0.1120 -2.4546
  187POPC  H18T21503   5.821   4.224   4.126  0.0758  1.6765 -0.8114
  187POPC   C3321504   4.952   5.280   2.978 -0.1940  0.1482 -0.3461
  187POPC   H3X21505   4.967   5.171   2.994  0.3414 -0.0059 -1.7123
  187POPC   H3Y21506   4.869   5.289   2.905 -0.6168 -0.8234 -0.0084
  187POPC   C3421507   4.905   5.338   3.114 -0.3436  0.4376  0.5099
  187POPC   H4X21508   4.797   5.315   3.122 -0.2624 -0.0502  0.2886
  187POPC   H4Y21509   4.917   5.447   3.129  1.7434  0.1652  1.1295
  187POPC   C3521510   4.985   5.276   3.226 -0.0503  0.5771  0.1627
  187POPC   H5X21511   5.094   5.296   3.216  0.2860 -0.5793  1.2116
  187POPC   H5Y21512   4.958   5.168   3.233 -1.5710  0.6296 -3.0279
  187POPC   C3621513   4.957   5.348   3.366  0.0852 -0.5234  0.1822
  187POPC   H6X21514   4.848   5.342   3.391 -0.1789  2.9379  0.2919
  187POPC   H6Y21515   4.967   5.457   3.350 -0.7366 -0.4348  0.1968
  187POPC   C3721516   5.053   5.298   3.474  0.4220  0.6201  0.5256
  187POPC   H7X21517   5.154   5.334   3.443  0.5416 -0.5853 -0.5636
  187POPC   H7Y21518   5.052   5.187   3.474 -1.8854  0.5795 -1.3182
  187POPC   C3821519   5.020   5.346   3.618 -0.6667 -0.2871 -0.0317
  187POPC   H8X21520   4.925   5.295   3.643 -0.0452 -2.2599 -1.4057
  187POPC   H8Y21521   5.018   5.456   3.628  0.7215  0.1392 -3.2695
  187POPC   C3921522   5.130   5.291   3.711 -0.0334  0.4059  0.3440
  187POPC   H9X21523   5.231   5.305   3.667  1.2084  0.8156  3.1059
  187POPC   H9Y21524   5.103   5.184   3.720 -2.5980  1.0028  0.5421
  187POPC  C31021525   5.122   5.347   3.856  0.4901  0.2439  0.0952
  187POPC  H10X21526   5.017   5.374   3.877  1.1448  2.9425  0.2369
  187POPC  H10Y21527   5.179   5.443   3.850 -3.0126  2.5212  0.5272
  187POPC  C31121528   5.188   5.257   3.964  0.7006 -0.2293  0.2171
  187POPC  H11X21529   5.289   5.250   3.918  1.6373  1.4811  1.8265
  187POPC  H11Y21530   5.136   5.160   3.966 -1.1328  0.7064 -0.1451
  187POPC  C31221531   5.208   5.312   4.109  0.5149 -0.8080  0.4759
  187POPC  H12X21532   5.266   5.407   4.102  1.3646 -1.4349 -2.1208
  187POPC  H12Y21533   5.254   5.228   4.164  0.7070 -1.5709 -0.8264
  187POPC  C31321534   5.072   5.333   4.179 -0.4932  0.1541  0.1889
  187POPC  H13X21535   5.016   5.237   4.183  0.4317 -0.3512  3.0435
  187POPC  H13Y21536   5.024   5.407   4.111  0.5150 -0.8726 -1.6928
  187POPC  C31421537   5.082   5.392   4.322  0.4607  0.2953  0.1108
  187POPC  H14X21538   4.980   5.424   4.352  0.9435  1.2159  0.8168
  187POPC  H14Y21539   5.150   5.479   4.331  0.9045  0.0156 -0.5048
  187POPC  C31521540   5.115   5.295   4.438  0.7731  0.1852 -0.8313
  187POPC  H15X21541   5.147   5.360   4.522  1.7407  1.0041 -1.7963
  187POPC  H15Y21542   5.213   5.250   4.413  0.7245 -0.3545 -0.1038
  187POPC  C31621543   5.000   5.197   4.470 -0.1789  0.4229 -0.0725
  187POPC  H16X21544   4.983   5.125   4.387  1.5217 -0.8029  0.5814
  187POPC  H16Y21545   4.906   5.256   4.467 -1.2937 -1.3096 -1.0306
  187POPC  H16Z21546   5.008   5.134   4.561 -0.6398  1.7446  0.9153
  188POPC     N21547   4.688   3.707   2.696  0.4272  0.1401 -0.7430
  188POPC   C1221548   4.816   3.736   2.619  0.0673 -0.6835  0.7305
  188POPC  H12A21549   4.809   3.700   2.517 -0.3734 -0.0479  0.5261
  188POPC  H12B21550   4.897   3.683   2.666  0.1460 -3.5551 -2.2817
  188POPC   C1321551   4.690   3.778   2.829 -0.1448  0.1364 -0.6143
  188POPC  H13A21552   4.616   3.731   2.892  1.3678 -2.8077 -0.8492
  188POPC  H13B21553   4.782   3.752   2.879 -0.1639  2.2263  0.6028
  188POPC  H13C21554   4.693   3.886   2.829  1.0731  0.1867  2.3868
  188POPC   C1421555   4.574   3.760   2.607  0.1468  0.4659  0.5552
  188POPC  H14A21556   4.485   3.777   2.666  0.3955 -0.5048  1.2489
  188POPC  H14B21557   4.607   3.850   2.557 -2.5102  0.7493 -0.8586
  188POPC  H14C21558   4.565   3.692   2.524  1.2568 -0.0463  0.8272
  188POPC   C1521559   4.663   3.566   2.727 -0.6223  0.1740  0.1023
  188POPC  H15A21560   4.570   3.560   2.781  0.2081  2.5904  1.9784
  188POPC  H15B21561   4.749   3.532   2.783 -0.8653 -0.6690 -0.0215
  188POPC  H15C21562   4.649   3.509   2.636  1.8904 -3.9651  1.9920
  188POPC   C1121563   4.858   3.890   2.609 -0.6601 -0.2835  0.2807
  188POPC  H11A21564   4.952   3.885   2.550  0.2052 -2.4914  1.7089
  188POPC  H11B21565   4.876   3.934   2.709 -0.2063  3.1961 -1.1584
  188POPC     P21566   4.758   4.133   2.555 -0.1921  0.2735 -0.0854
  188POPC   O1321567   4.650   4.173   2.468 -0.2485 -0.1554  0.3901
  188POPC   O1421568   4.887   4.200   2.526  0.5425  0.5755  0.6085
  188POPC   O1221569   4.766   3.975   2.541 -1.0058 -0.1462  0.1435
  188POPC   O1121570   4.722   4.155   2.705  0.2686 -0.4124  0.1250
  188POPC    C121571   4.594   4.151   2.761 -1.0474  0.3827 -0.6285
  188POPC    HA21572   4.555   4.052   2.726 -0.6895 -0.2059  0.6092
  188POPC    HB21573   4.533   4.241   2.740  1.0715  2.5559  1.8681
  188POPC    C221574   4.614   4.138   2.914 -0.6061 -0.0961 -0.5905
  188POPC    HS21575   4.641   4.241   2.945  2.7758 -1.1424  0.3777
  188POPC   O2121576   4.722   4.046   2.947  0.0611 -0.1285 -0.0757
  188POPC   C2121577   4.829   4.092   3.009 -0.5496  0.3656 -0.7755
  188POPC   O2221578   4.854   4.205   3.045  0.6713 -0.6700  0.3216
  188POPC   C2221579   4.922   3.977   3.047  0.3744 -0.4746 -0.1466
  188POPC   H2R21580   5.024   4.016   3.029 -0.4050  1.7416 -0.1251
  188POPC   H2S21581   4.912   3.891   2.978  1.5405 -0.5677 -0.2179
  188POPC    C321582   4.485   4.100   2.994 -0.4494 -0.5717  0.2584
  188POPC    HX21583   4.457   3.994   2.975 -3.7215  0.3667 -1.0022
  188POPC    HY21584   4.405   4.164   2.950  1.2807  2.4781  1.3013
  188POPC   O3121585   4.523   4.117   3.134 -0.5611  0.2536  0.3957
  188POPC   C3121586   4.511   4.239   3.174 -0.6847 -1.0666 -0.6010
  188POPC   O3221587   4.462   4.328   3.102  0.3336 -0.3951  0.4140
  188POPC   C3221588   4.563   4.274   3.316 -0.2431  0.9004  1.0043
  188POPC   H2X21589   4.588   4.382   3.318  0.0028  0.8428  1.1177
  188POPC   H2Y21590   4.660   4.222   3.334  0.0142  1.6435  1.8740
  188POPC   C2321591   4.907   3.932   3.196  0.5365  0.3375  0.1530
  188POPC   H3R21592   4.915   4.022   3.260 -2.3992  0.6003  0.2825
  188POPC   H3S21593   4.982   3.854   3.221 -0.2586  0.0844  1.8734
  188POPC   C2421594   4.772   3.859   3.221  0.2316 -0.1202 -0.9528
  188POPC   H4R21595   4.758   3.788   3.137  1.6235  0.1664 -1.4395
  188POPC   H4S21596   4.682   3.924   3.220 -0.3053 -0.6281  2.1971
  188POPC   C2521597   4.760   3.785   3.353 -0.3367 -0.1490 -0.3537
  188POPC   H5R21598   4.820   3.693   3.365 -0.7425 -0.4204 -0.3719
  188POPC   H5S21599   4.652   3.758   3.361 -0.4709  0.1296 -1.1174
  188POPC   C2621600   4.787   3.879   3.480  0.7683  0.2474 -0.2093
  188POPC   H6R21601   4.735   3.976   3.465  1.3919  0.3414 -2.0345
  188POPC   H6S21602   4.892   3.914   3.479  1.9224 -2.8476 -2.0154
  188POPC   C2721603   4.751   3.812   3.616  0.7876 -0.4389 -0.5339
  188POPC   H7R21604   4.805   3.716   3.630  1.0414 -0.5411 -1.9814
  188POPC   H7S21605   4.643   3.785   3.616 -0.3218  3.0868  3.3701
  188POPC   C2821606   4.752   3.913   3.738 -0.0707 -0.3289 -0.1191
  188POPC   H8R21607   4.697   4.005   3.710  0.5285  0.1212  0.1443
  188POPC   H8S21608   4.858   3.936   3.764 -0.4837  0.4516  0.9533
  188POPC   C2921609   4.675   3.847   3.851 -0.4235 -0.0991 -0.2437
  188POPC   H9121610   4.579   3.795   3.833 -0.5613  0.5715 -1.5546
  188POPC  C21021611   4.712   3.857   3.976 -1.3425 -0.4235 -0.6005
  188POPC  H10121612   4.646   3.815   4.054  0.3310  1.5477  2.0158
  188POPC  C21121613   4.831   3.938   4.039 -0.4781  0.1808  0.2516
  188POPC  H11R21614   4.792   4.014   4.110  2.3622  1.9327  0.1005
  188POPC  H11S21615   4.869   3.990   3.949 -1.9169  0.4725 -0.2149
  188POPC  C21221616   4.931   3.846   4.104 -0.4619 -0.0360 -0.4204
  188POPC  H12R21617   5.021   3.904   4.130 -2.5543  2.4285  1.8559
  188POPC  H12S21618   4.946   3.759   4.035  0.9359  0.1279 -0.3356
  188POPC  C21321619   4.872   3.795   4.237 -0.0041 -0.0963  0.1953
  188POPC  H13R21620   4.783   3.730   4.224 -0.0218  0.3464 -2.5715
  188POPC  H13S21621   4.831   3.880   4.296 -2.4214 -0.7982 -0.3511
  188POPC  C21421622   4.977   3.718   4.318  0.4421 -0.0454  0.2464
  188POPC  H14R21623   5.060   3.787   4.345  0.3420  1.0340 -1.9754
  188POPC  H14S21624   5.025   3.634   4.263  0.3746  0.2633 -0.2882
  188POPC  C21521625   4.935   3.670   4.461  0.0524 -0.1235 -0.0113
  188POPC  H15R21626   4.845   3.607   4.446  0.2529 -0.3348 -0.3196
  188POPC  H15S21627   4.916   3.752   4.534  0.6139 -1.6817  1.9694
  188POPC  C21621628   5.044   3.589   4.533  0.3520  0.3200  0.7037
  188POPC  H16R21629   5.140   3.640   4.509 -0.1947  0.9244 -0.2570
  188POPC  H16S21630   5.052   3.492   4.478 -2.0759  0.5854 -0.2297
  188POPC  C21721631   5.016   3.559   4.679 -0.5468  1.5662  0.1101
  188POPC  H17R21632   5.047   3.645   4.742  1.7477  0.2283  0.9156
  188POPC  H17S21633   5.072   3.468   4.709 -0.4865  2.3169  2.4634
  188POPC  C21821634   4.865   3.518   4.703  0.7334 -0.4249  0.4541
  188POPC  H18R21635   4.850   3.502   4.812 -2.4646  2.2768  0.5755
  188POPC  H18S21636   4.837   3.429   4.642  2.3675 -0.4222 -0.3424
  188POPC  H18T21637   4.801   3.605   4.677 -2.1048 -1.9858  1.6695
  188POPC   C3321638   4.474   4.236   3.436 -0.1385 -0.0499  0.2819
  188POPC   H3X21639   4.455   4.126   3.435  0.6798 -0.2053 -0.8766
  188POPC   H3Y21640   4.372   4.281   3.432 -0.1385 -0.1060 -0.4870
  188POPC   C3421641   4.528   4.283   3.571 -0.2961 -0.6404 -0.3527
  188POPC   H4X21642   4.539   4.393   3.577  2.5397 -0.5701 -3.3879
  188POPC   H4Y21643   4.629   4.236   3.578  0.1182  0.3107  0.3997
  188POPC   C3521644   4.441   4.224   3.684 -0.2059 -0.2307 -0.6651
  188POPC   H5X21645   4.439   4.113   3.686 -0.9940 -0.2312  0.7781
  188POPC   H5Y21646   4.337   4.257   3.662 -0.2019  1.1085  1.0486
  188POPC   C3621647   4.487   4.264   3.830  0.2361  0.3755 -0.3537
  188POPC   H6X21648   4.466   4.371   3.852 -1.8362 -0.4145  2.0329
  188POPC   H6Y21649   4.594   4.233   3.833  0.6285  1.5228 -1.7781
  188POPC   C3721650   4.415   4.181   3.937  0.7086  0.1279 -0.5375
  188POPC   H7X21651   4.418   4.073   3.910  1.1133 -0.1031  0.3828
  188POPC   H7Y21652   4.305   4.194   3.943  0.2392 -2.7452 -1.0705
  188POPC   C3821653   4.482   4.191   4.072  0.4224  0.0813 -0.6564
  188POPC   H8X21654   4.583   4.147   4.063  0.1948 -0.6785  0.3409
  188POPC   H8Y21655   4.425   4.136   4.150 -1.3522 -1.2667 -2.7726
  188POPC   C3921656   4.485   4.332   4.122  0.3154 -0.2897 -0.2239
  188POPC   H9X21657   4.392   4.393   4.116  1.0660  0.9108 -0.1237
  188POPC   H9Y21658   4.557   4.392   4.062  0.5375 -0.2721  0.0580
  188POPC  C31021659   4.546   4.333   4.263 -0.3235 -0.4001  0.6109
  188POPC  H10X21660   4.633   4.265   4.250 -0.9505 -1.1434  0.1439
  188POPC  H10Y21661   4.486   4.288   4.345 -0.5698 -0.6232  0.3107
  188POPC  C31121662   4.594   4.472   4.310 -0.1435  0.2055  0.7894
  188POPC  H11X21663   4.505   4.537   4.322 -0.1121  0.2828  0.6115
  188POPC  H11Y21664   4.659   4.513   4.229  1.7366 -2.8560  0.5821
  188POPC  C31221665   4.690   4.459   4.429 -0.1265 -0.7319  0.7385
  188POPC  H12X21666   4.758   4.377   4.397 -0.6285 -0.5393 -0.8851
  188POPC  H12Y21667   4.630   4.430   4.518  0.7913  0.4107  1.7679
  188POPC  C31321668   4.766   4.594   4.452  0.3460 -0.0419 -0.8641
  188POPC  H13X21669   4.846   4.611   4.376  2.6631  0.6727  1.6003
  188POPC  H13Y21670   4.834   4.573   4.537 -0.1140 -0.1422 -0.5184
  188POPC  C31421671   4.679   4.714   4.486  0.1070 -1.1600 -0.4407
  188POPC  H14X21672   4.595   4.687   4.553  0.0018  0.2578  0.0354
  188POPC  H14Y21673   4.633   4.759   4.395  1.4272  1.3605  0.0370
  188POPC  C31521674   4.768   4.820   4.565 -0.2895  0.2501 -0.3958
  188POPC  H15X21675   4.728   4.923   4.550 -2.0138 -0.2223  0.6412
  188POPC  H15Y21676   4.869   4.822   4.520  0.1535  1.3753  0.5999
  188POPC  C31621677   4.771   4.787   4.717 -0.0768 -0.3151  0.2788
  188POPC  H16X21678   4.698   4.840   4.782  0.8914  0.0338  1.1131
  188POPC  H16Y21679   4.872   4.816   4.753  1.7210 -1.3539 -3.3985
  188POPC  H16Z21680   4.754   4.678   4.730  1.2889 -1.3346 -4.4730
  189SAPI   C1221681   2.433   0.310   7.185 -0.0159  0.7753 -0.5709
  189SAPI    H221682   2.374   0.382   7.125 -2.7675 -1.1504 -0.3905
  189SAPI    O221683   2.447   0.352   7.321  0.3818 -0.3195 -0.4487
  189SAPI   HO221684   2.528   0.403   7.316  0.6790 -0.6531  0.7624
  189SAPI   C1321685   2.363   0.179   7.190 -0.0100  0.9573  0.0702
  189SAPI    H321686   2.361   0.147   7.083 -0.0096 -3.0605  1.1269
  189SAPI    O321687   2.223   0.194   7.224 -0.0774  0.1319 -0.3510
  189SAPI   HO321688   2.225   0.227   7.314  0.7587 -0.3311 -0.1850
  189SAPI   C1421689   2.434   0.067   7.267 -0.1130 -0.2697  0.1423
  189SAPI    H421690   2.450   0.099   7.373 -0.0460 -1.0091  0.3590
  189SAPI    O421691   2.364  -0.057   7.264 -0.3738  0.1804  0.2457
  189SAPI   HO421692   2.326  -0.064   7.177  0.6979  0.3480 -0.2583
  189SAPI   C1521693   2.585   0.058   7.222 -0.6711  0.1692 -0.3615
  189SAPI    H521694   2.584  -0.001   7.128  0.5187 -0.6813  0.1362
  189SAPI    O521695   2.656  -0.016   7.316  0.4338  0.5629 -0.5836
  189SAPI   HO521696   2.663  -0.106   7.283  0.0695  0.9551 -1.7970
  189SAPI   C1621697   2.654   0.187   7.179 -0.2727  0.5896 -0.3932
  189SAPI    H621698   2.694   0.222   7.276 -1.5300 -1.1822  0.8071
  189SAPI    O621699   2.761   0.153   7.095 -0.5736  0.0694  0.3698
  189SAPI   HO621700   2.816   0.113   7.162 -1.1973  0.4539  1.1297
  189SAPI   C1121701   2.566   0.296   7.125  0.3785 -0.0123  0.7646
  189SAPI    H121702   2.554   0.276   7.016 -0.3443 -0.2343  0.8790
  189SAPI     P21703   2.621   0.552   7.034 -0.0451  0.2121 -0.3844
  189SAPI   O1321704   2.706   0.661   7.082 -0.1386 -0.2221  0.4534
  189SAPI   O1421705   2.475   0.579   7.031 -0.3174  0.2855  0.4025
  189SAPI   O1221706   2.640   0.421   7.134 -0.0006 -0.6120 -0.6732
  189SAPI   O1121707   2.670   0.502   6.891  0.4040  0.1796 -0.4742
  189SAPI    C121708   2.803   0.453   6.886 -0.1367 -0.2415  0.4365
  189SAPI    HA21709   2.873   0.535   6.912 -1.3038  0.1951  2.4036
  189SAPI    HB21710   2.822   0.369   6.957  1.7464  0.9115  1.3969
  189SAPI    C221711   2.830   0.410   6.737  0.0178  0.3744  0.1340
  189SAPI    HS21712   2.938   0.392   6.723  0.3971  1.8872  0.8291
  189SAPI   O2121713   2.783   0.500   6.637 -0.1795  0.1566  0.3768
  189SAPI   C2121714   2.850   0.611   6.611 -0.0419  0.6232 -0.0210
  189SAPI   O2221715   2.952   0.642   6.670  0.0416 -0.3089 -0.0160
  189SAPI   C2221716   2.788   0.673   6.493  0.0997  0.6033  0.4101
  189SAPI   H2R21717   2.759   0.592   6.423  2.1984 -0.6674  0.9435
  189SAPI   H2S21718   2.687   0.703   6.529  0.1948 -0.6004  1.7924
  189SAPI    C321719   2.758   0.272   6.703  0.6866  0.3720  0.9422
  189SAPI    HX21720   2.650   0.282   6.724  0.4099  1.3603 -0.7778
  189SAPI    HY21721   2.793   0.202   6.782  1.0411 -0.5464 -0.0086
  189SAPI   O3121722   2.779   0.233   6.565  0.1299  0.1695  0.2797
  189SAPI   C3121723   2.893   0.174   6.551 -0.4544  0.0011 -0.3779
  189SAPI   O3221724   2.976   0.152   6.639  0.0864 -0.3680  0.1397
  189SAPI   C3221725   2.909   0.145   6.405  0.1531 -0.1419 -0.6116
  189SAPI   H2X21726   2.844   0.057   6.386  1.5050 -1.0062 -1.3765
  189SAPI   H2Y21727   3.018   0.127   6.389  0.8631  1.6233  1.6916
  189SAPI   C2321728   2.873   0.784   6.430  0.6151  0.5565  0.4595
  189SAPI   H3R21729   2.896   0.872   6.494 -0.2294  1.2764 -0.1971
  189SAPI   H3S21730   2.808   0.825   6.349  2.1031  0.3884 -0.8834
  189SAPI   C2421731   2.997   0.724   6.354  0.2294 -0.1907 -0.6850
  189SAPI   H4R21732   2.965   0.653   6.275 -2.0221 -0.1561  0.1311
  189SAPI   H4S21733   3.071   0.672   6.419  1.7106  0.0441 -2.1145
  189SAPI   C2521734   3.077   0.835   6.291 -0.0760 -0.4805  0.5754
  189SAPI   H5R21735   3.142   0.878   6.369 -1.7687 -1.8135  2.8307
  189SAPI   C2621736   3.049   0.893   6.176 -0.0412  0.0845  0.4110
  189SAPI   H6R21737   3.098   0.987   6.145 -0.5327 -0.3485 -1.8840
  189SAPI   C2721738   2.939   0.846   6.084  0.2177 -0.6405  0.9236
  189SAPI   H7R21739   2.850   0.815   6.143 -0.3126 -1.0863 -0.0948
  189SAPI   H7S21740   2.971   0.762   6.019 -0.2685 -0.1146 -0.0131
  189SAPI   C2821741   2.903   0.966   6.001  0.1236  0.3443 -0.4108
  189SAPI   H8R21742   2.822   1.032   6.034 -0.1076 -0.2088  0.1587
  189SAPI   C2921743   2.953   0.993   5.879  0.3748  0.1341  0.6369
  189SAPI   H9R21744   2.917   1.087   5.834 -0.7656 -0.0358  1.1552
  189SAPI  C21021745   3.039   0.911   5.787  0.6842 -0.6102 -0.5892
  189SAPI  H10R21746   2.977   0.829   5.745  1.4640 -1.3900 -0.2356
  189SAPI  H10S21747   3.123   0.866   5.843  0.8856  0.1734 -0.2546
  189SAPI  C21121748   3.099   0.992   5.672  0.5054 -0.0167 -0.5178
  189SAPI  H11R21749   3.201   1.030   5.683  0.2209  0.4241  0.7227
  189SAPI  C21221750   3.031   1.019   5.556 -0.3169 -0.0368 -0.1800
  189SAPI  H12R21751   3.080   1.069   5.471 -1.6971  0.2002 -0.8681
  189SAPI  C21321752   2.894   0.967   5.519  0.1881  0.7400 -0.4311
  189SAPI  H13R21753   2.818   0.970   5.600  1.2952 -1.8015  0.8327
  189SAPI  H13S21754   2.910   0.860   5.493 -0.3149  0.3370  0.8652
  189SAPI  C21421755   2.845   1.047   5.401  0.8031 -0.3470  0.9226
  189SAPI  H14R21756   2.762   1.116   5.420 -1.1337 -2.2652 -0.0710
  189SAPI  C21521757   2.883   1.021   5.278  0.6269  0.0191 -0.3298
  189SAPI  H15R21758   2.835   1.078   5.197  3.0404  2.4460 -0.2206
  189SAPI  C21621759   2.984   0.916   5.227  0.0199 -0.0870 -0.2526
  189SAPI  H16R21760   2.924   0.839   5.174 -1.1442 -1.8287  3.2492
  189SAPI  H16S21761   3.015   0.862   5.319  1.7464  0.4756 -0.4673
  189SAPI  C21721762   3.100   0.981   5.149  0.5808  0.4093  0.2101
  189SAPI  H17R21763   3.182   0.910   5.128 -0.0539  0.0761 -1.2860
  189SAPI  H17S21764   3.140   1.060   5.217 -0.5659 -0.5484  2.0938
  189SAPI  C21821765   3.039   1.026   5.020  0.3386  0.0592  0.3790
  189SAPI  H18R21766   2.970   1.110   5.043  1.5344  1.6368 -1.4584
  189SAPI  H18S21767   2.976   0.949   4.971 -0.2276 -0.8382  2.4117
  189SAPI  C21921768   3.145   1.086   4.925  0.1418  0.7028  0.1919
  189SAPI  H19R21769   3.208   1.005   4.881  0.9636  1.1514  0.5241
  189SAPI  H19S21770   3.215   1.158   4.972  1.9360 -0.7035 -0.2200
  189SAPI  C22021771   3.080   1.172   4.814 -0.0983  0.1845 -0.0500
  189SAPI  H20R21772   3.002   1.241   4.854 -0.7094 -0.1663 -0.6181
  189SAPI  H20S21773   3.037   1.114   4.731  1.0156  1.2147 -1.3988
  189SAPI  H20T21774   3.165   1.233   4.776  1.6353 -0.2181  2.8358
  189SAPI   C3321775   2.876   0.275   6.325  0.5811  0.9445  0.1437
  189SAPI   H3X21776   2.943   0.359   6.351  1.4367  0.2515  0.2289
  189SAPI   H3Y21777   2.772   0.308   6.349  0.4673  0.2482  0.6458
  189SAPI   C3421778   2.875   0.263   6.171  0.1244 -0.0105 -0.8243
  189SAPI   H4X21779   2.820   0.168   6.154  1.4331 -0.6760 -1.5311
  189SAPI   H4Y21780   2.982   0.243   6.145  0.5672 -0.0855  0.9068
  189SAPI   C3521781   2.832   0.378   6.091  0.6854 -0.4543 -0.6523
  189SAPI   H5X21782   2.899   0.465   6.104  0.3738 -0.3729  0.5410
  189SAPI   H5Y21783   2.736   0.412   6.135  1.9696  2.9933 -0.2233
  189SAPI   C3621784   2.819   0.359   5.940  0.4678 -0.5429 -0.0722
  189SAPI   H6X21785   2.731   0.295   5.915  1.0310 -1.2411 -0.2850
  189SAPI   H6Y21786   2.903   0.311   5.886  0.7032  0.4140 -0.5754
  189SAPI   C3721787   2.798   0.493   5.864 -0.7018 -0.0072 -0.7277
  189SAPI   H7X21788   2.885   0.562   5.870 -0.0888 -0.8595  0.8293
  189SAPI   H7Y21789   2.705   0.536   5.909 -1.2875 -0.9063 -1.0560
  189SAPI   C3821790   2.776   0.468   5.715  0.2356  0.1549 -0.1457
  189SAPI   H8X21791   2.720   0.374   5.698 -1.3116  0.8427  0.9828
  189SAPI   H8Y21792   2.880   0.471   5.675  0.1353 -2.7778 -0.8429
  189SAPI   C3921793   2.699   0.587   5.658 -0.5689  0.0889  0.3896
  189SAPI   H9X21794   2.729   0.674   5.721  0.8426  0.5240 -0.8323
  189SAPI   H9Y21795   2.589   0.579   5.674 -0.4130  0.2506  1.6354
  189SAPI  C31021796   2.747   0.613   5.510 -0.0760  0.0222 -0.2577
  189SAPI  H10X21797   2.857   0.630   5.510 -0.2173  1.0081 -0.6837
  189SAPI  H10Y21798   2.722   0.717   5.479  1.0142  0.2521 -0.4150
  189SAPI  C31121799   2.703   0.513   5.405  0.0405  0.3118  0.0616
  189SAPI  H11X21800   2.594   0.522   5.386  0.1101 -0.6737 -0.8990
  189SAPI  H11Y21801   2.723   0.405   5.421 -0.3479  0.3380  0.7957
  189SAPI  C31221802   2.776   0.555   5.276 -0.1563  0.2859 -0.2776
  189SAPI  H12X21803   2.880   0.535   5.309 -1.0901  0.7807  3.4470
  189SAPI  H12Y21804   2.753   0.664   5.269 -0.7422  0.2085  0.3567
  189SAPI  C31321805   2.746   0.465   5.160  0.7182 -0.1761 -0.3096
  189SAPI  H13X21806   2.636   0.453   5.155  0.6540  0.5698 -0.9331
  189SAPI  H13Y21807   2.790   0.366   5.183 -1.5403 -0.7212  2.1576
  189SAPI  C31421808   2.790   0.528   5.025  0.0853 -0.0773 -0.3970
  189SAPI  H14X21809   2.766   0.464   4.938 -0.8825  1.6303 -1.4354
  189SAPI  H14Y21810   2.900   0.543   5.031  0.1496 -1.0051  1.4576
  189SAPI  C31521811   2.725   0.668   4.983  0.1548 -0.0731 -0.8979
  189SAPI  H15X21812   2.738   0.738   5.068 -0.8521  1.6194 -2.0808
  189SAPI  H15Y21813   2.615   0.650   4.989  0.2174 -0.0984  1.9012
  189SAPI  C31621814   2.763   0.723   4.850  0.3539  0.6026  0.1259
  189SAPI  H16X21815   2.754   0.637   4.780  0.7263  2.0938 -1.8241
  189SAPI  H16Y21816   2.866   0.764   4.850  0.0243  1.4596 -0.1139
  189SAPI  C31721817   2.666   0.831   4.820  0.2823  0.2853 -0.0560
  189SAPI  H17X21818   2.690   0.923   4.879 -1.2356  0.1334  0.8559
  189SAPI  H17Y21819   2.562   0.799   4.839 -0.2711  1.0238 -1.6733
  189SAPI  C31821820   2.680   0.877   4.674 -0.5987 -0.3831 -0.1446
  189SAPI  H18X21821   2.782   0.901   4.638 -0.7209 -1.1950 -1.1032
  189SAPI  H18Y21822   2.619   0.966   4.646  0.6491  0.4265 -0.3481
  189SAPI  H18Z21823   2.654   0.787   4.614 -0.6030  0.5574 -1.6032
  190SAPI   C1221824   1.183   2.298   6.873  0.6378  0.3554 -0.3617
  190SAPI    H221825   1.208   2.294   6.765 -0.9655 -0.5323 -0.7203
  190SAPI    O221826   1.044   2.339   6.878  0.4171 -0.3847 -0.1224
  190SAPI   HO221827   1.031   2.434   6.868  1.4671 -0.0906  0.9639
  190SAPI   C1321828   1.208   2.164   6.934  0.1964  0.4559  0.5857
  190SAPI    H321829   1.315   2.145   6.912 -0.5854 -0.8109 -2.5919
  190SAPI    O321830   1.124   2.069   6.863 -0.1325  0.4312 -0.5724
  190SAPI   HO321831   1.037   2.081   6.902 -0.0248  1.7488 -0.6950
  190SAPI   C1421832   1.190   2.163   7.085 -0.0174  0.2241 -0.1768
  190SAPI    H421833   1.080   2.154   7.087 -0.1367  1.4280 -0.4408
  190SAPI    O421834   1.233   2.042   7.149 -0.0808 -0.3252 -0.0231
  190SAPI   HO421835   1.157   1.994   7.183 -0.0284 -0.5392 -0.2050
  190SAPI   C1521836   1.231   2.282   7.169 -0.1805 -1.2777 -0.2950
  190SAPI    H521837   1.331   2.261   7.212 -1.3581 -2.2828  2.1026
  190SAPI    O521838   1.153   2.307   7.283 -0.1218 -0.0816  0.5217
  190SAPI   HO521839   1.210   2.291   7.359  0.9099 -0.3075 -0.2611
  190SAPI   C1621840   1.251   2.417   7.093 -0.0405 -0.1157 -0.1972
  190SAPI    H621841   1.158   2.472   7.118  1.0820  1.1480  1.4005
  190SAPI    O621842   1.359   2.492   7.147  0.6100  0.4597  0.8006
  190SAPI   HO621843   1.431   2.472   7.087 -0.2112 -1.4878  0.3807
  190SAPI   C1121844   1.272   2.406   6.945  0.0208  0.6655  0.4072
  190SAPI    H121845   1.369   2.355   6.930 -1.4078 -1.7130 -1.5652
  190SAPI     P21846   1.367   2.608   6.795  0.1246  0.4201  0.0924
  190SAPI   O1321847   1.502   2.549   6.822  0.1127 -0.2392 -0.2254
  190SAPI   O1421848   1.359   2.755   6.807  0.1960 -0.1160 -0.0960
  190SAPI   O1221849   1.251   2.533   6.884  0.2145  0.2514 -0.1682
  190SAPI   O1121850   1.329   2.566   6.646  0.1731 -0.1413 -0.6738
  190SAPI    C121851   1.200   2.584   6.591  0.2777 -0.3176  0.6441
  190SAPI    HA21852   1.146   2.487   6.588 -0.0351 -0.1491  0.7845
  190SAPI    HB21853   1.132   2.651   6.648  0.8699  0.9261 -0.0482
  190SAPI    C221854   1.213   2.659   6.453  0.0871  0.1268 -0.2373
  190SAPI    HS21855   1.112   2.685   6.414 -0.8519 -1.4645  1.0088
  190SAPI   O2121856   1.297   2.597   6.356  0.2841  0.0777 -0.7033
  190SAPI   C2121857   1.225   2.513   6.291 -0.2198 -0.0283  0.3391
  190SAPI   O2221858   1.114   2.475   6.331 -0.1823  0.1046  0.1272
  190SAPI   C2221859   1.300   2.465   6.162 -0.5512  0.2411 -0.5087
  190SAPI   H2R21860   1.361   2.552   6.130 -0.5283  1.1666  1.8402
  190SAPI   H2S21861   1.356   2.379   6.203 -0.1585  0.3331 -0.8524
  190SAPI    C321862   1.268   2.801   6.478 -0.2591  0.2622  0.4608
  190SAPI    HX21863   1.374   2.780   6.505  0.1262  0.2284 -1.0025
  190SAPI    HY21864   1.214   2.850   6.562  0.8380  0.5359  1.0333
  190SAPI   O3121865   1.272   2.894   6.370 -0.2011  0.0667 -0.3841
  190SAPI   C3121866   1.326   3.015   6.419  0.6659 -0.2478  0.5267
  190SAPI   O3221867   1.372   3.031   6.526 -0.8900  0.3188 -0.3374
  190SAPI   C3221868   1.322   3.119   6.312  0.0171  0.0788 -0.3783
  190SAPI   H2X21869   1.367   3.218   6.329 -1.4802  0.5904  0.9020
  190SAPI   H2Y21870   1.217   3.134   6.279 -0.5832 -3.2098 -0.3926
  190SAPI   C2321871   1.197   2.434   6.049 -0.3093  0.2852  0.1198
  190SAPI   H3R21872   1.113   2.507   6.045 -0.4635  0.0646 -1.0878
  190SAPI   H3S21873   1.143   2.336   6.048  1.1598 -0.5804  1.6688
  190SAPI   C2421874   1.251   2.458   5.905  0.4542  0.3945 -0.7121
  190SAPI   H4R21875   1.283   2.564   5.893  1.1161  0.2540 -0.2642
  190SAPI   H4S21876   1.168   2.428   5.838  1.6555 -0.4131 -1.8759
  190SAPI   C2521877   1.361   2.371   5.867 -0.5076 -0.1659 -0.7182
  190SAPI   H5R21878   1.437   2.358   5.946 -1.1909  0.8024  0.1330
  190SAPI   C2621879   1.387   2.321   5.744  0.1207 -0.7794 -0.1940
  190SAPI   H6R21880   1.481   2.264   5.743  1.0631  0.7237 -0.1966
  190SAPI   C2721881   1.297   2.344   5.627  0.2704  0.0603  0.1816
  190SAPI   H7R21882   1.352   2.318   5.534  0.0931 -0.2106  0.1525
  190SAPI   H7S21883   1.284   2.454   5.627  1.8340  0.2912 -1.2659
  190SAPI   C2821884   1.156   2.285   5.630 -0.1670 -0.0514  0.1814
  190SAPI   H8R21885   1.119   2.247   5.726  1.9695 -0.1858  1.0085
  190SAPI   C2921886   1.074   2.267   5.524 -0.0580  0.8497 -0.2249
  190SAPI   H9R21887   0.970   2.234   5.541  0.5954 -1.2908 -0.1366
  190SAPI  C21021888   1.096   2.301   5.381  0.8652 -0.2344  0.5773
  190SAPI  H10R21889   1.183   2.369   5.372 -1.0348  2.6120  2.3130
  190SAPI  H10S21890   1.009   2.357   5.341 -0.1869 -1.1556  1.5246
  190SAPI  C21121891   1.112   2.168   5.308  0.2409  0.8109  0.2239
  190SAPI  H11R21892   1.129   2.078   5.369 -2.2519 -0.0235 -0.2132
  190SAPI  C21221893   1.128   2.160   5.175  0.4547  0.1766 -0.2830
  190SAPI  H12R21894   1.171   2.068   5.132 -2.8153 -0.6997 -2.0140
  190SAPI  C21321895   1.139   2.278   5.088  0.0626  0.0020  0.1746
  190SAPI  H13R21896   1.245   2.306   5.072 -0.8654  1.6472 -4.9365
  190SAPI  H13S21897   1.097   2.367   5.139 -1.5499  0.3725 -1.6675
  190SAPI  C21421898   1.066   2.260   4.951 -0.1020 -0.6275  0.1906
  190SAPI  H14R21899   1.023   2.160   4.936 -2.9630  0.3744  1.0686
  190SAPI  C21521900   1.027   2.359   4.867 -0.4982  0.2584  0.3567
  190SAPI  H15R21901   0.960   2.330   4.785  1.4733 -0.1773 -1.1986
  190SAPI  C21621902   1.062   2.503   4.900  0.6084 -0.1797  0.2384
  190SAPI  H16R21903   1.044   2.525   5.007  0.5574  1.0438 -0.0127
  190SAPI  H16S21904   0.980   2.569   4.864 -0.4531 -0.7662  1.4758
  190SAPI  C21721905   1.199   2.556   4.855 -0.3860 -0.5185 -0.5096
  190SAPI  H17R21906   1.213   2.523   4.750  2.2018 -1.1206 -0.0432
  190SAPI  H17S21907   1.282   2.509   4.911 -0.8334 -1.9951 -1.0195
  190SAPI  C21821908   1.197   2.714   4.848 -0.2257  0.5975  0.4296
  190SAPI  H18R21909   1.191   2.751   4.953 -0.8916 -0.6723  0.8579
  190SAPI  H18S21910   1.109   2.733   4.782  0.3925  0.8926 -0.3196
  190SAPI  C21921911   1.334   2.766   4.792  0.2495  1.1480  0.5450
  190SAPI  H19R21912   1.331   2.765   4.681  0.1645 -1.3716  0.5247
  190SAPI  H19S21913   1.413   2.697   4.826  0.8871  1.2809 -0.6024
  190SAPI  C22021914   1.359   2.908   4.843  0.7126 -0.7265  0.1995
  190SAPI  H20R21915   1.294   2.986   4.799  2.1661  0.1550 -0.4674
  190SAPI  H20S21916   1.461   2.947   4.821 -0.3095  2.0198  0.0008
  190SAPI  H20T21917   1.334   2.917   4.951 -0.3613  2.2594 -0.2131
  190SAPI   C3321918   1.408   3.073   6.189 -0.0288 -0.0533  0.2297
  190SAPI   H3X21919   1.349   2.993   6.138  0.9023 -1.0817  0.7313
  190SAPI   H3Y21920   1.509   3.042   6.224 -0.1425  0.7988  1.3436
  190SAPI   C3421921   1.418   3.195   6.101 -0.2420 -0.6306 -0.3592
  190SAPI   H4X21922   1.480   3.268   6.156  0.7823 -0.6426 -1.4599
  190SAPI   H4Y21923   1.312   3.225   6.090 -0.4433 -1.5704 -1.2463
  190SAPI   C3521924   1.473   3.176   5.965 -0.1392  0.3290  0.1085
  190SAPI   H5X21925   1.409   3.120   5.894  1.3369  0.6966 -1.5876
  190SAPI   H5Y21926   1.566   3.116   5.973 -0.3996 -0.2547 -1.0119
  190SAPI   C3621927   1.511   3.310   5.898  0.0548 -0.0379  0.0142
  190SAPI   H6X21928   1.590   3.359   5.958 -0.1642  0.6608 -0.2549
  190SAPI   H6Y21929   1.425   3.380   5.909  0.8136  0.6361  2.3246
  190SAPI   C3721930   1.555   3.307   5.745  0.2458 -0.2080 -0.0866
  190SAPI   H7X21931   1.462   3.266   5.701  1.3501 -0.7471 -2.0475
  190SAPI   H7Y21932   1.638   3.235   5.723  1.9532  1.5484  0.2863
  190SAPI   C3821933   1.600   3.445   5.694  0.0889  0.8402  0.8114
  190SAPI   H8X21934   1.700   3.469   5.736 -0.0898 -2.3934  3.4697
  190SAPI   H8Y21935   1.534   3.519   5.744  0.2976  1.4756  0.1661
  190SAPI   C3921936   1.608   3.450   5.539  0.6381 -0.2664 -0.4417
  190SAPI   H9X21937   1.517   3.502   5.500 -0.3277 -1.6492 -0.1262
  190SAPI   H9Y21938   1.603   3.343   5.510  1.5131 -0.0657 -1.4043
  190SAPI  C31021939   1.738   3.513   5.481  0.1928  1.1153  0.1711
  190SAPI  H10X21940   1.825   3.457   5.522  0.4234  2.8131  2.1863
  190SAPI  H10Y21941   1.738   3.619   5.514  2.7289  1.1033  0.4353
  190SAPI  C31121942   1.742   3.497   5.331  0.4748 -0.2007 -0.2855
  190SAPI  H11X21943   1.701   3.591   5.287 -0.4412 -1.0105 -1.2275
  190SAPI  H11Y21944   1.685   3.411   5.290  1.9417 -0.8159 -1.1189
  190SAPI  C31221945   1.885   3.483   5.284  0.1419  0.8074 -0.1839
  190SAPI  H12X21946   1.925   3.387   5.324  1.6014  0.8462 -1.4590
  190SAPI  H12Y21947   1.956   3.561   5.320  1.8984 -1.3213  1.2786
  190SAPI  C31321948   1.887   3.481   5.131  0.9446  0.0915  0.3843
  190SAPI  H13X21949   1.843   3.572   5.086 -1.7210 -1.4946 -0.4023
  190SAPI  H13Y21950   1.835   3.388   5.101 -2.0087  1.8324 -0.2898
  190SAPI  C31421951   2.028   3.471   5.072 -0.3616 -0.0346 -0.2359
  190SAPI  H14X21952   2.090   3.384   5.104  4.4580  2.1285 -2.6817
  190SAPI  H14Y21953   2.068   3.573   5.090 -2.3097  1.0567 -1.6961
  190SAPI  C31521954   2.019   3.453   4.918 -0.1225  0.5305  0.3792
  190SAPI  H15X21955   1.928   3.510   4.891 -0.6717 -0.8859 -0.9384
  190SAPI  H15Y21956   1.995   3.348   4.891 -0.2522  0.1866  1.7429
  190SAPI  C31621957   2.139   3.513   4.838 -0.8512  0.1170  0.0762
  190SAPI  H16X21958   2.237   3.475   4.875 -0.7705 -1.1518 -1.3502
  190SAPI  H16Y21959   2.142   3.623   4.854  1.7184 -0.0608  1.4969
  190SAPI  C31721960   2.144   3.473   4.692 -0.4629 -0.0620 -0.0436
  190SAPI  H17X21961   2.120   3.365   4.685 -1.2869  0.1702 -1.2082
  190SAPI  H17Y21962   2.247   3.495   4.658 -1.2754  1.0781 -1.9092
  190SAPI  C31821963   2.052   3.548   4.595  0.0288  0.0014 -0.4172
  190SAPI  H18X21964   2.055   3.495   4.497  1.6245  0.5668 -0.7086
  190SAPI  H18Y21965   2.082   3.654   4.584  1.3819 -0.3292 -0.0859
  190SAPI  H18Z21966   1.946   3.553   4.626 -0.3355  1.3906 -1.7557
  191SAPI   C1221967   3.198   3.210   2.698 -0.4832  0.3444  0.1059
  191SAPI    H221968   3.180   3.219   2.807  0.5146  0.7961  0.2420
  191SAPI    O221969   3.110   3.105   2.647 -0.4380  0.2808 -0.2002
  191SAPI   HO221970   3.133   3.029   2.702 -0.2263  1.2779  1.1573
  191SAPI   C1321971   3.179   3.342   2.631 -0.2095  0.0204  0.0781
  191SAPI    H321972   3.258   3.414   2.662 -0.3014 -0.1469  0.7010
  191SAPI    O321973   3.064   3.406   2.689  0.1044 -0.1919 -0.3093
  191SAPI   HO321974   2.994   3.342   2.675  2.1046 -2.8970  1.1981
  191SAPI   C1421975   3.173   3.342   2.480 -0.0245  0.2013 -0.5168
  191SAPI    H421976   3.077   3.289   2.467  0.7161 -1.1851 -0.6051
  191SAPI    O421977   3.162   3.463   2.408 -0.3950 -0.6370  0.1151
  191SAPI   HO421978   3.156   3.441   2.314 -0.2361  0.9362 -0.2876
  191SAPI   C1521979   3.278   3.243   2.425 -0.4331 -0.3825 -0.0381
  191SAPI    H521980   3.368   3.303   2.401  1.5478 -2.7457  1.0267
  191SAPI    O521981   3.258   3.193   2.289  0.1079  0.8196  0.3918
  191SAPI   HO521982   3.218   3.259   2.231  1.4311  0.9435 -0.4324
  191SAPI   C1621983   3.345   3.136   2.517 -0.0814 -0.9878  0.2914
  191SAPI    H621984   3.298   3.037   2.504  0.5643 -1.0207 -2.2189
  191SAPI    O621985   3.478   3.109   2.477  0.1407  0.2970 -0.4377
  191SAPI   HO621986   3.516   3.080   2.560 -2.1871 -0.6895  0.3553
  191SAPI   C1121987   3.340   3.169   2.672 -0.0188  0.1731 -0.4081
  191SAPI    H121988   3.405   3.256   2.697  1.2831 -1.4166  2.1254
  191SAPI     P21989   3.529   3.029   2.815 -0.3522 -0.2590  0.3506
  191SAPI   O1321990   3.630   3.075   2.713  0.5245  0.4119 -0.0111
  191SAPI   O1421991   3.535   2.884   2.857  0.1901 -0.2414  0.0769
  191SAPI   O1221992   3.377   3.063   2.760 -0.3485  0.6197  0.2366
  191SAPI   O1121993   3.543   3.123   2.944 -0.0317  0.0158 -0.3476
  191SAPI    C121994   3.434   3.146   3.032  0.2642 -0.4568  0.4275
  191SAPI    HA21995   3.352   3.073   3.016 -0.0201 -0.4746  1.8530
  191SAPI    HB21996   3.458   3.127   3.139 -4.8214  2.1377  2.3341
  191SAPI    C221997   3.388   3.298   3.030  0.6397 -0.1314 -0.0386
  191SAPI    HS21998   3.374   3.329   2.924 -3.1366  0.4171  0.4789
  191SAPI   O2121999   3.486   3.374   3.101  0.4009 -0.7159  0.1185
  191SAPI   C2122000   3.476   3.505   3.065  0.0580  0.2077 -0.2695
  191SAPI   O2222001   3.396   3.552   2.983 -0.7550  0.1196 -0.3121
  191SAPI   C2222002   3.567   3.592   3.144 -0.2554 -0.0221  0.3993
  191SAPI   H2R22003   3.671   3.574   3.108 -0.1021  2.3625 -0.5586
  191SAPI   H2S22004   3.554   3.701   3.126  1.9715  0.4776  1.3996
  191SAPI    C322005   3.248   3.307   3.091  0.9341  0.3379  0.1443
  191SAPI    HX22006   3.186   3.239   3.029 -0.5152  1.8061 -0.0903
  191SAPI    HY22007   3.200   3.407   3.087 -1.3181 -0.7368 -2.4247
  191SAPI   O3122008   3.256   3.238   3.220 -0.1848 -0.4546 -0.2026
  191SAPI   C3122009   3.227   3.309   3.325  0.2922 -0.7772  0.5940
  191SAPI   O3222010   3.224   3.432   3.328  0.3856 -0.0700  0.3573
  191SAPI   C3222011   3.206   3.231   3.452 -0.1831 -0.0243  0.4623
  191SAPI   H2X22012   3.104   3.188   3.436 -0.2511  1.1426 -3.3013
  191SAPI   H2Y22013   3.192   3.302   3.535  0.5148 -1.6046  1.9995
  191SAPI   C2322014   3.558   3.581   3.293  0.1053 -0.1067 -0.3827
  191SAPI   H3R22015   3.574   3.472   3.304 -1.9799 -0.4892 -0.6615
  191SAPI   H3S22016   3.454   3.594   3.330  1.6543  2.3960  3.7651
  191SAPI   C2422017   3.658   3.668   3.365 -0.5391 -0.7260  0.2001
  191SAPI   H4R22018   3.615   3.770   3.360  2.5499  0.6678 -0.1476
  191SAPI   H4S22019   3.750   3.669   3.304 -1.7488 -0.9756 -1.7058
  191SAPI   C2522020   3.670   3.611   3.506  0.7022  0.9070 -0.5941
  191SAPI   H5R22021   3.618   3.518   3.535 -1.5249  2.4606  0.6747
  191SAPI   C2622022   3.726   3.671   3.608  0.6952 -0.0995 -0.0984
  191SAPI   H6R22023   3.728   3.616   3.703  2.7113 -0.8464 -0.5156
  191SAPI   C2722024   3.794   3.806   3.609  0.1906 -0.0484  0.0994
  191SAPI   H7R22025   3.783   3.859   3.513  0.4247 -1.7073 -0.8800
  191SAPI   H7S22026   3.904   3.800   3.626  0.9212  2.9996 -2.7215
  191SAPI   C2822027   3.736   3.885   3.720  0.2756 -0.1230 -0.6099
  191SAPI   H8R22028   3.645   3.944   3.700 -0.2356 -0.1538  1.3641
  191SAPI   C2922029   3.781   3.890   3.849 -0.9390 -0.7485  0.1857
  191SAPI   H9R22030   3.721   3.951   3.918  0.6208 -1.0053  1.8477
  191SAPI  C21022031   3.897   3.820   3.912 -0.4386  0.0572  0.1336
  191SAPI  H10R22032   3.906   3.725   3.854 -1.8662 -0.4538  0.6854
  191SAPI  H10S22033   3.874   3.788   4.017 -0.7586  0.5689  0.2233
  191SAPI  C21122034   4.021   3.899   3.908 -0.2019 -0.4621  0.7739
  191SAPI  H11R22035   4.091   3.872   3.828  0.8868  1.3973  1.0365
  191SAPI  C21222036   4.074   3.995   3.989  0.2564  0.6126 -0.1257
  191SAPI  H12R22037   4.176   4.023   3.959  0.2068 -0.4103 -1.3297
  191SAPI  C21322038   4.013   4.047   4.115  0.2523  0.5018  0.4717
  191SAPI  H13R22039   4.068   3.996   4.196  0.5507 -0.5321 -0.3567
  191SAPI  H13S22040   3.905   4.024   4.122  0.6580 -0.9472  3.0618
  191SAPI  C21422041   4.039   4.197   4.143 -0.1200 -0.2161  0.7832
  191SAPI  H14R22042   4.075   4.259   4.059  0.0169  0.7295  1.5277
  191SAPI  C21522043   4.046   4.254   4.263  0.0962 -0.0281 -0.8008
  191SAPI  H15R22044   4.059   4.363   4.269  1.5295 -0.2745  2.3369
  191SAPI  C21622045   4.010   4.201   4.398 -0.2257  0.2781 -0.3963
  191SAPI  H16R22046   3.969   4.099   4.383 -0.6173  0.8208 -3.7981
  191SAPI  H16S22047   3.932   4.261   4.450 -0.0807  0.9139 -0.8976
  191SAPI  C21722048   4.131   4.198   4.499 -0.5210 -0.3651 -0.4941
  191SAPI  H17R22049   4.149   4.301   4.537 -0.3949  0.0691 -1.6943
  191SAPI  H17S22050   4.226   4.170   4.448  0.8065  0.7103  1.2194
  191SAPI  C21822051   4.100   4.109   4.619 -0.0827  0.4696  0.2570
  191SAPI  H18R22052   4.117   4.005   4.585 -1.3721  0.5075 -0.5401
  191SAPI  H18S22053   3.996   4.127   4.652  0.9475  1.9874  3.0527
  191SAPI  C21922054   4.182   4.131   4.742 -0.0075  0.2025 -0.7805
  191SAPI  H19R22055   4.178   4.232   4.788 -1.0593 -0.5006  0.7246
  191SAPI  H19S22056   4.288   4.118   4.711  0.1398  0.6944 -0.4923
  191SAPI  C22022057   4.156   4.033   4.859 -0.0013 -0.2769  0.3175
  191SAPI  H20R22058   4.216   3.941   4.846 -0.3417 -0.5671  0.7896
  191SAPI  H20S22059   4.047   4.011   4.867 -0.5333  2.4031  1.5730
  191SAPI  H20T22060   4.182   4.072   4.960  1.3317 -1.5458  0.4924
  191SAPI   C3322061   3.307   3.123   3.476  0.2336 -1.0246 -0.6542
  191SAPI   H3X22062   3.320   3.058   3.386 -1.7553 -0.3293 -1.4915
  191SAPI   H3Y22063   3.252   3.054   3.544 -0.0836 -1.5172 -1.3881
  191SAPI   C3422064   3.437   3.174   3.539  0.6543  0.2119 -0.3105
  191SAPI   H4X22065   3.468   3.269   3.491  2.4608  1.0809  2.3604
  191SAPI   H4Y22066   3.512   3.096   3.513 -1.1388 -1.2340 -1.4120
  191SAPI   C3522067   3.433   3.192   3.697  0.3846  0.2529 -0.1646
  191SAPI   H5X22068   3.398   3.096   3.740  0.1027  0.8982  1.0749
  191SAPI   H5Y22069   3.359   3.273   3.713  2.3821  1.7614  2.1866
  191SAPI   C3622070   3.563   3.230   3.766 -1.1318  0.6475 -0.7763
  191SAPI   H6X22071   3.614   3.311   3.710  1.3653 -1.1515 -1.2798
  191SAPI   H6Y22072   3.628   3.152   3.720 -0.0113  1.6632 -0.9636
  191SAPI   C3722073   3.569   3.221   3.918  0.1712  0.4068 -0.0002
  191SAPI   H7X22074   3.540   3.122   3.959  3.8071 -0.8829 -0.2080
  191SAPI   H7Y22075   3.507   3.303   3.959  1.4904  0.8228  1.2688
  191SAPI   C3822076   3.720   3.241   3.956  0.4437 -0.1873 -0.0561
  191SAPI   H8X22077   3.754   3.340   3.920  2.0844 -0.1184  1.5400
  191SAPI   H8Y22078   3.775   3.153   3.915  0.4463  0.3630 -1.2762
  191SAPI   C3922079   3.735   3.245   4.108  0.1647 -0.1651  0.7950
  191SAPI   H9X22080   3.649   3.306   4.143 -0.9829 -1.7514  0.8529
  191SAPI   H9Y22081   3.831   3.290   4.139  0.1152  1.4556 -1.1912
  191SAPI  C31022082   3.736   3.110   4.177 -0.4184  0.0478  0.2389
  191SAPI  H10X22083   3.821   3.045   4.145 -1.6128 -0.1120 -2.9845
  191SAPI  H10Y22084   3.649   3.044   4.156  0.0099 -0.9333  1.4274
  191SAPI  C31122085   3.734   3.104   4.326  0.1808  0.2716  0.4596
  191SAPI  H11X22086   3.752   2.996   4.345 -1.5002 -0.2781 -0.8546
  191SAPI  H11Y22087   3.628   3.125   4.350  0.2044  1.3481 -0.2888
  191SAPI  C31222088   3.829   3.204   4.398 -0.0840 -0.0735 -0.2642
  191SAPI  H12X22089   3.810   3.308   4.363 -3.7152 -0.9279 -1.1599
  191SAPI  H12Y22090   3.927   3.170   4.357 -1.0213 -0.0855 -2.6182
  191SAPI  C31322091   3.833   3.185   4.546  0.5089 -0.7369 -0.5494
  191SAPI  H13X22092   3.920   3.242   4.585 -0.5747  0.9988 -0.5528
  191SAPI  H13Y22093   3.838   3.077   4.574 -2.8332 -0.9905 -0.5151
  191SAPI  C31422094   3.717   3.250   4.616 -0.4179  0.2312 -0.2498
  191SAPI  H14X22095   3.615   3.211   4.596 -0.5914  0.2000  0.6616
  191SAPI  H14Y22096   3.727   3.359   4.594  1.6647 -0.1884 -1.7170
  191SAPI  C31522097   3.734   3.236   4.767  0.1794  0.3006  0.6453
  191SAPI  H15X22098   3.828   3.282   4.803 -0.4416  0.5260  2.0644
  191SAPI  H15Y22099   3.747   3.128   4.786 -0.2229 -0.7227 -3.7615
  191SAPI  C31622100   3.609   3.304   4.842  0.1068 -0.1700  0.8552
  191SAPI  H16X22101   3.581   3.241   4.929  2.9625 -0.8396  1.3956
  191SAPI  H16Y22102   3.534   3.294   4.761  2.8144 -2.5308 -1.5582
  191SAPI  C31722103   3.635   3.439   4.890 -0.2003 -0.9886  0.5000
  191SAPI  H17X22104   3.735   3.449   4.939 -0.4053  2.0758  0.4899
  191SAPI  H17Y22105   3.563   3.453   4.974 -1.9990  0.2808 -1.1702
  191SAPI  C31822106   3.619   3.559   4.789 -0.2049 -0.0441 -0.3657
  191SAPI  H18X22107   3.675   3.540   4.696  0.1713 -0.5709 -0.0367
  191SAPI  H18Y22108   3.651   3.658   4.828 -0.1428  0.3053 -1.2954
  191SAPI  H18Z22109   3.509   3.570   4.776 -0.1887 -1.2364 -1.7907
  192SAPI   C1222110   5.651   2.491   2.210 -0.5985 -0.0441 -0.6671
  192SAPI    H222111   5.640   2.487   2.321  0.1466  0.1386 -0.5852
  192SAPI    O222112   5.537   2.428   2.145  0.6340 -0.5986  0.9681
  192SAPI   HO222113   5.472   2.392   2.207 -0.1766 -1.1065 -0.1380
  192SAPI   C1322114   5.651   2.640   2.174  0.0422  0.7623  0.2149
  192SAPI    H322115   5.737   2.683   2.229  0.6535 -0.9280  0.6483
  192SAPI    O322116   5.547   2.726   2.215  0.3018 -0.2088  0.3497
  192SAPI   HO322117   5.469   2.670   2.215  1.1796 -1.4874 -0.5033
  192SAPI   C1422118   5.688   2.653   2.026  0.3979 -0.4533 -0.1054
  192SAPI    H422119   5.604   2.618   1.962 -0.0002  0.3045 -0.0085
  192SAPI    O422120   5.700   2.791   1.990 -0.0937 -0.6416  0.0366
  192SAPI   HO422121   5.613   2.830   2.007  0.4150 -0.0146  1.3431
  192SAPI   C1522122   5.820   2.582   1.993  0.5770  0.1868  0.3152
  192SAPI    H522123   5.887   2.642   2.058 -0.7785  1.9982  0.1104
  192SAPI    O522124   5.856   2.601   1.853  0.2655 -0.0079 -0.6401
  192SAPI   HO522125   5.844   2.695   1.837 -0.4784  0.0449  0.1681
  192SAPI   C1622126   5.837   2.441   2.043 -0.1750  0.3521  0.0227
  192SAPI    H622127   5.776   2.381   1.973 -0.5944  0.3687  0.3698
  192SAPI    O622128   5.968   2.397   2.034 -0.5354 -0.0016 -0.0100
  192SAPI   HO622129   6.026   2.414   2.109  1.5380 -0.5092 -1.4217
  192SAPI   C1122130   5.774   2.412   2.184 -0.3976 -0.4423  0.0614
  192SAPI    H122131   5.847   2.461   2.251 -0.4006  1.5398 -1.3057
  192SAPI     P22132   5.834   2.193   2.317 -0.2585 -0.3242  0.5167
  192SAPI   O1322133   5.851   2.285   2.436 -0.2489  0.5618  1.1464
  192SAPI   O1422134   5.964   2.143   2.268  0.4637 -0.1642 -0.1985
  192SAPI   O1222135   5.760   2.268   2.201  0.4695  0.4268  0.4180
  192SAPI   O1122136   5.743   2.070   2.352 -0.1381  0.4743 -0.3109
  192SAPI    C122137   5.606   2.085   2.383  0.1862 -0.0319  0.2387
  192SAPI    HA22138   5.554   2.159   2.318 -0.5995 -1.3054 -0.6195
  192SAPI    HB22139   5.557   1.987   2.365 -0.9588  0.1890  1.9860
  192SAPI    C222140   5.583   2.119   2.530  0.2076 -0.0872  0.6747
  192SAPI    HS22141   5.601   2.227   2.549  4.0783 -0.7207  1.3829
  192SAPI   O2122142   5.675   2.039   2.608  0.1404  0.0539  0.3388
  192SAPI   C2122143   5.743   2.110   2.694  0.3437 -0.3417  0.1180
  192SAPI   O2222144   5.733   2.228   2.721 -0.2686  0.0041 -0.0552
  192SAPI   C2222145   5.834   2.016   2.769  0.8455  0.1663 -0.7057
  192SAPI   H2R22146   5.796   1.911   2.772  0.4795  0.3005 -0.6488
  192SAPI   H2S22147   5.921   1.998   2.702  0.7748  0.4597 -0.8782
  192SAPI    C322148   5.435   2.085   2.566 -0.1680 -0.1846  0.9091
  192SAPI    HX22149   5.419   1.987   2.517  0.7631 -0.8495  1.8959
  192SAPI    HY22150   5.365   2.155   2.515  1.0658 -0.0717 -0.7492
  192SAPI   O3122151   5.405   2.068   2.704  0.0195  0.1741 -0.0617
  192SAPI   C3122152   5.415   2.173   2.782  0.5091  0.2365  0.8989
  192SAPI   O3222153   5.435   2.288   2.745 -0.1316  0.4354 -0.2223
  192SAPI   C3222154   5.384   2.134   2.924  0.5298 -0.3627  1.2264
  192SAPI   H2X22155   5.368   2.024   2.931  4.2185 -1.0555  1.2407
  192SAPI   H2Y22156   5.287   2.180   2.950  0.7877  0.4534  0.7680
  192SAPI   C2322157   5.880   2.064   2.908 -0.0333  0.7946  0.1597
  192SAPI   H3R22158   5.794   2.096   2.969 -0.8665  0.0840 -0.6133
  192SAPI   H3S22159   5.957   2.143   2.894  1.2742 -0.5122 -0.3513
  192SAPI   C2422160   5.962   1.954   2.985 -0.1735  0.7856  0.0107
  192SAPI   H4R22161   6.016   2.004   3.069 -0.6912  0.1588  0.7241
  192SAPI   H4S22162   6.044   1.934   2.912 -1.1218  0.4642 -0.9917
  192SAPI   C2522163   5.878   1.835   3.032 -0.1372 -0.2029 -0.3330
  192SAPI   H5R22164   5.859   1.752   2.963  1.6985 -1.6135  0.7499
  192SAPI   C2622165   5.825   1.821   3.161 -0.6092  0.0785  0.3477
  192SAPI   H6R22166   5.765   1.730   3.180 -1.0191  0.6370  1.8961
  192SAPI   C2722167   5.852   1.915   3.280 -0.1362 -0.1371 -0.3069
  192SAPI   H7R22168   5.754   1.950   3.320 -1.5735 -0.7548 -3.0469
  192SAPI   H7S22169   5.898   2.015   3.263 -0.7440  0.4131  1.0912
  192SAPI   C2822170   5.950   1.840   3.369 -0.3211 -0.4225  0.6658
  192SAPI   H8R22171   6.055   1.840   3.337  0.0685 -2.1511  1.7638
  192SAPI   C2922172   5.920   1.780   3.475 -0.3491 -0.4844 -0.6203
  192SAPI   H9R22173   5.990   1.712   3.525 -1.4552 -1.2694 -0.0872
  192SAPI  C21022174   5.789   1.812   3.552  0.1219 -0.3348  0.7789
  192SAPI  H10R22175   5.698   1.765   3.508  0.5433 -0.6472  0.2188
  192SAPI  H10S22176   5.760   1.918   3.541 -0.8903 -0.7318 -0.7171
  192SAPI  C21122177   5.797   1.775   3.694  0.4713 -0.5763  0.3681
  192SAPI  H11R22178   5.823   1.864   3.753 -0.0399  0.8242 -1.4201
  192SAPI  C21222179   5.772   1.662   3.757  0.3551 -0.1246  0.3610
  192SAPI  H12R22180   5.779   1.645   3.866 -1.7000 -2.3448  0.2384
  192SAPI  C21322181   5.724   1.542   3.683  0.0234  0.5247 -0.1878
  192SAPI  H13R22182   5.695   1.563   3.578 -0.7365  2.5299  0.3721
  192SAPI  H13S22183   5.625   1.514   3.724  0.3560 -1.1411 -0.4188
  192SAPI  C21422184   5.822   1.430   3.684 -0.0374  0.0261  0.6890
  192SAPI  H14R22185   5.844   1.395   3.785  0.2489 -0.9406  0.3028
  192SAPI  C21522186   5.894   1.374   3.582 -0.2185 -0.2063  0.2869
  192SAPI  H15R22187   5.968   1.296   3.609 -0.1788 -0.4552 -0.5175
  192SAPI  C21622188   5.895   1.415   3.430 -0.0159 -0.5880  0.1910
  192SAPI  H16R22189   5.995   1.435   3.387  1.1776 -2.0276  2.1377
  192SAPI  H16S22190   5.834   1.506   3.412  0.9476 -0.3488 -2.1539
  192SAPI  C21722191   5.842   1.300   3.339  0.1938  0.0931  0.2626
  192SAPI  H17R22192   5.750   1.258   3.385  1.0327 -0.6210  1.3639
  192SAPI  H17S22193   5.918   1.219   3.336 -0.1927 -0.3206  1.2261
  192SAPI  C21822194   5.814   1.347   3.195 -0.3157 -0.3541 -0.0656
  192SAPI  H18R22195   5.895   1.413   3.157  0.3709 -1.1707 -0.0429
  192SAPI  H18S22196   5.728   1.417   3.202  0.2132  0.2120  0.9920
  192SAPI  C21922197   5.773   1.234   3.098  1.3707 -0.4202 -0.3710
  192SAPI  H19R22198   5.676   1.193   3.134  0.1972  3.3714  1.4022
  192SAPI  H19S22199   5.849   1.153   3.093  2.8340  0.8616  0.0866
  192SAPI  C22022200   5.741   1.303   2.962 -0.4409  0.4514  0.0680
  192SAPI  H20R22201   5.748   1.234   2.875  1.9236  1.0455 -0.2792
  192SAPI  H20S22202   5.815   1.383   2.941  0.3476 -0.7335 -1.9429
  192SAPI  H20T22203   5.644   1.358   2.964  0.1670  1.6889 -1.7011
  192SAPI   C3322204   5.504   2.182   3.009 -0.5987  0.2014 -0.1644
  192SAPI   H3X22205   5.499   2.293   3.022 -0.2840  0.3571 -1.2504
  192SAPI   H3Y22206   5.600   2.178   2.953  0.5716 -2.0943  1.8357
  192SAPI   C3422207   5.546   2.103   3.139  1.1752  0.1599  0.0389
  192SAPI   H4X22208   5.636   2.146   3.188  0.9495 -0.4749  1.0450
  192SAPI   H4Y22209   5.564   1.996   3.116 -1.4733 -0.0986 -1.1735
  192SAPI   C3522210   5.435   2.092   3.249  0.0243  0.1779 -0.0029
  192SAPI   H5X22211   5.346   2.042   3.202  0.5865  0.2516 -1.1871
  192SAPI   H5Y22212   5.396   2.192   3.276 -0.1393  0.6219 -1.7404
  192SAPI   C3622213   5.486   2.011   3.366 -0.2366  0.1085 -0.5015
  192SAPI   H6X22214   5.574   2.061   3.412 -1.2582 -0.6578  2.4954
  192SAPI   H6Y22215   5.516   1.913   3.324 -0.2528 -0.6441  1.1650
  192SAPI   C3722216   5.394   2.001   3.489 -0.4728  0.0793 -0.4559
  192SAPI   H7X22217   5.302   1.947   3.460 -0.5571 -0.2964  0.4819
  192SAPI   H7Y22218   5.362   2.095   3.539 -1.8068 -1.8062  2.5082
  192SAPI   C3822219   5.456   1.922   3.601  0.4470  0.0098 -1.0184
  192SAPI   H8X22220   5.554   1.960   3.634  0.0915 -0.8094  1.1850
  192SAPI   H8Y22221   5.458   1.817   3.563 -0.4281 -0.4322  0.0808
  192SAPI   C3922222   5.365   1.901   3.724  0.9851  0.1674  0.1041
  192SAPI   H9X22223   5.408   1.816   3.781  0.9950 -0.4552 -0.8088
  192SAPI   H9Y22224   5.264   1.874   3.687  0.6187  0.6400  0.7579
  192SAPI  C31022225   5.336   2.017   3.812 -0.1173 -0.3956 -0.9533
  192SAPI  H10X22226   5.336   2.113   3.756 -0.1935  1.1235  1.5132
  192SAPI  H10Y22227   5.427   2.021   3.875 -0.5676 -0.9778 -0.2492
  192SAPI  C31122228   5.219   2.016   3.917  0.3862 -0.1624  0.2354
  192SAPI  H11X22229   5.131   2.076   3.884  0.3561 -0.5778 -0.4717
  192SAPI  H11Y22230   5.255   2.071   4.006 -1.7725  0.5899  0.7187
  192SAPI  C31222231   5.174   1.880   3.971  0.0820 -0.1787 -0.6492
  192SAPI  H12X22232   5.269   1.827   3.993  1.6301  2.3478 -0.8214
  192SAPI  H12Y22233   5.112   1.825   3.898  0.1453 -1.0398 -0.0684
  192SAPI  C31322234   5.100   1.896   4.097 -0.3763  0.0448 -0.8224
  192SAPI  H13X22235   5.030   1.812   4.117  0.1515  0.0774  1.4219
  192SAPI  H13Y22236   5.048   1.994   4.099  2.1125  1.4439  0.5821
  192SAPI  C31422237   5.186   1.892   4.219  0.0356 -0.9623 -0.0713
  192SAPI  H14X22238   5.260   1.975   4.227 -1.0556  0.1114 -0.7793
  192SAPI  H14Y22239   5.243   1.797   4.212  0.4909 -0.6577 -0.5512
  192SAPI  C31522240   5.098   1.890   4.352 -0.0933  0.7774 -0.1163
  192SAPI  H15X22241   5.004   1.833   4.340  0.1218  0.4479 -0.2371
  192SAPI  H15Y22242   5.076   1.994   4.387  2.0916  1.1193  0.4073
  192SAPI  C31622243   5.189   1.824   4.462  0.1470  0.4133 -0.1396
  192SAPI  H16X22244   5.145   1.859   4.558 -0.2875  1.3592 -0.6736
  192SAPI  H16Y22245   5.295   1.854   4.446  0.0758  2.0615  1.9160
  192SAPI  C31722246   5.179   1.670   4.458 -0.6281 -0.0035  0.7247
  192SAPI  H17X22247   5.208   1.620   4.363 -0.4495 -1.0096  1.2936
  192SAPI  H17Y22248   5.077   1.639   4.490  0.5213 -1.8939  2.9078
  192SAPI  C31822249   5.247   1.600   4.573  0.0916 -0.4756 -0.5066
  192SAPI  H18X22250   5.207   1.620   4.675  0.1407  0.2622 -0.6245
  192SAPI  H18Y22251   5.355   1.626   4.576 -0.2843  1.3599 -1.4531
  192SAPI  H18Z22252   5.235   1.490   4.562 -3.0826 -0.5060  1.7855
  193SOD    SOD22253   3.400   4.725   1.708  0.5135 -0.3819  0.4745
  194SOD    SOD22254   2.504   6.654   2.388  0.2072  0.0291  0.4667
  195SOD    SOD22255   0.139   4.455   2.489 -0.0055 -0.1685 -0.0505
  196SOD    SOD22256   2.211   0.120   8.178 -0.3546 -0.2320 -0.2192
  197SOD    SOD22257   5.152   5.869   0.733  0.2269 -0.4523  0.8779
  198SOD    SOD22258   4.038   3.025   7.319  0.5075  0.3914 -0.4452
  199SOD    SOD22259   4.758   0.130   7.903  0.1768 -0.0207 -0.2323
  200SOD    SOD22260   0.254   2.543   7.246  0.0556  0.2976 -0.3385
  201SOD    SOD22261   3.148   1.287   0.319 -0.5890 -0.2908 -0.1863
  202SOD    SOD22262   4.166   0.244   7.457  0.2376 -0.1083  0.0134
  203SOD    SOD22263   5.827   2.416   2.625 -0.5559 -0.2688  0.0384
  204SOD    SOD22264   6.370   3.873   1.979 -0.1336  0.2759  0.1797
  205SOD    SOD22265   3.352   0.480   1.501 -0.4477  0.2352 -0.0092
  206SOD    SOD22266   1.833   1.964   1.524  0.2871 -0.7354 -0.1405
  207SOD    SOD22267   3.133   0.029   6.739  0.3254  0.2095  0.4956
  208SOD    SOD22268   5.531   1.975   8.544  0.4736  0.1063 -0.0641
  209SOD    SOD22269   2.761   3.202   0.027 -0.6607 -0.6463  0.4204
  210SOD    SOD22270   1.706   6.216   7.348 -0.0497 -0.3691 -0.2241
  211SOD    SOD22271   0.869   5.159   7.868 -0.2253 -0.5673 -0.5405
  212SOD    SOD22272   5.189   5.110   1.392  0.0844  0.0474 -0.3518
  213SOD    SOD22273   6.212   6.526   7.601 -0.0953 -0.5486  0.2667
  214SOD    SOD22274   1.839   0.137   7.251  0.3052 -0.2712 -0.1296
  215SOD    SOD22275   2.858   0.694   2.414  0.3512 -0.4128 -0.2466
  216SOD    SOD22276   1.715   5.052   6.935 -0.0629 -0.2243 -0.2661
  217SOD    SOD22277   2.957   5.173   6.829  0.0612  0.4128 -0.5698
  218SOD    SOD22278   6.249   4.870   0.377  0.3684  0.0751 -0.2673
  219SOD    SOD22279   4.196   3.955   8.418  0.1700  0.1744  0.1599
  220SOD    SOD22280   1.479   6.791   0.480  0.0879 -0.3053  0.2121
  221SOD    SOD22281   3.642   2.277   1.443  0.4694  0.5462  0.6231
  222SOD    SOD22282   3.070   3.034   1.791  0.1625  0.1250 -0.1414
  223SOD    SOD22283   0.561   2.226   8.096 -0.3025  0.2681  0.6117
  224SOD    SOD22284   3.220   3.832   2.673  0.7348 -0.1000 -0.5876
  225SOD    SOD22285   3.301   3.675   1.726 -0.5663 -0.0345  0.4458
  226SOD    SOD22286   5.584   3.998   2.310  0.1502 -0.0417 -0.2622
  227SOD    SOD22287   0.744   5.629   2.222 -0.2700  0.3603 -0.2050
  228SOD    SOD22288   0.765   5.064   2.333 -0.0542  0.7507 -0.0103
  229SOD    SOD22289   0.315   2.037   1.185 -0.5065 -0.0215  0.1729
  230SOD    SOD22290   2.491   2.415   8.300  0.0573 -0.1038 -0.0252
  231SOD    SOD22291   5.167   0.127   6.669 -0.3038  0.0383 -0.0969
  232SOD    SOD22292   0.196   4.318   0.857 -0.4435 -0.2875 -0.0485
  233SOD    SOD22293   5.706   5.800   0.178  0.0177 -0.3248 -0.0935
  234CLA    CLA22294   0.193   2.740   7.399 -0.1994  0.1229 -0.1792
  235CLA    CLA22295   5.691   2.174   8.117 -0.0593 -0.0609  0.1583
  236CLA    CLA22296   1.080   0.122   0.688 -0.2621 -0.0914  0.3297
  237CLA    CLA22297   3.372   3.027   1.319  0.2378  0.5642  0.2788
  238CLA    CLA22298   4.491   1.774   1.336 -0.2538 -0.0854  0.4682
  239CLA    CLA22299   2.599   2.843   0.623 -0.1645  0.1818 -0.1378
  240CLA    CLA22300   5.494   5.392   8.531 -0.0752  0.0128 -0.5336
  241CLA    CLA22301   5.980   0.394   0.058 -0.1275 -0.0976 -0.1975
  242CLA    CLA22302   1.955   2.036   0.097 -0.3995  0.5136 -0.0505
  243CLA    CLA22303   3.961   4.475   0.716  0.0946  0.3677 -0.0501
  244CLA    CLA22304   2.919   6.313   7.896 -0.2134  0.5129 -0.2123
  245CLA    CLA22305   5.339   5.872   0.931  0.3898  0.1728 -0.0831
  246CLA    CLA22306   0.422   4.718   0.307 -0.1758 -0.3226  0.0481
  247CLA    CLA22307   0.051   2.042   1.243  0.3854  0.1738  0.3855
  248CLA    CLA22308   3.340   0.674   0.995  0.0459  0.4694 -0.1014
  249CLA    CLA22309   6.878   5.966   0.652 -0.3675  0.2331 -0.0144
  250CLA    CLA22310   2.040   6.622   8.053 -0.5436  0.0410  0.2428
  251TIP3   OH222311   4.207   2.925   8.199  0.5359  0.1413 -0.1932
  251TIP3    H122312   4.199   2.864   8.271  1.4193  0.5546  0.2701
  251TIP3    H222313   4.251   2.876   8.130 -0.3394 -0.2633 -0.4820
  252TIP3   OH222314   5.437   2.227   0.284  0.5214 -0.2990 -0.1584
  252TIP3    H122315   5.482   2.311   0.285  3.3824 -1.6490 -1.7332
  252TIP3    H222316   5.481   2.178   0.214 -1.2126 -2.9993  0.5059
  253TIP3   OH222317   5.393   6.534   2.190  0.0824 -0.4454 -0.3674
  253TIP3    H122318   5.375   6.494   2.275  2.3359 -2.0956 -0.5757
  253TIP3    H222319   5.335   6.488   2.129 -0.4596 -0.3008  0.0257
  254TIP3   OH222320   6.249   4.344   2.253 -0.0864  0.1998  0.1250
  254TIP3    H122321   6.229   4.438   2.259  1.2248  0.5152 -0.2352
  254TIP3    H222322   6.204   4.306   2.328 -2.0064  0.8477 -0.6198
  255TIP3   OH222323   4.901   6.213   1.518  0.7436 -0.0336  0.2271
  255TIP3    H122324   4.912   6.127   1.477 -1.4741 -0.3853  0.2391
  255TIP3    H222325   4.948   6.274   1.460 -0.2223 -0.8616 -1.5040
  256TIP3   OH222326   3.032   1.513   8.464  0.3817 -0.1794  0.1410
  256TIP3    H122327   3.128   1.506   8.470  0.7158  0.2167 -3.0307
  256TIP3    H222328   3.001   1.422   8.460  1.0857 -0.3964 -2.6480
  257TIP3   OH222329   3.752   6.265   0.723 -0.1131 -0.2674 -0.0189
  257TIP3    H122330   3.785   6.176   0.707  0.5928  0.1440 -0.9725
  257TIP3    H222331   3.741   6.302   0.635 -1.6504  0.1568  0.3128
  258TIP3   OH222332   0.842   4.365   1.757  0.5795 -0.0302  0.0417
  258TIP3    H122333   0.838   4.280   1.714 -1.0515 -0.8623  1.6813
  258TIP3    H222334   0.751   4.394   1.762  1.0286  1.4361  0.2466
  259TIP3   OH222335   5.420   3.651   1.171 -0.4319 -0.8013 -0.3306
  259TIP3    H122336   5.424   3.633   1.077 -1.0116 -0.7465 -0.3695
  259TIP3    H222337   5.499   3.702   1.190 -0.1311 -1.1208 -0.7189
  260TIP3   OH222338   4.724   6.203   0.036  0.1678  0.4813 -0.2625
  260TIP3    H122339   4.793   6.182   0.098 -0.0472  1.0213  0.1602
  260TIP3    H222340   4.729   6.297   0.024 -0.6331  0.5610 -0.0498
  261TIP3   OH222341   3.352   6.102   7.548 -0.1819 -0.1580 -0.0564
  261TIP3    H122342   3.288   6.140   7.608  1.3595 -1.3709  2.4945
  261TIP3    H222343   3.361   6.011   7.577  2.1541 -0.2108 -0.7949
  262TIP3   OH222344   2.957   0.969   7.728  0.1839  0.7201 -0.3292
  262TIP3    H122345   2.935   1.003   7.641 -1.2365 -0.3603 -0.4156
  262TIP3    H222346   2.996   0.883   7.711 -0.5766  0.2817  0.1191
  263TIP3   OH222347   1.424   1.105   0.566  0.6758 -0.2268 -0.1038
  263TIP3    H122348   1.423   1.035   0.632 -0.2013  0.7670  0.9754
  263TIP3    H222349   1.332   1.119   0.545  0.7770  1.0356  0.1970
  264TIP3   OH222350   6.809   6.310   1.456 -0.4880 -0.4482  0.0769
  264TIP3    H122351   6.775   6.400   1.459  0.8401  0.0645  0.3455
  264TIP3    H222352   6.900   6.319   1.428 -0.9347 -1.9146 -2.1248
  265TIP3   OH222353   1.132   6.427   0.200 -0.1328 -0.1366  0.3656
  265TIP3    H122354   1.048   6.382   0.212 -1.1706  1.3480 -0.9779
  265TIP3    H222355   1.120   6.481   0.123  2.0453  0.2401  0.2256
  266TIP3   OH222356   5.661   6.434   0.253  0.2903  0.1130  0.5461
  266TIP3    H122357   5.592   6.497   0.272 -0.2429 -0.6042  1.0416
  266TIP3    H222358   5.674   6.387   0.336  0.3179 -0.7700  0.0463
  267TIP3   OH222359   6.329   5.342   2.125  0.3242  0.0679  0.9230
  267TIP3    H122360   6.407   5.375   2.082  0.4419  1.0724  1.8355
  267TIP3    H222361   6.361   5.301   2.205  0.0720 -1.3350  0.3271
  268TIP3   OH222362   5.182   2.256   0.388 -0.4275  0.2925 -0.4103
  268TIP3    H122363   5.267   2.252   0.344  0.0920  1.3172  0.4663
  268TIP3    H222364   5.175   2.347   0.418 -0.6940 -0.4027  1.7629
  269TIP3   OH222365   6.175   0.624   0.125 -0.1343  0.1487  0.1352
  269TIP3    H122366   6.112   0.552   0.115 -0.3855  0.3531  0.2703
  269TIP3    H222367   6.185   0.659   0.037 -2.1464  1.7716  0.4672
  270TIP3   OH222368   1.219   4.663   6.745 -0.1991 -0.8651 -0.4806
  270TIP3    H122369   1.178   4.743   6.778 -0.4178 -0.9256 -0.6091
  270TIP3    H222370   1.186   4.593   6.802 -0.3346 -0.9249 -0.6332
  271TIP3   OH222371   0.410   3.866   1.470  0.4334  0.0088  0.4256
  271TIP3    H122372   0.470   3.821   1.411 -1.3610 -0.1878 -1.3419
  271TIP3    H222373   0.456   3.867   1.554  3.1389  0.4178 -0.9509
  272TIP3   OH222374   6.203   3.756   2.093 -0.2751 -0.5242  0.3074
  272TIP3    H122375   6.126   3.806   2.118  0.3079 -0.4948  2.1803
  272TIP3    H222376   6.169   3.680   2.046 -1.2507  0.8213 -1.2732
  273TIP3   OH222377   1.880   5.220   0.475 -0.0803 -0.3358  0.1483
  273TIP3    H122378   1.793   5.227   0.434  0.0060  0.2671  0.0658
  273TIP3    H222379   1.933   5.285   0.430  0.4890 -0.8718  0.0309
  274TIP3   OH222380   0.198   6.325   7.721 -0.1988  0.3665 -0.4911
  274TIP3    H122381   0.192   6.230   7.722 -1.4685  0.4365 -0.0479
  274TIP3    H222382   0.291   6.343   7.733  0.0089 -0.8139 -0.2309
  275TIP3   OH222383   4.927   6.551   8.432  0.4218 -0.0439  0.0628
  275TIP3    H122384   5.010   6.504   8.445 -0.2209 -1.6668 -1.3036
  275TIP3    H222385   4.865   6.505   8.489  0.1454  0.2414 -0.0116
  276TIP3   OH222386   6.528   6.105   1.870  0.5705 -0.2286 -0.1487
  276TIP3    H122387   6.535   6.166   1.944  0.9348 -1.6370  1.0356
  276TIP3    H222388   6.459   6.142   1.815 -0.1726  0.5335  1.2390
  277TIP3   OH222389   1.116   4.914   7.593 -0.0234 -0.6007  0.6955
  277TIP3    H122390   1.109   4.964   7.512 -1.1075 -2.0026 -0.1202
  277TIP3    H222391   1.206   4.929   7.623 -0.0803  1.1772  0.0840
  278TIP3   OH222392   4.036   5.059   0.327 -0.1303  0.6485 -0.1275
  278TIP3    H122393   4.006   5.149   0.339  0.1366  0.6868  0.2839
  278TIP3    H222394   4.019   5.017   0.411  0.0217  0.3980 -0.2217
  279TIP3   OH222395   4.804   2.705   7.439 -0.0757 -0.0789  0.5411
  279TIP3    H122396   4.716   2.686   7.469 -0.0428 -1.3939 -0.1131
  279TIP3    H222397   4.798   2.705   7.343  0.0329  2.9426  0.4227
  280TIP3   OH222398   0.286   2.828   0.708 -0.4511 -1.1044 -0.4227
  280TIP3    H122399   0.210   2.875   0.673 -0.6106  0.1948  1.5219
  280TIP3    H222400   0.361   2.870   0.667 -0.4857  2.1759  2.4877
  281TIP3   OH222401   4.243   2.480   8.420  0.0927  0.4907  0.1835
  281TIP3    H122402   4.270   2.461   8.330  1.3286 -2.3734  1.0250
  281TIP3    H222403   4.157   2.440   8.428  0.9840 -1.4500  0.8356
  282TIP3   OH222404   2.582   3.920   0.047 -0.2743 -0.5702  0.0358
  282TIP3    H122405   2.525   3.983   0.090  0.0011 -2.1635  3.0176
  282TIP3    H222406   2.522   3.864  -0.003 -1.1740 -1.0858  1.6157
  283TIP3   OH222407   5.279   1.163   0.643 -0.0138 -0.1652 -0.3248
  283TIP3    H122408   5.190   1.178   0.676  0.0294  1.2798 -0.8170
  283TIP3    H222409   5.335   1.219   0.697  0.5198 -0.5607 -0.4618
  284TIP3   OH222410   6.427   3.973   0.810 -0.2430  0.0727  0.5779
  284TIP3    H122411   6.475   4.000   0.732 -0.9494  0.4240  0.2564
  284TIP3    H222412   6.345   3.937   0.777 -0.8092  0.7683  1.1828
  285TIP3   OH222413   0.229   5.030   7.967 -0.2809 -0.4169  0.5966
  285TIP3    H122414   0.247   5.111   8.015 -0.1156  0.6102 -1.1350
  285TIP3    H222415   0.296   4.969   7.998  0.0281  0.3099  1.4168
  286TIP3   OH222416   6.875   0.434   6.506  0.0990  0.2229 -0.4075
  286TIP3    H122417   6.808   0.468   6.565  2.2475  2.4255  0.9822
  286TIP3    H222418   6.870   0.339   6.515 -1.1247  0.4210  1.6319
  287TIP3   OH222419   5.411   2.888   8.001 -0.0330 -0.1033  0.4790
  287TIP3    H122420   5.484   2.941   7.972 -0.7890  1.4025  1.2335
  287TIP3    H222421   5.394   2.828   7.928  0.0490  1.5160 -0.9131
  288TIP3   OH222422   3.435   6.301   8.443  0.3478  0.0271  0.0849
  288TIP3    H122423   3.405   6.230   8.499 -0.3108 -0.1168 -0.4415
  288TIP3    H222424   3.379   6.296   8.365  0.4905  0.9361 -0.0855
  289TIP3   OH222425   2.528   1.485   8.198  0.3495  0.6559  0.0666
  289TIP3    H122426   2.463   1.552   8.178 -1.0121 -0.6067  0.1017
  289TIP3    H222427   2.564   1.460   8.112 -2.2785 -1.5791 -0.5341
  290TIP3   OH222428   5.767   0.643   0.417  0.2520  0.2817  0.0554
  290TIP3    H122429   5.687   0.606   0.457 -1.3219  2.0037 -1.3299
  290TIP3    H222430   5.829   0.571   0.418 -1.3892 -1.2127  0.9934
  291TIP3   OH222431   6.403   3.368   2.426  0.3663  0.4967  0.1508
  291TIP3    H122432   6.469   3.411   2.480  0.4653 -0.5950  0.9431
  291TIP3    H222433   6.453   3.309   2.370  0.0633 -0.8109  1.1993
  292TIP3   OH222434   3.977   2.842   7.162 -0.1564  0.5862 -0.4287
  292TIP3    H122435   3.919   2.769   7.141 -0.0276  0.7116 -1.2384
  292TIP3    H222436   4.035   2.850   7.086  0.1076  1.2586 -0.1660
  293TIP3   OH222437   0.756   5.257   1.109  0.4601 -0.3954 -0.0218
  293TIP3    H122438   0.714   5.200   1.173 -0.0036 -0.4744 -0.3904
  293TIP3    H222439   0.720   5.229   1.025 -1.1244  1.5616 -0.0675
  294TIP3   OH222440   5.209   5.405   7.700  0.1484  0.3381 -0.6682
  294TIP3    H122441   5.166   5.324   7.673  1.0229  0.0394 -1.2209
  294TIP3    H222442   5.140   5.470   7.702 -0.3474 -0.1514 -1.4399
  295TIP3   OH222443   4.500   1.087   2.686  0.1075  0.1558  0.6069
  295TIP3    H122444   4.563   1.036   2.738 -0.4199 -1.1965 -0.0327
  295TIP3    H222445   4.540   1.093   2.599 -0.5446 -0.5546  0.2481
  296TIP3   OH222446   1.995   6.853   1.682 -0.3949  0.2303  0.0862
  296TIP3    H122447   2.019   6.800   1.758 -1.1155  1.9704  1.6014
  296TIP3    H222448   1.906   6.884   1.702 -0.5454  0.8374 -1.4116
  297TIP3   OH222449   2.307   2.978   2.160 -0.1449  0.2168  0.1649
  297TIP3    H122450   2.267   2.926   2.230 -0.3324  1.7416  1.2491
  297TIP3    H222451   2.344   3.053   2.205  3.0798 -0.5872 -0.9363
  298TIP3   OH222452   5.512   2.302   1.232 -0.3227 -0.4468  0.8564
  298TIP3    H122453   5.518   2.235   1.300 -1.4761 -0.7276  0.7009
  298TIP3    H222454   5.543   2.382   1.275  1.4997 -1.1480  0.9051
  299TIP3   OH222455   0.195   4.019   0.236 -0.3782  0.8076  0.3301
  299TIP3    H122456   0.112   4.066   0.247 -0.6111  0.8546 -1.3152
  299TIP3    H222457   0.169   3.934   0.200  0.2549  0.6911  0.1388
  300TIP3   OH222458   1.589   0.140   7.272  0.6646  0.3568  0.2825
  300TIP3    H122459   1.522   0.072   7.274  2.3562 -1.3634  1.0487
  300TIP3    H222460   1.553   0.211   7.325 -1.0633  0.0444 -0.3957
  301TIP3   OH222461   0.868   3.958   0.327  0.2643  0.2025 -0.5181
  301TIP3    H122462   0.906   3.977   0.241 -0.0617 -1.7779 -1.1532
  301TIP3    H222463   0.893   3.867   0.344 -1.0466  0.0518  0.7430
  302TIP3   OH222464   3.155   1.067   0.432  0.0733  0.0649 -0.6349
  302TIP3    H122465   3.126   0.989   0.384  0.3117 -0.6443  0.3579
  302TIP3    H222466   3.197   1.033   0.511  3.0056  1.0915 -1.6507
  303TIP3   OH222467   3.023   4.322   6.318  0.6131 -0.4231  0.4505
  303TIP3    H122468   3.092   4.311   6.254  1.4430  1.7518  0.8889
  303TIP3    H222469   3.034   4.248   6.378  1.8128 -0.7493 -0.1450
  304TIP3   OH222470   6.806   5.288   1.447 -0.4008  0.1539 -0.4993
  304TIP3    H122471   6.838   5.265   1.535  1.1639 -0.3170 -1.1707
  304TIP3    H222472   6.740   5.355   1.463 -1.0189 -0.7810  1.1240
  305TIP3   OH222473   5.677   3.025   6.803  0.6340 -0.6114  0.0456
  305TIP3    H122474   5.627   2.951   6.768 -0.4803  0.0701  0.1404
  305TIP3    H222475   5.724   2.989   6.878  1.5092 -1.6249 -0.9621
  306TIP3   OH222476   2.467   3.056   7.911 -0.8017  0.5756 -0.7852
  306TIP3    H122477   2.373   3.059   7.929 -1.0278  0.6538 -1.9206
  306TIP3    H222478   2.476   3.098   7.826  0.4070  1.5718 -0.1845
  307TIP3   OH222479   6.192   4.357   8.360 -0.3427 -0.2963 -0.7146
  307TIP3    H122480   6.126   4.389   8.422 -0.0401  0.5886 -0.8274
  307TIP3    H222481   6.142   4.311   8.293 -0.9690  1.1047 -1.2631
  308TIP3   OH222482   0.243   4.547   7.462  0.0880 -0.4023 -0.3159
  308TIP3    H122483   0.264   4.616   7.400 -1.2979  0.7346  0.4179
  308TIP3    H222484   0.307   4.556   7.532 -0.2178  0.2974 -0.1216
  309TIP3   OH222485   5.681   4.690   1.499 -0.7144  0.5222 -0.0437
  309TIP3    H122486   5.703   4.765   1.555  0.6647  0.0225  0.1272
  309TIP3    H222487   5.759   4.677   1.446 -1.1394 -0.4806 -0.4342
  310TIP3   OH222488   5.685   4.411   8.279  0.1897  0.2070 -0.0613
  310TIP3    H122489   5.703   4.422   8.186  0.7743  1.4001  0.1796
  310TIP3    H222490   5.635   4.329   8.284  1.6837 -0.8338 -1.2365
  311TIP3   OH222491   3.504   5.336   7.532  0.4140 -0.3366 -0.0897
  311TIP3    H122492   3.462   5.335   7.446 -1.1205 -2.6198  0.5922
  311TIP3    H222493   3.436   5.307   7.592  1.2239  1.9105  2.0644
  312TIP3   OH222494   3.978   4.772   0.019 -0.1759 -0.2381 -0.5353
  312TIP3    H122495   3.903   4.776   0.079 -1.0125 -0.7728 -1.5063
  312TIP3    H222496   4.017   4.686   0.037 -0.1786 -0.2254 -0.4661
  313TIP3   OH222497   3.893   0.707   1.483 -0.2178 -0.1078 -0.0469
  313TIP3    H122498   3.843   0.639   1.528 -2.2980 -0.9492 -3.2666
  313TIP3    H222499   3.921   0.666   1.401  5.1992  0.6427  1.0720
  314TIP3   OH222500   6.844   5.133   1.240 -0.3348 -0.1332 -0.3046
  314TIP3    H122501   6.838   5.202   1.307  1.9126  1.5499 -1.7015
  314TIP3    H222502   6.781   5.161   1.173 -0.0764  0.0770 -0.4610
  315TIP3   OH222503   5.260   2.525   1.663  0.9630  0.1295 -0.2724
  315TIP3    H122504   5.287   2.604   1.710 -0.3958  1.1356 -1.1101
  315TIP3    H222505   5.186   2.492   1.713 -1.1920  1.8002 -2.1090
  316TIP3   OH222506   4.956   1.839   7.298  0.0382  0.3248  0.0122
  316TIP3    H122507   5.024   1.859   7.361  1.3512  0.3439 -1.3612
  316TIP3    H222508   4.936   1.746   7.312 -0.8966  0.7258  1.5425
  317TIP3   OH222509   4.833   2.129   0.049 -0.1685  0.6849  0.5470
  317TIP3    H122510   4.865   2.153  -0.038  0.8680  0.4016  0.8370
  317TIP3    H222511   4.781   2.049   0.035 -0.0481  0.6702  0.1873
  318TIP3   OH222512   6.651   0.352   8.083  0.6419 -0.0492 -0.1370
  318TIP3    H122513   6.666   0.280   8.021 -0.3272 -0.4402  0.0551
  318TIP3    H222514   6.739   0.376   8.113  0.9813 -1.2392 -0.1139
  319TIP3   OH222515   3.407   2.772   0.413  0.0276 -0.2850 -0.7722
  319TIP3    H122516   3.458   2.852   0.401 -0.6964  0.0723 -1.5313
  319TIP3    H222517   3.382   2.773   0.505  0.5438  0.0448 -0.6338
  320TIP3   OH222518   2.430   4.608   0.964  0.0134  0.2530  0.5514
  320TIP3    H122519   2.517   4.610   0.924 -1.0123 -1.1183 -1.9876
  320TIP3    H222520   2.397   4.697   0.954  0.6652  0.4792  0.3980
  321TIP3   OH222521   4.822   4.917   7.891  0.0724 -0.3344 -0.6374
  321TIP3    H122522   4.746   4.973   7.907 -0.6701 -1.1607 -1.1468
  321TIP3    H222523   4.871   4.919   7.973 -2.1026 -2.1805  0.8296
  322TIP3   OH222524   5.439   3.064   6.611 -0.5735 -0.4448 -0.1700
  322TIP3    H122525   5.386   3.142   6.623 -3.0362 -2.3250  2.5356
  322TIP3    H222526   5.471   3.070   6.521 -1.3450  3.1876 -0.3197
  323TIP3   OH222527   5.370   3.081   1.244 -0.3863 -0.7559 -0.8642
  323TIP3    H122528   5.439   3.051   1.302 -1.7115  0.1421  1.3205
  323TIP3    H222529   5.404   3.161   1.204 -0.2835 -0.0969  0.5044
  324TIP3   OH222530   3.480   3.958   7.942 -0.4079  0.4205  0.7794
  324TIP3    H122531   3.392   3.966   7.907  0.4711  0.9218 -1.4950
  324TIP3    H222532   3.469   3.957   8.037 -3.0294 -1.9351  0.5686
  325TIP3   OH222533   3.439   3.566   2.436 -0.4412  0.5403  0.2424
  325TIP3    H122534   3.425   3.550   2.529 -2.0476  1.3895  0.1825
  325TIP3    H222535   3.361   3.529   2.393  0.8627 -1.0088 -0.9301
  326TIP3   OH222536   6.675   1.077   7.655  0.3692 -0.0945 -0.3045
  326TIP3    H122537   6.639   1.066   7.567  0.5509 -2.9072 -0.1182
  326TIP3    H222538   6.599   1.067   7.713  0.8379 -2.5978 -0.0388
  327TIP3   OH222539   2.802   5.150   7.063 -0.2650 -0.0085  0.1686
  327TIP3    H122540   2.847   5.116   7.141  1.4945 -0.9671 -1.1910
  327TIP3    H222541   2.748   5.222   7.096  0.2710 -0.5102  2.2922
  328TIP3   OH222542   1.353   6.295   0.329  0.3950 -0.0024 -0.4559
  328TIP3    H122543   1.326   6.253   0.411 -2.0720 -0.4766 -1.3975
  328TIP3    H222544   1.277   6.347   0.303  1.9947  2.0659 -1.2656
  329TIP3   OH222545   1.485   1.963   8.170 -0.2585  0.4456  0.1271
  329TIP3    H122546   1.566   2.007   8.146  0.7529 -0.6305  1.4326
  329TIP3    H222547   1.490   1.953   8.265 -1.7087 -0.0561  0.1758
  330TIP3   OH222548   6.452   6.802   0.585 -0.3404  0.1890 -0.4445
  330TIP3    H122549   6.521   6.750   0.625 -0.1766  1.3209  0.8039
  330TIP3    H222550   6.458   6.887   0.628 -2.4957  0.3264 -0.2947
  331TIP3   OH222551   4.539   4.471   7.151  0.2451 -0.8765  0.0389
  331TIP3    H122552   4.596   4.442   7.223 -1.0704 -2.0096  0.6894
  331TIP3    H222553   4.451   4.446   7.179 -0.6312  0.9832 -0.8406
  332TIP3   OH222554   1.536   5.337   1.009  0.0034 -0.0186 -0.1467
  332TIP3    H122555   1.519   5.275   0.939  0.3924 -2.7980  2.0377
  332TIP3    H222556   1.462   5.397   1.007 -2.8140 -3.2190  0.3180
  333TIP3   OH222557   4.755   6.231   1.256  0.0866 -0.3304 -0.2069
  333TIP3    H122558   4.777   6.305   1.199  0.4575 -0.0575  0.2837
  333TIP3    H222559   4.671   6.256   1.296  0.6586  0.2464  0.6580
  334TIP3   OH222560   3.525   1.764   8.335 -0.2454 -0.0725 -0.2487
  334TIP3    H122561   3.450   1.790   8.282 -2.2198 -1.6755  1.5298
  334TIP3    H222562   3.599   1.814   8.300 -2.2353  2.0227 -1.7378
  335TIP3   OH222563   3.100   0.990   0.987  0.3687 -0.2084 -0.6225
  335TIP3    H122564   3.148   0.912   1.014 -2.4042 -1.6269  0.6710
  335TIP3    H222565   3.099   1.045   1.066 -0.3101 -0.3146 -0.5526
  336TIP3   OH222566   1.363   0.415   2.326  0.6044 -0.3650 -0.2657
  336TIP3    H122567   1.419   0.407   2.404  1.9025  2.3377 -0.8102
  336TIP3    H222568   1.284   0.459   2.358  1.7249  2.0427 -0.6288
  337TIP3   OH222569   0.408   6.025   0.973 -0.1064 -0.1293 -0.2468
  337TIP3    H122570   0.503   6.035   0.973  0.5432 -4.2288  2.1656
  337TIP3    H222571   0.376   6.106   1.014  2.4366  0.7249  0.2575
  338TIP3   OH222572   2.285   1.421   2.392 -0.0145  0.1106  0.6064
  338TIP3    H122573   2.296   1.481   2.318 -0.3161 -0.0479  0.4353
  338TIP3    H222574   2.245   1.474   2.460 -1.7839 -0.2812 -0.0787
  339TIP3   OH222575   6.243   5.066   2.801  0.6020  0.4341  0.3489
  339TIP3    H122576   6.287   5.110   2.728  0.3562  1.2058  0.6581
  339TIP3    H222577   6.302   4.995   2.826  0.8425  0.3705 -0.3820
  340TIP3   OH222578   6.422   4.364   7.930 -0.0287  0.2397 -0.5636
  340TIP3    H122579   6.331   4.359   7.902 -0.2011 -0.6196  0.0967
  340TIP3    H222580   6.469   4.397   7.853 -0.6175 -1.1440 -1.5645
  341TIP3   OH222581   6.656   0.330   1.724 -0.1127 -0.2289  0.2585
  341TIP3    H122582   6.697   0.292   1.801 -0.3100 -0.2219  0.3664
  341TIP3    H222583   6.562   0.330   1.743 -0.0586  1.1978  0.6591
  342TIP3   OH222584   1.913   2.643   1.558  0.1646 -0.3225  0.0481
  342TIP3    H122585   1.965   2.565   1.576  0.1528 -0.8603 -2.0526
  342TIP3    H222586   1.936   2.704   1.628  1.8186 -1.4185  0.5018
  343TIP3   OH222587   3.739   4.486   7.408  0.0219  0.0263 -0.5347
  343TIP3    H122588   3.695   4.457   7.328 -1.1270  1.1137 -0.3319
  343TIP3    H222589   3.822   4.439   7.408  0.2372  0.3047 -2.5909
  344TIP3   OH222590   6.810   3.202   6.659  0.1433 -0.0210 -0.0444
  344TIP3    H122591   6.744   3.135   6.672  0.9223 -0.9666 -0.7672
  344TIP3    H222592   6.762   3.284   6.656 -0.9065 -0.6198  0.1658
  345TIP3   OH222593   4.251   0.019   7.581  0.4324  0.0861 -0.2749
  345TIP3    H122594   4.342   0.024   7.610  1.2521  3.0708 -2.7901
  345TIP3    H222595   4.247  -0.060   7.526  2.2190  1.1677 -2.0553
  346TIP3   OH222596   0.983   2.533   7.622  0.3460 -0.6167  0.1495
  346TIP3    H122597   1.073   2.555   7.646 -0.2611  0.3317  1.6493
  346TIP3    H222598   0.939   2.618   7.612 -0.4737 -1.0731 -0.2331
  347TIP3   OH222599   1.336   3.990   1.911 -0.4895 -0.2400  0.5150
  347TIP3    H122600   1.394   4.063   1.933  0.3795 -0.8315  0.2104
  347TIP3    H222601   1.376   3.913   1.951 -0.8260 -0.7345 -0.0784
  348TIP3   OH222602   6.488   4.270   7.092 -0.1573 -0.4609  0.2731
  348TIP3    H122603   6.527   4.313   7.016 -0.3604 -2.7357 -1.2300
  348TIP3    H222604   6.405   4.316   7.106 -0.4998 -0.4932 -1.4416
  349TIP3   OH222605   3.266   4.026   1.084  0.0080  0.2997 -0.0621
  349TIP3    H122606   3.183   4.040   1.129  0.1455 -0.1022  0.3202
  349TIP3    H222607   3.275   4.103   1.027 -0.5849  0.3826 -0.0520
  350TIP3   OH222608   1.184   1.318   1.753  0.1590  0.4025 -0.6629
  350TIP3    H122609   1.185   1.234   1.799  2.0789  1.2659  1.0431
  350TIP3    H222610   1.099   1.356   1.775  0.5972  0.3118  1.3650
  351TIP3   OH222611   0.832   5.284   1.946 -0.6823 -0.6387 -0.2781
  351TIP3    H122612   0.821   5.379   1.939  1.0304 -0.4554 -1.1195
  351TIP3    H222613   0.851   5.256   1.857  0.0941 -1.5783  0.1678
  352TIP3   OH222614   5.870   1.112   0.460  0.3628  0.2456  0.2921
  352TIP3    H122615   5.797   1.062   0.495  0.8448 -0.2891  0.5555
  352TIP3    H222616   5.934   1.114   0.531  1.2865 -0.7072 -0.4747
  353TIP3   OH222617   0.981   6.188   1.482  0.0801 -0.5171  0.4918
  353TIP3    H122618   0.953   6.222   1.567 -0.3817 -2.1120  1.0239
  353TIP3    H222619   1.026   6.106   1.503  0.6710 -0.5337 -0.7529
  354TIP3   OH222620   0.741   4.760   1.728  0.4996  0.0873  0.5194
  354TIP3    H122621   0.655   4.739   1.765  0.5205  1.1312  1.2023
  354TIP3    H222622   0.726   4.765   1.634 -0.1859  0.2345  0.6316
  355TIP3   OH222623   6.164   0.848   7.163 -0.1223 -0.0681 -0.5009
  355TIP3    H122624   6.074   0.857   7.130 -0.2904  0.5482  0.1105
  355TIP3    H222625   6.219   0.863   7.087 -0.5329 -0.5673 -0.9087
  356TIP3   OH222626   6.837   6.083   1.331  0.4562 -0.0549  0.1189
  356TIP3    H122627   6.929   6.097   1.355  0.2457  0.9172  0.4188
  356TIP3    H222628   6.789   6.148   1.382 -0.4075 -0.5672 -0.0173
  357TIP3   OH222629   0.858   2.081   0.364 -0.1498 -0.0262 -0.0617
  357TIP3    H122630   0.916   2.157   0.370 -0.3426  0.1248 -0.0696
  357TIP3    H222631   0.916   2.006   0.359  0.0847  0.2210 -1.5554
  358TIP3   OH222632   4.481   2.177   7.033 -0.6275  0.6204 -0.2849
  358TIP3    H122633   4.511   2.111   6.970  0.7431  0.7106  0.2369
  358TIP3    H222634   4.455   2.126   7.110  0.0588  0.6415 -0.0276
  359TIP3   OH222635   1.217   2.669   0.121  0.3136 -0.1623 -0.2762
  359TIP3    H122636   1.272   2.663   0.199 -0.5086  0.5368  0.3841
  359TIP3    H222637   1.237   2.590   0.071  0.7261 -0.7223  0.7367
  360TIP3   OH222638   4.340   0.252   7.000  0.3605 -0.1203  0.3246
  360TIP3    H122639   4.331   0.240   6.905 -0.9241  0.4399  0.3537
  360TIP3    H222640   4.432   0.273   7.013  0.7420 -1.0717 -0.6951
  361TIP3   OH222641   3.687   3.546   1.561  0.2019 -0.0975 -0.2967
  361TIP3    H122642   3.709   3.454   1.567  0.9094 -0.1033 -2.2240
  361TIP3    H222643   3.759   3.591   1.604  1.1977 -0.3670 -1.6195
  362TIP3   OH222644   3.302   0.945   7.916 -0.8162 -0.4012 -0.0755
  362TIP3    H122645   3.324   0.884   7.987 -0.5023  0.1174  0.2795
  362TIP3    H222646   3.227   0.905   7.873 -0.3197 -1.2726 -0.1433
  363TIP3   OH222647   6.182   3.332   1.028  0.2069 -0.4977  0.3382
  363TIP3    H122648   6.201   3.344   1.121 -2.2796  1.5887  0.7056
  363TIP3    H222649   6.202   3.416   0.988 -0.7642 -0.6749 -0.5884
  364TIP3   OH222650   4.071   3.511   1.593  0.9627  0.0062  0.0938
  364TIP3    H122651   4.009   3.583   1.593 -0.1845 -0.9090 -1.8194
  364TIP3    H222652   4.143   3.541   1.648 -0.5572  1.6263  1.2977
  365TIP3   OH222653   0.820   0.004   0.856 -0.2179 -0.1148 -0.4188
  365TIP3    H122654   0.840   0.008   0.949  0.8799  0.5334 -0.6709
  365TIP3    H222655   0.904   0.015   0.812 -0.8707  0.8485 -1.4993
  366TIP3   OH222656   3.498   0.942   0.479 -0.3859  0.1031  0.3251
  366TIP3    H122657   3.417   0.985   0.509  1.1748  3.5203  0.1223
  366TIP3    H222658   3.543   0.917   0.559 -1.7142 -2.1804  0.4375
  367TIP3   OH222659   2.382   6.002   0.855  0.2991  0.3748 -0.3151
  367TIP3    H122660   2.377   6.044   0.769 -1.6856  0.1461 -0.3731
  367TIP3    H222661   2.475   6.002   0.877  0.6822  1.8379 -1.7580
  368TIP3   OH222662   1.667   0.936   2.094 -0.0415  0.2533 -0.3648
  368TIP3    H122663   1.710   0.938   2.008 -0.0192  0.1234 -0.3576
  368TIP3    H222664   1.594   0.997   2.086  0.5362  0.9832 -0.1670
  369TIP3   OH222665   5.779   3.747   0.093  0.0908  0.3619  0.5775
  369TIP3    H122666   5.760   3.784   0.179  1.9904  0.6014  0.9417
  369TIP3    H222667   5.872   3.764   0.080  0.0749 -0.6130 -1.0708
  370TIP3   OH222668   1.280   1.691   2.210 -0.4839  0.5693  0.1365
  370TIP3    H122669   1.200   1.730   2.246 -0.9373  0.6131 -0.8767
  370TIP3    H222670   1.268   1.597   2.222 -0.8865  0.5477 -0.3799
  371TIP3   OH222671   5.423   3.872   8.152 -0.5933 -0.0912  0.6075
  371TIP3    H122672   5.511   3.850   8.184  0.1603  0.6325 -0.8717
  371TIP3    H222673   5.389   3.933   8.218  0.2030 -0.0129  0.9643
  372TIP3   OH222674   3.163   3.229   1.701 -0.1034  0.4397 -0.3631
  372TIP3    H122675   3.192   3.217   1.610 -0.0254  1.4156 -0.4694
  372TIP3    H222676   3.242   3.256   1.748 -0.1852  0.1157 -0.0288
  373TIP3   OH222677   5.523   0.754   1.433  0.0679 -0.5230  0.1315
  373TIP3    H122678   5.499   0.813   1.504 -0.3843  0.5013 -0.8510
  373TIP3    H222679   5.502   0.667   1.466 -0.3668 -0.0463  1.1552
  374TIP3   OH222680   1.123   5.688   0.961  0.0864  0.0545 -0.2203
  374TIP3    H122681   1.157   5.770   0.997  0.0291 -0.6412  1.5065
  374TIP3    H222682   1.028   5.702   0.956 -0.0614 -0.3367  1.2780
  375TIP3   OH222683   6.810   3.216   8.549 -0.6016 -0.4452 -0.4167
  375TIP3    H122684   6.740   3.201   8.485 -0.1842 -2.3505 -0.5069
  375TIP3    H222685   6.891   3.200   8.500 -0.2568 -1.3791  0.4201
  376TIP3   OH222686   1.840   5.670   0.677  0.1062  0.6254  1.0326
  376TIP3    H122687   1.881   5.595   0.721 -0.2834  0.8955  1.8684
  376TIP3    H222688   1.748   5.645   0.670 -0.0873  1.1508  1.6064
  377TIP3   OH222689   1.061   3.281   6.628 -0.5336  0.3365  0.0479
  377TIP3    H122690   0.990   3.338   6.596 -0.5958  0.1759 -0.0997
  377TIP3    H222691   1.136   3.305   6.575 -1.0856 -1.2159 -1.5293
  378TIP3   OH222692   4.378   5.052   0.378  0.0586  0.6862 -0.0721
  378TIP3    H122693   4.359   5.137   0.339  1.4503  0.5289 -1.1908
  378TIP3    H222694   4.349   4.988   0.312  0.3691  0.3455  0.1175
  379TIP3   OH222695   4.215   2.003   2.229  0.3580 -0.5408 -0.0657
  379TIP3    H122696   4.249   1.923   2.188 -0.3772 -2.6126  2.9863
  379TIP3    H222697   4.277   2.021   2.300 -0.8191  0.0840  0.8345
  380TIP3   OH222698   5.816   5.806   7.150 -0.2383 -0.4256 -0.2784
  380TIP3    H122699   5.831   5.792   7.056  2.3390 -0.5338  0.0808
  380TIP3    H222700   5.812   5.718   7.187 -1.4203 -0.3876 -0.2600
  381TIP3   OH222701   5.323   2.334   0.846  0.4955  0.2325 -0.0353
  381TIP3    H122702   5.296   2.371   0.930 -1.0166 -2.9577  1.0604
  381TIP3    H222703   5.379   2.260   0.869 -1.8446 -2.2008 -1.5570
  382TIP3   OH222704   2.353   5.667   1.064  0.4911 -0.5238 -0.0247
  382TIP3    H122705   2.356   5.575   1.092 -2.1054 -0.4630  0.6415
  382TIP3    H222706   2.414   5.711   1.123 -0.0941 -1.4446  1.3193
  383TIP3   OH222707   4.216   4.274   2.189  0.3064  0.3383  0.0931
  383TIP3    H122708   4.126   4.283   2.218  0.4024  0.9041  0.2413
  383TIP3    H222709   4.217   4.315   2.102 -0.6131 -3.7919 -2.1034
  384TIP3   OH222710   0.947   5.650   2.608 -0.4624  0.1345 -0.0028
  384TIP3    H122711   0.971   5.565   2.573 -0.1446  0.8199 -1.5632
  384TIP3    H222712   0.853   5.644   2.625 -0.8298  0.0088 -1.8687
  385TIP3   OH222713   2.263   6.365   0.931 -0.2036 -0.4969  0.4566
  385TIP3    H122714   2.345   6.377   0.882 -0.5707  1.9504  0.3222
  385TIP3    H222715   2.212   6.304   0.878  0.5203 -0.0680 -0.7768
  386TIP3   OH222716   1.074   4.563   7.144 -0.9170  0.0460 -0.3554
  386TIP3    H122717   1.032   4.640   7.106 -0.7766  0.8605  1.0668
  386TIP3    H222718   1.128   4.597   7.215 -0.4609 -1.3219 -0.0050
  387TIP3   OH222719   6.649   5.067   1.445 -0.1073 -0.1840 -0.4781
  387TIP3    H122720   6.703   5.145   1.432 -1.2937  0.8217  0.3873
  387TIP3    H222721   6.584   5.071   1.375 -0.1556 -0.4202 -0.4479
  388TIP3   OH222722   2.675   0.141   7.545  0.3263 -0.3879  0.1379
  388TIP3    H122723   2.600   0.156   7.603  1.0102  0.7073  0.7730
  388TIP3    H222724   2.643   0.080   7.480 -0.8115 -0.7632  1.0138
  389TIP3   OH222725   0.010   1.580   7.839  0.4211 -0.8599  0.2324
  389TIP3    H122726   0.087   1.574   7.895  0.6763 -0.7706 -0.1082
  389TIP3    H222727  -0.058   1.617   7.896  0.4426 -1.5403  0.7124
  390TIP3   OH222728   4.947   5.318   7.820  0.7191  0.2801 -0.1179
  390TIP3    H122729   4.921   5.402   7.781 -0.1978  0.4626  0.8605
  390TIP3    H222730   5.001   5.277   7.753  0.9236  1.5152 -0.7420
  391TIP3   OH222731   3.416   1.403   0.734  0.2777 -0.0378 -0.4524
  391TIP3    H122732   3.509   1.391   0.712  0.5154  0.4033  0.2588
  391TIP3    H222733   3.379   1.315   0.734  0.9017 -0.3113  0.0832
  392TIP3   OH222734   4.283   1.094   1.325  0.0652 -0.1669  0.2554
  392TIP3    H122735   4.232   1.040   1.385  1.7616  0.8376  2.7538
  392TIP3    H222736   4.357   1.125   1.377  1.9845  0.3139 -2.5527
  393TIP3   OH222737   3.173   4.519   6.935  0.2339  0.3010  0.4949
  393TIP3    H122738   3.257   4.559   6.956  1.8188 -1.3709 -2.1464
  393TIP3    H222739   3.187   4.425   6.946 -0.9580 -0.0825 -0.9978
  394TIP3   OH222740   1.738   6.655   1.258 -0.3377  0.1150  0.3096
  394TIP3    H122741   1.824   6.640   1.218  0.2413  0.2905  1.4427
  394TIP3    H222742   1.677   6.658   1.184  0.4036 -1.5214 -0.4157
  395TIP3   OH222743   2.396   6.076   1.614  0.5334 -0.1254 -0.0438
  395TIP3    H122744   2.381   6.114   1.701 -1.6353 -0.6495 -0.1151
  395TIP3    H222745   2.383   6.149   1.554 -0.6024 -0.3008 -0.0321
  396TIP3   OH222746   1.828   4.068   8.074  0.3242  0.0505 -0.4480
  396TIP3    H122747   1.800   4.151   8.036 -0.6195 -0.0769 -0.0434
  396TIP3    H222748   1.864   4.019   8.000 -0.7940  0.1025 -1.0330
  397TIP3   OH222749   0.768   2.423   0.169 -0.0891 -0.0358  0.3197
  397TIP3    H122750   0.723   2.418   0.253 -1.8936  2.2616 -0.3889
  397TIP3    H222751   0.831   2.494   0.179 -1.5748  1.5198 -0.6944
  398TIP3   OH222752   2.773   3.001   6.992  0.9291 -0.1652 -0.5779
  398TIP3    H122753   2.723   2.948   6.930  0.0105 -0.9472  0.7833
  398TIP3    H222754   2.709   3.062   7.028  0.7490 -1.5161  1.5714
  399TIP3   OH222755   0.397   2.590   0.786 -0.5827  0.5340  0.2135
  399TIP3    H122756   0.475   2.641   0.765  0.7839 -1.3574  0.4766
  399TIP3    H222757   0.324   2.650   0.769  0.9296  2.6103  0.6894
  400TIP3   OH222758   2.366   5.457   0.667  0.1589 -0.0896  0.1317
  400TIP3    H122759   2.273   5.440   0.654  0.1379  0.0289  0.1230
  400TIP3    H222760   2.396   5.389   0.727  0.3575 -0.9425 -0.8998
  401TIP3   OH222761   4.711   1.225   1.422 -0.1868  0.6414  0.2702
  401TIP3    H122762   4.736   1.133   1.410  0.6138  0.7848  0.7598
  401TIP3    H222763   4.645   1.241   1.354 -0.3521 -0.2957  0.1915
  402TIP3   OH222764   2.573   6.176   1.865 -0.2730  0.7992  0.1535
  402TIP3    H122765   2.479   6.161   1.857 -0.3814  0.5837  1.5581
  402TIP3    H222766   2.581   6.243   1.933  0.5935  0.4781  0.3880
  403TIP3   OH222767   3.188   2.033   2.596 -0.5591 -0.2468  0.1319
  403TIP3    H122768   3.151   1.967   2.655 -0.2492  0.3951  1.0738
  403TIP3    H222769   3.212   2.106   2.654 -0.1947  0.3824 -0.7886
  404TIP3   OH222770   6.457   5.137   1.624  0.2130  0.3088  0.1180
  404TIP3    H122771   6.522   5.194   1.665  1.0756  1.1406 -2.2010
  404TIP3    H222772   6.509   5.079   1.568 -0.9576  0.3712 -1.0854
  405TIP3   OH222773   1.237   4.110   7.236  0.2102  0.4413  0.3560
  405TIP3    H122774   1.304   4.167   7.198  0.4269 -0.9905 -1.5301
  405TIP3    H222775   1.285   4.035   7.271 -0.0790  1.2996  2.7832
  406TIP3   OH222776   4.724   6.442   7.538 -0.4580 -0.1436  0.3320
  406TIP3    H122777   4.693   6.359   7.500  1.5473 -1.0879  0.6259
  406TIP3    H222778   4.818   6.441   7.523 -0.4114  2.1951  0.2057
  407TIP3   OH222779   1.080   1.769   0.152 -1.0323 -0.1609 -0.8846
  407TIP3    H122780   1.052   1.696   0.208  1.3303  0.4905  1.3728
  407TIP3    H222781   1.149   1.731   0.097  0.2460  0.2812  0.3384
  408TIP3   OH222782   1.172   0.895   1.207  0.3560  0.6060  0.0163
  408TIP3    H122783   1.153   0.983   1.174 -3.2954 -0.9782 -2.8172
  408TIP3    H222784   1.126   0.890   1.291  0.7566  1.3938  0.2942
  409TIP3   OH222785   6.499   4.098   0.536  0.3204  0.0710 -0.1981
  409TIP3    H122786   6.492   4.162   0.465  0.8001  0.9532  0.5273
  409TIP3    H222787   6.593   4.082   0.545  0.2636 -0.0359  0.2336
  410TIP3   OH222788   1.818   6.463   6.749  0.5951  0.0910  0.0324
  410TIP3    H122789   1.738   6.486   6.702  0.2263  1.6983  1.3729
  410TIP3    H222790   1.889   6.488   6.690  0.1310  0.9344 -0.1843
  411TIP3   OH222791   3.471   4.849   0.883  0.0369  0.0646 -0.2266
  411TIP3    H122792   3.484   4.882   0.972  0.9276  1.0436 -0.6904
  411TIP3    H222793   3.535   4.779   0.873 -0.4562 -0.4370  0.0832
  412TIP3   OH222794   0.666   5.535   1.117  0.7684  0.4294 -0.1955
  412TIP3    H122795   0.705   5.450   1.099 -0.8545 -0.1651 -1.0288
  412TIP3    H222796   0.630   5.564   1.033  0.0998  1.3084  0.3679
  413TIP3   OH222797   0.319   6.371   8.149  0.0410  0.2779  0.5537
  413TIP3    H122798   0.304   6.464   8.135 -0.7447 -0.1223 -1.7241
  413TIP3    H222799   0.382   6.367   8.221 -0.1933  2.5284  0.9563
  414TIP3   OH222800   3.462   5.847   0.850  0.4381  0.3403  0.0433
  414TIP3    H122801   3.483   5.941   0.851 -1.4619  0.8140  0.8618
  414TIP3    H222802   3.512   5.811   0.924  0.2055  0.9665  0.5234
  415TIP3   OH222803   6.506   4.016   1.720 -0.5384  0.0367 -0.3108
  415TIP3    H122804   6.500   3.927   1.683  0.8972 -0.5496  0.7552
  415TIP3    H222805   6.597   4.024   1.747 -1.1299  1.0460  1.5423
  416TIP3   OH222806   4.010   5.398   7.764  0.0281 -0.3203  0.3895
  416TIP3    H122807   4.095   5.432   7.793 -0.2009  0.0327  0.6451
  416TIP3    H222808   3.985   5.334   7.831  0.5445 -1.1478 -0.1829
  417TIP3   OH222809   4.771   6.693   1.317  0.4918  0.0660  0.7777
  417TIP3    H122810   4.688   6.689   1.269  0.8801  0.8782 -0.0023
  417TIP3    H222811   4.794   6.786   1.316  2.5850 -0.3666 -1.1203
  418TIP3   OH222812   1.441   4.387   0.246  0.4022  0.0532 -0.0086
  418TIP3    H122813   1.407   4.474   0.227  1.3642  0.4163 -0.1300
  418TIP3    H222814   1.533   4.391   0.220  0.1810 -1.3579 -1.1500
  419TIP3   OH222815   3.741   5.825   6.411 -0.2040 -0.1096 -0.3502
  419TIP3    H122816   3.792   5.747   6.432 -1.4581 -0.6671  0.7976
  419TIP3    H222817   3.660   5.791   6.372 -0.1762  0.7043 -1.1603
  420TIP3   OH222818   4.261   0.190   2.039 -0.1538  0.2151 -0.2753
  420TIP3    H122819   4.283   0.186   2.132 -0.2665 -3.0825 -0.3031
  420TIP3    H222820   4.337   0.233   1.998  0.1167  1.2363  1.2136
  421TIP3   OH222821   6.382   4.500   0.921 -0.5378  0.2733 -0.5647
  421TIP3    H122822   6.458   4.530   0.971 -1.5422  1.5207  0.2895
  421TIP3    H222823   6.413   4.423   0.874  0.9827  0.1932  0.4968
  422TIP3   OH222824   5.779   2.662   7.404  0.2357 -0.1287 -0.3690
  422TIP3    H122825   5.691   2.695   7.424 -0.2034 -2.5177  2.2552
  422TIP3    H222826   5.838   2.729   7.438 -0.6329 -0.3469  1.7392
  423TIP3   OH222827   1.674   3.052   1.477  0.2004 -0.4356 -0.1408
  423TIP3    H122828   1.694   3.057   1.570  1.5967  1.8250 -0.4607
  423TIP3    H222829   1.580   3.037   1.472 -0.3893  2.0361  1.7127
  424TIP3   OH222830   3.178   0.865   7.451 -0.6740  0.6213 -0.2060
  424TIP3    H122831   3.086   0.853   7.430 -0.5385 -2.0666  0.4068
  424TIP3    H222832   3.224   0.847   7.368 -0.6537  1.6031 -0.4206
  425TIP3   OH222833   4.359   3.711   1.474  0.3577 -0.3614 -0.3765
  425TIP3    H122834   4.424   3.703   1.544 -2.1013 -3.0945  1.8593
  425TIP3    H222835   4.350   3.623   1.440 -1.5053  0.1229 -1.2398
  426TIP3   OH222836   2.574   5.744   1.207 -0.2439  0.4142 -0.1554
  426TIP3    H122837   2.612   5.823   1.245  0.4482  0.1259 -0.2435
  426TIP3    H222838   2.542   5.694   1.282  1.2802 -0.2404  0.0894
  427TIP3   OH222839   0.800   0.650   7.379  0.2189 -0.2835 -0.2549
  427TIP3    H122840   0.722   0.684   7.423 -0.9998 -1.3005 -1.5454
  427TIP3    H222841   0.869   0.654   7.446 -1.2088 -0.4570  1.2916
  428TIP3   OH222842   4.048   4.786   1.200 -0.3018  0.1725 -0.8383
  428TIP3    H122843   4.021   4.719   1.264 -3.4247  2.6504  0.7487
  428TIP3    H222844   4.015   4.754   1.116 -2.1400 -0.1771 -0.0378
  429TIP3   OH222845   4.893   6.017   0.216 -0.2474 -0.1544 -0.2432
  429TIP3    H122846   4.859   6.008   0.305  0.5639 -0.2095  0.0634
  429TIP3    H222847   4.912   5.927   0.189 -0.9213 -0.1830 -0.6517
  430TIP3   OH222848   0.286   0.363   0.868  0.0904 -0.0571  0.3351
  430TIP3    H122849   0.307   0.293   0.806  0.0246  0.3232 -0.1173
  430TIP3    H222850   0.357   0.426   0.858  1.5256 -1.1717  2.4962
  431TIP3   OH222851   3.591   4.374   7.141 -0.6284 -0.4938  0.3907
  431TIP3    H122852   3.651   4.433   7.095  1.3744 -0.8522  2.3278
  431TIP3    H222853   3.505   4.415   7.132  0.0232  0.5408 -1.7456
  432TIP3   OH222854   4.205   5.355   8.063 -0.5907 -0.0992  0.1702
  432TIP3    H122855   4.190   5.364   7.969  3.9989 -1.1577 -0.8858
  432TIP3    H222856   4.218   5.445   8.094  2.5871  0.0823 -1.3373
  433TIP3   OH222857   0.949   6.448   8.213 -0.3260 -0.6115  0.2586
  433TIP3    H122858   1.021   6.441   8.276 -0.4516  2.3505  0.8712
  433TIP3    H222859   0.963   6.375   8.153  2.6874 -0.6606  0.8687
  434TIP3   OH222860   6.271   1.159   1.706 -0.1150  0.2588 -0.4410
  434TIP3    H122861   6.185   1.147   1.746  0.0017 -3.1687 -0.8859
  434TIP3    H222862   6.332   1.160   1.780 -0.3216 -0.7302 -0.2365
  435TIP3   OH222863   4.453   1.542   1.965  0.1852 -0.0618 -0.5758
  435TIP3    H122864   4.384   1.480   1.942 -0.1706  0.0812  0.0810
  435TIP3    H222865   4.465   1.531   2.059  1.2314 -0.2529 -0.7163
  436TIP3   OH222866   0.061   2.116   7.484 -0.2805 -0.2567  0.0778
  436TIP3    H122867   0.071   2.136   7.577 -0.9844  0.9518 -0.0816
  436TIP3    H222868   0.034   2.024   7.482 -0.2277 -0.3056  1.0556
  437TIP3   OH222869   2.896   3.734   1.798 -0.8180  0.2224 -0.1161
  437TIP3    H122870   2.852   3.817   1.814  1.9859  1.7912  0.0683
  437TIP3    H222871   2.906   3.730   1.703  0.5007  0.9825 -0.0389
  438TIP3   OH222872   3.913   4.766   0.561 -0.0248 -0.6669  0.6300
  438TIP3    H122873   3.977   4.747   0.494 -1.3974  0.1015 -0.9768
  438TIP3    H222874   3.923   4.696   0.625  1.7938 -1.0274  0.0033
  439TIP3   OH222875   6.326   4.881   8.368 -0.5287  0.3055  0.3786
  439TIP3    H122876   6.325   4.852   8.277 -0.0678  1.2748  0.0469
  439TIP3    H222877   6.373   4.964   8.366  0.5145 -0.2236  1.6856
  440TIP3   OH222878   4.818   1.370   1.914  0.0695 -0.2257  0.2240
  440TIP3    H122879   4.904   1.379   1.873 -0.1904 -1.9983 -0.7957
  440TIP3    H222880   4.763   1.433   1.868  0.5872  0.2381  0.2310
  441TIP3   OH222881   0.922   0.185   7.176  0.5762 -0.1898  0.3474
  441TIP3    H122882   0.870   0.194   7.096  1.1327 -1.6558 -0.1997
  441TIP3    H222883   0.971   0.104   7.164  0.6521 -0.4449  2.1938
  442TIP3   OH222884   3.866   1.735   6.494  0.0928 -0.5767 -0.4071
  442TIP3    H122885   3.885   1.780   6.412 -0.3015 -1.5667 -1.0684
  442TIP3    H222886   3.788   1.779   6.528 -0.4950 -0.9461 -1.2197
  443TIP3   OH222887   5.302   6.871   0.196  0.4020  0.2350  0.1610
  443TIP3    H122888   5.220   6.882   0.149 -0.7082  0.2844  2.0085
  443TIP3    H222889   5.368   6.915   0.141 -0.9074  0.8153 -1.0021
  444TIP3   OH222890   1.266   2.329   0.689  0.0566 -0.0678  0.1415
  444TIP3    H122891   1.225   2.404   0.645 -0.4675 -0.5591 -0.2218
  444TIP3    H222892   1.275   2.263   0.621 -0.4204 -0.7031  0.6823
  445TIP3   OH222893   3.910   2.649   1.003 -0.2396 -0.2284 -0.5009
  445TIP3    H122894   4.001   2.654   1.033  0.0005 -0.4401 -1.1890
  445TIP3    H222895   3.914   2.671   0.910 -0.6915 -1.6715 -0.8768
  446TIP3   OH222896   0.583   0.082   0.053 -0.2767 -0.1712 -0.1557
  446TIP3    H122897   0.621   0.160   0.093 -1.5574 -0.0895  0.9547
  446TIP3    H222898   0.615   0.010   0.107 -0.3917 -0.2576 -0.2032
  447TIP3   OH222899   6.284   4.146   1.669  0.1082  0.3194  0.4955
  447TIP3    H122900   6.370   4.130   1.709 -0.5317 -1.1399  1.3666
  447TIP3    H222901   6.300   4.141   1.575  1.6103  3.6318  0.4164
  448TIP3   OH222902   5.268   2.431   1.391 -0.3012  0.6472  0.8126
  448TIP3    H122903   5.240   2.497   1.328  0.1179  0.3894  0.3480
  448TIP3    H222904   5.251   2.470   1.477  0.2794  1.5152  0.5460
  449TIP3   OH222905   3.122   0.915   0.071  0.4167  0.1985  0.7286
  449TIP3    H122906   3.210   0.943   0.045  0.8495 -1.1385  0.6574
  449TIP3    H222907   3.137   0.837   0.125 -0.7563 -0.4594  0.1393
  450TIP3   OH222908   3.931   6.678   1.860  0.4187 -0.5380 -0.3116
  450TIP3    H122909   3.940   6.627   1.941  1.8473  2.2271  1.4214
  450TIP3    H222910   3.983   6.757   1.875 -0.1308  0.5954 -3.5585
  451TIP3   OH222911   3.414   6.259   1.361  0.5399 -0.8138  0.0861
  451TIP3    H122912   3.347   6.215   1.413  0.6181 -0.0479  0.8613
  451TIP3    H222913   3.366   6.328   1.315  1.0461  1.1809  2.3153
  452TIP3   OH222914   6.206   1.893   7.239 -0.0721  0.2595 -0.0339
  452TIP3    H122915   6.112   1.905   7.225 -0.1173  1.4188  1.0616
  452TIP3    H222916   6.216   1.902   7.334  1.2740  1.1871 -0.2418
  453TIP3   OH222917   1.012   6.717   1.649  0.4771 -0.2922 -0.7861
  453TIP3    H122918   1.011   6.636   1.700  0.6720  1.6358  2.6006
  453TIP3    H222919   1.095   6.715   1.601  0.8098 -1.7358 -0.1833
  454TIP3   OH222920   3.355   6.084   0.010  0.5894 -0.3253  0.8198
  454TIP3    H122921   3.333   6.005  -0.039  1.8407 -0.1052 -0.1679
  454TIP3    H222922   3.357   6.055   0.101 -1.1816 -0.8893  0.7185
  455TIP3   OH222923   5.303   1.731   0.299  1.0646 -0.3860  0.4022
  455TIP3    H122924   5.216   1.710   0.333  0.2809  0.0795 -1.1857
  455TIP3    H222925   5.346   1.778   0.370 -0.3316  0.1954  0.9031
  456TIP3   OH222926   5.195   1.372   7.039 -0.0274 -0.2859  0.0687
  456TIP3    H122927   5.264   1.436   7.056  0.6093 -0.9642  0.1158
  456TIP3    H222928   5.228   1.322   6.964 -0.2336 -0.9386  0.4038
  457TIP3   OH222929   0.984   1.571   2.247 -0.8961 -0.0954  0.1617
  457TIP3    H122930   0.899   1.532   2.227 -0.5706 -2.6414  3.0465
  457TIP3    H222931   0.971   1.617   2.330  0.5650 -0.9849  0.9390
  458TIP3   OH222932   4.230   6.488   8.302  1.2075  0.1504 -0.3114
  458TIP3    H122933   4.249   6.448   8.387 -0.3093  1.5956  0.7829
  458TIP3    H222934   4.270   6.575   8.307  0.9724  0.3076 -1.0138
  459TIP3   OH222935   2.033   0.637   1.487 -0.1208  0.0501  0.3648
  459TIP3    H122936   1.996   0.616   1.402  0.3846  1.5011 -0.2406
  459TIP3    H222937   2.046   0.552   1.530  0.7591 -0.7908 -1.4814
  460TIP3   OH222938   4.230   2.182   7.480 -0.2823 -0.1780 -0.1215
  460TIP3    H122939   4.273   2.266   7.465 -2.8719  1.1813 -0.3205
  460TIP3    H222940   4.209   2.150   7.392  1.8075 -1.7575 -0.1432
  461TIP3   OH222941   4.223   6.022   7.533  0.3727  0.2774 -0.2752
  461TIP3    H122942   4.177   5.969   7.468  0.5521  2.0064 -1.9045
  461TIP3    H222943   4.154   6.069   7.580  0.2964 -0.2327  0.1359
  462TIP3   OH222944   2.305   4.178   7.455 -0.0058  0.7065 -0.1048
  462TIP3    H122945   2.242   4.165   7.526 -0.5191  3.2425  0.0122
  462TIP3    H222946   2.268   4.129   7.381 -0.6733 -0.0607  0.7173
  463TIP3   OH222947   6.797   2.283   7.359 -0.3090  0.0858 -0.0716
  463TIP3    H122948   6.854   2.218   7.401 -0.8157 -1.0869 -1.1127
  463TIP3    H222949   6.825   2.367   7.395 -0.1247 -0.7685  1.9163
  464TIP3   OH222950   6.304   3.396   2.714 -0.6548 -0.3165 -0.2364
  464TIP3    H122951   6.239   3.362   2.651 -1.8810 -0.5446  1.0928
  464TIP3    H222952   6.252   3.440   2.780  0.5501 -0.5887  0.9370
  465TIP3   OH222953   2.276   5.555   7.599 -0.2917 -0.4935 -0.5675
  465TIP3    H122954   2.219   5.499   7.651 -1.4251 -0.4182 -1.6696
  465TIP3    H222955   2.216   5.609   7.548  0.7749  0.6728 -0.6542
  466TIP3   OH222956   3.353   1.699   0.738 -0.4258 -0.3245 -0.4787
  466TIP3    H122957   3.384   1.611   0.715  0.0233 -0.3037  0.0264
  466TIP3    H222958   3.259   1.696   0.724 -0.2120 -0.3576 -2.1879
  467TIP3   OH222959   2.912   5.048   0.616  0.0134  0.1239  0.0967
  467TIP3    H122960   2.984   4.987   0.596  2.0035  1.5172  2.4049
  467TIP3    H222961   2.942   5.132   0.581 -1.2730  0.4333 -0.3176
  468TIP3   OH222962   2.531   3.778   7.772  0.4616 -0.0384 -0.6261
  468TIP3    H122963   2.459   3.786   7.835 -0.3573 -2.2577 -1.1786
  468TIP3    H222964   2.538   3.683   7.757  4.2257 -0.0208  0.1950
  469TIP3   OH222965   1.917   0.529   0.002 -0.2505 -0.3947  0.3313
  469TIP3    H122966   1.893   0.622  -0.001 -2.4430 -0.9237 -0.8928
  469TIP3    H222967   1.911   0.500  -0.090  0.2104 -1.7884  0.7189
  470TIP3   OH222968   4.036   4.952   1.944  0.3628 -0.7438  0.1651
  470TIP3    H122969   4.101   5.022   1.939  1.4493 -1.6203  1.5115
  470TIP3    H222970   3.952   4.998   1.944  1.0084  0.4814 -0.2017
  471TIP3   OH222971   2.077   6.455   0.298  0.0134 -0.1459  0.0899
  471TIP3    H122972   1.987   6.467   0.330 -0.0870  0.9558 -0.5601
  471TIP3    H222973   2.096   6.535   0.249  1.6330 -0.0270  0.8502
  472TIP3   OH222974   6.069   5.477   1.433  0.2776  0.5653  0.1548
  472TIP3    H122975   6.148   5.503   1.387  0.8204  0.7234  1.1368
  472TIP3    H222976   6.064   5.382   1.421  0.0092  0.6919 -0.8172
  473TIP3   OH222977   2.191   3.761   7.250 -0.0875  0.1478  0.6943
  473TIP3    H122978   2.162   3.699   7.183  0.5171  1.3903 -0.7905
  473TIP3    H222979   2.117   3.765   7.311  1.0552 -4.4057  2.7709
  474TIP3   OH222980   0.440   4.715   6.413 -0.2038  0.5176  0.3923
  474TIP3    H122981   0.478   4.712   6.501 -0.6019  1.1837  0.5943
  474TIP3    H222982   0.515   4.713   6.355  0.1952  2.0411  0.7905
  475TIP3   OH222983   6.085   2.217   7.752  0.3119 -0.3507 -0.3548
  475TIP3    H122984   5.994   2.240   7.767  0.4502 -0.7077  1.1405
  475TIP3    H222985   6.091   2.124   7.776  0.6485 -0.9124 -2.3925
  476TIP3   OH222986   2.175   0.175   1.698  0.7233  0.1051 -0.8189
  476TIP3    H122987   2.143   0.173   1.788  0.7214 -1.8832 -0.8400
  476TIP3    H222988   2.125   0.107   1.653  0.3812  1.3804 -2.4707
  477TIP3   OH222989   6.545   1.294   2.051  0.7227  0.3037  0.2388
  477TIP3    H122990   6.535   1.209   2.008 -0.8964  2.0915 -3.3668
  477TIP3    H222991   6.637   1.318   2.035  0.8214 -0.1887  0.0509
  478TIP3   OH222992   5.983   4.451   8.520  0.5038  0.1433  0.0705
  478TIP3    H122993   5.912   4.511   8.499  1.2606  1.3992  0.9438
  478TIP3    H222994   5.943   4.384   8.576 -0.7548 -1.2831 -2.3563
  479TIP3   OH222995   1.093   4.623   0.355 -0.9841 -0.1383 -0.5466
  479TIP3    H122996   1.011   4.598   0.396 -1.0990  2.3881  0.9166
  479TIP3    H222997   1.068   4.655   0.268 -1.3766 -0.5947 -0.6033
  480TIP3   OH222998   1.465   5.770   7.893  0.1504  0.6028 -0.2212
  480TIP3    H122999   1.415   5.819   7.958 -0.0309  0.4486 -0.2431
  480TIP3    H223000   1.400   5.741   7.829 -0.0337 -1.0800  0.6570
  481TIP3   OH223001   1.964   5.008   2.568 -0.4398 -0.1065 -0.2350
  481TIP3    H123002   1.998   5.044   2.486 -0.4871  0.0425 -0.1892
  481TIP3    H223003   1.998   4.918   2.570  0.7857  0.3479  0.2962
  482TIP3   OH223004   0.975   2.609   8.163 -0.1339 -0.1683  0.4855
  482TIP3    H123005   0.963   2.517   8.189 -0.0687 -0.6211 -1.0052
  482TIP3    H223006   0.886   2.645   8.163 -0.2836 -0.5248  0.0640
  483TIP3   OH223007   4.810   3.814   7.452  0.2192  0.4447  0.1172
  483TIP3    H123008   4.843   3.834   7.364 -1.3416 -1.2965 -0.9400
  483TIP3    H223009   4.749   3.742   7.439  0.8664 -0.7313  2.8345
  484TIP3   OH223010   1.004   0.885   8.236  0.2878 -0.5665 -0.2144
  484TIP3    H123011   1.084   0.914   8.279  1.0779 -1.2647 -1.1847
  484TIP3    H223012   0.999   0.791   8.254 -0.8431 -0.3664  0.6522
  485TIP3   OH223013   5.198   0.309   0.559  0.0431 -0.4322  0.0324
  485TIP3    H123014   5.264   0.377   0.572  0.8803 -1.1328 -0.5056
  485TIP3    H223015   5.247   0.231   0.537 -0.9506 -1.0592 -0.0267
  486TIP3   OH223016   0.088   6.068   2.092  0.8448  0.0689 -0.5290
  486TIP3    H123017   0.158   6.126   2.062 -0.1896  0.3238 -2.6156
  486TIP3    H223018   0.019   6.127   2.122  1.3692 -0.1809  1.2685
  487TIP3   OH223019   1.779   3.499   8.069 -0.2049 -0.1419  0.3614
  487TIP3    H123020   1.742   3.439   8.003  1.3907  0.3510 -1.0498
  487TIP3    H223021   1.713   3.567   8.078 -0.6779 -0.4870 -0.3567
  488TIP3   OH223022   3.203   6.551   0.021 -0.3715 -0.4469  0.0010
  488TIP3    H123023   3.199   6.462   0.056  0.0470 -1.0632 -1.4627
  488TIP3    H223024   3.157   6.604   0.086  0.3514 -1.5327  1.4727
  489TIP3   OH223025   6.006   6.039   8.347  0.1417  0.0437  0.1598
  489TIP3    H123026   6.042   6.034   8.436 -0.4565  0.2665  0.4214
  489TIP3    H223027   6.034   6.124   8.314  2.0841 -0.8373 -0.6488
  490TIP3   OH223028   5.210   3.234   0.444  0.0886  0.3391 -0.1546
  490TIP3    H123029   5.193   3.315   0.396  1.2058  0.5623 -0.2103
  490TIP3    H223030   5.125   3.192   0.452 -0.4554  1.3689 -0.4005
  491TIP3   OH223031   0.850   3.439   0.714 -0.0513  0.1513 -0.2155
  491TIP3    H123032   0.802   3.425   0.633  1.9134 -0.3027 -1.3687
  491TIP3    H223033   0.894   3.523   0.702 -1.1435  0.9613  1.1565
  492TIP3   OH223034   2.518   5.674   7.168  0.1290 -0.3963 -0.0129
  492TIP3    H123035   2.580   5.630   7.227  1.2327  1.0629 -0.0487
  492TIP3    H223036   2.559   5.758   7.148 -0.5070 -0.5836 -2.3802
  493TIP3   OH223037   2.162   4.939   1.549  0.0404  0.4300 -0.7569
  493TIP3    H123038   2.219   4.994   1.495 -0.6940  0.1083 -1.8919
  493TIP3    H223039   2.220   4.872   1.585  1.4237  3.0194  2.3892
  494TIP3   OH223040   5.456   4.141   1.217  0.4826  0.3014  0.4398
  494TIP3    H123041   5.485   4.148   1.126  0.8882  0.3989  0.5733
  494TIP3    H223042   5.452   4.232   1.249  2.0310  0.2074  1.0276
  495TIP3   OH223043   0.150   4.580   0.356  0.3842 -0.3119 -0.0671
  495TIP3    H123044   0.229   4.619   0.319  0.0120  0.6806  0.1229
  495TIP3    H223045   0.153   4.604   0.449  0.8786 -2.0412  0.3988
  496TIP3   OH223046   6.812   4.898   7.262 -0.0147  0.3876  0.1415
  496TIP3    H123047   6.851   4.903   7.349  0.1029  0.7621  0.0674
  496TIP3    H223048   6.839   4.813   7.228  0.5471  0.5468  0.1812
  497TIP3   OH223049   2.027   2.295   0.990 -0.9668  0.4659  0.2565
  497TIP3    H123050   2.122   2.305   0.983 -0.8007 -0.7483  0.5340
  497TIP3    H223051   1.993   2.322   0.905 -0.4747  1.8961  0.4887
  498TIP3   OH223052   5.476   5.644   0.541  0.2155 -1.1137 -0.2008
  498TIP3    H123053   5.530   5.705   0.592  0.5374 -0.8957 -0.7912
  498TIP3    H223054   5.423   5.701   0.486 -0.4567 -1.3375  0.2089
  499TIP3   OH223055   4.905   1.578   7.377 -0.1177 -0.2075 -0.1159
  499TIP3    H123056   4.852   1.498   7.378 -0.6157  0.1089  1.1186
  499TIP3    H223057   4.983   1.556   7.428 -0.5173  0.2406  0.7135
  500TIP3   OH223058   1.061   0.660   2.083 -0.1258  0.0301 -0.2203
  500TIP3    H123059   0.983   0.687   2.132 -0.2335 -0.1622 -0.2847
  500TIP3    H223060   1.134   0.684   2.139 -0.2496 -0.2437  0.0649
  501TIP3   OH223061   1.052   2.057   7.618 -0.6369 -0.1667  0.4325
  501TIP3    H123062   0.995   2.086   7.547  0.8081  0.9436 -0.3078
  501TIP3    H223063   1.139   2.089   7.595  0.4181 -2.1740  1.3263
  502TIP3   OH223064   1.252   3.322   1.752 -0.3618  0.3487 -0.1634
  502TIP3    H123065   1.255   3.339   1.846 -2.1022 -2.1351  0.4518
  502TIP3    H223066   1.182   3.379   1.719 -0.9618 -0.0389  0.4145
  503TIP3   OH223067   3.130   1.451   1.582 -0.5416  0.0362 -0.0777
  503TIP3    H123068   3.128   1.363   1.618 -2.4816 -0.0945 -0.4054
  503TIP3    H223069   3.049   1.459   1.532  0.5652  1.2961 -1.8091
  504TIP3   OH223070   5.275   2.771   0.602 -0.7031  0.0276 -0.5508
  504TIP3    H123071   5.275   2.814   0.516  1.6097  0.9640 -0.1598
  504TIP3    H223072   5.261   2.843   0.665  2.1537  0.1494  0.0544
  505TIP3   OH223073   5.374   0.364   1.718  0.7325  0.0219  0.0016
  505TIP3    H123074   5.303   0.310   1.753  2.6177 -2.7451 -0.1097
  505TIP3    H223075   5.337   0.452   1.713 -2.5894 -1.2311  0.1129
  506TIP3   OH223076   1.896   4.659   1.948 -0.5381  0.2891  0.7216
  506TIP3    H123077   1.951   4.601   1.896  2.1247  2.5177  0.8177
  506TIP3    H223078   1.904   4.626   2.038 -0.8918 -0.4833  0.4770
  507TIP3   OH223079   1.835   4.969   2.792  0.3312 -0.1568 -0.2599
  507TIP3    H123080   1.878   4.991   2.710  2.2315 -1.2909  0.3670
  507TIP3    H223081   1.825   4.874   2.790 -0.1127 -0.1399  0.5791
  508TIP3   OH223082   6.812   5.556   7.676  0.0105 -0.6845 -0.2289
  508TIP3    H123083   6.724   5.582   7.650 -0.0060 -1.8482 -1.4859
  508TIP3    H223084   6.800   5.473   7.722  0.4948 -1.4396 -1.3898
  509TIP3   OH223085   5.189   1.085   8.381  0.3217 -0.3536 -0.4236
  509TIP3    H123086   5.170   1.060   8.291 -0.8118 -0.6360 -0.1262
  509TIP3    H223087   5.129   1.032   8.434  1.6541 -0.9236  0.5638
  510TIP3   OH223088   3.361   6.292   0.561 -0.2999  0.1543 -0.4679
  510TIP3    H123089   3.400   6.302   0.474  1.0804 -0.1073  0.1010
  510TIP3    H223090   3.405   6.216   0.599 -1.1474  0.0452  0.3304
  511TIP3   OH223091   4.700   3.195   7.771 -0.2509  0.1375  0.2209
  511TIP3    H123092   4.697   3.224   7.862  0.7344  1.4864 -0.1385
  511TIP3    H223093   4.769   3.128   7.770 -0.2624  0.1202  0.4598
  512TIP3   OH223094   4.379   1.696   6.532  0.7148 -0.6260 -0.0589
  512TIP3    H123095   4.466   1.692   6.493  0.2744  0.8274 -1.2747
  512TIP3    H223096   4.374   1.783   6.573  0.0070 -0.8839  0.4405
  513TIP3   OH223097   5.081   1.506   8.017  0.3765  0.1508 -0.4059
  513TIP3    H123098   4.998   1.543   7.988  0.9145  1.0476 -0.8401
  513TIP3    H223099   5.145   1.539   7.955  1.2266  0.3659  0.5615
  514TIP3   OH223100   3.153   6.177   0.742  0.2132 -0.4988  0.2246
  514TIP3    H123101   3.196   6.220   0.817 -1.3942  2.1273 -0.2187
  514TIP3    H223102   3.211   6.196   0.668  0.5433 -0.9183  0.3711
  515TIP3   OH223103   1.600   1.619   2.021  0.8404  0.1520 -0.4128
  515TIP3    H123104   1.628   1.676   2.093 -0.9377  0.6330 -0.0560
  515TIP3    H223105   1.511   1.648   2.001  0.5197 -1.4008 -1.3710
  516TIP3   OH223106   5.764   0.438   0.640 -0.7161  0.0188 -0.0684
  516TIP3    H123107   5.706   0.511   0.660 -0.5821 -0.0521  0.6326
  516TIP3    H223108   5.845   0.458   0.687  0.0217  0.3564 -1.4283
  517TIP3   OH223109   5.726   0.883   7.465  0.4697 -0.4415 -0.3419
  517TIP3    H123110   5.799   0.913   7.519  0.2642 -0.5524  0.0022
  517TIP3    H223111   5.663   0.956   7.468 -0.7319 -1.4522  1.7853
  518TIP3   OH223112   2.440   4.918   2.588  0.0479  0.0899 -0.1049
  518TIP3    H123113   2.414   5.010   2.593 -1.1751 -0.2256 -0.3505
  518TIP3    H223114   2.441   4.898   2.495 -1.6761 -0.6554 -0.0061
  519TIP3   OH223115   1.043   0.907   1.444 -0.1290 -0.4843 -0.5873
  519TIP3    H123116   1.029   0.961   1.522 -0.7899  0.2400 -1.1899
  519TIP3    H223117   1.024   0.817   1.473 -1.1683 -0.1266 -0.0999
  520TIP3   OH223118   6.201   0.823   2.004  0.0786 -0.2815 -0.1026
  520TIP3    H123119   6.147   0.798   2.079  0.1658 -0.2038 -0.0143
  520TIP3    H223120   6.269   0.879   2.041  0.0255 -0.1109 -0.2661
  521TIP3   OH223121   2.664   1.097   7.756  0.1844  0.2771  0.0531
  521TIP3    H123122   2.758   1.098   7.738  0.4575  0.6302  1.4175
  521TIP3    H223123   2.627   1.039   7.689  1.4442 -0.3225 -0.1416
  522TIP3   OH223124   4.347   1.961   0.702 -0.3329  0.4317  0.1753
  522TIP3    H123125   4.431   1.986   0.740 -1.2864  2.1501  1.2915
  522TIP3    H223126   4.318   2.039   0.654 -1.0335 -0.3301 -0.6726
  523TIP3   OH223127   5.106   6.470   6.616  0.0393 -0.7180  0.1582
  523TIP3    H123128   5.170   6.403   6.640 -2.1442 -2.7430  0.7439
  523TIP3    H223129   5.049   6.477   6.692 -1.6500 -0.5442 -1.0597
  524TIP3   OH223130   2.934   3.317   0.121 -0.5223  0.1385  0.3774
  524TIP3    H123131   2.913   3.337   0.212  2.0009 -0.6687  1.2066
  524TIP3    H223132   2.992   3.387   0.093 -0.4275 -0.1805 -0.2580
  525TIP3   OH223133   5.992   0.283   7.063 -0.1276 -0.6766 -0.5883
  525TIP3    H123134   5.983   0.323   7.150 -0.9607 -1.0494 -0.4912
  525TIP3    H223135   5.918   0.319   7.014 -0.0620 -1.0114 -0.9309
  526TIP3   OH223136   5.889   6.163   2.523 -0.0080 -0.1058 -0.4247
  526TIP3    H123137   5.961   6.158   2.460 -1.0164  1.5237 -1.8131
  526TIP3    H223138   5.857   6.253   2.514 -1.1763 -0.3151  1.3315
  527TIP3   OH223139   6.570   3.269   1.187 -0.6480 -0.0368 -0.1663
  527TIP3    H123140   6.542   3.348   1.233 -0.6579  0.2096 -0.5881
  527TIP3    H223141   6.606   3.213   1.256 -3.1628 -0.8479  0.5753
  528TIP3   OH223142   4.165   0.478   1.563 -0.0850  0.1892  0.1833
  528TIP3    H123143   4.206   0.465   1.478 -0.5231  0.5215 -0.0878
  528TIP3    H223144   4.076   0.445   1.552 -1.3090  3.3943 -0.6016
  529TIP3   OH223145   0.505   2.436   1.852  0.3029  0.1280 -0.1124
  529TIP3    H123146   0.446   2.362   1.864  0.0032  0.1668 -1.2566
  529TIP3    H223147   0.548   2.447   1.937  0.8989 -1.8160 -0.1303
  530TIP3   OH223148   4.105   0.446   7.329  0.2985  0.7938 -0.5481
  530TIP3    H123149   4.011   0.466   7.323 -0.1927 -0.4854  1.5848
  530TIP3    H223150   4.141   0.517   7.381 -0.0485 -0.0354  0.8837
  531TIP3   OH223151   5.594   2.656   0.380 -0.2115 -0.5259 -0.8225
  531TIP3    H123152   5.551   2.618   0.457 -1.7370  1.7911 -0.4479
  531TIP3    H223153   5.632   2.738   0.411  0.8151 -0.4582 -2.1567
  532TIP3   OH223154   6.264   0.901   1.213  0.0700 -0.2272  0.3707
  532TIP3    H123155   6.359   0.898   1.226  0.1621  0.5239 -0.1388
  532TIP3    H223156   6.231   0.956   1.285 -0.2281 -2.1608  1.8077
  533TIP3   OH223157   6.211   0.892   1.602 -0.2543  0.3455  0.0286
  533TIP3    H123158   6.292   0.941   1.599 -1.2216  2.1231  1.2420
  533TIP3    H223159   6.142   0.958   1.598 -1.7176 -1.1548 -2.0452
  534TIP3   OH223160   4.985   2.497   7.964 -0.0265 -0.2731 -0.2151
  534TIP3    H123161   4.945   2.482   8.050 -0.1072 -0.7352 -0.3315
  534TIP3    H223162   5.071   2.457   7.969  0.4438  0.7294  0.0364
  535TIP3   OH223163   5.433   4.072   7.277 -0.0425 -0.5854 -0.2264
  535TIP3    H123164   5.430   4.013   7.202 -0.6271 -3.1721  1.7070
  535TIP3    H223165   5.527   4.083   7.295  0.0711 -1.3122 -0.3426
  536TIP3   OH223166   0.339   1.226   7.845  0.7683  0.2706 -0.4630
  536TIP3    H123167   0.306   1.173   7.773  0.6676  0.0921 -0.2895
  536TIP3    H223168   0.320   1.316   7.821  0.3905  0.1866 -0.4817
  537TIP3   OH223169   4.833   1.335   2.375  0.0075 -0.4454 -0.0141
  537TIP3    H123170   4.749   1.311   2.336 -1.2723  0.5597  1.9435
  537TIP3    H223171   4.839   1.282   2.454  1.0008 -0.1662  0.1097
  538TIP3   OH223172   6.031   4.030   1.407  0.1330 -0.4919  0.2598
  538TIP3    H123173   5.940   4.053   1.387 -0.2102 -2.5589 -0.8795
  538TIP3    H223174   6.083   4.103   1.374 -0.9787 -0.3779 -1.3399
  539TIP3   OH223175   0.779   5.886   0.484 -0.4260  0.1002  0.3282
  539TIP3    H123176   0.807   5.801   0.450 -0.6425  0.2184 -0.1450
  539TIP3    H223177   0.705   5.865   0.541 -1.0882  0.0625 -0.5275
  540TIP3   OH223178   3.313   5.259   8.405  0.4166 -0.4035  0.2881
  540TIP3    H123179   3.331   5.268   8.499  1.0245 -1.5226  0.2901
  540TIP3    H223180   3.354   5.177   8.380  0.6310  0.0918 -1.0643
  541TIP3   OH223181   5.826   3.811   1.809  0.2163  0.5000  0.0407
  541TIP3    H123182   5.764   3.839   1.742 -1.1366  1.1404  1.4958
  541TIP3    H223183   5.912   3.829   1.771 -0.4983  0.8677 -1.4842
  542TIP3   OH223184   0.546   5.237   0.023 -0.1967 -0.1812 -0.0746
  542TIP3    H123185   0.552   5.222   0.118 -0.0640  1.0896  0.1388
  542TIP3    H223186   0.571   5.153  -0.016 -2.1092 -1.3103  1.0017
  543TIP3   OH223187   3.545   2.398   7.304 -0.2936 -0.2056 -0.9096
  543TIP3    H123188   3.544   2.322   7.362 -1.9497  0.1628 -0.3892
  543TIP3    H223189   3.529   2.362   7.217  3.8118 -0.9564 -1.5484
  544TIP3   OH223190   4.316   3.195   8.125 -0.1148 -0.4080 -0.6341
  544TIP3    H123191   4.271   3.110   8.129  3.4040 -2.4995 -1.2395
  544TIP3    H223192   4.307   3.230   8.214  0.0721 -2.4442  0.2542
  545TIP3   OH223193   2.366   3.598   1.918 -0.0267 -0.5203 -0.0082
  545TIP3    H123194   2.306   3.606   1.844  1.8096  0.0629 -1.5130
  545TIP3    H223195   2.369   3.504   1.937 -2.3747 -0.4506  1.0045
  546TIP3   OH223196   3.664   6.554   7.930 -0.5033  0.6124 -0.2969
  546TIP3    H123197   3.699   6.551   8.019  1.7712 -0.9597 -1.1560
  546TIP3    H223198   3.638   6.645   7.917 -1.7834  0.6945  2.2515
  547TIP3   OH223199   6.456   4.909   0.277  0.4715 -0.0389 -0.1167
  547TIP3    H123200   6.512   4.950   0.343 -1.1972  0.3669  1.1267
  547TIP3    H223201   6.446   4.975   0.209 -0.8384  1.0238  1.0701
  548TIP3   OH223202   2.127   1.557   7.785 -0.0355 -0.1910 -0.1697
  548TIP3    H123203   2.211   1.598   7.765  0.1493 -0.1404  0.6787
  548TIP3    H223204   2.063   1.629   7.779  0.0087 -0.1778 -0.5558
  549TIP3   OH223205   3.265   5.419   2.809  0.1381 -0.3062  0.1287
  549TIP3    H123206   3.180   5.380   2.792 -0.7148  0.6487  1.9076
  549TIP3    H223207   3.309   5.419   2.724 -2.1731  0.4368 -1.1527
  550TIP3   OH223208   2.681   3.906   6.983 -0.9512 -1.1692  0.1024
  550TIP3    H123209   2.610   3.867   6.932 -2.8927  2.3266 -0.2270
  550TIP3    H223210   2.637   3.968   7.041  1.7549  0.7338  0.3318
  551TIP3   OH223211   1.973   6.409   7.687 -0.4155  0.1866  0.3933
  551TIP3    H123212   2.032   6.345   7.647 -1.1864 -0.4913  0.3052
  551TIP3    H223213   1.903   6.357   7.726  0.4012  0.8232  2.8439
  552TIP3   OH223214   3.849   3.141   7.376 -0.0551 -0.3146 -0.0455
  552TIP3    H123215   3.828   3.171   7.464  0.0919  2.0994 -0.7593
  552TIP3    H223216   3.767   3.153   7.328 -0.0708 -1.3986 -0.3004
  553TIP3   OH223217   3.210   5.242   1.879 -0.2388 -0.2122  0.1916
  553TIP3    H123218   3.250   5.325   1.904  1.8007 -1.2108  0.4453
  553TIP3    H223219   3.167   5.212   1.959 -1.2502  0.6971  0.0193
  554TIP3   OH223220   3.291   4.737   0.409 -0.5805 -0.2858  0.7241
  554TIP3    H123221   3.358   4.791   0.450 -1.7736  0.0585  2.3270
  554TIP3    H223222   3.313   4.738   0.316  1.5485 -0.1082  1.1852
  555TIP3   OH223223   6.466   1.255   2.814 -0.3947  0.3510 -0.4969
  555TIP3    H123224   6.504   1.205   2.886  0.6671  0.2609 -1.0965
  555TIP3    H223225   6.386   1.294   2.851 -0.3067 -0.3576  0.4766
  556TIP3   OH223226   5.596   3.635   7.906  0.2651 -0.0376  0.0892
  556TIP3    H123227   5.528   3.585   7.861  0.6791 -1.1249  0.6503
  556TIP3    H223228   5.632   3.575   7.971  2.0581  0.3659 -0.4657
  557TIP3   OH223229   5.197   0.573   7.504  0.3278  0.2629  0.6766
  557TIP3    H123230   5.164   0.494   7.546 -1.7928  1.0457  0.6081
  557TIP3    H223231   5.283   0.586   7.543 -0.3875 -0.6203  2.6940
  558TIP3   OH223232   4.081   1.234   0.130  0.3118 -0.0334  0.3997
  558TIP3    H123233   4.085   1.301   0.198 -0.2932 -0.8737  1.3006
  558TIP3    H223234   4.007   1.178   0.156  0.3566 -0.6368 -0.7067
  559TIP3   OH223235   5.119   3.464   8.037 -0.3676  0.0834 -0.7246
  559TIP3    H123236   5.073   3.527   7.982 -0.2631  0.0038 -0.9050
  559TIP3    H223237   5.178   3.517   8.090 -1.0542  0.2391 -0.0991
  560TIP3   OH223238   4.229   0.195   0.405  1.1273  0.0856  0.3798
  560TIP3    H123239   4.180   0.214   0.325 -2.1066 -0.5649  2.0619
  560TIP3    H223240   4.270   0.279   0.428  0.5117  0.7785 -0.9205
  561TIP3   OH223241   3.479   2.790   1.113 -1.0821 -0.5562 -0.5848
  561TIP3    H123242   3.444   2.846   1.183 -1.2302  0.2921 -1.3254
  561TIP3    H223243   3.423   2.712   1.115 -0.2292 -1.1841  1.1447
  562TIP3   OH223244   1.680   6.054   0.593 -0.3637 -0.0944  0.4734
  562TIP3    H123245   1.747   6.105   0.548 -0.1186 -0.5755  0.2876
  562TIP3    H223246   1.612   6.041   0.528 -1.1671  1.3317  0.9741
  563TIP3   OH223247   2.624   5.416   0.059 -0.7224 -0.2915  0.1147
  563TIP3    H123248   2.666   5.498   0.084 -2.2020  0.4576  0.2313
  563TIP3    H223249   2.639   5.357   0.133  1.4512 -0.5889 -0.4934
  564TIP3   OH223250   4.059   0.228   0.172  0.1257 -0.0235  0.6700
  564TIP3    H123251   4.111   0.225   0.093 -0.0972 -0.0544  0.5226
  564TIP3    H223252   4.037   0.136   0.190  0.3336 -0.0359  0.8750
  565TIP3   OH223253   3.202   3.286   0.672 -0.2911  0.0737 -0.3342
  565TIP3    H123254   3.239   3.233   0.742  1.2241  0.1861 -1.0071
  565TIP3    H223255   3.108   3.286   0.689  0.1218  1.3813  2.5814
  566TIP3   OH223256   3.854   5.777   0.798 -0.6976 -0.2990 -0.1860
  566TIP3    H123257   3.927   5.822   0.841 -0.5862 -1.3811  0.7936
  566TIP3    H223258   3.841   5.698   0.850 -3.5950  0.6119  0.6794
  567TIP3   OH223259   0.950   3.962   7.272  0.2510 -0.7787 -0.0413
  567TIP3    H123260   0.968   3.986   7.181  1.0958 -1.9708 -0.2059
  567TIP3    H223261   0.881   3.897   7.266  0.8125 -1.3954  0.1092
  568TIP3   OH223262   4.542   2.021   7.577  0.0434 -0.4421 -0.8732
  568TIP3    H123263   4.580   2.108   7.562 -0.8948  0.4197  1.3383
  568TIP3    H223264   4.476   2.035   7.645 -0.6089 -2.7857 -0.9452
  569TIP3   OH223265   3.819   3.817   6.548  0.0369 -0.4985  0.1580
  569TIP3    H123266   3.787   3.772   6.626  1.5686  0.4304  1.3899
  569TIP3    H223267   3.745   3.815   6.488 -1.2107 -1.2459  1.6223
  570TIP3   OH223268   4.813   2.803   8.547  0.3615  0.2971  0.4345
  570TIP3    H123269   4.868   2.756   8.609 -0.1851  0.3200  0.9501
  570TIP3    H223270   4.874   2.844   8.486  0.8648 -0.9691  0.0473
  571TIP3   OH223271   3.453   5.674   0.630  0.2894 -0.2630  0.0553
  571TIP3    H123272   3.481   5.742   0.692  0.8687 -1.3375  1.0055
  571TIP3    H223273   3.512   5.601   0.646  1.4825 -0.0558 -2.8792
  572TIP3   OH223274   6.513   5.560   7.609  0.1213  0.7744 -0.2840
  572TIP3    H123275   6.492   5.497   7.541  1.4736 -1.1364  0.9540
  572TIP3    H223276   6.548   5.635   7.562  1.3249 -0.6034 -1.7078
  573TIP3   OH223277   1.804   2.334   0.125  0.4095 -0.4376 -0.2255
  573TIP3    H123278   1.779   2.250   0.085  0.2553  0.0525 -1.1765
  573TIP3    H223279   1.778   2.324   0.217 -3.4588  0.0132 -1.0753
  574TIP3   OH223280   3.438   0.958   0.875 -0.3841 -0.3049 -0.0243
  574TIP3    H123281   3.415   1.029   0.935  0.2762  0.7527 -0.9775
  574TIP3    H223282   3.418   0.878   0.923 -1.7149  0.5230  0.8596
  575TIP3   OH223283   0.799   1.950   1.260  0.0451 -0.0589 -0.6177
  575TIP3    H123284   0.725   1.983   1.209 -0.1770  0.4599  0.0387
  575TIP3    H223285   0.833   1.877   1.207 -1.6436 -1.0757 -0.3812
  576TIP3   OH223286   4.507   2.228   1.727  0.0469  0.1899 -0.5509
  576TIP3    H123287   4.482   2.135   1.724  0.0004 -0.1087  3.3040
  576TIP3    H223288   4.602   2.226   1.741 -0.1844  0.5163  1.4802
  577TIP3   OH223289   5.714   2.928   8.377  0.2320  0.2369  0.1677
  577TIP3    H123290   5.732   3.022   8.376  1.2343  0.1171  1.9154
  577TIP3    H223291   5.640   2.916   8.318 -0.8669  2.3309  1.0336
  578TIP3   OH223292   3.156   1.236   8.442  0.4663 -0.0836 -0.0675
  578TIP3    H123293   3.247   1.245   8.414  0.5865  0.5849  0.4965
  578TIP3    H223294   3.108   1.214   8.362  0.9978  0.4296 -0.5354
  579TIP3   OH223295   4.849   0.510   0.568 -0.5627  0.1664 -0.3669
  579TIP3    H123296   4.778   0.449   0.548 -0.5882  0.1855 -0.3335
  579TIP3    H223297   4.917   0.489   0.503  0.5537 -1.7582  1.2760
  580TIP3   OH223298   1.482   2.589   8.340 -0.6104 -0.3677 -0.3281
  580TIP3    H123299   1.519   2.594   8.253 -0.2422 -1.3617 -0.2371
  580TIP3    H223300   1.556   2.569   8.397 -1.3490 -3.3433 -0.2697
  581TIP3   OH223301   5.805   4.799   1.212 -0.3819  0.0576  0.2110
  581TIP3    H123302   5.888   4.817   1.257  0.1963 -0.2684 -0.6912
  581TIP3    H223303   5.771   4.885   1.189  0.5336  0.1721 -0.8356
  582TIP3   OH223304   1.028   1.931   7.336  0.3351  0.5494  0.0684
  582TIP3    H123305   1.070   1.897   7.415  2.7256  0.8689 -0.9647
  582TIP3    H223306   0.954   1.982   7.368 -0.2416 -1.2908  1.9242
  583TIP3   OH223307   3.498   1.666   1.243 -0.1751  0.1094 -0.3676
  583TIP3    H123308   3.467   1.596   1.300 -0.0613 -0.3274 -0.8355
  583TIP3    H223309   3.497   1.628   1.155  1.1959  0.2423 -0.4652
  584TIP3   OH223310   3.315   1.152   7.477 -0.7252 -0.5706 -0.9025
  584TIP3    H123311   3.381   1.113   7.421 -0.4082 -2.5818  0.7704
  584TIP3    H223312   3.267   1.078   7.514 -0.9219  0.6247  1.4569
  585TIP3   OH223313   2.340   5.671   8.408 -0.7218  0.3889 -0.3792
  585TIP3    H123314   2.333   5.627   8.493 -0.0747  1.0585  0.0356
  585TIP3    H223315   2.270   5.633   8.356 -0.8014 -0.4180  0.2833
  586TIP3   OH223316   5.754   1.902   1.492  0.3662 -0.0900 -0.6466
  586TIP3    H123317   5.797   1.931   1.573 -0.2204  0.7121 -0.6116
  586TIP3    H223318   5.687   1.840   1.521 -1.7509  2.2595 -0.1744
  587TIP3   OH223319   6.504   1.774   2.024  0.1101  0.6924 -0.8203
  587TIP3    H123320   6.439   1.834   2.059 -0.9560 -0.5252 -0.6602
  587TIP3    H223321   6.500   1.698   2.082  0.9020  0.1438 -1.4628
  588TIP3   OH223322   4.795   3.265   6.964 -0.4273 -0.8240 -0.0646
  588TIP3    H123323   4.730   3.201   6.937  0.6925 -1.5592 -1.1456
  588TIP3    H223324   4.773   3.344   6.914  0.5699 -1.6359 -1.8715
  589TIP3   OH223325   6.465   1.960   7.928 -0.4762 -0.0558  0.8988
  589TIP3    H123326   6.553   1.992   7.945 -0.1314 -0.6721  0.3120
  589TIP3    H223327   6.435   2.009   7.852 -0.5337 -0.0322  0.9370
  590TIP3   OH223328   4.512   6.768   7.224 -0.3364  0.1371  0.1242
  590TIP3    H123329   4.563   6.725   7.292 -0.7554 -0.1990  0.2294
  590TIP3    H223330   4.429   6.789   7.265  0.3752  2.4420  0.5358
  591TIP3   OH223331   1.661   5.761   1.825 -0.0528  0.0685 -0.1582
  591TIP3    H123332   1.686   5.849   1.855  0.6303 -0.7411  1.8616
  591TIP3    H223333   1.735   5.733   1.771  0.1461  0.3760 -0.0508
  592TIP3   OH223334   3.142   4.400   2.098  0.2378 -0.2554  0.3147
  592TIP3    H123335   3.234   4.425   2.100  0.5954 -1.4825  0.3601
  592TIP3    H223336   3.116   4.392   2.189  0.0798  0.1083  0.3020
  593TIP3   OH223337   0.867   2.670   1.474 -0.3639  0.4271 -0.3405
  593TIP3    H123338   0.808   2.651   1.547  0.1192  0.2382  0.0022
  593TIP3    H223339   0.823   2.740   1.425 -0.2434  1.2271  0.6741
  594TIP3   OH223340   3.830   4.981   2.266 -0.4523 -0.5446 -0.5672
  594TIP3    H123341   3.878   5.032   2.331 -0.4774  0.0800 -1.0206
  594TIP3    H223342   3.871   4.895   2.266 -1.0456 -0.8491  0.9236
  595TIP3   OH223343   4.647   0.961   0.281  0.4307 -0.3900 -0.4183
  595TIP3    H123344   4.617   0.915   0.359  0.2450  0.0501 -0.2262
  595TIP3    H223345   4.733   0.995   0.305  0.1677  0.1546 -0.2375
  596TIP3   OH223346   4.288   5.925   1.235  0.4605 -0.6278  0.1052
  596TIP3    H123347   4.333   6.004   1.204  2.0355 -1.6074 -0.2266
  596TIP3    H223348   4.320   5.913   1.325  0.8185 -1.2736 -0.0972
  597TIP3   OH223349   0.601   5.040   1.635  0.0587  0.2711  0.6993
  597TIP3    H123350   0.606   4.965   1.575  1.2095  0.3341  0.6914
  597TIP3    H223351   0.509   5.042   1.663 -0.2909 -0.3240 -0.3384
  598TIP3   OH223352   3.114   5.277   2.434  0.0777  0.0314 -0.0443
  598TIP3    H123353   3.035   5.276   2.487  0.8497  0.8883  1.1939
  598TIP3    H223354   3.175   5.332   2.484  1.0486  0.3626 -1.5347
  599TIP3   OH223355   5.794   3.859   2.292  0.3248  0.5070  0.2009
  599TIP3    H123356   5.822   3.768   2.298 -1.2038  0.0130  0.2132
  599TIP3    H223357   5.853   3.898   2.227  2.2384  0.0419  1.5726
  600TIP3   OH223358   2.725   6.706   8.506  0.9925 -0.6613 -0.7165
  600TIP3    H123359   2.671   6.780   8.534  1.2683 -0.7104 -0.0169
  600TIP3    H223360   2.717   6.704   8.411  0.3066 -0.2531 -0.6718
  601TIP3   OH223361   3.974   3.175   1.031  0.2503  0.8219 -0.6948
  601TIP3    H123362   4.023   3.249   1.067  1.8920 -0.2701 -0.6206
  601TIP3    H223363   3.986   3.104   1.094  1.2128 -0.4130 -2.1947
  602TIP3   OH223364   5.926   6.064   8.079  0.0625 -0.0694 -0.3926
  602TIP3    H123365   5.941   5.976   8.044 -1.9589 -0.2543 -0.8973
  602TIP3    H223366   5.959   6.060   8.169  2.0941 -0.6208 -1.1022
  603TIP3   OH223367   5.191   4.565   2.101  0.0930 -0.1797  0.0887
  603TIP3    H123368   5.209   4.535   2.191  1.8466  1.9744  0.5451
  603TIP3    H223369   5.277   4.565   2.059 -0.6046 -0.4556 -1.3909
  604TIP3   OH223370   4.348   1.985   1.128  0.1227  0.4612  0.3077
  604TIP3    H123371   4.390   1.913   1.175 -0.4454  1.0166  1.7406
  604TIP3    H223372   4.395   1.991   1.045  1.7721  0.0065  1.1727
  605TIP3   OH223373   5.249   4.785   1.782 -0.4893  0.2126 -0.8650
  605TIP3    H123374   5.274   4.766   1.692 -2.5990 -0.5895 -1.3212
  605TIP3    H223375   5.169   4.734   1.797  1.1164 -1.7651  2.2682
  606TIP3   OH223376   2.822   0.138   8.344  0.2753  0.3493  0.1406
  606TIP3    H123377   2.913   0.133   8.372 -0.2411 -0.8098  1.7028
  606TIP3    H223378   2.772   0.098   8.414 -1.1760 -2.2599 -2.1681
  607TIP3   OH223379   0.611   0.475   7.766 -0.2588  0.7067 -0.2194
  607TIP3    H123380   0.538   0.416   7.744  0.6541 -0.7431  0.4600
  607TIP3    H223381   0.589   0.510   7.852 -0.1253  0.2181  0.0148
  608TIP3   OH223382   5.718   6.690   7.780 -0.4802 -0.0727 -0.0911
  608TIP3    H123383   5.644   6.741   7.747 -0.8947 -1.0364 -0.6759
  608TIP3    H223384   5.727   6.618   7.719  2.2145  1.0601 -1.1831
  609TIP3   OH223385   2.187   3.580   2.754 -0.2043  0.2479  0.6211
  609TIP3    H123386   2.135   3.659   2.741  0.3572  0.5458  0.1175
  609TIP3    H223387   2.274   3.612   2.777  0.2053 -0.2044 -0.2619
  610TIP3   OH223388   3.308   4.597   1.542  0.5884  0.2656 -0.1841
  610TIP3    H123389   3.274   4.515   1.576  1.2198  0.5867  1.3144
  610TIP3    H223390   3.322   4.581   1.449  0.7303 -1.3250  0.0874
  611TIP3   OH223391   1.922   0.081   7.888 -0.0129  0.5369  0.1090
  611TIP3    H123392   1.945   0.005   7.834 -1.6822 -0.9040  1.3279
  611TIP3    H223393   1.859   0.130   7.834 -0.7485 -0.2425  0.2396
  612TIP3   OH223394   4.410   1.227   0.914 -0.0755 -0.3512 -0.0400
  612TIP3    H123395   4.343   1.234   0.982  1.0810 -0.8981  1.1969
  612TIP3    H223396   4.369   1.265   0.836 -1.6718 -0.3168  0.7764
  613TIP3   OH223397   3.095   4.942   0.442  0.3083  0.5278 -0.6384
  613TIP3    H123398   3.144   5.020   0.414 -0.4210  0.4636 -2.2290
  613TIP3    H223399   3.161   4.873   0.447  1.0551  1.3098  1.2728
  614TIP3   OH223400   1.574   5.755   7.370  0.3421 -0.0061 -0.4766
  614TIP3    H123401   1.598   5.841   7.337 -0.9338  0.2387 -0.7917
  614TIP3    H223402   1.598   5.695   7.300  0.8139  0.1355 -0.4398
  615TIP3   OH223403   0.590   6.327   8.220  0.5199 -0.5422  0.0087
  615TIP3    H123404   0.602   6.237   8.191  2.8432 -0.6236  0.9278
  615TIP3    H223405   0.642   6.379   8.158 -1.0215  0.2307 -0.6808
  616TIP3   OH223406   6.313   1.506   0.252 -0.3302 -0.7268 -0.0488
  616TIP3    H123407   6.408   1.497   0.261 -0.5079 -1.9034  0.8576
  616TIP3    H223408   6.288   1.442   0.185 -0.3660  0.4059 -1.1589
  617TIP3   OH223409   3.626   3.271   0.834 -0.2400  0.1057  0.1637
  617TIP3    H123410   3.664   3.359   0.843 -1.5514  0.5678  1.3331
  617TIP3    H223411   3.619   3.238   0.923 -0.8087 -0.7512 -0.1868
  618TIP3   OH223412   3.518   0.988   1.496 -0.4993  0.3565  0.4489
  618TIP3    H123413   3.582   0.944   1.553 -0.8413  0.9403  1.3073
  618TIP3    H223414   3.551   0.973   1.407  0.1569 -0.4065  0.8030
  619TIP3   OH223415   4.657   4.899   2.582 -0.2697 -0.1064  0.0806
  619TIP3    H123416   4.597   4.874   2.652  0.2739  2.0023  1.3930
  619TIP3    H223417   4.743   4.870   2.611  0.0532  1.3223  0.6504
  620TIP3   OH223418   1.566   2.337   7.287 -0.1482 -0.3605 -0.0094
  620TIP3    H123419   1.562   2.294   7.202  1.6359 -3.5238  1.3395
  620TIP3    H223420   1.649   2.307   7.325 -0.4837  1.6161  2.5173
  621TIP3   OH223421   0.403   2.113   0.078 -0.1501 -0.5966 -0.2043
  621TIP3    H123422   0.370   2.194   0.116  1.1495  0.6924 -1.7085
  621TIP3    H223423   0.416   2.055   0.153  1.9051  1.6875  1.3390
  622TIP3   OH223424   6.552   4.505   7.728 -0.1020  0.2562 -0.2823
  622TIP3    H123425   6.505   4.565   7.670 -0.8000  1.1805  1.2034
  622TIP3    H223426   6.583   4.435   7.669 -0.3475  1.4009 -1.8380
  623TIP3   OH223427   5.189   4.810   7.771 -0.5672 -0.1965  0.3320
  623TIP3    H123428   5.104   4.770   7.789 -0.4894 -0.3882  0.2692
  623TIP3    H223429   5.197   4.810   7.676 -1.0564  0.9796  0.2736
  624TIP3   OH223430   6.584   3.841   2.067 -1.0405 -0.0088  0.7704
  624TIP3    H123431   6.610   3.759   2.026  0.4768  0.4865  0.6765
  624TIP3    H223432   6.591   3.824   2.161  0.7416  0.4222  0.7438
  625TIP3   OH223433   0.598   4.477   7.259 -0.1313  0.1947 -0.3312
  625TIP3    H123434   0.515   4.473   7.213 -1.6644  0.8523  2.1794
  625TIP3    H223435   0.588   4.548   7.322  3.5037  2.4344 -1.9380
  626TIP3   OH223436   0.828   1.829   6.971 -1.0272  0.1259 -0.1785
  626TIP3    H123437   0.922   1.822   6.956 -0.7355  1.0453  1.0664
  626TIP3    H223438   0.794   1.870   6.891  0.0622  2.3893  0.4411
  627TIP3   OH223439   4.131   3.848   1.094  0.6116 -0.2219 -0.6759
  627TIP3    H123440   4.082   3.768   1.106  0.3661 -0.4554 -2.9258
  627TIP3    H223441   4.100   3.884   1.011  3.3545  0.2203 -1.6313
  628TIP3   OH223442   6.131   0.177   2.320 -0.0441  0.2437 -0.3880
  628TIP3    H123443   6.201   0.128   2.365  1.4244  1.9182 -0.7040
  628TIP3    H223444   6.053   0.122   2.329  1.5743 -2.3474 -1.1563
  629TIP3   OH223445   0.562   3.758   8.001 -0.0123 -0.2237  0.0443
  629TIP3    H123446   0.592   3.764   8.092  0.2206 -1.7654  0.0937
  629TIP3    H223447   0.635   3.719   7.954 -0.6040 -0.6628 -0.5363
  630TIP3   OH223448   6.564   1.493   0.613  0.1172 -0.0134  0.6051
  630TIP3    H123449   6.601   1.579   0.631 -1.0410  1.2976 -2.5296
  630TIP3    H223450   6.474   1.498   0.647  0.2434 -0.2501  0.9859
  631TIP3   OH223451   5.199   4.745   1.075  0.1621  0.0484  0.3072
  631TIP3    H123452   5.143   4.690   1.131 -0.2642  1.5009  1.3593
  631TIP3    H223453   5.178   4.717   0.986  2.4979 -3.9539  0.7731
  632TIP3   OH223454   2.673   3.049   8.485  0.1843 -0.0638 -0.7531
  632TIP3    H123455   2.736   3.004   8.429 -0.2608 -0.8280 -0.6573
  632TIP3    H223456   2.594   3.056   8.432 -1.0880 -3.0193  0.5040
  633TIP3   OH223457   2.225   0.785   0.884 -0.0221  0.3511 -0.0299
  633TIP3    H123458   2.286   0.801   0.956  0.8247  0.3300 -0.7161
  633TIP3    H223459   2.221   0.868   0.837  1.1919 -0.2329 -1.2360
  634TIP3   OH223460   2.211   4.946   0.130 -0.1070  0.2040  0.5713
  634TIP3    H123461   2.256   4.955   0.214 -0.4650  0.1302  0.7764
  634TIP3    H223462   2.277   4.965   0.064  0.2038  0.1578  0.8701
  635TIP3   OH223463   1.559   4.987   1.589  0.2908 -0.1011 -0.3553
  635TIP3    H123464   1.610   5.046   1.534 -0.3230  0.6834 -0.0935
  635TIP3    H223465   1.616   4.910   1.601  1.1361  0.4707 -0.6131
  636TIP3   OH223466   4.089   4.009   0.857  0.2247  0.4892 -0.0103
  636TIP3    H123467   4.124   4.078   0.801  3.3809  1.6804  3.0254
  636TIP3    H223468   4.022   4.052   0.909 -0.1326  0.3707 -0.3720
  637TIP3   OH223469   2.862   6.593   1.034  0.3845  0.1352  0.0458
  637TIP3    H123470   2.792   6.616   0.973 -1.8617 -0.9847  2.0564
  637TIP3    H223471   2.921   6.537   0.982 -0.7696  0.2234 -1.4235
  638TIP3   OH223472   2.981   0.963   0.724  0.6910  0.0601 -0.4297
  638TIP3    H123473   2.999   0.991   0.813  0.2942 -0.9508 -0.0058
  638TIP3    H223474   2.928   1.033   0.686 -2.1104 -0.9376  1.2846
  639TIP3   OH223475   6.599   5.054   6.914 -0.1254 -0.2771 -0.3338
  639TIP3    H123476   6.566   5.141   6.893  0.2403 -0.1318 -0.3179
  639TIP3    H223477   6.691   5.068   6.939 -0.3902 -0.5053  0.8345
  640TIP3   OH223478   2.144   0.380   7.819 -0.0221  0.3077  0.7353
  640TIP3    H123479   2.188   0.405   7.738  0.0482  0.9727  0.9749
  640TIP3    H223480   2.109   0.293   7.801  0.2179  0.3401  0.0818
  641TIP3   OH223481   2.000   1.643   7.085 -0.4933 -0.3408 -0.0151
  641TIP3    H123482   1.933   1.696   7.130 -0.3760 -1.6677  1.8500
  641TIP3    H223483   1.969   1.637   6.995 -0.7452  2.4526 -0.2209
  642TIP3   OH223484   2.685   0.736   1.705 -0.0347 -0.1396 -0.1070
  642TIP3    H123485   2.739   0.680   1.650 -2.0160 -1.8855 -0.3915
  642TIP3    H223486   2.637   0.792   1.644 -2.0922 -1.9485 -0.2638
  643TIP3   OH223487   3.225   5.171   7.205  0.4486 -0.5210 -0.1978
  643TIP3    H123488   3.320   5.171   7.214  0.4676 -0.0809 -0.3576
  643TIP3    H223489   3.196   5.091   7.248  0.6788  0.4790  1.9447
  644TIP3   OH223490   0.657   6.057   8.128  0.2770  0.3327 -0.1111
  644TIP3    H123491   0.619   6.005   8.057  1.1548 -0.0967 -0.2955
  644TIP3    H223492   0.603   6.038   8.204  1.5384 -2.2840  0.2770
  645TIP3   OH223493   1.918   0.160   8.526  0.0343  0.2261  0.1730
  645TIP3    H123494   1.922   0.251   8.497  1.6552  0.2745  0.4398
  645TIP3    H223495   1.999   0.121   8.493  0.0179 -0.7538  1.2406
  646TIP3   OH223496   1.360   2.708   8.010  0.8653 -0.2972  0.5384
  646TIP3    H123497   1.437   2.654   8.025 -0.4745 -2.2949  0.5853
  646TIP3    H223498   1.331   2.735   8.097  0.8505 -0.5132  0.6000
  647TIP3   OH223499   0.231   3.004   7.564 -0.3421  0.0038 -0.0962
  647TIP3    H123500   0.263   3.077   7.512 -0.0831  0.4394  0.6516
  647TIP3    H223501   0.237   2.928   7.506  3.5927 -0.2811  0.3809
  648TIP3   OH223502   5.507   2.710   1.160  0.3280  0.7599  0.3337
  648TIP3    H123503   5.559   2.663   1.094  0.1329  1.8574 -0.6371
  648TIP3    H223504   5.474   2.787   1.114 -0.6794  1.0217  1.4413
  649TIP3   OH223505   0.422   1.011   1.001 -0.0936  0.6575 -0.0968
  649TIP3    H123506   0.394   1.099   1.027 -0.0823  0.1215  1.9370
  649TIP3    H223507   0.374   0.952   1.059  0.7058 -0.6263 -0.6797
  650TIP3   OH223508   4.013   0.489   0.305  0.1004 -0.5643 -0.4979
  650TIP3    H123509   3.963   0.422   0.258 -0.2379  0.7228 -2.0886
  650TIP3    H223510   4.063   0.533   0.236 -0.6744  1.6485  0.2668
  651TIP3   OH223511   5.726   4.088   7.348 -0.1004  0.0293  0.2424
  651TIP3    H123512   5.761   4.012   7.395  1.5019  0.5289 -0.0886
  651TIP3    H223513   5.744   4.163   7.405 -2.3435  0.1346  0.9119
  652TIP3   OH223514   0.991   1.770   7.601  0.9223 -0.6395  0.1948
  652TIP3    H123515   1.034   1.832   7.660  0.0375 -0.3123  0.4987
  652TIP3    H223516   1.047   1.692   7.603  1.3200 -0.3411  0.8405
  653TIP3   OH223517   5.133   6.821   6.558  0.5925 -0.0389 -0.4002
  653TIP3    H123518   5.039   6.808   6.544  0.5407  0.7368 -0.8129
  653TIP3    H223519   5.175   6.770   6.489  0.4578  0.0730 -0.5648
  654TIP3   OH223520   5.856   1.621   1.526 -0.1418 -0.7058 -0.4821
  654TIP3    H123521   5.869   1.641   1.619 -0.2240 -0.2787 -0.5615
  654TIP3    H223522   5.942   1.633   1.486 -0.8696  3.2657 -1.2229
  655TIP3   OH223523   5.788   3.233   1.766  0.7850 -0.0009  0.1081
  655TIP3    H123524   5.822   3.320   1.788 -0.1488  0.6381 -0.8940
  655TIP3    H223525   5.803   3.225   1.672  1.9988 -1.4595  0.3791
  656TIP3   OH223526   2.817   2.813   0.338 -0.1776  0.0744 -0.1197
  656TIP3    H123527   2.725   2.794   0.317 -0.2145  0.6051 -0.4610
  656TIP3    H223528   2.835   2.763   0.417 -0.8648  0.2372  0.1425
  657TIP3   OH223529   6.255   3.652   0.206  0.2963 -0.7360  0.7092
  657TIP3    H123530   6.317   3.713   0.166 -1.1568 -0.4246 -1.1993
  657TIP3    H223531   6.194   3.709   0.253 -0.5295 -0.7422 -0.3169
  658TIP3   OH223532   4.060   1.123   7.136  0.6346  0.0948 -0.0189
  658TIP3    H123533   4.113   1.201   7.151  0.1256  0.3247  0.6804
  658TIP3    H223534   4.006   1.145   7.060  0.2199  0.5830  0.4081
  659TIP3   OH223535   6.267   3.193   0.203 -0.5481 -0.1127 -0.2417
  659TIP3    H123536   6.311   3.110   0.189 -0.3390 -0.1303  0.4806
  659TIP3    H223537   6.214   3.180   0.281 -0.3634  0.4862 -0.0067
  660TIP3   OH223538   5.209   5.340   1.425 -0.3662 -0.1376 -0.4604
  660TIP3    H123539   5.192   5.416   1.370 -0.0952 -0.0792 -0.4683
  660TIP3    H223540   5.269   5.373   1.493 -0.9890 -0.1205  0.0838
  661TIP3   OH223541   5.012   0.344   8.266  0.2821 -0.1663  0.2784
  661TIP3    H123542   5.028   0.432   8.235  3.3544 -0.6685  0.1864
  661TIP3    H223543   4.962   0.355   8.347 -0.9340  1.5153 -0.6629
  662TIP3   OH223544   2.954   0.019   0.739  0.1085  0.1523  0.2026
  662TIP3    H123545   2.938  -0.013   0.828 -1.8758  2.3360  0.7420
  662TIP3    H223546   2.870   0.009   0.695  0.7408  0.2061 -1.0602
  663TIP3   OH223547   6.584   3.559   0.257 -0.3223  0.6035  0.5284
  663TIP3    H123548   6.542   3.614   0.324  0.6713  0.3294  1.3853
  663TIP3    H223549   6.514   3.502   0.227 -0.6742  0.3967  1.6828
  664TIP3   OH223550   4.362   4.635   8.125 -0.4646  0.0721  0.0644
  664TIP3    H123551   4.456   4.629   8.140 -0.3134  1.2919 -0.2709
  664TIP3    H223552   4.324   4.643   8.213 -0.4154 -1.9095  0.3057
  665TIP3   OH223553   0.403   6.655   1.529 -0.2962 -0.0294 -0.1081
  665TIP3    H123554   0.427   6.601   1.454 -2.9325  0.4024 -1.3738
  665TIP3    H223555   0.454   6.735   1.519 -1.6077  0.6209 -2.3377
  666TIP3   OH223556   5.587   6.715   1.304  0.5313 -0.1301 -0.5854
  666TIP3    H123557   5.499   6.681   1.322  0.4109  0.8039  0.7625
  666TIP3    H223558   5.571   6.799   1.261  0.7096  0.5328  0.5889
  667TIP3   OH223559   0.309   5.724   1.681  0.1036 -0.2412  0.0644
  667TIP3    H123560   0.240   5.749   1.619  0.5820 -0.8957 -0.7532
  667TIP3    H223561   0.273   5.745   1.767 -1.5171 -1.4694 -0.2739
  668TIP3   OH223562   4.323   1.402   0.706 -0.3289 -1.0345 -0.1344
  668TIP3    H123563   4.320   1.468   0.775 -0.8160  0.3601 -1.4501
  668TIP3    H223564   4.416   1.385   0.694 -0.2042 -0.6901  0.3150
  669TIP3   OH223565   4.566   4.094   6.790  0.5962  0.1132 -0.4182
  669TIP3    H123566   4.530   4.100   6.878  0.4948 -2.1847 -0.2318
  669TIP3    H223567   4.660   4.083   6.802  0.4466 -1.5911 -0.4486
  670TIP3   OH223568   1.113   3.856   1.822 -0.0675  0.4498  0.0206
  670TIP3    H123569   1.183   3.900   1.772 -2.0538  1.2305 -2.2363
  670TIP3    H223570   1.158   3.821   1.899  2.3605  3.1166  0.0041
  671TIP3   OH223571   5.961   0.774   1.282 -0.1872 -0.7291  0.5367
  671TIP3    H123572   5.895   0.835   1.315 -0.0972 -0.8051  0.8588
  671TIP3    H223573   6.025   0.830   1.238  0.0656 -0.5515  1.1126
  672TIP3   OH223574   1.404   4.363   6.233  0.2349 -0.1828  0.0814
  672TIP3    H123575   1.440   4.274   6.241  0.2327 -0.1531  0.4533
  672TIP3    H223576   1.458   4.415   6.292  1.3665  0.4146 -1.4160
  673TIP3   OH223577   6.782   1.566   1.797 -0.1935  0.0466  0.0889
  673TIP3    H123578   6.824   1.568   1.711 -1.5380 -0.6587 -0.5952
  673TIP3    H223579   6.791   1.656   1.829  0.8488  0.1751 -0.5057
  674TIP3   OH223580   3.563   3.012   0.443 -0.1854 -0.1978 -0.0108
  674TIP3    H123581   3.626   3.024   0.513 -0.7536 -0.3632  0.5320
  674TIP3    H223582   3.585   3.080   0.379 -0.5842  0.8966  0.9946
  675TIP3   OH223583   0.995   2.824   1.638 -0.0453 -0.0948  0.1512
  675TIP3    H123584   0.961   2.762   1.574  0.6952 -0.3049 -0.0567
  675TIP3    H223585   1.025   2.769   1.710  0.9869 -0.0259 -0.2089
  676TIP3   OH223586   0.973   1.686   6.719 -1.0464 -0.0945  0.3803
  676TIP3    H123587   1.039   1.691   6.651 -0.7577  1.2874  0.7175
  676TIP3    H223588   0.975   1.773   6.761 -2.6624 -0.2079  0.7759
  677TIP3   OH223589   4.176   3.067   1.788  0.1223 -0.0501 -0.0714
  677TIP3    H123590   4.121   3.130   1.834  0.4231  0.5710 -0.5270
  677TIP3    H223591   4.145   2.981   1.816 -0.1418  0.3069  0.7479
  678TIP3   OH223592   0.604   1.554   1.495 -0.1173  0.0192  0.1407
  678TIP3    H123593   0.673   1.536   1.432 -0.3129 -0.9993  0.1983
  678TIP3    H223594   0.533   1.495   1.470 -0.1801 -0.4470  1.3379
  679TIP3   OH223595   3.761   3.498   0.960 -0.8814  0.7068  0.0587
  679TIP3    H123596   3.704   3.567   0.994 -0.9841 -0.1709  1.7733
  679TIP3    H223597   3.772   3.438   1.034  1.1413  0.1297 -0.6565
  680TIP3   OH223598   4.649   0.445   0.012  0.1617 -0.0257  0.1566
  680TIP3    H123599   4.742   0.440  -0.010  0.4400  0.0385  1.2343
  680TIP3    H223600   4.638   0.379   0.081 -1.1779 -1.9661 -1.7643
  681TIP3   OH223601   1.005   6.141   0.999  0.6523 -0.4184  0.4111
  681TIP3    H123602   0.968   6.217   1.045  1.2147  0.1151 -0.0061
  681TIP3    H223603   0.958   6.066   1.036 -0.3865  0.1801  0.3708
  682TIP3   OH223604   3.648   6.535   8.480  0.1735 -0.0870  0.3721
  682TIP3    H123605   3.622   6.566   8.393  1.8579  1.2936  0.3280
  682TIP3    H223606   3.592   6.458   8.495  2.1615 -2.5668 -3.4322
  683TIP3   OH223607   3.967   6.037   1.377  0.5782  0.4960 -0.4581
  683TIP3    H123608   4.057   6.015   1.403  1.0169  0.6144 -1.7776
  683TIP3    H223609   3.912   5.983   1.433  1.5333 -0.8627 -0.7581
  684TIP3   OH223610   1.990   0.773   0.747 -0.5043  0.3411  0.2384
  684TIP3    H123611   1.970   0.776   0.653 -0.0936 -0.3452  0.1168
  684TIP3    H223612   2.084   0.756   0.750 -0.3187  1.4129  0.7836
  685TIP3   OH223613   3.621   5.993   7.375 -0.7362 -0.3707 -0.0143
  685TIP3    H123614   3.667   6.041   7.444 -0.8846 -1.2097  0.6770
  685TIP3    H223615   3.675   6.006   7.297 -1.5795  2.2439 -0.2582
  686TIP3   OH223616   5.102   0.300   1.800 -0.3264  0.0427  0.1182
  686TIP3    H123617   5.125   0.356   1.875 -0.3277  0.5577 -0.2585
  686TIP3    H223618   5.010   0.319   1.783 -0.6545 -0.9455  0.7157
  687TIP3   OH223619   6.260   4.526   1.964  0.1760 -0.2321  0.1053
  687TIP3    H123620   6.241   4.539   2.057 -1.1017  1.8665 -0.3708
  687TIP3    H223621   6.275   4.615   1.931  0.8859 -0.9684 -1.6532
  688TIP3   OH223622   3.205   5.180   0.108  0.2532  0.1640 -0.0816
  688TIP3    H123623   3.268   5.248   0.087 -2.4699  2.2946 -2.2083
  688TIP3    H223624   3.175   5.201   0.197  2.4235 -0.9149  0.9756
  689TIP3   OH223625   2.633   5.541   2.061  0.1823 -0.6343  0.1172
  689TIP3    H123626   2.722   5.507   2.051  0.3051 -1.0134  2.0709
  689TIP3    H223627   2.620   5.547   2.155 -1.6938 -0.0948 -0.1290
  690TIP3   OH223628   4.245   6.230   7.174  0.7943  0.3614 -0.2675
  690TIP3    H123629   4.192   6.249   7.097 -1.3768  1.0231  1.2643
  690TIP3    H223630   4.319   6.290   7.168  0.3538  0.8022 -1.5410
  691TIP3   OH223631   3.276   0.811   7.185 -0.3467  0.0077  0.1273
  691TIP3    H123632   3.210   0.744   7.199 -0.4621  0.4058  1.6480
  691TIP3    H223633   3.320   0.785   7.104 -1.7609 -0.7405 -0.4338
  692TIP3   OH223634   4.159   0.163   7.213  0.0724  0.3967 -0.1832
  692TIP3    H123635   4.214   0.160   7.134 -0.4533 -0.7586 -0.5229
  692TIP3    H223636   4.070   0.172   7.180 -0.4672 -2.8987  0.0785
  693TIP3   OH223637   1.273   5.269   7.225  0.6859  0.0358 -0.0329
  693TIP3    H123638   1.241   5.244   7.139  0.0253  0.0862  0.1907
  693TIP3    H223639   1.204   5.325   7.261  0.8518 -0.1719  0.6224
  694TIP3   OH223640   2.810   3.046   0.196 -0.7686 -0.2481  0.1803
  694TIP3    H123641   2.740   3.057   0.260  0.4593 -0.1075  1.5678
  694TIP3    H223642   2.849   2.961   0.216  0.6471  0.4867  0.7053
  695TIP3   OH223643   1.943   4.799   7.397 -0.1310 -0.1508 -0.2266
  695TIP3    H123644   1.920   4.884   7.360  5.0624  0.6850 -2.4216
  695TIP3    H223645   1.959   4.817   7.489 -0.9642  0.7678 -0.2421
  696TIP3   OH223646   0.549   6.822   0.972  0.3500  0.4393  0.0616
  696TIP3    H123647   0.632   6.830   0.926  0.4192  1.2056  0.2992
  696TIP3    H223648   0.533   6.728   0.977  0.6393  0.3266 -0.9740
  697TIP3   OH223649   3.044   3.674   2.637  0.6360 -0.3328 -0.0048
  697TIP3    H123650   2.956   3.676   2.675 -0.3562 -2.2339 -1.9894
  697TIP3    H223651   3.076   3.586   2.654  1.8875  0.1086  0.0436
  698TIP3   OH223652   1.363   4.342   7.197 -0.2883 -0.2191 -0.1997
  698TIP3    H123653   1.387   4.429   7.165 -0.7380 -0.0299 -0.0365
  698TIP3    H223654   1.314   4.360   7.277  1.8712 -0.7097  1.3299
  699TIP3   OH223655   1.903   3.994   2.011  0.2644 -0.1902 -0.1101
  699TIP3    H123656   1.982   3.958   1.970 -0.6086 -0.9266 -1.2095
  699TIP3    H223657   1.846   4.016   1.938  0.1071  1.9942  0.6076
  700TIP3   OH223658   5.229   2.300   7.760  0.1185 -0.1696  0.2334
  700TIP3    H123659   5.240   2.325   7.851 -0.1921  0.2076  0.1708
  700TIP3    H223660   5.290   2.356   7.712  0.2735 -0.3599  0.2047
  701TIP3   OH223661   5.681   6.211   8.134  0.2974  0.8041  0.1810
  701TIP3    H123662   5.767   6.180   8.107 -0.5887 -1.0834 -0.5994
  701TIP3    H223663   5.656   6.274   8.066  0.1448 -0.2955 -0.8043
  702TIP3   OH223664   3.765   4.644   8.305 -0.0998  0.5451  0.0234
  702TIP3    H123665   3.787   4.683   8.220 -1.7405  0.9984 -0.2234
  702TIP3    H223666   3.692   4.696   8.337 -0.5679 -0.6511  0.9597
  703TIP3   OH223667   3.400   6.311   1.764  0.1126 -0.2516  1.1307
  703TIP3    H123668   3.432   6.237   1.710  0.9582  1.4366 -0.8292
  703TIP3    H223669   3.337   6.355   1.708  2.5015  2.7628  0.5678
  704TIP3   OH223670   0.233   1.177   1.797 -0.2228 -0.6326 -0.2259
  704TIP3    H123671   0.322   1.152   1.772  0.0848 -1.6662  1.6801
  704TIP3    H223672   0.222   1.265   1.760  0.8187 -1.2619 -2.2018
  705TIP3   OH223673   4.812   6.728   0.874  0.1514 -0.1706  0.0944
  705TIP3    H123674   4.868   6.791   0.829  0.8983 -0.9087 -0.0299
  705TIP3    H223675   4.860   6.705   0.954 -1.7154  2.0901  2.0402
  706TIP3   OH223676   2.672   0.835   2.394  0.2134 -0.7216  0.0732
  706TIP3    H123677   2.672   0.924   2.429 -0.2022 -0.4344 -0.6496
  706TIP3    H223678   2.580   0.808   2.397  0.2191 -0.8085 -0.5195
  707TIP3   OH223679   1.715   0.898   0.792 -0.2105  0.6210 -0.2198
  707TIP3    H123680   1.738   0.876   0.882  0.3435  0.0016 -0.5091
  707TIP3    H223681   1.760   0.834   0.739 -0.9304  0.6764 -0.9215
  708TIP3   OH223682   4.351   1.011   7.249  0.1721 -0.6696 -0.2574
  708TIP3    H123683   4.425   0.952   7.236  2.1993  1.6939 -0.2393
  708TIP3    H223684   4.299   1.003   7.169  1.4036 -1.1247 -1.0437
  709TIP3   OH223685   4.350   1.387   0.147  0.2721 -0.6964  0.1310
  709TIP3    H123686   4.305   1.359   0.226 -0.9766 -1.7025 -0.9041
  709TIP3    H223687   4.378   1.477   0.166 -0.0313 -0.9068  1.6806
  710TIP3   OH223688   4.995   3.250   7.571 -0.0396 -0.3270 -0.3859
  710TIP3    H123689   5.090   3.240   7.564 -0.1246 -0.7988 -0.8958
  710TIP3    H223690   4.960   3.164   7.550 -0.5236 -0.6344  1.5195
  711TIP3   OH223691   1.839   3.658   8.507 -0.3194 -0.3108 -0.0010
  711TIP3    H123692   1.785   3.581   8.489 -0.4981  0.1274 -1.4563
  711TIP3    H223693   1.858   3.653   8.601  0.4225 -2.6126 -0.2257
  712TIP3   OH223694   3.649   0.444   7.512 -0.2435  0.1031 -0.2535
  712TIP3    H123695   3.556   0.453   7.491 -0.1437  0.3573 -0.6058
  712TIP3    H223696   3.659   0.354   7.541 -1.0405  0.6879  2.0845
  713TIP3   OH223697   4.429   5.695   2.142 -0.2624  0.3824  0.0287
  713TIP3    H123698   4.436   5.728   2.231 -1.1683  0.3525  0.1233
  713TIP3    H223699   4.498   5.740   2.094  0.1166  0.5319  0.7041
  714TIP3   OH223700   6.298   4.705   7.139 -0.0008  0.2227  0.2817
  714TIP3    H123701   6.312   4.611   7.153 -2.7066  0.0083  2.2314
  714TIP3    H223702   6.239   4.709   7.064 -1.3012  0.2216  1.2802
  715TIP3   OH223703   1.057   3.009   0.191  0.3372  0.2355  0.0766
  715TIP3    H123704   1.131   2.950   0.179  1.0039  0.9761  0.4692
  715TIP3    H223705   0.985   2.966   0.145  1.3208  0.1322 -1.4425
  716TIP3   OH223706   0.982   4.818   1.474 -0.0704 -0.0154  0.7366
  716TIP3    H123707   1.039   4.747   1.443 -1.4151 -0.3247 -1.2127
  716TIP3    H223708   1.017   4.897   1.432 -0.2557  0.0207  0.6519
  717TIP3   OH223709   4.904   2.741   8.156 -0.0370 -0.1989  0.1007
  717TIP3    H123710   4.902   2.647   8.173 -0.3277 -0.5075 -1.5389
  717TIP3    H223711   4.980   2.753   8.099 -2.0745 -0.0299 -2.7615
  718TIP3   OH223712   1.158   5.438   7.566 -0.0843 -0.2881 -0.3309
  718TIP3    H123713   1.113   5.416   7.484 -0.2244 -1.5455  0.0635
  718TIP3    H223714   1.101   5.502   7.608  1.3667  2.6990 -2.5005
  719TIP3   OH223715   5.221   3.817   2.083  0.2307 -0.8565  0.2151
  719TIP3    H123716   5.189   3.906   2.097  0.1313 -0.1605 -3.4374
  719TIP3    H223717   5.305   3.829   2.038  0.1842 -2.5648 -0.4038
  720TIP3   OH223718   1.042   4.499   0.807  0.3053  0.4656 -0.3290
  720TIP3    H123719   0.992   4.580   0.792 -0.3771  0.0866 -0.1464
  720TIP3    H223720   0.979   4.440   0.849  0.7413 -0.2350 -0.6508
  721TIP3   OH223721   0.956   0.327   0.216 -0.6520  0.3128  0.3312
  721TIP3    H123722   0.871   0.317   0.174 -0.9675 -1.1676  1.2512
  721TIP3    H223723   0.936   0.338   0.309  0.0889  2.2189  0.3255
  722TIP3   OH223724   2.949   6.199   1.239 -0.3962  0.5051  0.1829
  722TIP3    H123725   3.019   6.138   1.217  0.6354  1.3704  0.9582
  722TIP3    H223726   2.879   6.143   1.274  1.1476 -0.1776  2.4634
  723TIP3   OH223727   4.373   3.586   0.719 -0.1987 -1.1550 -0.7189
  723TIP3    H123728   4.319   3.637   0.780  0.2894 -2.3061  0.7570
  723TIP3    H223729   4.373   3.637   0.638 -1.3815  0.1401  0.0470
  724TIP3   OH223730   4.940   4.684   7.832  0.1244  0.3545 -0.5452
  724TIP3    H123731   4.887   4.762   7.845 -1.0019 -0.6684  1.5957
  724TIP3    H223732   4.894   4.634   7.764  0.4126  1.1721 -1.3482
  725TIP3   OH223733   5.056   4.231   1.225  0.7339 -0.4351 -0.0750
  725TIP3    H123734   5.063   4.233   1.321 -0.7742 -1.0601  0.0717
  725TIP3    H223735   4.965   4.255   1.208  0.6271 -1.6206 -1.2939
  726TIP3   OH223736   3.284   5.486   2.234 -0.3381  0.0095 -0.6108
  726TIP3    H123737   3.367   5.509   2.274 -0.2922 -1.2490  0.0597
  726TIP3    H223738   3.307   5.459   2.145 -0.1560  0.6171 -0.7488
  727TIP3   OH223739   4.286   5.886   7.890 -0.7647  0.1669 -0.2222
  727TIP3    H123740   4.196   5.893   7.920 -1.4012 -1.1392 -1.6641
  727TIP3    H223741   4.306   5.971   7.851 -1.6998  0.1821 -0.6796
  728TIP3   OH223742   5.432   2.070   7.492  0.0313  0.1624 -0.0716
  728TIP3    H123743   5.371   2.063   7.418  1.1500  0.9534 -1.0906
  728TIP3    H223744   5.435   1.981   7.528  0.2325 -0.4890 -1.6080
  729TIP3   OH223745   5.396   0.195   2.610  0.0689 -0.4145 -0.4984
  729TIP3    H123746   5.457   0.132   2.573  1.0544  0.4125 -0.3110
  729TIP3    H223747   5.396   0.269   2.549 -0.3514 -0.1905 -0.2359
  730TIP3   OH223748   6.064   2.937   8.418 -0.0624 -0.4255  0.6915
  730TIP3    H123749   5.994   2.911   8.477 -0.0405  0.4030  1.0886
  730TIP3    H223750   6.111   2.855   8.398 -0.2386 -0.7505  1.5916
  731TIP3   OH223751   2.317   2.209   1.196  0.1253  0.3981  0.0965
  731TIP3    H123752   2.344   2.129   1.152  1.8098  2.0635 -2.0962
  731TIP3    H223753   2.351   2.200   1.285 -1.5573 -2.1536  0.5827
  732TIP3   OH223754   4.371   2.082   7.865  0.2699 -0.0870  0.2322
  732TIP3    H123755   4.287   2.100   7.823 -0.0875  2.0432  1.7268
  732TIP3    H223756   4.365   1.991   7.894 -1.6836  0.1642  0.7028
  733TIP3   OH223757   6.632   4.948   8.378 -0.5588  0.3989  0.2916
  733TIP3    H123758   6.645   4.858   8.409 -0.7251 -0.2632 -1.4869
  733TIP3    H223759   6.721   4.981   8.364 -0.4954  0.5556  1.0012
  734TIP3   OH223760   0.449   3.875   1.788  0.5428  0.3784 -0.5933
  734TIP3    H123761   0.363   3.914   1.779  1.2471  2.6964  1.5896
  734TIP3    H223762   0.434   3.792   1.833 -0.7731 -0.9197 -3.2382
  735TIP3   OH223763   1.245   0.943   6.408  0.1261  0.4514 -0.1660
  735TIP3    H123764   1.209   0.973   6.324 -0.2138  0.4156 -0.0345
  735TIP3    H223765   1.288   1.020   6.444  0.2839  0.4638 -0.3798
  736TIP3   OH223766   0.899   4.752   0.772  0.2480  0.1144 -0.2836
  736TIP3    H123767   0.862   4.766   0.684 -0.1391 -0.9903 -0.3152
  736TIP3    H223768   0.822   4.736   0.827  0.5894 -1.1128 -0.1322
  737TIP3   OH223769   2.785   5.323   2.296 -0.4031  0.4032 -0.0385
  737TIP3    H123770   2.806   5.272   2.374 -0.9407  0.7592  0.3508
  737TIP3    H223771   2.715   5.383   2.325 -0.9957  0.1661 -0.9298
  738TIP3   OH223772   2.896   0.641   0.151 -1.2293  0.0788  0.0685
  738TIP3    H123773   2.952   0.676   0.220 -0.1036 -2.2850  0.4376
  738TIP3    H223774   2.938   0.560   0.125 -2.4482  0.1559 -2.3825
  739TIP3   OH223775   2.395   0.179   1.173 -0.9519 -0.6508  0.1359
  739TIP3    H123776   2.319   0.122   1.163 -1.3227 -0.4333  1.4425
  739TIP3    H223777   2.470   0.124   1.149 -1.4669 -1.0277 -0.6474
  740TIP3   OH223778   2.662   1.860   1.204  0.1638  0.3179 -0.0503
  740TIP3    H123779   2.668   1.908   1.287 -1.1228  0.0755  0.2156
  740TIP3    H223780   2.580   1.891   1.165  0.2602 -0.3040 -0.7648
  741TIP3   OH223781   2.144   3.398   1.483  0.4121 -0.2659 -0.0191
  741TIP3    H123782   2.086   3.334   1.440  0.8106  0.6088 -1.9846
  741TIP3    H223783   2.232   3.362   1.470  0.4314 -1.5277  2.8455
  742TIP3   OH223784   5.056   5.910   8.360  0.1241  0.4422 -0.2752
  742TIP3    H123785   5.124   5.967   8.397  1.4613 -0.2751 -1.5291
  742TIP3    H223786   4.984   5.916   8.423  1.8512  0.1300  1.8773
  743TIP3   OH223787   2.495   6.423   0.797  0.4743 -0.2027  0.1740
  743TIP3    H123788   2.507   6.434   0.703 -0.4595 -0.0334  0.0612
  743TIP3    H223789   2.574   6.377   0.826  1.3504  0.8558 -0.4653
  744TIP3   OH223790   1.617   4.203   2.949  0.2465 -0.4302  0.4286
  744TIP3    H123791   1.664   4.136   2.900 -0.8504 -1.2704  0.4814
  744TIP3    H223792   1.640   4.187   3.041  0.1385 -0.6209  0.4231
  745TIP3   OH223793   6.534   4.582   6.691  0.0786  0.0415 -0.2188
  745TIP3    H123794   6.605   4.639   6.663 -0.2200 -0.6253 -2.4759
  745TIP3    H223795   6.568   4.538   6.769  0.5025  2.8181  1.2699
  746TIP3   OH223796   4.653   1.580   1.783  0.0222 -0.2066  0.2754
  746TIP3    H123797   4.634   1.657   1.729  0.7758 -0.1034  0.1477
  746TIP3    H223798   4.578   1.572   1.841 -0.4972  0.0713 -0.3465
  747TIP3   OH223799   1.117   5.350   6.990  0.4169 -0.3608  1.0696
  747TIP3    H123800   1.024   5.337   7.011  0.2701  1.3460  1.6871
  747TIP3    H223801   1.143   5.271   6.944 -1.7480 -0.2586 -0.4580
  748TIP3   OH223802   1.049   1.607   1.396 -0.2099  0.1734 -0.6242
  748TIP3    H123803   1.117   1.549   1.363 -0.6125 -1.5147  1.2696
  748TIP3    H223804   1.084   1.695   1.384  1.3347 -0.5521 -1.7010
  749TIP3   OH223805   6.498   0.294   1.225 -0.4372  0.3984  0.3264
  749TIP3    H123806   6.584   0.315   1.189 -1.0727  1.0883 -0.9001
  749TIP3    H223807   6.447   0.265   1.149 -1.0008 -1.0049  1.2011
  750TIP3   OH223808   5.464   4.809   7.822  0.2140 -0.0195 -0.0764
  750TIP3    H123809   5.374   4.795   7.794  0.2533  1.2360 -0.9272
  750TIP3    H223810   5.503   4.863   7.752  1.0043  1.2467  1.2704
  751TIP3   OH223811   2.424   2.676   0.812  0.3402  0.1970  0.4303
  751TIP3    H123812   2.354   2.646   0.754  1.4804 -0.4161 -0.7113
  751TIP3    H223813   2.479   2.730   0.755  2.2784 -1.5732  0.4710
  752TIP3   OH223814   2.412   6.479   6.581 -0.0427  0.1120 -0.0568
  752TIP3    H123815   2.346   6.543   6.554  0.2441 -0.3703 -2.0041
  752TIP3    H223816   2.491   6.531   6.595 -0.3431  0.4442  0.4652
  753TIP3   OH223817   3.093   4.985   6.881  0.4480  0.0623 -0.2803
  753TIP3    H123818   3.070   4.925   6.952 -0.2201  0.1015 -0.4519
  753TIP3    H223819   3.179   4.957   6.851  1.1556  0.6212  1.1594
  754TIP3   OH223820   2.533   5.600   0.505  0.2620  0.1426 -0.6598
  754TIP3    H123821   2.609   5.541   0.506 -0.1471 -0.3884 -0.2605
  754TIP3    H223822   2.465   5.552   0.552 -0.0583  0.9738 -0.2538
  755TIP3   OH223823   3.849   6.844   1.661  0.2347  0.4082  0.9213
  755TIP3    H123824   3.873   6.786   1.733  2.2547  0.6385  0.4782
  755TIP3    H223825   3.755   6.861   1.674 -0.4273 -2.7728  1.1786
  756TIP3   OH223826   5.726   6.478   7.383 -0.0774  0.2575  0.0114
  756TIP3    H123827   5.767   6.412   7.327 -2.2480 -1.3622  0.1859
  756TIP3    H223828   5.687   6.540   7.321 -0.9217 -0.5264 -0.2594
  757TIP3   OH223829   5.082   0.715   0.386 -0.1432 -0.7455 -0.4436
  757TIP3    H123830   5.031   0.793   0.364 -0.0736 -0.9728 -1.4620
  757TIP3    H223831   5.125   0.736   0.469  2.9783  1.8605 -2.4734
  758TIP3   OH223832   2.285   4.166   7.014 -0.3975 -0.2007  0.1219
  758TIP3    H123833   2.205   4.196   6.971 -0.7795  0.1231  1.0448
  758TIP3    H223834   2.256   4.131   7.098  0.2515 -1.5049 -0.1653
  759TIP3   OH223835   5.700   3.873   8.171  0.2653  0.9125 -0.9161
  759TIP3    H123836   5.773   3.813   8.185 -1.1847 -0.7453  0.0390
  759TIP3    H223837   5.698   3.887   8.076  2.4279  1.8564 -0.8619
  760TIP3   OH223838   3.350   4.038   0.163 -0.1235 -0.4771 -0.6421
  760TIP3    H123839   3.382   3.959   0.205  1.1561  0.7123  0.7316
  760TIP3    H223840   3.321   4.094   0.236 -0.5788  0.4915 -1.5390
  761TIP3   OH223841   2.440   6.827   0.627 -0.1213 -0.1459  0.2664
  761TIP3    H123842   2.394   6.797   0.548 -0.7236 -1.8640  1.2136
  761TIP3    H223843   2.375   6.875   0.677  0.4198  1.4617 -0.5159
  762TIP3   OH223844   2.204   2.884   0.259  0.5741  0.1169  0.2702
  762TIP3    H123845   2.196   2.789   0.253  3.5854 -0.1476 -2.0573
  762TIP3    H223846   2.252   2.898   0.341  1.4061 -0.5507 -0.0773
  763TIP3   OH223847   1.554   2.711   1.001 -0.3105  0.1001  0.0580
  763TIP3    H123848   1.477   2.701   0.945 -0.4612 -1.0539  0.4302
  763TIP3    H223849   1.528   2.776   1.066 -0.7214  0.2332 -0.2328
  764TIP3   OH223850   6.357   3.204   7.706 -0.0408 -0.0594  0.3148
  764TIP3    H123851   6.289   3.163   7.652 -0.4326  0.9250  0.0352
  764TIP3    H223852   6.318   3.287   7.734  0.6362  0.0080  1.0760
  765TIP3   OH223853   1.030   4.619   2.792  0.3285  0.0403 -0.0050
  765TIP3    H123854   1.058   4.708   2.814 -0.6622  0.2534  0.4431
  765TIP3    H223855   1.109   4.565   2.805  1.0104  0.8839 -0.5585
  766TIP3   OH223856   2.713   1.238   1.907 -0.5202  0.8465  0.3624
  766TIP3    H123857   2.749   1.174   1.846  0.6841  1.3120  0.5528
  766TIP3    H223858   2.783   1.302   1.919 -1.3791  1.7325  0.8520
  767TIP3   OH223859   1.988   6.022   8.264 -0.7043 -0.2324 -0.3607
  767TIP3    H123860   1.893   6.031   8.249 -0.6101 -0.9287 -1.4513
  767TIP3    H223861   2.025   6.015   8.177  0.3821  0.1366  0.0580
  768TIP3   OH223862   4.954   5.919   0.554 -0.3259 -0.2141  0.8336
  768TIP3    H123863   4.860   5.913   0.535 -0.1061 -1.1462 -0.0564
  768TIP3    H223864   4.993   5.847   0.505  0.9540  0.5656  0.6649
  769TIP3   OH223865   5.978   1.072   1.580 -0.8998  0.1735 -0.0874
  769TIP3    H123866   5.964   1.160   1.615 -2.4664  0.2963 -0.9403
  769TIP3    H223867   5.935   1.014   1.644 -0.1716  0.0323  0.2913
  770TIP3   OH223868   1.037   4.408   8.418 -0.0519  0.0091 -0.2595
  770TIP3    H123869   1.129   4.435   8.415 -0.2586  0.9727  1.1471
  770TIP3    H223870   1.039   4.320   8.457  0.2643  0.1096 -0.0466
  771TIP3   OH223871   2.213   5.546   2.100  0.0847  0.0799 -0.6074
  771TIP3    H123872   2.189   5.482   2.167 -0.6892 -2.9281 -3.4788
  771TIP3    H223873   2.136   5.603   2.093 -0.9121 -1.2198 -0.6845
  772TIP3   OH223874   4.328   2.056   0.324  0.0916 -0.4170 -0.3049
  772TIP3    H123875   4.283   1.980   0.362 -0.5107  0.2010  0.2274
  772TIP3    H223876   4.376   2.094   0.398 -0.8501  0.6249 -0.2185
  773TIP3   OH223877   5.336   6.408   2.429 -0.0686  0.3684  0.2835
  773TIP3    H123878   5.310   6.321   2.460  0.6544  0.4711  1.2391
  773TIP3    H223879   5.274   6.467   2.471  0.6072  0.4641  1.1838
  774TIP3   OH223880   6.797   3.267   2.708 -0.2133  0.2223  0.2799
  774TIP3    H123881   6.783   3.180   2.745  1.7844 -0.6390 -0.8142
  774TIP3    H223882   6.765   3.328   2.775  1.5444 -1.2723  2.6125
  775TIP3   OH223883   3.240   5.227   0.402  0.5181 -0.0287  0.6237
  775TIP3    H123884   3.314   5.285   0.419 -0.1250  1.6033 -1.6544
  775TIP3    H223885   3.165   5.271   0.442  0.0984  0.5952 -0.7714
  776TIP3   OH223886   0.586   2.600   0.390  0.0299 -0.4043  0.2947
  776TIP3    H123887   0.504   2.644   0.412  0.7325  0.5322  1.1656
  776TIP3    H223888   0.605   2.628   0.301  0.8376  1.7848  1.0593
  777TIP3   OH223889   4.646   6.626   0.421  0.0595 -0.3510  0.4275
  777TIP3    H123890   4.589   6.569   0.473 -0.3581  1.0691  1.6046
  777TIP3    H223891   4.594   6.704   0.404  0.8390 -0.0260 -0.5816
  778TIP3   OH223892   6.738   2.749   0.608  0.7700 -0.5178 -0.2345
  778TIP3    H123893   6.737   2.729   0.701  0.0294  0.6829  0.0363
  778TIP3    H223894   6.688   2.830   0.600  1.9057  0.0969 -1.5158
  779TIP3   OH223895   6.428   3.482   1.325  0.6843  0.0896 -0.0899
  779TIP3    H123896   6.463   3.552   1.270 -0.8092  0.2569 -0.8643
  779TIP3    H223897   6.335   3.478   1.304  0.9228 -2.9830 -1.0412
  780TIP3   OH223898   2.541   0.988   8.391 -0.3816 -0.2064  0.3326
  780TIP3    H123899   2.565   1.005   8.482  1.1488  1.1320 -0.2825
  780TIP3    H223900   2.522   1.074   8.354 -0.6548 -0.6959 -0.7177
  781TIP3   OH223901   5.942   5.600   1.726  0.1569 -0.0474 -0.4236
  781TIP3    H123902   5.994   5.642   1.794  1.9714 -2.4938 -0.1572
  781TIP3    H223903   5.974   5.638   1.644 -0.3836  1.2183 -0.0676
  782TIP3   OH223904   1.514   5.155   7.021 -0.3821  0.6017  0.5938
  782TIP3    H123905   1.497   5.237   6.975  1.5646  1.0083  0.4977
  782TIP3    H223906   1.510   5.179   7.114 -3.7847 -0.1085  0.7467
  783TIP3   OH223907   0.059   4.176   6.647 -0.0349 -0.6259  0.5772
  783TIP3    H123908  -0.033   4.170   6.619  0.9617 -1.1221 -3.1988
  783TIP3    H223909   0.089   4.259   6.610  1.1308 -0.5939  1.5543
  784TIP3   OH223910   6.627   2.014   1.163 -0.2031  0.0557 -0.4018
  784TIP3    H123911   6.714   2.039   1.195 -0.4939  1.6880 -0.7941
  784TIP3    H223912   6.566   2.067   1.214 -0.9059 -0.2929 -0.8676
  785TIP3   OH223913   2.384   1.811   0.164 -0.0402  0.0648 -0.3734
  785TIP3    H123914   2.380   1.888   0.107  1.0847 -0.4797 -1.2343
  785TIP3    H223915   2.352   1.841   0.249 -1.6673  0.9375 -1.2512
  786TIP3   OH223916   6.370   3.016   2.599  0.0720 -0.2929  0.3142
  786TIP3    H123917   6.432   3.031   2.527  0.4382 -2.0182  0.2163
  786TIP3    H223918   6.400   3.073   2.669  0.8811 -0.0066 -0.2554
  787TIP3   OH223919   5.250   3.694   0.510  0.1565 -0.4667 -0.2415
  787TIP3    H123920   5.253   3.637   0.433 -1.0979 -0.5224 -0.2703
  787TIP3    H223921   5.182   3.656   0.565 -0.2675  0.6451  0.0228
  788TIP3   OH223922   5.091   5.164   7.304 -0.7932 -0.0781  0.0088
  788TIP3    H123923   5.005   5.124   7.316 -0.3584 -1.2062 -0.4741
  788TIP3    H223924   5.121   5.130   7.220  0.0400  0.4766  0.0744
  789TIP3   OH223925   6.478   0.482   7.474 -0.0009 -0.7639 -0.2314
  789TIP3    H123926   6.396   0.530   7.476 -0.5042 -1.5954 -0.4185
  789TIP3    H223927   6.502   0.480   7.381 -0.0239 -0.9433 -0.2336
  790TIP3   OH223928   5.747   5.854   7.533 -0.6964  0.0128 -0.3333
  790TIP3    H123929   5.722   5.767   7.503  1.0093 -0.7681  0.3382
  790TIP3    H223930   5.686   5.874   7.604 -0.5202 -1.0678  0.1452
  791TIP3   OH223931   0.061   0.223   0.423  0.0950  0.0030  0.6605
  791TIP3    H123932   0.009   0.262   0.353 -0.3729 -0.6634  0.6262
  791TIP3    H223933   0.095   0.142   0.385  0.1614 -0.1656  1.0757
  792TIP3   OH223934   0.140   1.053   8.033  0.1865  0.1793  0.9009
  792TIP3    H123935   0.118   1.111   8.106 -0.3345  0.6414  0.3873
  792TIP3    H223936   0.192   1.107   7.974  1.1052 -0.3603  1.1909
  793TIP3   OH223937   5.332   2.021   8.401  0.9830  0.0244 -0.2662
  793TIP3    H123938   5.289   1.954   8.348  0.6782  1.3673 -1.7959
  793TIP3    H223939   5.261   2.061   8.451  0.9460  0.1220 -0.3955
  794TIP3   OH223940   0.518   3.994   1.098 -0.5020  0.4342 -0.7195
  794TIP3    H123941   0.488   3.904   1.108  1.3520 -0.1045  0.5105
  794TIP3    H223942   0.550   4.019   1.185  2.1698  1.0476 -1.7680
  795TIP3   OH223943   3.087   0.430   0.292 -0.5167 -0.0158 -0.1647
  795TIP3    H123944   3.056   0.434   0.383  1.2165  1.1981  0.4186
  795TIP3    H223945   3.127   0.343   0.285  0.0049  0.1624  0.4741
  796TIP3   OH223946   0.499   3.327   0.857  0.2299 -0.6619 -0.2162
  796TIP3    H123947   0.416   3.333   0.903 -0.6703  0.2124 -1.8673
  796TIP3    H223948   0.519   3.418   0.831  1.7793 -0.8286  0.2719
  797TIP3   OH223949   5.720   3.833   0.346  0.0913  0.2657 -0.1930
  797TIP3    H123950   5.720   3.925   0.319 -0.3223  0.3284  0.0269
  797TIP3    H223951   5.660   3.829   0.420  0.6930 -0.0393  0.2859
  798TIP3   OH223952   0.070   3.667   1.876 -0.1081 -0.3965 -0.4095
  798TIP3    H123953  -0.015   3.664   1.832  0.5114  0.8316 -1.7560
  798TIP3    H223954   0.053   3.712   1.959 -0.3632  2.1296 -1.7597
  799TIP3   OH223955   1.752   4.288   2.368  0.3825 -0.1224 -0.2161
  799TIP3    H123956   1.673   4.338   2.348  0.7532  0.7993  0.5856
  799TIP3    H223957   1.744   4.209   2.313 -1.2793 -0.2372  0.1262
  800TIP3   OH223958   1.126   5.415   8.010  0.5989  0.0638  0.1135
  800TIP3    H123959   1.085   5.328   8.014  0.9821 -0.0780  1.4105
  800TIP3    H223960   1.054   5.476   8.026  0.8142 -0.1738  2.1626
  801TIP3   OH223961   0.037   1.443   0.053  0.1460 -0.0688  0.4373
  801TIP3    H123962   0.104   1.497   0.011  0.6814  1.6691  3.2869
  801TIP3    H223963   0.086   1.379   0.104 -0.2642  0.9609  2.2236
  802TIP3   OH223964   5.297   3.101   0.690 -0.3896  0.3070  0.3200
  802TIP3    H123965   5.280   3.165   0.620  0.5636  1.1542  0.8296
  802TIP3    H223966   5.230   3.120   0.756 -0.7134  0.1257  0.0463
  803TIP3   OH223967   5.164   2.807   8.057  0.1896  0.0270 -0.1038
  803TIP3    H123968   5.235   2.866   8.031  1.6975 -1.2233  0.9610
  803TIP3    H223969   5.208   2.723   8.074 -1.9910 -1.8625 -2.8307
  804TIP3   OH223970   6.020   0.859   2.220  0.0952 -0.0035  0.3055
  804TIP3    H123971   5.927   0.843   2.237  0.1461  0.6110  1.2340
  804TIP3    H223972   6.025   0.952   2.200  0.2263 -0.4220 -2.0075
  805TIP3   OH223973   6.663   3.450   2.508  0.5135  0.1379 -0.4686
  805TIP3    H123974   6.697   3.403   2.584  0.2391  0.6910  0.0047
  805TIP3    H223975   6.667   3.542   2.533  2.2852  0.5105 -1.8726
  806TIP3   OH223976   6.248   5.851   1.653  0.3426 -0.6783  0.4141
  806TIP3    H123977   6.179   5.803   1.608  0.8141 -0.9229 -0.0540
  806TIP3    H223978   6.313   5.870   1.586  1.6324 -2.1074  1.1990
  807TIP3   OH223979   6.283   3.138   0.836 -0.1858 -0.3067 -0.3795
  807TIP3    H123980   6.245   3.225   0.851 -0.7023 -0.5243 -0.3950
  807TIP3    H223981   6.324   3.143   0.750  0.7823  0.2629  0.1006
  808TIP3   OH223982   6.028   6.870   1.011 -0.0304  0.0861  0.7391
  808TIP3    H123983   6.112   6.832   1.037  0.7692  1.9688  1.0979
  808TIP3    H223984   5.971   6.858   1.087  0.9093  1.5502  1.7267
  809TIP3   OH223985   3.915   1.998   2.284 -0.8547 -0.4455 -0.5094
  809TIP3    H123986   4.010   1.989   2.294 -0.8211 -0.6099 -0.9561
  809TIP3    H223987   3.904   2.049   2.204 -1.0935  1.8094  0.8789
  810TIP3   OH223988   4.416   1.181   7.717 -0.2116  0.1036  0.1154
  810TIP3    H123989   4.469   1.156   7.642  0.7071 -2.2476  1.4219
  810TIP3    H223990   4.326   1.176   7.686  0.2019  1.3843 -1.3875
  811TIP3   OH223991   5.990   0.202   0.835 -0.2750 -0.2553 -0.0871
  811TIP3    H123992   6.012   0.118   0.876 -0.5117 -0.0256  0.5239
  811TIP3    H223993   5.951   0.253   0.906 -0.7048  0.1466 -0.6107
  812TIP3   OH223994   1.862   4.877   7.649  0.0992  0.7892 -0.4407
  812TIP3    H123995   1.869   4.839   7.737 -0.8215  1.1348 -0.2099
  812TIP3    H223996   1.859   4.971   7.663  1.7079  0.9576 -0.9768
  813TIP3   OH223997   0.066   2.746   0.233  0.5427  0.7837  0.1858
  813TIP3    H123998   0.060   2.835   0.267  0.3621  1.3482 -1.2558
  813TIP3    H223999   0.010   2.694   0.292  0.2165  1.7191  0.7192
  814TIP3   OH224000   5.790   5.552   1.170 -0.1534 -0.6541 -0.0631
  814TIP3    H124001   5.870   5.586   1.129  0.3331 -1.8881 -0.1825
  814TIP3    H224002   5.719   5.587   1.117  0.4188 -1.3462 -1.3158
  815TIP3   OH224003   0.787   6.586   8.025  0.2519 -0.2449 -0.0148
  815TIP3    H124004   0.722   6.637   8.074 -1.2428 -1.4089 -0.7117
  815TIP3    H224005   0.865   6.586   8.081 -0.3263  1.1853  0.8463
  816TIP3   OH224006   1.326   0.673   1.681  0.2010 -0.8624 -0.2387
  816TIP3    H124007   1.309   0.706   1.769 -0.3526 -0.3289 -0.5353
  816TIP3    H224008   1.352   0.751   1.631  0.3973 -1.1393 -0.5749
  817TIP3   OH224009   2.577   0.737   0.817 -0.2558 -0.8959 -0.5429
  817TIP3    H124010   2.538   0.650   0.818  0.3137 -1.1917 -1.6882
  817TIP3    H224011   2.670   0.722   0.804 -0.1494 -0.1159 -0.7558
  818TIP3   OH224012   3.224   1.226   8.106 -0.1245 -0.1431  0.3550
  818TIP3    H124013   3.220   1.150   8.048 -0.9724  1.0545 -1.2402
  818TIP3    H224014   3.133   1.253   8.116  0.0694  0.0806  1.7566
  819TIP3   OH224015   3.732   1.103   6.462  0.2421 -0.3500  0.1545
  819TIP3    H124016   3.755   1.176   6.405  1.6837  0.2112  1.4095
  819TIP3    H224017   3.688   1.040   6.404  0.4605  0.7788 -1.2740
  820TIP3   OH224018   3.947   4.201   1.706  0.2011  0.0153 -0.1983
  820TIP3    H124019   3.924   4.134   1.641  1.3561  0.4056 -1.0411
  820TIP3    H224020   4.042   4.190   1.719  0.6216  2.0660 -1.0784
  821TIP3   OH224021   5.913   3.446   8.281 -0.6410 -0.1207  0.2355
  821TIP3    H124022   5.989   3.407   8.324 -0.5633 -0.3791 -0.1345
  821TIP3    H224023   5.938   3.537   8.266 -0.1859 -0.3454 -0.3915
  822TIP3   OH224024   5.085   2.676   7.554 -0.3656  0.5373 -0.3237
  822TIP3    H124025   5.002   2.684   7.508 -0.2714 -1.2213 -0.8623
  822TIP3    H224026   5.145   2.639   7.490  0.2745 -0.1958  0.6651
  823TIP3   OH224027   4.652   3.004   1.228 -0.3473 -0.5544 -0.0911
  823TIP3    H124028   4.563   3.019   1.197 -1.4947 -1.1206  2.6260
  823TIP3    H224029   4.684   3.091   1.251 -0.1791 -0.3450 -1.1007
  824TIP3   OH224030   0.094   3.431   1.626 -0.1947  0.0137  0.8696
  824TIP3    H124031   0.035   3.502   1.650 -1.3625 -1.4293  2.5232
  824TIP3    H224032   0.181   3.470   1.627 -0.9857  2.1088 -1.2506
  825TIP3   OH224033   6.067   2.830   7.200  0.2515  0.3484 -0.0933
  825TIP3    H124034   5.986   2.846   7.153 -0.1711  1.0071  0.8203
  825TIP3    H224035   6.102   2.749   7.163 -2.0246 -1.2883  1.1136
  826TIP3   OH224036   0.467   4.060   2.105  0.1128  0.1614  0.0533
  826TIP3    H124037   0.380   4.073   2.143  0.9358 -0.2812  2.2284
  826TIP3    H224038   0.527   4.103   2.167  1.5769 -0.8437 -0.6013
  827TIP3   OH224039   0.063   1.971   0.115 -0.6860 -0.1041  0.2968
  827TIP3    H124040   0.111   1.990   0.034 -0.0162 -1.5216  0.3371
  827TIP3    H224041  -0.021   2.016   0.104 -0.0553  0.9389 -0.5447
  828TIP3   OH224042   3.166   0.584   7.030 -0.5034  0.1022 -0.7094
  828TIP3    H124043   3.229   0.541   6.972  1.2275 -0.9122  1.7538
  828TIP3    H224044   3.162   0.528   7.107  0.6208  3.4321  1.9994
  829TIP3   OH224045   1.847   0.142   1.874  0.6371  0.3061  0.2309
  829TIP3    H124046   1.830   0.221   1.823  1.1151  1.9818  2.5105
  829TIP3    H224047   1.930   0.159   1.918 -0.0327 -0.7677  2.0156
  830TIP3   OH224048   4.271   2.287   0.873 -0.2880  0.4726 -0.0134
  830TIP3    H124049   4.192   2.314   0.918 -0.0183 -0.1642  0.8665
  830TIP3    H224050   4.342   2.306   0.934  0.2147  0.7190 -0.6554
  831TIP3   OH224051   1.489   0.335   7.491 -0.1712  0.0139 -0.3435
  831TIP3    H124052   1.550   0.375   7.552 -1.4656  0.2617  0.8605
  831TIP3    H224053   1.473   0.402   7.424 -1.0188  0.9157  0.7210
  832TIP3   OH224054   1.163   3.487   0.320  0.1805  0.7139  0.0341
  832TIP3    H124055   1.187   3.504   0.411  0.9341 -0.0814 -0.0078
  832TIP3    H224056   1.096   3.419   0.324 -1.1596  1.9754  0.0725
  833TIP3   OH224057   1.787   2.652   1.135  0.0065 -0.3056  0.2926
  833TIP3    H124058   1.705   2.672   1.091 -0.0091 -1.4355 -0.2234
  833TIP3    H224059   1.792   2.715   1.206 -1.0344  0.1351 -0.0085
  834TIP3   OH224060   5.069   4.504   1.163  0.1033 -0.6402  0.3038
  834TIP3    H124061   5.081   4.409   1.157 -0.3641 -0.7216  0.5632
  834TIP3    H224062   4.977   4.514   1.188 -1.1073 -0.0337 -3.6231
  835TIP3   OH224063   2.608   3.137   1.395 -0.5938  0.4094  0.1167
  835TIP3    H124064   2.696   3.117   1.426 -0.4995  1.0415  0.2749
  835TIP3    H224065   2.592   3.074   1.324  0.5512  1.2050 -0.8940
  836TIP3   OH224066   0.739   4.737   0.309 -0.1975 -0.1214 -0.4018
  836TIP3    H124067   0.647   4.721   0.334 -0.6391 -0.4842 -2.1370
  836TIP3    H224068   0.749   4.691   0.226  1.7485 -0.5532  0.0363
  837TIP3   OH224069   3.185   6.354   1.261  0.0393 -0.2740 -0.0128
  837TIP3    H124070   3.099   6.313   1.260 -0.5059  0.6870 -3.3884
  837TIP3    H224071   3.167   6.448   1.272  0.4164  0.1653 -2.6333
  838TIP3   OH224072   2.194   1.838   7.108 -0.0591 -0.3277 -0.0447
  838TIP3    H124073   2.127   1.776   7.082 -1.3635  1.3500 -0.8906
  838TIP3    H224074   2.150   1.897   7.169  0.3622  1.3223 -1.2722
  839TIP3   OH224075   3.093   0.009   1.268  0.0855  0.5247 -0.1517
  839TIP3    H124076   3.008   0.016   1.313  0.7027 -1.0785  1.4106
  839TIP3    H224077   3.126   0.098   1.265 -1.9110  1.2782 -1.3685
  840TIP3   OH224078   2.354   2.878   0.998 -0.1661  0.7761  0.3950
  840TIP3    H124079   2.391   2.806   0.947  0.4191  0.5758  1.0760
  840TIP3    H224080   2.260   2.875   0.980  0.0234  0.7137 -0.6540
  841TIP3   OH224081   2.928   1.471   2.357  0.1689 -0.2869  0.6080
  841TIP3    H124082   2.880   1.553   2.362  0.8889  0.2459 -0.6441
  841TIP3    H224083   2.866   1.404   2.385 -1.0428  0.4718 -0.1899
  842TIP3   OH224084   2.970   3.436   7.350 -0.4448  0.5189 -0.3272
  842TIP3    H124085   2.909   3.392   7.291  2.4935  0.4857 -3.6545
  842TIP3    H224086   2.953   3.530   7.337 -0.7278  0.4878 -0.1748
  843TIP3   OH224087   1.548   5.354   1.650 -0.1555 -0.7522  0.1792
  843TIP3    H124088   1.608   5.370   1.723 -0.8036  1.9001  0.2142
  843TIP3    H224089   1.604   5.349   1.573  0.3080 -0.9308  0.5235
  844TIP3   OH224090   4.721   1.364   0.079  0.0735 -0.6286  0.3903
  844TIP3    H124091   4.759   1.429   0.138 -0.2319  0.3116 -0.4393
  844TIP3    H224092   4.633   1.397   0.060 -0.1177 -1.3287  0.0279
  845TIP3   OH224093   0.552   0.827   6.665  0.7351 -0.1715  0.5053
  845TIP3    H124094   0.590   0.899   6.614 -1.4276 -0.1317 -1.2282
  845TIP3    H224095   0.610   0.753   6.648  0.7523  0.1608 -1.0641
  846TIP3   OH224096   2.029   0.038   7.597 -0.6766  0.6754 -0.4825
  846TIP3    H124097   2.088   0.114   7.596  2.5541 -1.5688 -2.9794
  846TIP3    H224098   2.073  -0.025   7.654 -1.2190 -0.6630 -1.5007
  847TIP3   OH224099   0.332   0.662   0.943  0.0997  0.2978  0.0902
  847TIP3    H124100   0.416   0.616   0.938 -0.6999 -1.4890  1.9365
  847TIP3    H224101   0.314   0.687   0.852  2.4389  0.4572 -0.4105
  848TIP3   OH224102   3.013   1.848   0.732  0.5727 -0.1604 -0.5134
  848TIP3    H124103   2.971   1.933   0.745 -0.5078 -0.9603  1.5411
  848TIP3    H224104   3.046   1.824   0.818  0.8371 -1.8537 -1.0537
  849TIP3   OH224105   4.881   4.594   0.856  0.3940 -0.6873 -0.0461
  849TIP3    H124106   4.858   4.657   0.924 -0.2339  1.1412 -1.8171
  849TIP3    H224107   4.798   4.552   0.833  0.1837  0.1995 -1.0270
  850TIP3   OH224108   3.906   1.940   6.299  0.6162 -1.1979  0.1041
  850TIP3    H124109   3.857   1.998   6.358  1.0872 -1.3450  0.6421
  850TIP3    H224110   3.976   1.995   6.263  1.1297 -1.4624  0.6992
  851TIP3   OH224111   4.613   6.471   7.807  0.1187  0.3579 -0.9778
  851TIP3    H124112   4.567   6.387   7.807 -0.3770  0.6288 -1.3449
  851TIP3    H224113   4.670   6.468   7.731  0.8703 -0.0580 -0.4120
  852TIP3   OH224114   5.649   4.564   1.845  0.9360  0.2870 -0.5047
  852TIP3    H124115   5.686   4.650   1.866  1.2423  0.4763 -1.7410
  852TIP3    H224116   5.710   4.527   1.781 -0.0780 -0.1482 -1.2464
  853TIP3   OH224117   2.616   0.707   1.350  0.9637 -0.9981 -0.8761
  853TIP3    H124118   2.683   0.640   1.361 -0.6194 -2.4907  0.5312
  853TIP3    H224119   2.537   0.658   1.325  0.5735  0.7895 -3.5722
  854TIP3   OH224120   1.696   2.941   0.806 -0.3100  0.0156 -0.7494
  854TIP3    H124121   1.765   2.875   0.821 -0.4326  0.1096  0.3218
  854TIP3    H224122   1.742   3.014   0.765  0.2688  0.1060  0.0204
  855TIP3   OH224123   5.478   0.418   1.242 -0.3549  0.9858  0.1819
  855TIP3    H124124   5.512   0.405   1.331  0.7000 -0.3988 -0.3861
  855TIP3    H224125   5.518   0.499   1.213  1.0329  0.3484  0.2224
  856TIP3   OH224126   5.332   6.619   1.039 -0.0306  0.8718  0.5972
  856TIP3    H124127   5.347   6.613   1.133  0.3563 -0.1270  0.4805
  856TIP3    H224128   5.379   6.699   1.012 -0.5303  1.4153  1.3102
  857TIP3   OH224129   4.541   4.819   0.379  0.0929  0.3237 -0.4846
  857TIP3    H124130   4.529   4.909   0.411  0.2178 -0.3540  1.6061
  857TIP3    H224131   4.483   4.813   0.303 -2.0278  1.3736  0.9572
  858TIP3   OH224132   6.558   3.392   1.542 -0.9586  0.5345 -0.3368
  858TIP3    H124133   6.509   3.430   1.469 -1.1418 -0.8423 -0.9608
  858TIP3    H224134   6.494   3.337   1.588 -0.2633 -0.4724 -0.5509
  859TIP3   OH224135   4.683   4.066   6.444 -1.0164 -0.0612  0.5416
  859TIP3    H124136   4.690   4.099   6.534  0.6540 -0.1766  0.4955
  859TIP3    H224137   4.611   4.116   6.405 -1.4024  0.3804  1.7780
  860TIP3   OH224138   5.753   5.593   0.272  0.1020  0.3750  0.4909
  860TIP3    H124139   5.834   5.568   0.228 -0.3324 -0.7061  0.2626
  860TIP3    H224140   5.763   5.560   0.361  0.4740  1.4818  0.8768
  861TIP3   OH224141   1.249   6.325   7.528 -0.1742 -0.0477 -0.0149
  861TIP3    H124142   1.214   6.412   7.545  0.2941  0.2088 -0.3351
  861TIP3    H224143   1.203   6.268   7.589  0.0637  0.5434  0.7210
  862TIP3   OH224144   1.219   0.243   1.424  0.1626  0.2346  0.7441
  862TIP3    H124145   1.143   0.286   1.463 -0.2325 -0.6648  0.9904
  862TIP3    H224146   1.192   0.152   1.412  0.9037  0.0889  0.0329
  863TIP3   OH224147   2.633   0.045   1.105  0.2019  0.7918  0.1885
  863TIP3    H124148   2.662  -0.024   1.165 -0.8352  1.4380  1.4964
  863TIP3    H224149   2.623   0.002   1.021  0.7642 -0.3701  0.7009
  864TIP3   OH224150   5.751   6.311   8.399 -0.5054 -0.7050 -0.5149
  864TIP3    H124151   5.792   6.371   8.337 -1.3325  1.9839  1.3525
  864TIP3    H224152   5.695   6.256   8.345 -1.2969  1.6123 -2.2300
  865TIP3   OH224153   2.460   4.864   7.235  0.1148 -0.2038  0.4833
  865TIP3    H124154   2.368   4.839   7.233 -0.6165  2.1751  1.1142
  865TIP3    H224155   2.462   4.952   7.198  2.3400 -0.6497 -0.6475
  866TIP3   OH224156   5.203   0.255   1.376 -0.6257  0.5079 -0.4220
  866TIP3    H124157   5.166   0.286   1.459 -2.4410 -2.8498  0.2013
  866TIP3    H224158   5.157   0.306   1.309 -0.2248  2.2312  0.5570
  867TIP3   OH224159   5.188   4.531   8.540 -0.1525 -0.2872 -0.6895
  867TIP3    H124160   5.277   4.564   8.551 -0.1429 -0.6152  0.3025
  867TIP3    H224161   5.198   4.455   8.482  0.5156 -1.5236  0.9587
  868TIP3   OH224162   3.065   3.525   0.880  0.1727 -0.3395  0.5320
  868TIP3    H124163   3.149   3.506   0.921  1.3674  1.4118 -0.9322
  868TIP3    H224164   3.059   3.620   0.881 -0.5747 -0.3120 -1.6538
  869TIP3   OH224165   5.088   1.220   2.030 -0.3331 -0.1102  0.0985
  869TIP3    H124166   5.092   1.272   2.111  0.7717  1.1665 -0.7246
  869TIP3    H224167   5.121   1.134   2.055  0.5475  0.4376  0.8933
  870TIP3   OH224168   3.130   0.369   1.553  0.3358  0.1322 -0.1931
  870TIP3    H124169   3.106   0.282   1.582  0.6121 -0.0597 -0.5309
  870TIP3    H224170   3.083   0.428   1.612  0.1860 -0.2423  0.0649
  871TIP3   OH224171   2.816   1.644   1.146  0.1328 -0.2655 -0.0423
  871TIP3    H124172   2.780   1.641   1.057 -0.3980 -1.2718  0.1969
  871TIP3    H224173   2.771   1.718   1.187 -0.5311 -0.5568 -0.2308
  872TIP3   OH224174   2.538   4.795   1.604 -0.0278 -0.2896  0.0079
  872TIP3    H124175   2.551   4.889   1.595  1.8997 -0.3258  1.7859
  872TIP3    H224176   2.620   4.763   1.642 -1.3761 -2.3568  1.3698
  873TIP3   OH224177   6.776   4.479   0.344  0.2935 -0.1584  0.0107
  873TIP3    H124178   6.744   4.554   0.395 -1.4207 -0.0856 -1.1078
  873TIP3    H224179   6.871   4.488   0.346  0.2156  0.8243  1.6982
  874TIP3   OH224180   1.356   3.686   7.878  0.0662 -1.0164 -0.1577
  874TIP3    H124181   1.354   3.678   7.783 -1.1941 -2.3957 -0.0570
  874TIP3    H224182   1.398   3.606   7.908 -0.6617 -1.1766  0.4736
  875TIP3   OH224183   4.260   3.938   1.320 -0.0870 -0.4445  0.0215
  875TIP3    H124184   4.219   3.902   1.241  1.9287 -2.6748 -0.1023
  875TIP3    H224185   4.261   3.865   1.382  0.4281  0.6195  1.3006
  876TIP3   OH224186   5.833   3.179   8.396 -0.2752  0.4155 -0.2343
  876TIP3    H124187   5.818   3.271   8.374 -0.6425  1.0741  2.4156
  876TIP3    H224188   5.904   3.181   8.461 -1.5108 -0.9673  1.2295
  877TIP3   OH224189   3.574   3.988   6.713  0.4514 -0.0202 -0.1320
  877TIP3    H124190   3.510   3.922   6.685  0.4536 -0.1908  0.2511
  877TIP3    H224191   3.520   4.061   6.744  0.4490  0.2127 -0.6693
  878TIP3   OH224192   6.510   2.827   6.853 -0.3733 -0.3553  0.1167
  878TIP3    H124193   6.600   2.796   6.855  0.1819  1.1874  0.3463
  878TIP3    H224194   6.506   2.893   6.922 -1.3433  0.4784 -0.7066
  879TIP3   OH224195   4.483   1.159   7.446 -0.1626  0.2138  0.0587
  879TIP3    H124196   4.427   1.116   7.381  1.7688 -0.7016 -1.0584
  879TIP3    H224197   4.466   1.252   7.434 -2.1230 -0.0502  0.4061
  880TIP3   OH224198   6.037   4.115   7.086  0.0218 -0.2527 -0.4970
  880TIP3    H124199   6.011   4.201   7.119 -1.9889 -1.5208  1.4709
  880TIP3    H224200   5.966   4.089   7.028 -0.1991 -1.2652  0.2142
  881TIP3   OH224201   3.194   3.937   2.096  0.1902 -0.4932  0.2447
  881TIP3    H124202   3.158   3.978   2.174 -1.5057 -2.1176  0.3780
  881TIP3    H224203   3.127   3.949   2.028  2.7459  3.4088 -1.9876
  882TIP3   OH224204   4.541   5.042   1.770 -0.7137 -0.3645 -1.0405
  882TIP3    H124205   4.541   5.129   1.809 -2.1698 -0.3375 -1.0496
  882TIP3    H224206   4.531   4.982   1.844  0.5013 -0.5527 -1.0124
  883TIP3   OH224207   3.035   0.834   2.405  0.5384 -0.3139  0.7721
  883TIP3    H124208   3.120   0.837   2.361  0.7801  2.1341  1.2421
  883TIP3    H224209   3.034   0.913   2.459 -2.0170 -0.3130  0.8208
  884TIP3   OH224210   4.571   2.263   7.876  0.3581 -0.0982  0.0747
  884TIP3    H124211   4.585   2.258   7.970  0.9108  1.6749  0.1395
  884TIP3    H224212   4.517   2.187   7.854  1.9060 -1.6835  1.4830
  885TIP3   OH224213   3.259   4.515   1.281  0.1944  0.4031  0.4271
  885TIP3    H124214   3.306   4.511   1.198 -0.4835  2.2931 -0.1205
  885TIP3    H224215   3.168   4.497   1.257  0.2944 -1.0979  1.1181
  886TIP3   OH224216   5.394   6.096   7.764 -0.1726  0.2989  0.4677
  886TIP3    H124217   5.393   6.093   7.860  0.1671  0.3617  0.4720
  886TIP3    H224218   5.420   6.008   7.738 -0.1130  0.3273  0.4331
  887TIP3   OH224219   3.563   5.820   0.159  0.3368 -0.4031 -0.3454
  887TIP3    H124220   3.616   5.866   0.093 -0.9116  0.3659 -0.8313
  887TIP3    H224221   3.607   5.838   0.242 -0.3571  2.1067 -0.4418
  888TIP3   OH224222   1.972   6.727   8.477 -0.5780  0.7913  0.2138
  888TIP3    H124223   1.928   6.642   8.473 -0.6992  0.8794 -0.3816
  888TIP3    H224224   1.921   6.784   8.419  1.0800  0.5297 -1.5995
  889TIP3   OH224225   3.196   2.379   1.402 -0.7399 -0.8818 -0.9437
  889TIP3    H124226   3.179   2.383   1.496  1.0904 -1.6906 -0.5257
  889TIP3    H224227   3.183   2.468   1.371 -0.7197 -0.4670  0.2137
  890TIP3   OH224228   3.194   4.743   7.513 -0.0162  0.1895 -0.6381
  890TIP3    H124229   3.231   4.746   7.602  0.3713  0.6592 -0.8142
  890TIP3    H224230   3.123   4.678   7.520 -0.9645  1.2792  0.3866
  891TIP3   OH224231   0.349   2.716   0.394  0.2391 -0.5315 -0.1094
  891TIP3    H124232   0.270   2.688   0.439 -0.3794  1.3015  0.0607
  891TIP3    H224233   0.324   2.718   0.301  0.0572  0.0560 -0.0549
  892TIP3   OH224234   4.512   1.925   8.169  0.6643  0.0703  0.3606
  892TIP3    H124235   4.436   1.877   8.135  2.2914 -1.6207 -1.1055
  892TIP3    H224236   4.567   1.857   8.207  2.6120  0.8849 -0.8934
  893TIP3   OH224237   2.932   4.822   1.411 -0.0902  0.2235  0.4032
  893TIP3    H124238   2.957   4.806   1.502 -1.3697 -2.0367  0.4127
  893TIP3    H224239   2.912   4.736   1.376  0.9900  0.9609 -2.2631
  894TIP3   OH224240   0.223   6.115   1.377 -0.9809  0.0402 -0.3358
  894TIP3    H124241   0.252   6.026   1.354 -0.3124  0.3286 -0.6419
  894TIP3    H224242   0.214   6.113   1.472 -1.3564 -0.4687 -0.3782
  895TIP3   OH224243   4.207   1.348   7.174  0.6286 -0.4769 -0.1412
  895TIP3    H124244   4.214   1.369   7.267 -0.6300 -1.2748  0.1598
  895TIP3    H224245   4.217   1.433   7.130 -1.4904  0.3915  0.8848
  896TIP3   OH224246   6.860   1.263   1.508  0.0041 -0.6627 -0.3731
  896TIP3    H124247   6.841   1.243   1.600  0.1292 -1.4307 -0.5035
  896TIP3    H224248   6.798   1.332   1.485  1.4638  1.1631  0.9189
  897TIP3   OH224249   5.277   3.395   2.269 -0.2233  0.6933  0.5451
  897TIP3    H124250   5.316   3.344   2.340 -0.5557  1.3997  1.2530
  897TIP3    H224251   5.326   3.478   2.270 -0.2632  0.7304 -0.0227
  898TIP3   OH224252   6.185   5.044   7.341  0.2770 -0.4850 -0.0379
  898TIP3    H124253   6.201   5.031   7.247 -1.8534 -1.7310 -0.2961
  898TIP3    H224254   6.251   4.990   7.384 -0.2530 -1.8689 -0.9029
  899TIP3   OH224255   4.564   4.319   1.879  0.5250 -0.1454  0.2145
  899TIP3    H124256   4.553   4.318   1.784 -1.9598 -1.4927  0.4395
  899TIP3    H224257   4.650   4.279   1.894  1.1712  0.5449 -1.4562
  900TIP3   OH224258   0.724   3.162   0.151 -0.2613 -0.2824  1.1661
  900TIP3    H124259   0.758   3.188   0.065 -0.5584 -1.3799  0.6913
  900TIP3    H224260   0.675   3.238   0.182 -0.4968 -0.0114  0.1732
  901TIP3   OH224261   3.744   0.826   7.526  0.1858 -0.0617  0.3192
  901TIP3    H124262   3.772   0.900   7.472  0.9104 -0.7628 -0.2875
  901TIP3    H224263   3.650   0.819   7.510  0.0092  1.0248  0.7703
  902TIP3   OH224264   0.969   2.796   0.418  0.1252 -0.1622  0.2769
  902TIP3    H124265   0.973   2.844   0.500  0.7652 -0.0514  0.1909
  902TIP3    H224266   0.899   2.839   0.368  0.2021  0.2174  0.4910
  903TIP3   OH224267   3.875   3.333   0.619 -0.4723  0.1521  0.2676
  903TIP3    H124268   3.915   3.298   0.539  0.3088 -0.8111  1.0643
  903TIP3    H224269   3.941   3.393   0.654 -1.2904  1.5152 -0.4046
  904TIP3   OH224270   0.401   0.024   8.233  0.4376  0.0130 -0.1049
  904TIP3    H124271   0.405   0.056   8.143  1.3139  0.9152  0.2433
  904TIP3    H224272   0.361   0.095   8.283  0.5176 -0.2408  0.3288
  905TIP3   OH224273   4.331   4.014   7.327  0.0113 -0.0256  0.6272
  905TIP3    H124274   4.376   4.015   7.411 -0.7390  1.8730  1.0710
  905TIP3    H224275   4.289   3.928   7.323  0.4547 -0.3280  1.9679
  906TIP3   OH224276   0.666   0.354   0.101  0.6457  0.0145 -0.4565
  906TIP3    H124277   0.604   0.372   0.029  1.2583 -0.3983 -1.1013
  906TIP3    H224278   0.661   0.431   0.156 -1.0668 -0.3539 -0.0351
  907TIP3   OH224279   1.462   3.415   6.670  0.1261 -0.3550 -0.8459
  907TIP3    H124280   1.497   3.503   6.680 -0.2379 -0.1912 -0.9641
  907TIP3    H224281   1.537   3.357   6.679  0.3791 -0.0266 -0.8429
  908TIP3   OH224282   2.575   5.990   7.853 -0.3635  0.1482  0.1537
  908TIP3    H124283   2.546   5.913   7.805 -2.5904 -0.2979  2.0101
  908TIP3    H224284   2.556   5.969   7.945  1.0152  2.0646  0.9383
  909TIP3   OH224285   5.544   6.223   1.584 -0.0439  0.2619  0.3400
  909TIP3    H124286   5.463   6.269   1.605 -1.1285 -1.0242 -0.8270
  909TIP3    H224287   5.594   6.286   1.532  0.1071  1.3591  1.7449
  910TIP3   OH224288   1.997   5.766   7.575  0.2533 -0.3058  0.1984
  910TIP3    H124289   2.015   5.828   7.504 -0.2706  0.8776  1.0502
  910TIP3    H224290   1.903   5.753   7.573  0.5018 -2.3800 -0.9593
  911TIP3   OH224291   1.818   5.132   8.167  0.5087 -0.0697 -0.1635
  911TIP3    H124292   1.869   5.084   8.102 -1.1924 -0.1955 -1.4716
  911TIP3    H224293   1.877   5.201   8.198  2.2330 -1.5925  0.1129
  912TIP3   OH224294   5.577   3.833   2.486  0.0126  0.9870  0.1722
  912TIP3    H124295   5.555   3.821   2.578 -1.8926  1.8030 -0.1305
  912TIP3    H224296   5.634   3.760   2.465 -2.2958 -1.2401  1.1214
  913TIP3   OH224297   2.794   5.430   1.228  0.1897  0.1543 -0.4570
  913TIP3    H124298   2.794   5.413   1.134  0.1312 -0.5143 -0.3412
  913TIP3    H224299   2.846   5.358   1.265 -0.3863  0.0070  0.0862
  914TIP3   OH224300   1.433   2.395   0.136 -0.1333  0.0411 -0.0907
  914TIP3    H124301   1.363   2.342   0.097  1.1777 -1.9982  0.1351
  914TIP3    H224302   1.490   2.418   0.062 -1.1414  1.9662 -0.3240
  915TIP3   OH224303   1.302   6.685   0.601 -0.4208 -0.1763  0.2699
  915TIP3    H124304   1.208   6.670   0.610 -0.6799  0.3741 -1.2332
  915TIP3    H224305   1.342   6.611   0.647 -1.6142 -1.6071 -0.8325
  916TIP3   OH224306   5.882   6.004   0.558 -0.1125  0.1822  0.6441
  916TIP3    H124307   5.806   6.048   0.595 -0.5570  0.2590 -0.3484
  916TIP3    H224308   5.956   6.035   0.612 -1.0881 -2.3491  3.7680
  917TIP3   OH224309   2.281   5.150   7.477 -0.2800  0.1723 -0.3663
  917TIP3    H124310   2.341   5.205   7.427 -0.7300  0.4890 -0.5616
  917TIP3    H224311   2.212   5.128   7.415 -2.3304  2.8117  0.7829
  918TIP3   OH224312   4.889   1.059   6.888 -0.1847 -0.6431 -0.2941
  918TIP3    H124313   4.857   0.970   6.873 -3.3554  0.2762  0.2715
  918TIP3    H224314   4.931   1.055   6.974 -2.1471 -1.2082  0.6869
  919TIP3   OH224315   3.581   0.858   1.206  0.4360 -1.1672 -0.4143
  919TIP3    H124316   3.507   0.797   1.207  0.0887 -0.7747  1.1841
  919TIP3    H224317   3.544   0.939   1.171 -0.2438 -0.6273  1.4133
  920TIP3   OH224318   3.685   6.296   1.135  0.2380  0.5578  0.0315
  920TIP3    H124319   3.709   6.210   1.168  0.0282  0.0508 -1.1054
  920TIP3    H224320   3.680   6.351   1.213  3.8415  0.4285  0.5459
  921TIP3   OH224321   2.899   2.283   1.849  0.3048  0.3798  0.0074
  921TIP3    H124322   2.857   2.198   1.844  1.4251 -0.2126  0.2964
  921TIP3    H224323   2.833   2.341   1.887 -1.0071  0.0316 -1.6355
  922TIP3   OH224324   2.424   5.089   1.856 -0.4060  0.3775 -0.1084
  922TIP3    H124325   2.451   5.023   1.792 -0.8443 -0.5491  0.6389
  922TIP3    H224326   2.353   5.136   1.814 -1.2369 -0.7600 -0.0252
  923TIP3   OH224327   4.227   4.393   2.927  0.3895 -0.3924  0.1357
  923TIP3    H124328   4.271   4.430   2.851  0.7501  2.4512  1.5767
  923TIP3    H224329   4.284   4.415   3.001 -0.8808 -1.3255  1.4460
  924TIP3   OH224330   1.150   6.760   6.648 -0.0150 -0.0830  1.0198
  924TIP3    H124331   1.182   6.715   6.727 -0.4044  0.0689  1.2645
  924TIP3    H224332   1.152   6.692   6.580 -1.6621 -0.7938  1.6384
  925TIP3   OH224333   4.240   6.230   0.406 -0.1585 -0.0635  0.7726
  925TIP3    H124334   4.273   6.320   0.408 -0.6705  0.1798 -0.6063
  925TIP3    H224335   4.183   6.224   0.483 -0.3026  0.8680  0.7514
  926TIP3   OH224336   6.555   2.006   1.822 -0.2993  0.3898 -0.2790
  926TIP3    H124337   6.513   2.041   1.900  1.2810  1.1095  0.3070
  926TIP3    H224338   6.614   1.938   1.855  1.9823  2.1291 -0.4848
  927TIP3   OH224339   1.908   3.391   0.771  0.1809 -0.1368  0.2561
  927TIP3    H124340   1.939   3.466   0.719 -0.6094  2.3014  3.0333
  927TIP3    H224341   1.987   3.352   0.807  0.7696 -2.0371 -2.7578
  928TIP3   OH224342   1.650   2.215   1.765  0.7503  0.7709  0.1480
  928TIP3    H124343   1.731   2.235   1.812 -0.1260  1.7021  1.3481
  928TIP3    H224344   1.649   2.277   1.692  1.6297  0.0171 -0.5129
  929TIP3   OH224345   5.207   3.636   6.968 -0.0763  0.1604  0.3174
  929TIP3    H124346   5.237   3.579   6.898  1.6723  1.7620 -0.3343
  929TIP3    H224347   5.142   3.693   6.926  0.5291  0.7249  0.1356
  930TIP3   OH224348   3.630   5.554   7.627  0.5979 -0.7072 -0.9187
  930TIP3    H124349   3.541   5.588   7.632  1.7279  2.5732 -0.9094
  930TIP3    H224350   3.621   5.467   7.587 -2.6353 -0.8671 -0.0510
  931TIP3   OH224351   3.121   1.362   7.211  0.4042 -0.0561 -0.3699
  931TIP3    H124352   3.033   1.332   7.235  0.4539  0.0962  0.0215
  931TIP3    H224353   3.160   1.289   7.164 -0.6701  0.6164 -2.4130
  932TIP3   OH224354   3.334   5.773   6.892 -0.1892 -0.1402  0.6950
  932TIP3    H124355   3.426   5.786   6.871 -0.4641 -0.1149 -0.5715
  932TIP3    H224356   3.312   5.847   6.950 -0.3574  2.2091 -2.1119
  933TIP3   OH224357   5.785   0.935   1.396  0.5840 -0.1536 -0.5521
  933TIP3    H124358   5.795   0.973   1.483 -1.3420 -0.8751  0.0396
  933TIP3    H224359   5.691   0.919   1.387  0.4742  1.4747 -3.4677
  934TIP3   OH224360   0.468   6.429   2.412 -0.1038 -0.3438 -0.1221
  934TIP3    H124361   0.485   6.513   2.369 -0.0719  0.8408  2.0977
  934TIP3    H224362   0.555   6.392   2.426 -0.1115 -0.7095 -0.9747
  935TIP3   OH224363   2.389   0.465   1.207 -0.2600  0.0105 -0.3591
  935TIP3    H124364   2.376   0.481   1.301  0.1572 -1.6092  0.0118
  935TIP3    H224365   2.386   0.370   1.199  1.3479  0.0327 -1.7297
  936TIP3   OH224366   3.971   4.032   7.070  0.0547 -0.3350  0.3459
  936TIP3    H124367   3.906   4.063   7.007  0.5205 -0.4488 -0.2006
  936TIP3    H224368   4.027   4.107   7.087 -0.9322  0.1322  1.7773
  937TIP3   OH224369   5.738   5.304   7.429 -0.0791 -0.1676  0.1788
  937TIP3    H124370   5.654   5.259   7.425 -0.5747  0.8020 -1.3902
  937TIP3    H224371   5.751   5.339   7.340 -0.1391  3.4727  1.4386
  938TIP3   OH224372   5.731   1.387   2.371  0.0788 -0.0829 -0.1265
  938TIP3    H124373   5.815   1.407   2.330  0.9948 -2.3481  0.4874
  938TIP3    H224374   5.747   1.402   2.464  0.3620 -2.1109  0.1794
  939TIP3   OH224375   0.689   0.566   2.553 -0.3642 -0.1262 -0.0114
  939TIP3    H124376   0.777   0.586   2.524  0.3896 -3.7580 -0.7487
  939TIP3    H224377   0.632   0.605   2.487  0.7202  1.1073 -0.2521
  940TIP3   OH224378   6.519   2.354   6.761  0.0988 -0.3472  0.3917
  940TIP3    H124379   6.502   2.424   6.825  0.7256 -0.4907  0.7156
  940TIP3    H224380   6.455   2.286   6.783  0.5611 -0.5572  1.1174
  941TIP3   OH224381   0.687   6.291   0.483 -0.3186  0.2640 -0.4530
  941TIP3    H124382   0.748   6.232   0.439  2.0243  1.1613  1.3639
  941TIP3    H224383   0.623   6.233   0.524  0.9563 -0.9697 -0.1069
  942TIP3   OH224384   3.259   3.539   1.535 -0.2794  0.0205  0.5454
  942TIP3    H124385   3.236   3.448   1.515 -1.3067  0.4969 -0.5987
  942TIP3    H224386   3.234   3.588   1.456  0.7770  1.2240  0.9156
  943TIP3   OH224387   1.859   2.265   1.922 -0.1913  0.6514  0.5742
  943TIP3    H124388   1.883   2.358   1.928 -0.5638  0.6655  2.4470
  943TIP3    H224389   1.922   2.220   1.978 -0.8970 -0.0518  0.8204
  944TIP3   OH224390   6.739   0.932   1.841 -0.0699 -0.2274  0.6450
  944TIP3    H124391   6.700   0.846   1.855  1.0954 -0.8012  0.4715
  944TIP3    H224392   6.794   0.946   1.918 -0.0402  0.2439  0.5396
  945TIP3   OH224393   5.096   3.954   1.637 -0.3946  0.3110 -0.1615
  945TIP3    H124394   5.106   4.034   1.688 -1.0545  0.3201 -0.0444
  945TIP3    H224395   5.080   3.885   1.702  1.7229 -0.2137 -0.1266
  946TIP3   OH224396   6.275   3.332   7.985  0.4090  0.3071 -0.7082
  946TIP3    H124397   6.203   3.287   8.029  0.8369  0.1552 -0.1562
  946TIP3    H224398   6.243   3.346   7.896 -0.8645  1.5306 -0.0856
  947TIP3   OH224399   1.618   0.441   8.217  0.1502 -0.0274 -0.2735
  947TIP3    H124400   1.524   0.447   8.233  0.2245  1.0416 -0.1215
  947TIP3    H224401   1.646   0.532   8.205  1.3636 -0.2226  0.7928
  948TIP3   OH224402   3.683   3.630   0.306  0.0006 -0.3055 -0.8508
  948TIP3    H124403   3.611   3.579   0.342  0.8450  0.2887  1.9292
  948TIP3    H224404   3.679   3.614   0.212 -0.3042 -4.7470 -0.2763
  949TIP3   OH224405   6.274   5.509   1.775 -0.0873 -0.0904 -0.5284
  949TIP3    H124406   6.249   5.595   1.742  0.2820 -0.4662 -1.8704
  949TIP3    H224407   6.361   5.522   1.813  0.2032  0.0349 -1.2186
  950TIP3   OH224408   2.854   0.682   1.238 -0.4525 -0.1623 -0.5271
  950TIP3    H124409   2.832   0.763   1.194 -1.0955  0.1757  0.3802
  950TIP3    H224410   2.845   0.614   1.171 -0.8619  0.3974 -1.0445
  951TIP3   OH224411   1.435   1.079   2.097  0.1902 -0.0327  0.0373
  951TIP3    H124412   1.430   1.147   2.030  0.8504  1.0424  1.0403
  951TIP3    H224413   1.369   1.104   2.161 -0.5099 -1.1113 -0.2379
  952TIP3   OH224414   1.545   6.344   7.200 -0.0485  0.8812 -0.6859
  952TIP3    H124415   1.581   6.432   7.215 -1.0703  1.5862 -2.0741
  952TIP3    H224416   1.540   6.337   7.105 -0.9056 -0.2964 -0.5679
  953TIP3   OH224417   3.109   4.032   2.667 -0.2082 -0.6485 -0.3432
  953TIP3    H124418   3.140   4.120   2.646  0.7476 -0.4419  1.6898
  953TIP3    H224419   3.014   4.037   2.657 -0.0441  0.1549 -1.7431
  954TIP3   OH224420   1.893   6.872   1.346 -0.6012 -0.4076 -0.1087
  954TIP3    H124421   1.824   6.806   1.337 -2.1477  1.2577 -1.0954
  954TIP3    H224422   1.849   6.949   1.382 -0.3977  2.1646 -4.6040
  955TIP3   OH224423   3.896   3.621   7.853  0.2631  0.2026  0.3975
  955TIP3    H124424   3.812   3.659   7.879  0.2912 -0.4183  1.4628
  955TIP3    H224425   3.940   3.691   7.805 -1.0054  0.4150 -0.5084
  956TIP3   OH224426   1.222   2.283   8.562 -0.5497  0.4092  0.0913
  956TIP3    H124427   1.240   2.200   8.518 -0.3839  0.7545 -0.5106
  956TIP3    H224428   1.168   2.259   8.637  0.3718 -0.3571  0.5300
  957TIP3   OH224429   1.668   0.601   0.973 -0.1491  0.0207  0.2701
  957TIP3    H124430   1.700   0.561   0.892 -1.1011 -1.5437  0.6305
  957TIP3    H224431   1.726   0.676   0.987  0.3889 -0.0097 -1.5482
  958TIP3   OH224432   4.770   4.812   8.268  0.3710 -0.1888 -0.2289
  958TIP3    H124433   4.856   4.840   8.300 -0.1101  1.4563 -0.2768
  958TIP3    H224434   4.780   4.806   8.173  0.2303  0.8258 -0.3173
  959TIP3   OH224435   2.642   0.331   1.417  0.2632  0.7969 -0.0973
  959TIP3    H124436   2.641   0.265   1.347 -0.8198  0.5353  0.1546
  959TIP3    H224437   2.603   0.286   1.492  0.1823  1.5098  0.2891
  960TIP3   OH224438   5.507   4.180   1.726  0.0539 -0.2927  1.0690
  960TIP3    H124439   5.449   4.178   1.650  0.5573  0.5598  0.6464
  960TIP3    H224440   5.561   4.258   1.712  1.6175 -1.3103  1.2114
  961TIP3   OH224441   4.228   6.630   2.133 -0.2811 -0.9807  0.3503
  961TIP3    H124442   4.174   6.589   2.200  1.1941 -1.5568  1.2329
  961TIP3    H224443   4.251   6.716   2.171  1.0437 -1.5447  0.8904
  962TIP3   OH224444   5.970   5.118   0.129 -0.1220 -0.8791  0.1390
  962TIP3    H124445   6.056   5.095   0.095 -1.7923 -3.5515 -2.9824
  962TIP3    H224446   5.915   5.127   0.050 -3.0524 -1.0186  1.9934
  963TIP3   OH224447   4.659   1.122   2.458  0.8883 -0.6114  0.1048
  963TIP3    H124448   4.616   1.164   2.384  1.7962  1.1208  0.5048
  963TIP3    H224449   4.684   1.036   2.425  0.6370 -0.1531 -1.3757
  964TIP3   OH224450   5.271   2.034   7.274 -0.3000 -0.3411 -0.3060
  964TIP3    H124451   5.187   2.068   7.241 -1.1655 -0.9029  1.2237
  964TIP3    H224452   5.254   1.942   7.294  1.6051 -1.4051 -2.9575
  965TIP3   OH224453   6.713   2.058   0.559  0.2885  0.2677  0.3635
  965TIP3    H124454   6.650   2.129   0.561  0.2734  0.2559  0.3016
  965TIP3    H224455   6.664   1.982   0.590  0.4619  0.4096  1.0147
  966TIP3   OH224456   3.061   1.885   8.296 -0.7050 -0.1121 -0.8754
  966TIP3    H124457   3.104   1.916   8.376 -0.8803  0.3697 -0.9644
  966TIP3    H224458   3.092   1.944   8.227  0.3694 -1.2556 -1.3921
  967TIP3   OH224459   3.095   1.203   0.118  0.8531  0.1421  0.5602
  967TIP3    H124460   3.083   1.108   0.122  1.9234  0.0238  1.5917
  967TIP3    H224461   3.092   1.224   0.024 -0.3574 -0.7500  0.3646
  968TIP3   OH224462   4.097   1.665   1.693 -0.4970 -0.2096  0.0779
  968TIP3    H124463   4.140   1.604   1.634 -1.9007 -0.6581 -0.5330
  968TIP3    H224464   4.133   1.645   1.780 -1.6244 -2.6180  0.0594
  969TIP3   OH224465   3.306   3.426   1.950 -0.1025  0.5506 -0.1073
  969TIP3    H124466   3.240   3.482   1.909  0.7728  1.0722 -0.8326
  969TIP3    H224467   3.263   3.394   2.029 -1.2074  0.9173 -0.5318
  970TIP3   OH224468   2.912   6.410   8.191  0.6158  0.2804  0.1906
  970TIP3    H124469   2.912   6.397   8.097  2.5916 -1.5852  0.3709
  970TIP3    H224470   2.862   6.337   8.227  1.3880 -0.0305  0.6617
  971TIP3   OH224471   1.665   6.451   0.453  0.0660 -0.2006  0.2130
  971TIP3    H124472   1.725   6.471   0.382 -0.3954  0.4559 -0.0051
  971TIP3    H224473   1.663   6.355   0.457 -1.0783 -0.3065 -1.6859
  972TIP3   OH224474   1.273   6.680   1.927  0.9196 -0.2188  0.1591
  972TIP3    H124475   1.312   6.693   2.014  1.7849  1.9425 -0.4661
  972TIP3    H224476   1.204   6.746   1.922 -0.4449 -1.6091 -0.1198
  973TIP3   OH224477   5.354   5.155   8.042  0.8084 -0.1339 -0.2211
  973TIP3    H124478   5.263   5.183   8.031  0.9454  1.4345  1.8785
  973TIP3    H224479   5.349   5.076   8.096  0.6923  0.5849  0.8527
  974TIP3   OH224480   1.161   0.966   7.138 -0.1803 -0.9185  0.4642
  974TIP3    H124481   1.108   0.899   7.094 -3.0280 -0.5885  3.0567
  974TIP3    H224482   1.097   1.018   7.187  2.1763  2.2946  0.4072
  975TIP3   OH224483   3.800   6.698   0.833 -0.1620 -0.2240  0.1411
  975TIP3    H124484   3.818   6.604   0.837 -0.8032 -0.3270  0.9142
  975TIP3    H224485   3.851   6.735   0.905  1.1442  0.2178 -0.9821
  976TIP3   OH224486   5.403   5.253   0.365 -0.5738 -1.3715  0.2527
  976TIP3    H124487   5.465   5.228   0.434  1.2082 -2.4488 -1.6519
  976TIP3    H224488   5.422   5.345   0.348  1.2557 -1.9306 -0.9738
  977TIP3   OH224489   4.437   4.082   7.064 -0.1414  0.1278 -0.5787
  977TIP3    H124490   4.475   4.146   7.125  3.8331 -1.6309 -0.9064
  977TIP3    H224491   4.394   4.018   7.120 -0.8397  1.0835  0.0028
  978TIP3   OH224492   0.021   1.071   7.132 -0.1148 -0.1483 -0.1238
  978TIP3    H124493  -0.046   1.111   7.076 -1.4865 -0.1835  1.4267
  978TIP3    H224494  -0.024   0.999   7.176  0.8772 -0.0206  1.1523
  979TIP3   OH224495   2.072   2.859   7.382  0.3966  0.0860 -0.3741
  979TIP3    H124496   2.070   2.807   7.462 -0.1758  1.8947  0.8250
  979TIP3    H224497   2.157   2.904   7.385  0.2941  0.3013 -0.6963
  980TIP3   OH224498   6.657   0.764   6.705 -0.6235 -0.2435  0.0219
  980TIP3    H124499   6.564   0.785   6.718 -0.9673 -0.2991 -1.9931
  980TIP3    H224500   6.703   0.823   6.765 -1.9617 -0.8722  1.7621
  981TIP3   OH224501   4.397   3.744   1.084 -0.0331 -0.2162  0.1438
  981TIP3    H124502   4.303   3.728   1.080  0.1703 -1.4721 -0.1585
  981TIP3    H224503   4.407   3.838   1.071 -1.1952 -0.1883 -0.6237
  982TIP3   OH224504   4.780   3.032   7.157 -0.3837 -0.7886 -0.3724
  982TIP3    H124505   4.771   2.941   7.187  0.2845 -0.8290 -0.2750
  982TIP3    H224506   4.725   3.037   7.079  1.0130 -1.8090 -1.4731
  983TIP3   OH224507   1.469   6.628   1.741 -0.2807  0.6858  0.4961
  983TIP3    H124508   1.547   6.683   1.747 -0.3833  0.9141 -0.2474
  983TIP3    H224509   1.413   6.658   1.813  0.1179  0.8320  0.7469
  984TIP3   OH224510   0.325   4.167   8.038 -0.4132 -0.3342 -0.3188
  984TIP3    H124511   0.280   4.083   8.049  0.9885 -1.2372 -1.2364
  984TIP3    H224512   0.414   4.151   8.067 -0.4582  1.2296  0.7535
  985TIP3   OH224513   0.794   0.528   1.091 -0.4470  0.3406 -0.3500
  985TIP3    H124514   0.767   0.610   1.132  3.1268  0.5202  2.0842
  985TIP3    H224515   0.858   0.554   1.025 -1.3248 -0.3624 -1.5005
  986TIP3   OH224516   5.220   0.354   8.555  0.5571 -0.3680  0.2634
  986TIP3    H124517   5.153   0.390   8.497 -1.8942 -2.1031  1.8393
  986TIP3    H224518   5.285   0.424   8.563 -1.3279  1.6223 -0.9179
  987TIP3   OH224519   6.705   0.926   2.120  0.0402  0.5198 -0.7039
  987TIP3    H124520   6.611   0.947   2.114 -0.4061 -1.0293  0.1377
  987TIP3    H224521   6.707   0.830   2.129  1.6461  0.6156  0.3645
  988TIP3   OH224522   4.138   1.699   8.354 -0.0909  0.2823 -0.2661
  988TIP3    H124523   4.156   1.606   8.344  1.0138  0.2976  1.2632
  988TIP3    H224524   4.144   1.715   8.448 -0.2058  1.9015 -0.5061
  989TIP3   OH224525   0.344   4.763   7.782 -0.0123 -0.1909  0.3839
  989TIP3    H124526   0.276   4.698   7.797 -0.5217  0.2283 -0.0628
  989TIP3    H224527   0.359   4.803   7.868 -0.8954  0.2555  0.3372
  990TIP3   OH224528   2.531   0.518   2.142 -0.0175 -0.0696 -0.4172
  990TIP3    H124529   2.462   0.545   2.203 -0.4032 -1.0697 -0.3890
  990TIP3    H224530   2.513   0.567   2.062 -1.7691 -1.4670 -0.9576
  991TIP3   OH224531   1.121   5.967   1.619 -0.1258  0.2512  0.2091
  991TIP3    H124532   1.069   5.886   1.622  2.7029 -1.7039  0.4955
  991TIP3    H224533   1.185   5.952   1.550  0.6052  2.2052  0.4001
  992TIP3   OH224534   5.522   2.896   7.142  0.3921 -0.1287 -0.0304
  992TIP3    H124535   5.568   2.872   7.062  0.8122  2.3746 -0.6308
  992TIP3    H224536   5.429   2.894   7.117  0.4756 -0.1979 -0.3453
  993TIP3   OH224537   5.347   6.601   1.328 -0.1827  0.5238  0.2309
  993TIP3    H124538   5.359   6.510   1.355 -1.9808 -0.0135 -0.6232
  993TIP3    H224539   5.268   6.629   1.375 -0.1914  1.3287 -0.2597
  994TIP3   OH224540   6.651   4.290   0.702 -0.2869 -0.1613 -0.0720
  994TIP3    H124541   6.627   4.202   0.731  2.0700 -0.4591  1.2312
  994TIP3    H224542   6.692   4.276   0.616 -1.3555 -0.0988 -0.6086
  995TIP3   OH224543   6.352   3.834   7.416  0.5693  0.3704 -0.1759
  995TIP3    H124544   6.265   3.858   7.387  0.3369 -0.0894  0.1210
  995TIP3    H224545   6.345   3.741   7.438  0.6356  0.7491  1.6695
  996TIP3   OH224546   6.213   2.661   7.801 -0.1298  0.1228 -0.2771
  996TIP3    H124547   6.266   2.740   7.802  0.7786 -0.4308  2.2839
  996TIP3    H224548   6.127   2.688   7.834  0.6829 -0.1727  2.2902
  997TIP3   OH224549   4.357   4.230   6.692 -0.0449 -0.5614 -0.3978
  997TIP3    H124550   4.367   4.305   6.751 -1.2247 -0.6305 -0.0780
  997TIP3    H224551   4.439   4.182   6.700  0.2174 -0.0040  0.3921
  998TIP3   OH224552   2.899   5.756   0.250 -0.3335 -0.9599  0.6335
  998TIP3    H124553   2.818   5.707   0.264 -0.4452 -0.8282  0.4504
  998TIP3    H224554   2.871   5.841   0.217 -0.0506 -2.1135 -2.9903
  999TIP3   OH224555   4.733   4.152   7.467 -0.5365 -0.8236  0.5678
  999TIP3    H124556   4.797   4.151   7.538 -0.8523 -0.0094  0.8724
  999TIP3    H224557   4.656   4.107   7.503 -1.2074  0.8037  1.2528
 1000TIP3   OH224558   5.504   4.726   7.100 -0.1554  0.2129  0.2427
 1000TIP3    H124559   5.567   4.738   7.170 -2.1538 -2.3731  2.7333
 1000TIP3    H224560   5.540   4.653   7.048 -0.1154  0.1306  0.3864
 1001TIP3   OH224561   1.025   2.536   0.921  0.6614 -0.3682  0.6016
 1001TIP3    H124562   0.969   2.459   0.930 -1.3089  1.1501  2.3265
 1001TIP3    H224563   1.105   2.513   0.969  0.8104 -1.8759 -0.2887
 1002TIP3   OH224564   5.474   6.667   0.341 -0.5668 -0.0208 -0.1242
 1002TIP3    H124565   5.520   6.712   0.412  1.0857  0.2559 -1.3030
 1002TIP3    H224566   5.411   6.731   0.308 -0.6569  0.1897  0.4398
 1003TIP3   OH224567   5.339   0.500   0.293  0.3363  0.0657 -0.5994
 1003TIP3    H124568   5.420   0.468   0.253  0.8056  1.0392 -0.4662
 1003TIP3    H224569   5.282   0.519   0.218 -0.0153 -1.1930 -0.6754
 1004TIP3   OH224570   3.640   1.153   0.378  0.0568  0.2595  0.1165
 1004TIP3    H124571   3.578   1.086   0.406 -0.7320  1.3076  0.9799
 1004TIP3    H224572   3.717   1.104   0.349 -0.4527 -1.0129  0.8196
 1005TIP3   OH224573   3.947   0.800   7.254 -0.0482  0.2218 -0.0965
 1005TIP3    H124574   3.917   0.712   7.279  1.3419 -1.0938 -2.7159
 1005TIP3    H224575   4.021   0.816   7.313 -0.2527 -0.3845  0.3509
 1006TIP3   OH224576   1.861   5.554   7.996  0.5117  0.2310  0.8163
 1006TIP3    H124577   1.782   5.606   7.987 -0.3416 -0.9706  1.1109
 1006TIP3    H224578   1.899   5.551   7.907 -2.0189 -2.5664 -0.3460
 1007TIP3   OH224579   2.022   0.331   1.167 -0.5194 -0.0288 -0.5599
 1007TIP3    H124580   1.953   0.392   1.190 -0.5179  0.3456 -1.5275
 1007TIP3    H224581   2.061   0.306   1.251  0.8608  2.8833 -0.1998
 1008TIP3   OH224582   0.945   6.074   2.100  0.4501 -0.6585 -0.4369
 1008TIP3    H124583   0.922   6.150   2.047 -1.9653 -1.1350 -0.2063
 1008TIP3    H224584   1.031   6.048   2.069  0.1186  0.4870 -2.4797
 1009TIP3   OH224585   2.163   1.178   0.386  0.0499  0.7179  0.5110
 1009TIP3    H124586   2.073   1.206   0.399 -0.0209  0.7789 -0.0770
 1009TIP3    H224587   2.177   1.111   0.452 -0.2716  1.0518  0.9226
 1010TIP3   OH224588   2.886   0.350   0.124 -0.2269 -0.5224  0.3862
 1010TIP3    H124589   2.845   0.320   0.205 -0.3635  1.7557  1.2167
 1010TIP3    H224590   2.977   0.366   0.147 -0.1066 -0.4796 -0.0969
 1011TIP3   OH224591   0.723   0.075   7.929 -0.0275 -0.3922  0.5895
 1011TIP3    H124592   0.629   0.093   7.922  0.3842  1.2277 -1.8863
 1011TIP3    H224593   0.745   0.034   7.845  1.3240 -1.7504  1.5636
 1012TIP3   OH224594   3.239   1.703   1.595 -0.0967  0.2358  0.1147
 1012TIP3    H124595   3.221   1.609   1.593  0.8300  0.0066  1.1770
 1012TIP3    H224596   3.220   1.729   1.685 -2.0528  1.4640 -0.5980
 1013TIP3   OH224597   4.871   2.974   6.462  0.4751 -0.3736  0.3409
 1013TIP3    H124598   4.924   2.981   6.382 -0.6328 -0.1545 -0.3911
 1013TIP3    H224599   4.814   3.051   6.459  3.4741  2.3093  3.6821
 1014TIP3   OH224600   2.667   4.921   0.324  0.0516  0.7659 -0.2235
 1014TIP3    H124601   2.697   4.860   0.256  0.5660 -0.2991  0.9182
 1014TIP3    H224602   2.742   4.980   0.337  0.7472 -0.2959  0.8129
 1015TIP3   OH224603   3.806   1.984   0.303  0.0405 -0.0654  0.4712
 1015TIP3    H124604   3.727   2.023   0.265  0.5915 -1.8441 -2.9433
 1015TIP3    H224605   3.871   2.054   0.302 -0.7419  0.6814  0.7526
 1016TIP3   OH224606   1.099   3.481   1.608  0.2879 -0.7822 -0.0204
 1016TIP3    H124607   1.176   3.535   1.624  0.3700 -1.0481  0.5016
 1016TIP3    H224608   1.025   3.536   1.633  0.4384 -1.4718  2.2628
 1017TIP3   OH224609   5.372   1.882   6.416  0.2580  0.8955 -0.0381
 1017TIP3    H124610   5.352   1.971   6.446 -2.2101 -0.1663  1.7819
 1017TIP3    H224611   5.361   1.827   6.493 -2.2532 -1.4825 -1.8913
 1018TIP3   OH224612   2.427   2.320   7.251 -0.4063 -0.0702  0.2272
 1018TIP3    H124613   2.347   2.273   7.227 -0.1054  0.1406 -1.2439
 1018TIP3    H224614   2.471   2.261   7.312 -1.5869 -0.2654  0.9252
 1019TIP3   OH224615   2.835   5.472   7.127  0.1569  0.2707  0.6884
 1019TIP3    H124616   2.879   5.556   7.111  1.9541 -0.6510  0.4808
 1019TIP3    H224617   2.880   5.435   7.203  0.8896 -1.4303 -0.5000
 1020TIP3   OH224618   2.052   1.622   2.511  0.2646 -0.0230 -0.0735
 1020TIP3    H124619   2.058   1.667   2.595  3.1063  0.7842 -0.5916
 1020TIP3    H224620   1.973   1.657   2.470 -0.0938  1.0318  1.4402
 1021TIP3   OH224621   3.371   5.065   8.139  0.4749  0.0910 -0.0577
 1021TIP3    H124622   3.439   5.004   8.109  0.4446 -0.2464  0.5388
 1021TIP3    H224623   3.292   5.011   8.146  0.6945 -0.0747  1.5252
 1022TIP3   OH224624   4.098   3.859   1.752  0.0343  0.0653 -0.4514
 1022TIP3    H124625   4.107   3.948   1.784 -2.0423  0.1313  0.0630
 1022TIP3    H224626   4.173   3.812   1.790 -0.5560  0.8963  1.8758
 1023TIP3   OH224627   2.132   0.933   8.498  0.5391 -0.1356 -0.1570
 1023TIP3    H124628   2.192   0.987   8.549  0.6796  0.7422 -1.2231
 1023TIP3    H224629   2.183   0.855   8.477  0.9376  0.1095 -0.1161
 1024TIP3   OH224630   0.514   4.085   6.806 -0.8132  1.0233 -0.0167
 1024TIP3    H124631   0.438   4.036   6.777  0.0267 -0.4148  0.1348
 1024TIP3    H224632   0.521   4.065   6.900  0.0771  0.6583 -0.1499
 1025TIP3   OH224633   0.853   0.953   1.721  0.1456  0.2660 -0.4805
 1025TIP3    H124634   0.827   1.025   1.779 -2.1714 -1.4643  0.7875
 1025TIP3    H224635   0.823   0.979   1.635  1.0358  1.6103 -0.4142
 1026TIP3   OH224636   1.254   3.399   6.483 -0.3098 -0.0742  0.1017
 1026TIP3    H124637   1.271   3.469   6.419 -3.1542  0.5498 -0.0953
 1026TIP3    H224638   1.339   3.383   6.524  0.5409  3.2945 -0.0584
 1027TIP3   OH224639   3.926   2.042   1.145 -0.2369 -0.3075 -0.3975
 1027TIP3    H124640   3.949   2.108   1.080 -0.9007 -0.7708 -1.1246
 1027TIP3    H224641   3.981   1.966   1.123  0.6236  0.0281  0.5166
 1028TIP3   OH224642   1.435   3.872   7.030  0.5418  0.2441 -0.5992
 1028TIP3    H124643   1.368   3.874   6.961  1.4818 -1.8155 -1.6541
 1028TIP3    H224644   1.386   3.867   7.112 -0.5915  0.1207 -1.2740
 1029TIP3   OH224645   1.564   0.590   6.840 -0.4754  0.5527  0.1850
 1029TIP3    H124646   1.639   0.558   6.891 -0.2632  3.1485  1.6629
 1029TIP3    H224647   1.492   0.531   6.863  0.5423 -0.6188  0.4801
 1030TIP3   OH224648   3.661   1.235   0.076  0.3644 -0.1195 -0.1824
 1030TIP3    H124649   3.617   1.205  -0.003  0.5288 -0.8974  0.0146
 1030TIP3    H224650   3.695   1.155   0.116  3.0211  0.5418 -0.9465
 1031TIP3   OH224651   4.849   0.075   1.285 -0.9699 -0.7051 -0.4758
 1031TIP3    H124652   4.794   0.153   1.272 -0.9001 -0.7665 -1.2331
 1031TIP3    H224653   4.926   0.092   1.231  0.5008  0.0666  1.7526
 1032TIP3   OH224654   6.392   0.317   6.659  0.0109  0.6412  0.4554
 1032TIP3    H124655   6.389   0.390   6.596 -0.8013 -0.9625 -1.4654
 1032TIP3    H224656   6.325   0.339   6.724  0.9194  2.3708  0.8787
 1033TIP3   OH224657   5.620   4.297   0.236  0.5037 -0.1079 -0.0664
 1033TIP3    H124658   5.617   4.327   0.145 -0.0308 -0.2023 -0.0849
 1033TIP3    H224659   5.540   4.332   0.276  0.5899 -0.3069  0.2913
 1034TIP3   OH224660   5.748   2.492   7.932 -0.7450 -0.3250 -0.6338
 1034TIP3    H124661   5.677   2.461   7.876 -0.3655 -0.6815 -0.9273
 1034TIP3    H224662   5.756   2.426   8.001 -1.4481  0.2922  0.0631
 1035TIP3   OH224663   4.901   1.945   7.711 -0.9248 -0.5961  0.4897
 1035TIP3    H124664   4.839   2.005   7.669 -0.5642 -0.3993  0.2295
 1035TIP3    H224665   4.856   1.913   7.789 -1.7602 -1.2548 -0.2410
 1036TIP3   OH224666   5.219   3.425   1.404 -0.3547 -0.0335 -0.2383
 1036TIP3    H124667   5.178   3.423   1.318  1.6648  0.1425 -1.2521
 1036TIP3    H224668   5.223   3.333   1.431 -0.4948 -0.1401 -0.5812
 1037TIP3   OH224669   0.290   6.673   8.137  0.2233 -0.4769  0.3470
 1037TIP3    H124670   0.350   6.731   8.184 -0.7444  0.4110  0.5296
 1037TIP3    H224671   0.203   6.709   8.155 -0.2319 -0.5955 -1.4706
 1038TIP3   OH224672   2.683   6.804   2.446 -0.2313  0.2065  0.4581
 1038TIP3    H124673   2.652   6.893   2.463  1.9634  1.0807  0.2299
 1038TIP3    H224674   2.778   6.809   2.458  0.3147 -1.4182 -2.2311
 1039TIP3   OH224675   0.128   6.166   8.026 -0.1682  0.1306  0.3757
 1039TIP3    H124676   0.166   6.233   8.082  1.0945 -0.8377  0.7348
 1039TIP3    H224677   0.092   6.101   8.088 -0.0880 -0.2220  0.0584
 1040TIP3   OH224678   5.589   6.831   8.053 -0.5887 -0.6507 -0.4884
 1040TIP3    H124679   5.577   6.748   8.007 -0.0380  0.3240 -2.5108
 1040TIP3    H224680   5.601   6.895   7.983  0.9737  0.8266  1.0378
 1041TIP3   OH224681   1.941   3.380   0.143 -0.2994  0.1070 -0.0337
 1041TIP3    H124682   1.944   3.373   0.048  4.2863  0.6462 -0.1544
 1041TIP3    H224683   1.953   3.473   0.160  1.6928 -0.2747  0.9504
 1042TIP3   OH224684   3.337   5.388   6.782 -0.1994 -0.6738 -0.5154
 1042TIP3    H124685   3.430   5.411   6.775 -0.2050 -0.3724  0.2427
 1042TIP3    H224686   3.333   5.295   6.762 -0.0691 -0.2239 -2.9366
 1043TIP3   OH224687   3.108   6.799   1.677  0.1701  0.2683 -0.1115
 1043TIP3    H124688   3.099   6.718   1.627  0.0642  0.2906 -0.1284
 1043TIP3    H224689   3.072   6.777   1.763 -0.6774  0.5568 -0.3838
 1044TIP3   OH224690   3.625   2.330   7.702  0.0635 -0.4018 -0.0060
 1044TIP3    H124691   3.720   2.325   7.709  0.0506 -0.3138  0.2413
 1044TIP3    H224692   3.603   2.418   7.733 -0.0959 -0.4143 -0.0831
 1045TIP3   OH224693   4.460   2.407   1.475  0.4738 -0.3240 -0.2282
 1045TIP3    H124694   4.462   2.359   1.558  3.6875  0.9306  0.5871
 1045TIP3    H224695   4.532   2.369   1.424  0.2904  0.7471 -1.3271
 1046TIP3   OH224696   3.576   0.398   1.916  0.5404 -0.2930 -0.3565
 1046TIP3    H124697   3.578   0.388   1.821 -1.2991 -2.6282 -0.2166
 1046TIP3    H224698   3.505   0.460   1.931 -0.0066 -0.8836 -0.4672
 1047TIP3   OH224699   3.300   1.287   2.870  0.1927  0.0922  0.2529
 1047TIP3    H124700   3.223   1.318   2.917  0.6103 -1.0750  1.7956
 1047TIP3    H224701   3.366   1.355   2.886 -0.4822  1.0827 -1.0570
 1048TIP3   OH224702   3.578   6.735   0.119  0.3313  0.2349 -0.0101
 1048TIP3    H124703   3.502   6.782   0.085 -1.2854 -1.0843  1.6070
 1048TIP3    H224704   3.593   6.665   0.055  0.5947  0.8785 -0.6581
 1049TIP3   OH224705   4.090   0.767   6.408 -0.2788  0.1507  0.1807
 1049TIP3    H124706   4.071   0.859   6.392  0.3512  0.2830  0.2074
 1049TIP3    H224707   4.172   0.750   6.363  1.0422  0.2956  2.3678
 1050TIP3   OH224708   0.917   6.847   8.443 -0.0056  0.1722  0.1267
 1050TIP3    H124709   0.889   6.756   8.448 -0.3518  0.3469  1.8117
 1050TIP3    H224710   0.839   6.895   8.417  0.6377 -0.1780 -2.8174
 1051TIP3   OH224711   3.633   3.241   0.285 -0.2997  0.5515 -0.6897
 1051TIP3    H124712   3.683   3.190   0.221 -0.5822 -1.7230  0.7583
 1051TIP3    H224713   3.696   3.302   0.322  0.9468 -0.8983 -0.3157
 1052TIP3   OH224714   0.371   5.657   7.964 -0.4870  0.2890 -0.3559
 1052TIP3    H124715   0.395   5.568   7.939 -0.1964  0.6536 -1.4414
 1052TIP3    H224716   0.276   5.659   7.962 -0.5286 -0.2562  0.6497
 1053TIP3   OH224717   0.640   4.137   1.908 -0.3192  0.2512  0.1160
 1053TIP3    H124718   0.652   4.223   1.947  1.8340  0.9899 -1.9397
 1053TIP3    H224719   0.574   4.094   1.963 -0.1745  2.5400  2.2200
 1054TIP3   OH224720   6.241   1.440   1.641 -0.0771 -0.1465 -0.2058
 1054TIP3    H124721   6.258   1.353   1.677 -1.3227 -0.0094  0.7534
 1054TIP3    H224722   6.290   1.500   1.697  1.3645 -0.2438 -1.2899
 1055TIP3   OH224723   3.723   2.087   8.264  0.5061  0.1180 -0.1163
 1055TIP3    H124724   3.676   2.017   8.220 -1.2304  1.0728  0.1333
 1055TIP3    H224725   3.813   2.079   8.233 -0.5361  0.6096 -3.6901
 1056TIP3   OH224726   1.867   5.409   1.825  0.1442 -0.0432  0.1356
 1056TIP3    H124727   1.931   5.448   1.765 -0.7358 -0.5491 -1.1788
 1056TIP3    H224728   1.850   5.322   1.788 -0.8351 -0.1552  0.8229
 1057TIP3   OH224729   4.782   4.256   1.150 -0.2471  0.4233  0.2660
 1057TIP3    H124730   4.735   4.185   1.194  1.9826 -1.2106  0.1544
 1057TIP3    H224731   4.729   4.273   1.072 -1.7263  0.0856  1.1410
 1058TIP3   OH224732   6.173   4.220   0.035 -0.0213  0.1260 -0.6569
 1058TIP3    H124733   6.078   4.229   0.028 -0.0155  1.3676  0.3350
 1058TIP3    H224734   6.207   4.273  -0.037 -0.0934  0.4080 -0.4898
 1059TIP3   OH224735   2.739   6.844   0.340  0.2572 -0.2598  0.1155
 1059TIP3    H124736   2.722   6.838   0.434 -0.8491  0.4643 -0.0157
 1059TIP3    H224737   2.728   6.754   0.308 -0.9921 -0.2417  0.4389
 1060TIP3   OH224738   5.659   4.539   6.964  0.2695  0.0708 -0.1213
 1060TIP3    H124739   5.603   4.480   6.912  1.8166 -0.4034 -1.3495
 1060TIP3    H224740   5.707   4.480   7.022 -1.4284  0.5994  1.9490
 1061TIP3   OH224741   3.254   6.327   0.188 -0.6335 -0.2531  0.4346
 1061TIP3    H124742   3.347   6.349   0.192 -0.4033 -0.6816 -1.3666
 1061TIP3    H224743   3.249   6.238   0.224 -0.4321 -0.0386  0.9989
 1062TIP3   OH224744   2.855   3.302   0.416  0.2685  0.1704  0.3973
 1062TIP3    H124745   2.802   3.381   0.424  1.3847  1.0674 -0.5727
 1062TIP3    H224746   2.796   3.237   0.376 -0.7765  0.3560  1.5861
 1063TIP3   OH224747   3.061   0.098   8.584  0.5273  0.4640  0.3796
 1063TIP3    H124748   3.091   0.123   8.496 -0.1298 -1.5564 -0.4844
 1063TIP3    H224749   3.027   0.179   8.621  0.8340  1.3856 -1.2287
 1064TIP3   OH224750   1.829   2.221   2.259  0.1053 -0.0066 -0.6520
 1064TIP3    H124751   1.821   2.142   2.313  1.3496  0.5605  0.4139
 1064TIP3    H224752   1.910   2.207   2.209  2.2189  1.8938  1.9439
 1065TIP3   OH224753   2.451   5.068   6.315 -0.1416 -0.4066 -0.2653
 1065TIP3    H124754   2.506   5.091   6.239 -0.7002  1.6043 -0.1105
 1065TIP3    H224755   2.382   5.012   6.279  0.6456 -1.0098 -0.8819
 1066TIP3   OH224756   1.264   3.364   2.004 -0.2986 -1.0273 -0.3334
 1066TIP3    H124757   1.257   3.312   2.084 -1.2929  0.0846  0.3311
 1066TIP3    H224758   1.185   3.419   2.004  1.1347  1.1451 -0.5358
 1067TIP3   OH224759   0.755   4.670   0.039 -0.0027 -0.1068 -0.0268
 1067TIP3    H124760   0.753   4.609  -0.035  0.1529 -0.3226  0.1491
 1067TIP3    H224761   0.682   4.730   0.022  0.3749  0.1842 -0.6486
 1068TIP3   OH224762   5.551   1.295   7.774  0.0647 -0.8076 -0.1907
 1068TIP3    H124763   5.540   1.285   7.868 -0.3838 -0.7059 -0.2320
 1068TIP3    H224764   5.465   1.323   7.742  0.2063 -0.8689 -0.6332
 1069TIP3   OH224765   0.338   3.953   0.460  0.0787 -0.1207 -0.2080
 1069TIP3    H124766   0.431   3.933   0.450 -0.4113 -1.7897 -1.9197
 1069TIP3    H224767   0.312   3.990   0.376 -0.6801  1.0747  0.5151
 1070TIP3   OH224768   4.596   1.413   0.692 -1.0987  0.1346  0.1035
 1070TIP3    H124769   4.656   1.437   0.762 -0.3571  0.5003 -0.6321
 1070TIP3    H224770   4.633   1.456   0.614 -3.0454  1.5043 -0.1327
 1071TIP3   OH224771   5.444   6.465   8.534  0.5014  0.6855 -0.0108
 1071TIP3    H124772   5.468   6.516   8.457 -1.9106  0.7188 -0.7933
 1071TIP3    H224773   5.511   6.396   8.538  2.4364  2.4326 -0.2935
 1072TIP3   OH224774   2.847   4.892   0.842  0.2705 -0.1982 -0.1001
 1072TIP3    H124775   2.928   4.926   0.881  0.5059 -1.0735  0.1972
 1072TIP3    H224776   2.854   4.913   0.749  0.7367 -0.0832 -0.0408
 1073TIP3   OH224777   1.232   0.373   0.928  0.5946  0.4070 -0.0625
 1073TIP3    H124778   1.300   0.409   0.872  0.4677 -0.1307 -0.5714
 1073TIP3    H224779   1.221   0.283   0.898 -1.7352  1.0301 -1.3624
 1074TIP3   OH224780   6.023   3.803   0.324  0.3794 -0.0869  0.6169
 1074TIP3    H124781   6.070   3.884   0.305  0.1450  0.7601  3.1887
 1074TIP3    H224782   5.931   3.830   0.335  0.0858 -0.9174  0.3025
 1075TIP3   OH224783   6.705   1.468   8.083  0.6576  0.1003 -0.4344
 1075TIP3    H124784   6.613   1.442   8.087  0.8978 -0.7585 -0.1323
 1075TIP3    H224785   6.736   1.436   7.999  0.3087  1.7480 -1.2203
 1076TIP3   OH224786   0.178   1.467   2.312 -0.2290 -0.0294 -0.3464
 1076TIP3    H124787   0.182   1.408   2.387 -1.5495 -0.4834 -0.6044
 1076TIP3    H224788   0.204   1.413   2.237  0.9192  0.3776 -0.2653
 1077TIP3   OH224789   1.815   1.966   0.485 -0.2655  0.0507  0.1323
 1077TIP3    H124790   1.876   1.992   0.415 -2.1366  0.8147 -1.3002
 1077TIP3    H224791   1.797   2.048   0.532 -0.2975 -0.1528  0.4769
 1078TIP3   OH224792   6.049   5.084   7.636  0.2148  0.0218  0.4032
 1078TIP3    H124793   6.120   5.089   7.572  1.5578 -2.1831  1.5777
 1078TIP3    H224794   6.094   5.079   7.721 -1.4133  0.0982  1.3012
 1079TIP3   OH224795   1.926   4.834   1.158  0.3149 -0.1625 -0.6975
 1079TIP3    H124796   1.969   4.798   1.080  3.2514 -0.5617  1.0017
 1079TIP3    H224797   1.946   4.928   1.155  1.6070 -0.3828  0.2077
 1080TIP3   OH224798   2.190   6.367   7.956 -0.1304  0.3258  0.7880
 1080TIP3    H124799   2.256   6.333   8.017  0.5991  0.8352  0.2902
 1080TIP3    H224800   2.167   6.453   7.992 -0.9596 -0.0958  1.2835
 1081TIP3   OH224801   0.582   2.470   2.126 -0.2829 -0.2170  0.8602
 1081TIP3    H124802   0.671   2.486   2.157 -0.3938 -0.6721  1.4136
 1081TIP3    H224803   0.530   2.540   2.165 -0.5094 -1.0663  2.1123
 1082TIP3   OH224804   5.104   1.521   8.293 -0.2023  0.0473  0.2497
 1082TIP3    H124805   5.037   1.510   8.360 -1.0824  0.5332 -0.5301
 1082TIP3    H224806   5.059   1.503   8.211 -0.5635  4.3108 -0.7334
 1083TIP3   OH224807   2.594   3.867   0.675  0.5563  0.3148 -0.0291
 1083TIP3    H124808   2.667   3.889   0.733  0.3524  1.5529 -0.2020
 1083TIP3    H224809   2.597   3.772   0.667  0.9560  0.1631  1.5258
 1084TIP3   OH224810   6.335   2.315   8.255  0.0800 -0.8501 -0.0079
 1084TIP3    H124811   6.322   2.344   8.165  1.0810 -2.7058 -0.8005
 1084TIP3    H224812   6.309   2.223   8.255 -0.4351 -0.7403  1.7461
 1085TIP3   OH224813   3.209   5.696   7.865 -0.2735  0.6955  0.0917
 1085TIP3    H124814   3.136   5.665   7.920  0.9683  0.2252  1.5505
 1085TIP3    H224815   3.241   5.618   7.821  0.0116  0.7080  0.2746
 1086TIP3   OH224816   1.367   5.879   0.537 -0.1850  0.1884 -0.1598
 1086TIP3    H124817   1.386   5.810   0.473  0.7712  1.0298 -0.8143
 1086TIP3    H224818   1.392   5.841   0.621 -1.3886 -0.9107 -0.2657
 1087TIP3   OH224819   6.089   2.119   2.506 -0.3687 -0.0037  0.0732
 1087TIP3    H124820   6.041   2.142   2.426 -1.9467 -0.6679  0.7734
 1087TIP3    H224821   6.107   2.026   2.498 -0.3422 -0.0278  0.3853
 1088TIP3   OH224822   4.398   4.412   7.539  0.0652 -0.3519 -0.6601
 1088TIP3    H124823   4.343   4.335   7.551 -1.3265  0.8368  1.1506
 1088TIP3    H224824   4.363   4.476   7.601  3.4691  0.5132  0.5880
 1089TIP3   OH224825   2.996   1.620   6.921 -0.0878 -0.4491 -0.2799
 1089TIP3    H124826   2.965   1.543   6.873 -0.4562  0.3888 -1.4358
 1089TIP3    H224827   3.085   1.597   6.947  1.0081 -0.1949 -3.3234
 1090TIP3   OH224828   1.001   1.183   0.264 -0.0272 -0.3016  0.2702
 1090TIP3    H124829   0.909   1.190   0.240 -0.7614 -1.2229  2.5687
 1090TIP3    H224830   1.035   1.111   0.209 -0.4494  0.4681 -1.0562
 1091TIP3   OH224831   1.477   4.790   6.709 -0.3340 -0.0978  0.1360
 1091TIP3    H124832   1.442   4.843   6.638 -1.0940  0.0549  0.6062
 1091TIP3    H224833   1.401   4.742   6.742 -1.0194  2.8254  3.4764
 1092TIP3   OH224834   6.092   2.865   1.777  0.1081 -0.0986 -0.2146
 1092TIP3    H124835   6.018   2.896   1.830  0.6776  1.0617 -0.0822
 1092TIP3    H224836   6.058   2.864   1.687  0.1674  1.2598 -0.2691
 1093TIP3   OH224837   3.223   5.245   7.966 -0.3190  0.4458 -0.0675
 1093TIP3    H124838   3.278   5.321   7.984 -1.0190  0.6673  1.2916
 1093TIP3    H224839   3.252   5.179   8.030  0.6582 -0.6596 -1.5870
 1094TIP3   OH224840   5.570   3.343   7.158  0.2467  0.0283  0.1140
 1094TIP3    H124841   5.619   3.368   7.080  0.4577 -1.5856 -0.3060
 1094TIP3    H224842   5.502   3.410   7.166  1.3711  1.2673 -0.3427
 1095TIP3   OH224843   5.088   6.294   8.540  0.5087  0.2547 -0.1304
 1095TIP3    H124844   5.053   6.320   8.625 -0.1328  1.0945 -0.6432
 1095TIP3    H224845   5.177   6.266   8.559 -0.3563 -1.9074  1.2133
 1096TIP3   OH224846   6.604   3.011   6.657  0.4597 -0.1987 -0.2949
 1096TIP3    H124847   6.570   2.969   6.578 -1.4522  0.8496 -0.0967
 1096TIP3    H224848   6.551   2.975   6.728  0.7329  0.4249  0.2319
 1097TIP3   OH224849   0.745   2.699   8.430 -0.2451 -0.6432 -0.1841
 1097TIP3    H124850   0.832   2.662   8.445  0.1734  0.4405  0.1848
 1097TIP3    H224851   0.715   2.657   8.349  0.5698 -1.1100 -0.2608
 1098TIP3   OH224852   0.531   0.786   2.146  0.2974 -0.4339 -0.0074
 1098TIP3    H124853   0.619   0.747   2.148  0.3529 -0.3189 -0.1772
 1098TIP3    H224854   0.547   0.880   2.149  0.1132 -0.4092  2.5064
 1099TIP3   OH224855   2.415   3.401   0.767 -0.2225 -0.2498  0.0713
 1099TIP3    H124856   2.401   3.311   0.737 -1.9522  0.1942 -0.5600
 1099TIP3    H224857   2.464   3.442   0.696 -0.4809 -0.3787 -0.1847
 1100TIP3   OH224858   5.063   2.439   1.822  0.3760  0.2866 -0.5220
 1100TIP3    H124859   5.055   2.347   1.849 -0.6656 -0.2605 -2.4724
 1100TIP3    H224860   5.000   2.485   1.877  3.5801  0.6608  3.2929
 1101TIP3   OH224861   5.630   2.105   1.870  0.5931  0.0966 -0.1464
 1101TIP3    H124862   5.548   2.063   1.848 -0.0561  0.6418  1.0899
 1101TIP3    H224863   5.641   2.174   1.804 -0.9439  1.2674  0.7611
 1102TIP3   OH224864   4.804   6.479   1.737  0.4067  0.7243 -0.4154
 1102TIP3    H124865   4.809   6.390   1.771 -1.8172  1.1489  1.3054
 1102TIP3    H224866   4.894   6.510   1.737  1.0996 -1.1810 -0.0614
 1103TIP3   OH224867   5.100   3.426   7.212 -0.3207  1.0674  0.2494
 1103TIP3    H124868   5.188   3.462   7.229 -0.9440  2.6920  0.2219
 1103TIP3    H224869   5.049   3.453   7.288 -0.8988  0.4407  0.0897
 1104TIP3   OH224870   5.995   3.998   2.740  0.7211  1.1349  0.1062
 1104TIP3    H124871   5.959   4.031   2.822 -0.9469 -0.1144 -0.0825
 1104TIP3    H224872   5.943   4.040   2.672 -1.8133 -2.0501 -0.1330
 1105TIP3   OH224873   4.053   4.513   0.141 -0.2592  1.0099 -0.4151
 1105TIP3    H124874   4.034   4.482   0.229 -1.7938 -0.1918 -1.1254
 1105TIP3    H224875   4.148   4.523   0.139  0.2033 -2.1557  0.3953
 1106TIP3   OH224876   2.354   5.097   1.117 -0.4200 -0.3192  0.0765
 1106TIP3    H124877   2.264   5.076   1.141 -0.8592  0.2514 -0.9822
 1106TIP3    H224878   2.407   5.030   1.160 -1.4562 -1.3951 -0.2626
 1107TIP3   OH224879   6.405   4.869   6.864  0.3271  0.6380  0.4848
 1107TIP3    H124880   6.476   4.923   6.898  0.4289  0.8342 -0.0314
 1107TIP3    H224881   6.436   4.838   6.780  0.1634 -0.0240  0.6645
 1108TIP3   OH224882   0.405   4.858   2.434 -0.3237 -0.0115 -0.3263
 1108TIP3    H124883   0.324   4.906   2.422  0.0556  0.6815 -0.1681
 1108TIP3    H224884   0.387   4.771   2.398 -1.0429  0.2199 -0.5414
 1109TIP3   OH224885   6.689   2.135   8.026  0.1557  0.2840  0.5028
 1109TIP3    H124886   6.628   2.132   8.099  0.0454  0.2638  0.4107
 1109TIP3    H224887   6.675   2.221   7.986  0.9985  0.7337  1.1670
 1110TIP3   OH224888   6.627   0.868   0.127  1.3060  0.6331  0.4098
 1110TIP3    H124889   6.614   0.799   0.061 -0.4281  1.5276 -0.2740
 1110TIP3    H224890   6.722   0.880   0.131  1.5242 -0.2426 -1.1116
 1111TIP3   OH224891   3.303   2.972   0.592  0.4668 -0.5066  0.6758
 1111TIP3    H124892   3.223   2.964   0.539  0.9581 -1.2311  0.0144
 1111TIP3    H224893   3.372   2.992   0.528  1.2634 -2.4708  0.8615
 1112TIP3   OH224894   4.254   0.473   8.326  0.0398  0.9231 -0.4480
 1112TIP3    H124895   4.191   0.421   8.377  0.4813  0.2077 -0.6107
 1112TIP3    H224896   4.277   0.546   8.383 -1.9038  1.9265 -0.8683
 1113TIP3   OH224897   4.068   1.279   6.538 -0.0100 -0.1144  0.3544
 1113TIP3    H124898   4.150   1.303   6.583  0.0315  1.4497 -0.4619
 1113TIP3    H224899   4.094   1.268   6.446 -0.6075 -0.1829  0.1914
 1114TIP3   OH224900   2.926   5.019   0.233 -0.4326 -0.4376 -0.3247
 1114TIP3    H124901   2.958   4.978   0.314 -1.8221 -1.0336 -0.0546
 1114TIP3    H224902   2.975   4.976   0.163 -0.3126 -1.0099  0.1009
 1115TIP3   OH224903   3.006   2.531   6.960  0.1665  0.0861 -0.0406
 1115TIP3    H124904   2.968   2.619   6.955 -0.2901 -0.1596 -1.2721
 1115TIP3    H224905   2.954   2.486   7.026 -2.2000 -0.4223 -2.0757
 1116TIP3   OH224906   3.938   4.367   7.717  0.0265  0.4987 -0.4447
 1116TIP3    H124907   3.846   4.344   7.733  0.3520  0.0122  0.8272
 1116TIP3    H224908   3.945   4.458   7.746 -0.5179  1.2629 -2.5252
 1117TIP3   OH224909   3.888   2.308   0.036  0.0557 -0.2123  0.0226
 1117TIP3    H124910   3.953   2.334   0.101  0.3816 -0.2051 -0.3035
 1117TIP3    H224911   3.837   2.387   0.020  1.1781  0.3205 -1.1231
 1118TIP3   OH224912   6.415   0.010   1.718 -0.6848  0.0935 -0.5465
 1118TIP3    H124913   6.420   0.054   1.633  1.1277  0.2965 -0.3836
 1118TIP3    H224914   6.409   0.080   1.782 -2.1589 -0.0621 -0.4723
 1119TIP3   OH224915   0.325   1.607   0.855  0.0744  0.0573  0.3203
 1119TIP3    H124916   0.254   1.660   0.818 -0.0537 -0.4789 -0.2021
 1119TIP3    H224917   0.345   1.651   0.938  0.9166  1.7403 -0.7240
 1120TIP3   OH224918   3.196   2.463   0.832 -0.0155  0.2675 -0.4247
 1120TIP3    H124919   3.135   2.511   0.888 -0.1175 -0.3429  0.0026
 1120TIP3    H224920   3.140   2.406   0.780  0.2577 -1.8713  1.4689
 1121TIP3   OH224921   3.585   5.291   7.888  0.0608  0.3014 -0.2379
 1121TIP3    H124922   3.645   5.310   7.960  0.3299 -0.3742 -0.2767
 1121TIP3    H224923   3.610   5.203   7.859  0.4664  0.8780 -1.6650
 1122TIP3   OH224924   6.111   5.952   0.274  0.0113  0.8427  0.2134
 1122TIP3    H124925   6.053   5.975   0.346 -1.0972  2.3575 -1.0779
 1122TIP3    H224926   6.168   6.028   0.263  1.2483 -0.0072  0.4666
 1123TIP3   OH224927   4.093   4.548   2.103 -0.2847  0.1718  0.1169
 1123TIP3    H124928   4.043   4.606   2.159  1.1714  2.4701 -0.8050
 1123TIP3    H224929   4.098   4.593   2.019 -0.0798 -1.8729 -1.0471
 1124TIP3   OH224930   6.505   5.651   2.176 -0.7745  0.8748 -0.0188
 1124TIP3    H124931   6.457   5.721   2.220  0.8802  1.2836  1.2350
 1124TIP3    H224932   6.480   5.571   2.224  0.4950  1.2216  1.2604
 1125TIP3   OH224933   6.269   4.420   7.197  0.1138 -0.0419  0.6951
 1125TIP3    H124934   6.296   4.405   7.288  0.6448 -1.5622  0.3248
 1125TIP3    H224935   6.175   4.400   7.197  0.7595 -4.0652  0.2382
 1126TIP3   OH224936   4.275   0.889   0.812  0.6345 -0.1872  0.0686
 1126TIP3    H124937   4.196   0.932   0.846  1.6241  0.3350  1.8125
 1126TIP3    H224938   4.328   0.960   0.778  0.5402 -0.5033 -0.7740
 1127TIP3   OH224939   3.056   1.891   1.171  0.0149  0.5104  0.2110
 1127TIP3    H124940   3.125   1.953   1.195 -1.4153  2.3858 -0.2561
 1127TIP3    H224941   3.001   1.885   1.250  0.8211 -1.1913  0.6797
 1128TIP3   OH224942   0.814   5.038   2.099  0.8148 -0.3256  0.3231
 1128TIP3    H124943   0.793   5.127   2.069 -1.3827 -0.3242  1.5840
 1128TIP3    H224944   0.886   5.009   2.043  1.8490  2.3755  0.1241
 1129TIP3   OH224945   2.675   0.290   8.149  0.1335 -0.0044  0.2472
 1129TIP3    H124946   2.603   0.320   8.204 -1.5605 -1.2757 -1.1466
 1129TIP3    H224947   2.730   0.238   8.207 -0.8206 -0.1431  1.0500
 1130TIP3   OH224948   5.060   1.536   1.548  0.3552 -0.1397 -0.3790
 1130TIP3    H124949   4.993   1.468   1.552 -0.3716  0.5564 -0.4049
 1130TIP3    H224950   5.014   1.617   1.573  1.6915  0.0232  1.8320
 1131TIP3   OH224951   6.065   3.090   1.172  0.2321  0.2894  0.0461
 1131TIP3    H124952   6.105   3.063   1.254 -0.4606 -2.9655 -0.5343
 1131TIP3    H224953   6.138   3.113   1.115  0.7958  1.0861  1.0731
 1132TIP3   OH224954   0.341   5.567   0.952  0.3866  0.1282  0.3950
 1132TIP3    H124955   0.316   5.548   1.043 -1.9576 -0.2425 -0.2456
 1132TIP3    H224956   0.259   5.557   0.903  1.6142  0.2199 -1.7834
 1133TIP3   OH224957   1.385   4.838   7.634  0.0538 -0.6471  0.4359
 1133TIP3    H124958   1.473   4.833   7.599  0.6269  2.1412  1.2942
 1133TIP3    H224959   1.386   4.780   7.711  1.5042  0.2154  1.0981
 1134TIP3   OH224960   3.275   4.994   2.533  0.1528  0.0853  0.5685
 1134TIP3    H124961   3.284   5.051   2.609  1.6732 -1.8548  1.9283
 1134TIP3    H224962   3.289   4.906   2.566  1.8067 -0.7823 -2.0843
 1135TIP3   OH224963   6.400   0.147   7.302  0.2655  0.0426  0.1759
 1135TIP3    H124964   6.486   0.109   7.319  0.4149 -0.1341 -0.9202
 1135TIP3    H224965   6.352   0.079   7.256 -0.2785  0.3345  0.2996
 1136TIP3   OH224966   1.312   4.485   8.400 -0.0786 -0.5320 -0.0599
 1136TIP3    H124967   1.364   4.407   8.418 -1.4288 -2.0601 -2.2282
 1136TIP3    H224968   1.374   4.557   8.405  1.3075 -1.7514  1.6524
 1137TIP3   OH224969   3.258   4.018   1.485 -0.2920  0.0894  0.3564
 1137TIP3    H124970   3.334   3.979   1.441 -0.9408 -0.2163 -0.5269
 1137TIP3    H224971   3.223   3.947   1.539 -0.4364 -0.0279  0.1122
 1138TIP3   OH224972   0.265   3.635   8.192  0.3483 -0.1129  0.5789
 1138TIP3    H124973   0.170   3.633   8.206  0.1844 -0.0134 -0.4109
 1138TIP3    H224974   0.275   3.678   8.107  1.1894 -1.5746 -0.0917
 1139TIP3   OH224975   1.383   1.138   8.117 -0.3854 -0.3301 -0.3422
 1139TIP3    H124976   1.472   1.114   8.090 -0.8028 -2.4054 -0.0639
 1139TIP3    H224977   1.334   1.143   8.035 -0.2492 -0.2198 -0.4177
 1140TIP3   OH224978   3.598   4.282   0.527  0.7701  0.0550 -0.1817
 1140TIP3    H124979   3.566   4.193   0.510 -0.5817  0.6170 -0.7551
 1140TIP3    H224980   3.522   4.338   0.512  1.1508  1.1802  1.7685
 1141TIP3   OH224981   5.196   3.977   1.309  0.3095 -0.4080 -0.1663
 1141TIP3    H124982   5.217   4.033   1.384  0.1348  1.2411 -1.3002
 1141TIP3    H224983   5.221   4.029   1.232 -0.5871 -1.5832 -1.2988
 1142TIP3   OH224984   2.286   5.738   0.688 -0.7877 -0.2691 -0.0028
 1142TIP3    H124985   2.350   5.672   0.713  0.8238  0.7902 -1.1241
 1142TIP3    H224986   2.299   5.809   0.751 -2.3307 -0.8430  1.0337
 1143TIP3   OH224987   1.643   4.067   7.071 -0.3304 -0.0283 -0.1175
 1143TIP3    H124988   1.639   4.108   7.157 -0.1095 -1.9550  0.8667
 1143TIP3    H224989   1.575   4.000   7.072  1.5942 -2.0965 -0.2757
 1144TIP3   OH224990   0.455   0.718   2.434 -0.2212  0.0681 -0.0302
 1144TIP3    H124991   0.448   0.721   2.338 -0.8917 -0.7809 -0.0202
 1144TIP3    H224992   0.467   0.809   2.460 -0.2457  0.3322 -0.9088
 1145TIP3   OH224993   2.173   1.274   1.480  0.6899 -0.4633 -0.1271
 1145TIP3    H124994   2.143   1.241   1.395 -1.2402  0.7662  0.0389
 1145TIP3    H224995   2.135   1.213   1.543 -2.4793  1.5798  0.1462
 1146TIP3   OH224996   1.049   4.689   8.436 -0.1416  0.4464  0.7102
 1146TIP3    H124997   1.038   4.594   8.437  1.1640  0.1247 -3.1245
 1146TIP3    H224998   0.978   4.721   8.381  0.1039  1.5814  1.0254
 1147TIP3   OH224999   5.930   4.830   0.018  0.2045 -0.0045 -0.4515
 1147TIP3    H125000   5.841   4.819  -0.016 -0.3560  1.2698  0.4910
 1147TIP3    H225001   5.969   4.899  -0.036 -0.0363  0.7034  0.2467
 1148TIP3   OH225002   1.720   1.578   1.468 -0.3810  0.1449  0.3144
 1148TIP3    H125003   1.768   1.647   1.514  0.4161 -0.4115  0.3377
 1148TIP3    H225004   1.641   1.565   1.521  0.2543 -0.0959  1.2230
 1149TIP3   OH225005   1.226   4.299   6.680  0.4620  0.1097  0.0102
 1149TIP3    H125006   1.138   4.266   6.664 -0.3237  2.5759 -1.3909
 1149TIP3    H225007   1.215   4.363   6.750  1.2811 -0.0508  0.2973
 1150TIP3   OH225008   3.630   6.419   7.417  0.2454  0.0072  0.3011
 1150TIP3    H125009   3.592   6.438   7.331  0.2772 -1.4095 -0.0539
 1150TIP3    H225010   3.650   6.505   7.454  0.3204  0.6413 -1.1444
 1151TIP3   OH225011   6.408   0.572   6.840  0.0697  0.4823 -0.4309
 1151TIP3    H125012   6.431   0.665   6.841 -1.3655  0.8745 -0.6444
 1151TIP3    H225013   6.421   0.543   6.930 -1.9457  1.5947  0.2909
 1152TIP3   OH225014   0.800   3.402   1.651 -0.0071  0.3631 -0.3385
 1152TIP3    H125015   0.812   3.475   1.590  0.5352  2.1865  1.8459
 1152TIP3    H225016   0.889   3.378   1.677 -0.1973 -0.9074 -0.7867
 1153TIP3   OH225017   6.331   3.198   1.613 -0.6607  0.0428  0.1556
 1153TIP3    H125018   6.300   3.171   1.527  2.3116 -0.4186 -0.8936
 1153TIP3    H225019   6.367   3.119   1.652  0.2388  0.7267  0.7736
 1154TIP3   OH225020   6.852   1.141   2.213  1.1736  0.0772 -0.1661
 1154TIP3    H125021   6.818   1.058   2.179  2.3103 -0.0970 -0.9410
 1154TIP3    H225022   6.946   1.137   2.195  1.3361  1.2734  0.3475
 1155TIP3   OH225023   0.569   4.727   1.171  0.8368 -0.2096  0.3622
 1155TIP3    H125024   0.657   4.699   1.196 -0.0669 -2.0157  1.6907
 1155TIP3    H225025   0.511   4.665   1.214 -1.0479 -0.0023 -1.7242
 1156TIP3   OH225026   0.223   5.667   1.941 -0.0750  0.0898 -0.7289
 1156TIP3    H125027   0.248   5.713   2.021 -2.4129  0.0705  0.0887
 1156TIP3    H225028   0.276   5.587   1.942 -0.9521 -0.5560  1.5605
 1157TIP3   OH225029   1.462   6.372   0.992 -0.2646 -0.1270  0.1056
 1157TIP3    H125030   1.387   6.361   1.051 -0.2972  1.3226  0.3779
 1157TIP3    H225031   1.507   6.450   1.025  1.0211 -0.6032 -0.4321
 1158TIP3   OH225032   2.566   4.115   7.496  0.8338 -0.8776 -0.0749
 1158TIP3    H125033   2.475   4.129   7.471 -0.3081 -2.1340  2.8050
 1158TIP3    H225034   2.613   4.103   7.414 -1.5593 -0.0398 -1.6530
 1159TIP3   OH225035   1.053   5.670   1.913 -0.4604  0.1394 -0.8873
 1159TIP3    H125036   1.032   5.618   1.835  1.6948 -1.4565 -0.4968
 1159TIP3    H225037   1.148   5.664   1.921 -0.4457  1.8052  0.8480
 1160TIP3   OH225038   6.248   4.174   1.124  0.6948  0.1628 -0.2646
 1160TIP3    H125039   6.190   4.223   1.181 -0.3710  0.7638 -1.7988
 1160TIP3    H225040   6.334   4.215   1.135  0.3256  0.7957  0.2756
 1161TIP3   OH225041   3.961   2.030   0.775  0.3087 -0.1743  0.5898
 1161TIP3    H125042   3.932   2.121   0.772  0.6032 -0.0962  0.0205
 1161TIP3    H225043   3.887   1.980   0.739  0.3096 -0.1176  0.5084
 1162TIP3   OH225044   2.375   6.030   7.234 -0.2755  0.2401 -0.3940
 1162TIP3    H125045   2.319   5.991   7.301 -0.3399 -0.2028 -0.6998
 1162TIP3    H225046   2.428   6.095   7.281 -1.9220  1.5963 -0.3046
 1163TIP3   OH225047   1.718   4.777   1.660  0.2569 -0.3303 -0.7220
 1163TIP3    H125048   1.683   4.691   1.685 -3.0986  0.5963 -1.6588
 1163TIP3    H225049   1.793   4.757   1.604 -1.4630 -2.8234 -2.3881
 1164TIP3   OH225050   3.346   5.548   1.654 -0.0275 -0.7057  0.0375
 1164TIP3    H125051   3.347   5.643   1.670  0.7443 -0.4517 -1.3775
 1164TIP3    H225052   3.254   5.523   1.667 -0.2380  0.2199  0.4496
 1165TIP3   OH225053   5.498   2.201   8.510 -0.4655 -0.0653  0.9037
 1165TIP3    H125054   5.448   2.276   8.543  0.3482  0.5771  0.7250
 1165TIP3    H225055   5.449   2.172   8.433  0.0846  1.3867 -0.0495
 1166TIP3   OH225056   5.868   2.385   7.323  0.4094 -0.0940 -0.1586
 1166TIP3    H125057   5.870   2.480   7.336  1.1235 -0.1117 -0.1075
 1166TIP3    H225058   5.946   2.353   7.369 -0.2253 -0.7830  0.4624
 1167TIP3   OH225059   3.053   0.533   2.486 -0.5834  0.2771  0.0400
 1167TIP3    H125060   3.098   0.604   2.531 -0.3272  1.0722 -1.4186
 1167TIP3    H225061   3.098   0.525   2.401 -1.9482 -0.2044 -0.6744
 1168TIP3   OH225062   1.480   0.266   0.740  0.4039  0.4849 -0.9941
 1168TIP3    H125063   1.473   0.240   0.832 -1.4073  1.6248 -0.7612
 1168TIP3    H225064   1.395   0.305   0.719  1.1841  1.3484 -2.8119
 1169TIP3   OH225065   4.232   1.981   8.290  0.0439  0.3500  0.2790
 1169TIP3    H125066   4.203   2.002   8.379 -0.2115 -1.8907  0.7864
 1169TIP3    H225067   4.235   1.885   8.288  0.5567  0.3641 -1.9832
 1170TIP3   OH225068   4.598   3.674   0.883 -0.2596 -0.1642  0.0564
 1170TIP3    H125069   4.551   3.660   0.965 -0.2585 -1.8484 -0.1970
 1170TIP3    H225070   4.539   3.641   0.815  0.7358 -1.1452 -0.3733
 1171TIP3   OH225071   3.189   2.165   0.791  0.0964  0.2414 -0.0659
 1171TIP3    H125072   3.257   2.105   0.820 -1.1491 -0.4142  1.6005
 1171TIP3    H225073   3.175   2.224   0.865 -1.9515 -0.3732  0.0784
 1172TIP3   OH225074   6.170   4.978   7.854  0.0981  0.1116  0.2725
 1172TIP3    H125075   6.141   4.973   7.945  0.3393 -1.1838  0.3093
 1172TIP3    H225076   6.207   4.891   7.837  0.5780  0.5296 -0.8874
 1173TIP3   OH225077   3.332   6.368   7.680 -0.7238 -0.1507 -0.5349
 1173TIP3    H125078   3.242   6.336   7.677 -0.7155 -0.1398 -1.1063
 1173TIP3    H225079   3.351   6.394   7.589 -0.0770 -0.3517 -0.4641
 1174TIP3   OH225080   4.358   3.102   2.124  0.1299 -0.0191  0.5895
 1174TIP3    H125081   4.333   3.013   2.098 -0.3068  0.6751 -1.5253
 1174TIP3    H225082   4.299   3.159   2.076  2.5279  1.5257 -0.7187
 1175TIP3   OH225083   3.811   1.474   8.143  0.3276 -0.2936 -0.0373
 1175TIP3    H125084   3.849   1.402   8.094 -0.5111 -0.5510 -0.3363
 1175TIP3    H225085   3.721   1.445   8.162 -0.4998  1.2086 -1.3711
 1176TIP3   OH225086   0.737   4.333   7.834 -0.0265  0.5358  0.4624
 1176TIP3    H125087   0.679   4.345   7.758  2.7869  0.8340 -1.8262
 1176TIP3    H225088   0.726   4.412   7.886 -2.7046 -0.0668  0.9632
 1177TIP3   OH225089   6.526   5.373   7.839  0.0961  0.4438 -0.1025
 1177TIP3    H125090   6.488   5.411   7.759  0.3310  0.3581 -0.2556
 1177TIP3    H225091   6.614   5.347   7.813 -0.5511 -1.6044 -0.4487
 1178TIP3   OH225092   5.146   3.156   0.899  0.5855 -0.2993 -0.1110
 1178TIP3    H125093   5.056   3.158   0.866  0.8076 -0.4967 -0.7473
 1178TIP3    H225094   5.153   3.233   0.955 -1.0916 -2.1612  2.9470
 1179TIP3   OH225095   4.166   4.761   0.430 -0.0502  0.4835  0.1176
 1179TIP3    H125096   4.243   4.758   0.486 -0.3958  0.1226  0.5796
 1179TIP3    H225097   4.200   4.786   0.344  0.6892 -0.4530  0.1213
 1180TIP3   OH225098   3.460   6.859   7.290 -0.3964 -0.0873 -0.3560
 1180TIP3    H125099   3.403   6.865   7.366  1.6220 -0.2853  1.2731
 1180TIP3    H225100   3.463   6.948   7.255  0.0305  0.4019  0.8886
 1181TIP3   OH225101   3.013   3.884   0.059  0.4170  0.2166 -0.5793
 1181TIP3    H125102   3.037   3.828  -0.014 -0.3165 -1.2674  0.2805
 1181TIP3    H225103   2.963   3.956   0.019  0.0946 -0.5326 -1.5466
 1182TIP3   OH225104   2.810   6.072   1.555 -0.1366  0.0670 -0.2929
 1182TIP3    H125105   2.759   6.152   1.569  2.1065  1.5921 -0.1912
 1182TIP3    H225106   2.795   6.020   1.633 -0.5180  1.0591  0.3161
 1183TIP3   OH225107   3.810   5.546   0.935  0.4451 -0.3459  0.1861
 1183TIP3    H125108   3.895   5.531   0.977 -0.1348 -1.2475  1.0938
 1183TIP3    H225109   3.769   5.459   0.935 -0.8367  0.2420  0.5769
 1184TIP3   OH225110   3.290   2.786   7.819  0.3891  0.2139  0.3328
 1184TIP3    H125111   3.223   2.757   7.757  0.2081  0.5434  0.3709
 1184TIP3    H225112   3.291   2.882   7.809  0.5037  0.2493  0.6886
 1185TIP3   OH225113   3.147   6.705   7.616  0.3642 -0.7458 -0.1025
 1185TIP3    H125114   3.125   6.623   7.660 -0.8885  0.0293  0.7630
 1185TIP3    H225115   3.064   6.735   7.579  1.0695 -0.5392 -1.6085
 1186TIP3   OH225116   6.789   6.577   0.916 -0.7029 -0.1984  0.6014
 1186TIP3    H125117   6.782   6.512   0.985 -0.4084  0.7517  1.5675
 1186TIP3    H225118   6.874   6.619   0.931 -1.2336  0.9639  0.5378
 1187TIP3   OH225119   5.388   4.052   6.952 -0.3434  0.0203 -0.0247
 1187TIP3    H125120   5.344   4.115   6.894 -0.7405 -2.2249 -2.3374
 1187TIP3    H225121   5.481   4.076   6.946 -0.3514 -0.1978 -1.7414
 1188TIP3   OH225122   5.092   5.657   0.643 -0.7451  0.2483  0.2051
 1188TIP3    H125123   5.068   5.620   0.559 -2.9495 -0.3493  1.0192
 1188TIP3    H225124   5.050   5.600   0.708  1.7470  0.0577  1.8058
 1189TIP3   OH225125   2.654   2.926   6.763 -0.4020 -0.2761  0.5886
 1189TIP3    H125126   2.724   2.951   6.702  0.7944 -0.1859  1.9471
 1189TIP3    H225127   2.608   2.855   6.719 -0.3801  0.6243 -0.9545
 1190TIP3   OH225128   1.198   2.002   0.253  0.1028  0.2895  0.5512
 1190TIP3    H125129   1.177   1.939   0.184  1.1661  0.7159 -0.1904
 1190TIP3    H225130   1.159   2.084   0.225 -1.4654 -0.0502  1.6235
 1191TIP3   OH225131   1.907   0.620   0.392 -0.0631  0.1227  0.0668
 1191TIP3    H125132   1.838   0.599   0.330 -0.5425 -0.1183  0.6656
 1191TIP3    H225133   1.878   0.702   0.433  0.3130  0.3516 -0.1205
 1192TIP3   OH225134   4.512   5.223   1.402 -0.9654 -0.0044 -0.1848
 1192TIP3    H125135   4.563   5.280   1.344 -2.7710 -0.3601 -2.2635
 1192TIP3    H225136   4.494   5.146   1.349 -2.2317 -0.5957  1.0583
 1193TIP3   OH225137   2.170   3.158   2.957 -0.1570 -0.5035 -0.1810
 1193TIP3    H125138   2.266   3.160   2.964 -0.1670 -1.9291  0.7290
 1193TIP3    H225139   2.152   3.187   2.867  1.2613 -2.2725 -1.0941
 1194TIP3   OH225140   0.940   3.696   1.672 -0.4822  0.1505  0.1728
 1194TIP3    H125141   0.988   3.757   1.729  0.2820  0.5288 -0.8468
 1194TIP3    H225142   0.853   3.735   1.664 -1.0409 -0.5587  2.0655
 1195TIP3   OH225143   5.284   1.269   1.257  0.2027 -0.0823  0.7084
 1195TIP3    H125144   5.343   1.221   1.315  0.6932 -0.6455 -0.2327
 1195TIP3    H225145   5.334   1.345   1.228  0.8532 -1.0665 -0.8528
 1196TIP3   OH225146   6.300   0.120   7.587 -0.5722 -0.0280 -0.5604
 1196TIP3    H125147   6.382   0.073   7.572 -0.8973 -0.9983  0.5385
 1196TIP3    H225148   6.272   0.147   7.499  2.4244  3.1110 -0.7700
 1197TIP3   OH225149   6.404   0.296   1.818  0.2662  0.2203  0.5627
 1197TIP3    H125150   6.365   0.291   1.905  0.0395 -0.6076  0.4229
 1197TIP3    H225151   6.382   0.384   1.787 -1.6668 -0.2534  0.4359
 1198TIP3   OH225152   3.540   5.492   1.270 -0.2638 -0.0154  0.0754
 1198TIP3    H125153   3.635   5.505   1.277 -0.5360  1.7592  0.8867
 1198TIP3    H225154   3.502   5.574   1.303 -2.0741 -0.4904 -0.7357
 1199TIP3   OH225155   1.830   5.962   7.838 -0.4220 -0.1189 -0.6619
 1199TIP3    H125156   1.777   5.928   7.911 -1.4948  1.1185 -0.8250
 1199TIP3    H225157   1.865   5.884   7.795 -1.2145 -0.9330  0.1265
 1200TIP3   OH225158   0.263   2.825   6.965  0.5551  0.1761  0.2318
 1200TIP3    H125159   0.245   2.745   7.015  1.4931  1.4581  2.8031
 1200TIP3    H225160   0.180   2.845   6.921 -0.8034 -0.3177  2.4102
 1201TIP3   OH225161   3.621   5.753   1.086  0.7289 -0.2944 -0.3157
 1201TIP3    H125162   3.675   5.682   1.051  0.4887  0.1297 -1.6400
 1201TIP3    H225163   3.537   5.713   1.106  0.7505 -0.4916 -0.6047
 1202TIP3   OH225164   0.192   4.932   0.392 -0.9107 -0.1440 -0.2162
 1202TIP3    H125165   0.248   4.858   0.372 -0.9853 -0.6262  1.2124
 1202TIP3    H225166   0.247   4.991   0.444 -1.0262  0.5238 -0.8335
 1203TIP3   OH225167   0.435   4.605   2.284  0.1599 -0.0121  0.5278
 1203TIP3    H125168   0.411   4.524   2.329  0.7151 -0.5545 -0.1374
 1203TIP3    H225169   0.506   4.580   2.225 -1.0048  0.5299 -1.1962
 1204TIP3   OH225170   0.549   5.146   2.299 -0.4086 -0.1574  0.5290
 1204TIP3    H125171   0.533   5.223   2.353 -0.9285 -1.2238  1.9617
 1204TIP3    H225172   0.470   5.136   2.247 -0.1988  0.4602  0.0773
 1205TIP3   OH225173   0.115   0.920   0.129 -0.5283 -0.1156  0.4404
 1205TIP3    H125174   0.055   0.913   0.204  0.1731 -0.1923  1.0097
 1205TIP3    H225175   0.068   0.975   0.066 -0.4948  1.3193  1.6042
 1206TIP3   OH225176   0.344   6.287   0.289 -0.0421 -0.3915  0.5410
 1206TIP3    H125177   0.403   6.292   0.364 -0.7767 -0.3839  1.1328
 1206TIP3    H225178   0.372   6.209   0.242 -0.9047 -1.6516  2.0026
 1207TIP3   OH225179   4.959   6.274   7.581 -0.4413  0.5200 -0.0885
 1207TIP3    H125180   5.041   6.305   7.619  0.9264 -1.7479 -1.0014
 1207TIP3    H225181   4.942   6.190   7.624 -2.0648  0.7231 -0.2605
 1208TIP3   OH225182   1.834   5.803   7.116  0.4488  0.1123 -0.5919
 1208TIP3    H125183   1.846   5.708   7.120 -1.3277 -0.1096  0.5339
 1208TIP3    H225184   1.816   5.821   7.024 -0.2376 -0.8236 -0.6600
 1209TIP3   OH225185   5.345   2.659   1.909 -0.1724  0.5905  0.2778
 1209TIP3    H125186   5.396   2.724   1.957 -1.4902  0.7590  1.5214
 1209TIP3    H225187   5.290   2.617   1.976  1.0790 -2.3001 -0.3313
 1210TIP3   OH225188   5.127   2.042   7.812 -0.2102  0.4963 -0.3084
 1210TIP3    H125189   5.054   2.029   7.751  0.9653  0.2906 -1.7290
 1210TIP3    H225190   5.159   2.130   7.793  1.8991 -0.5503 -2.0021
 1211TIP3   OH225191   4.858   1.563   7.701  0.4132 -0.4734  0.0084
 1211TIP3    H125192   4.809   1.539   7.780 -0.9453 -0.4143 -0.7977
 1211TIP3    H225193   4.791   1.574   7.633  1.0385  3.4424 -0.2374
 1212TIP3   OH225194   3.515   6.360   2.222  0.1699  0.3158  0.1180
 1212TIP3    H125195   3.432   6.354   2.269 -1.5311  1.6326 -2.4846
 1212TIP3    H225196   3.518   6.281   2.169  0.8244  0.0823  0.4841
 1213TIP3   OH225197   0.247   4.184   7.322 -0.0419 -0.0824 -0.9933
 1213TIP3    H125198   0.163   4.150   7.288 -0.4428  0.4386 -0.5424
 1213TIP3    H225199   0.297   4.206   7.243 -0.4791 -0.0432 -1.2651
 1214TIP3   OH225200   1.867   1.217   1.023 -0.5157  0.0815  0.3192
 1214TIP3    H125201   1.914   1.175   0.951  0.1841  1.0303  0.2095
 1214TIP3    H225202   1.862   1.309   0.997  1.0074  0.7286  2.1358
 1215TIP3   OH225203   5.665   2.050   7.344  0.1797 -0.0338  0.6163
 1215TIP3    H125204   5.724   2.073   7.415  0.4822  1.1132  0.0126
 1215TIP3    H225205   5.580   2.037   7.386  0.1463  1.5441  1.0812
 1216TIP3   OH225206   4.079   5.171   1.609  0.3707 -0.4335 -0.2993
 1216TIP3    H125207   3.989   5.188   1.638  0.6198 -0.1372  0.3036
 1216TIP3    H225208   4.068   5.116   1.531 -0.3582  0.3914 -0.7978
 1217TIP3   OH225209   1.772   5.291   1.474  0.4128 -0.3331  0.0687
 1217TIP3    H125210   1.787   5.208   1.518  3.8098 -0.9719 -1.9354
 1217TIP3    H225211   1.855   5.311   1.431 -0.3149  4.0243  0.2368
 1218TIP3   OH225212   3.764   5.401   0.170  0.0073  0.6537  0.2982
 1218TIP3    H125213   3.857   5.377   0.169 -0.2340 -0.4588 -1.8604
 1218TIP3    H225214   3.729   5.361   0.090 -2.1542  1.7649  0.6382
 1219TIP3   OH225215   5.503   0.934   6.644 -0.1710  0.3168 -0.6772
 1219TIP3    H125216   5.553   0.998   6.695  1.6038 -0.5058 -1.2903
 1219TIP3    H225217   5.552   0.852   6.655 -1.3222 -0.4958 -1.4424
 1220TIP3   OH225218   4.122   1.839   7.540  0.3299 -0.2485  0.4629
 1220TIP3    H125219   4.122   1.935   7.538 -2.1529 -0.1284  1.9049
 1220TIP3    H225220   4.123   1.817   7.633 -1.1607 -1.5292  0.2083
 1221TIP3   OH225221   4.723   4.468   6.817 -0.4171  0.1359 -0.3176
 1221TIP3    H125222   4.628   4.461   6.830 -0.8396  0.2062 -2.9751
 1221TIP3    H225223   4.738   4.562   6.805  0.4675  0.4951  2.6403
 1222TIP3   OH225224   6.754   1.719   8.190 -0.9403 -0.4962  0.1758
 1222TIP3    H125225   6.751   1.624   8.200 -3.2263 -0.5233 -0.3600
 1222TIP3    H225226   6.663   1.747   8.187 -0.3369  1.6422 -0.5265
 1223TIP3   OH225227   4.983   4.218   0.215  0.4864  0.2835 -0.3655
 1223TIP3    H125228   4.978   4.311   0.196 -2.3526  0.1525 -0.6092
 1223TIP3    H225229   5.056   4.210   0.277  1.3387  2.5036 -1.0061
 1224TIP3   OH225230   6.627   2.343   2.533  0.4846 -0.4582 -0.2190
 1224TIP3    H125231   6.706   2.397   2.538 -0.8022  1.5046 -0.1561
 1224TIP3    H225232   6.555   2.403   2.555 -1.1347 -1.9133 -1.3006
 1225TIP3   OH225233   1.641   4.852   7.024 -0.5493  0.4677 -0.4946
 1225TIP3    H125234   1.684   4.768   7.011  0.5622  1.2736 -2.5651
 1225TIP3    H225235   1.631   4.861   7.118  1.6657 -0.8421 -0.0916
 1226TIP3   OH225236   1.338   2.672   0.821  0.2617 -0.8189  0.3830
 1226TIP3    H125237   1.269   2.607   0.810 -0.6491  0.1054  0.4833
 1226TIP3    H225238   1.321   2.737   0.753  1.2732 -0.7670  0.1591
 1227TIP3   OH225239   2.348   0.568   0.819  0.4302  0.4249  0.2225
 1227TIP3    H125240   2.302   0.651   0.827 -0.5352 -0.0700  0.0297
 1227TIP3    H225241   2.284   0.503   0.848  1.0489 -0.2770  0.0383
 1228TIP3   OH225242   6.010   0.039   2.009 -0.0483  0.0989  0.2779
 1228TIP3    H125243   5.934  -0.019   2.007  1.0345 -1.3550 -0.5101
 1228TIP3    H225244   6.052   0.020   2.093 -1.4199  2.1536  1.5200
 1229TIP3   OH225245   4.958   4.376   1.992  0.6830  0.2354  0.7993
 1229TIP3    H125246   4.996   4.458   1.960  0.4784 -0.1306 -0.4174
 1229TIP3    H225247   4.986   4.371   2.084  1.6915  1.0722  0.5509
 1230TIP3   OH225248   2.043   2.050   7.622 -0.4305  0.7540  0.5315
 1230TIP3    H125249   2.069   2.016   7.536 -1.0322 -0.5009  0.8085
 1230TIP3    H225250   2.112   2.111   7.646  1.7476 -1.6314  0.7763
 1231TIP3   OH225251   6.030   4.285   1.252 -0.4959  0.0219  0.4701
 1231TIP3    H125252   5.939   4.313   1.246 -0.3116  0.5775  0.1521
 1231TIP3    H225253   6.081   4.364   1.230  0.0234 -0.6785 -1.0209
 1232TIP3   OH225254   3.908   0.683   6.582 -0.2115  0.5813  0.5386
 1232TIP3    H125255   3.953   0.619   6.638 -1.0199  0.2954  0.8833
 1232TIP3    H225256   3.977   0.717   6.525  0.1399 -1.0318 -0.0583
 1233TIP3   OH225257   0.840   2.171   6.928  0.4320  0.3563 -0.4093
 1233TIP3    H125258   0.907   2.237   6.947 -1.2958  2.0099  0.3349
 1233TIP3    H225259   0.759   2.221   6.924 -1.4407 -2.0360  3.0738
 1234TIP3   OH225260   3.420   5.497   6.491 -0.1746  0.1374  0.1965
 1234TIP3    H125261   3.509   5.461   6.495 -0.2438  0.0601  1.5355
 1234TIP3    H225262   3.428   5.577   6.440  0.3343 -0.7779 -1.1999
 1235TIP3   OH225263   0.864   1.669   1.584  0.1785 -0.0775  0.2782
 1235TIP3    H125264   0.786   1.618   1.563 -0.4572  1.0210 -0.1079
 1235TIP3    H225265   0.932   1.634   1.526 -0.9171  1.2308 -1.9336
 1236TIP3   OH225266   4.859   3.005   2.596  0.0576  0.5951  0.4235
 1236TIP3    H125267   4.807   2.983   2.674 -1.0621  0.5782 -0.2978
 1236TIP3    H225268   4.867   3.101   2.600 -2.3152  0.9460 -0.7596
 1237TIP3   OH225269   4.305   1.490   7.713  0.6658 -0.3315 -0.1363
 1237TIP3    H125270   4.326   1.397   7.727 -0.5338 -0.5200  0.5265
 1237TIP3    H225271   4.232   1.489   7.652  1.4688  0.2589 -1.1489
 1238TIP3   OH225272   5.732   0.919   2.259  0.2041  0.3120  0.2700
 1238TIP3    H125273   5.687   0.837   2.277 -2.1519  1.6376  0.8825
 1238TIP3    H225274   5.677   0.962   2.192 -0.0210  2.3941  1.6903
 1239TIP3   OH225275   5.111   3.185   1.509  0.1528 -0.5329  1.1740
 1239TIP3    H125276   5.049   3.257   1.516 -0.0728 -0.6370  0.4277
 1239TIP3    H225277   5.153   3.179   1.595  2.8806  2.8847  0.2887
 1240TIP3   OH225278   2.058   6.229   1.385 -0.4934  0.4031 -0.6548
 1240TIP3    H125279   2.082   6.186   1.303 -2.8097 -0.5087 -0.9352
 1240TIP3    H225280   2.141   6.238   1.433  0.3151 -3.4720 -1.0161
 1241TIP3   OH225281   1.880   3.373   8.279  0.0658 -0.3291  0.1679
 1241TIP3    H125282   1.859   3.424   8.201 -0.2493 -3.8055 -2.1923
 1241TIP3    H225283   1.812   3.396   8.342 -1.0062  0.9054 -1.3657
 1242TIP3   OH225284   4.057   5.325   0.406  0.1174 -0.3595 -0.7882
 1242TIP3    H125285   4.052   5.359   0.317 -3.1268  0.1787 -0.5207
 1242TIP3    H225286   4.048   5.402   0.462 -1.0158 -0.9540 -0.1016
 1243TIP3   OH225287   5.325   2.340   2.319 -0.0059 -0.4740 -0.2394
 1243TIP3    H125288   5.261   2.379   2.260  1.3005 -1.6047 -2.5442
 1243TIP3    H225289   5.287   2.256   2.343 -0.6697  0.1110  0.8086
 1244TIP3   OH225290   1.919   1.742   1.576  0.2285  0.3674  0.3608
 1244TIP3    H125291   1.982   1.680   1.541  0.1812  0.8770 -0.6920
 1244TIP3    H225292   1.941   1.751   1.669  0.5817 -0.7783  0.3989
 1245TIP3   OH225293   6.498   5.492   1.944  0.3461  0.0919  0.5435
 1245TIP3    H125294   6.520   5.585   1.936  1.1701 -0.1438 -0.1024
 1245TIP3    H225295   6.563   5.457   2.005  1.1512 -0.3913 -0.5423
 1246TIP3   OH225296   3.059   4.144   8.298  0.2678  0.3536 -0.2385
 1246TIP3    H125297   3.120   4.123   8.369  0.7227  0.1518 -0.6866
 1246TIP3    H225298   2.999   4.209   8.337 -0.9608 -1.4707  1.0753
 1247TIP3   OH225299   3.521   0.295   6.480  0.4689  0.3644  0.0839
 1247TIP3    H125300   3.546   0.266   6.392 -1.4261 -0.6097 -0.1795
 1247TIP3    H225301   3.574   0.373   6.496  1.4289  0.0897 -1.5896
 1248TIP3   OH225302   5.281   1.335   6.722 -0.1038 -0.3122 -0.3243
 1248TIP3    H125303   5.263   1.427   6.741  0.4469  0.0414 -1.4457
 1248TIP3    H225304   5.373   1.333   6.699  0.3198 -1.4367  1.3269
 1249TIP3   OH225305   6.530   5.871   8.401  0.4069 -0.6170 -0.0382
 1249TIP3    H125306   6.499   5.948   8.449  1.0177 -0.6935  0.4924
 1249TIP3    H225307   6.457   5.847   8.344 -0.2227 -0.3403  0.6385
 1250TIP3   OH225308   4.768   1.101   1.885  0.5713 -0.5135 -0.2877
 1250TIP3    H125309   4.720   1.075   1.964  0.3175 -1.0978 -0.6276
 1250TIP3    H225310   4.808   1.185   1.908 -2.9028  1.4758 -0.8943
 1251TIP3   OH225311   3.901   0.213   1.841 -0.2398 -0.2331  0.3703
 1251TIP3    H125312   3.943   0.159   1.908  0.5676  1.9148  1.7011
 1251TIP3    H225313   3.902   0.159   1.762  2.7671 -1.2235  0.9764
 1252TIP3   OH225314   1.614   4.699   7.566 -0.1626 -0.3118  0.5412
 1252TIP3    H125315   1.621   4.670   7.476 -0.0905  0.5762  0.2463
 1252TIP3    H225316   1.700   4.734   7.588  0.2473 -1.8246  1.4405
 1253TIP3   OH225317   4.753   3.982   0.964 -1.1463 -0.1424 -0.2235
 1253TIP3    H125318   4.676   3.926   0.959 -0.6132 -0.8237 -0.9284
 1253TIP3    H225319   4.817   3.931   1.014 -0.5075 -0.3657 -1.2387
 1254TIP3   OH225320   6.617   1.663   7.913  0.2706 -0.1671  0.3408
 1254TIP3    H125321   6.619   1.634   8.004  0.5028  1.0252  0.7381
 1254TIP3    H225322   6.528   1.694   7.900  0.6461  1.1134  0.6639
 1255TIP3   OH225323   0.489   0.426   8.494  0.7410 -0.2964  0.4491
 1255TIP3    H125324   0.408   0.378   8.480  0.0230  0.7767  0.8256
 1255TIP3    H225325   0.543   0.404   8.417 -0.1008 -0.6063 -0.0625
 1256TIP3   OH225326   0.330   0.592   0.227  0.4359 -0.1865 -0.9482
 1256TIP3    H125327   0.417   0.630   0.218  0.7754 -0.2348  1.4757
 1256TIP3    H225328   0.344   0.508   0.270 -0.7736 -0.2687 -0.6690
 1257TIP3   OH225329   0.068   6.381   8.259 -0.4867 -0.3576 -0.2982
 1257TIP3    H125330   0.162   6.369   8.243 -0.2957 -1.5888  1.4084
 1257TIP3    H225331   0.061   6.470   8.293  0.2812 -0.6827  0.7753
 1258TIP3   OH225332   6.476   2.842   7.444  0.1979  0.2020 -0.2268
 1258TIP3    H125333   6.478   2.891   7.362  0.2573  0.9689  0.2195
 1258TIP3    H225334   6.402   2.880   7.492  0.2188 -0.1786  0.1140
 1259TIP3   OH225335   4.644   5.242   8.404 -0.1206  0.8102 -0.8168
 1259TIP3    H125336   4.734   5.222   8.430  0.8592  2.6264 -2.4645
 1259TIP3    H225337   4.604   5.157   8.388  0.7177 -0.1211  1.6564
 1260TIP3   OH225338   2.280   3.710   0.133 -0.0709  0.6638 -0.3390
 1260TIP3    H125339   2.322   3.734   0.050 -0.2085  0.8980 -0.3412
 1260TIP3    H225340   2.292   3.786   0.189  1.0664  0.0730  0.2710
 1261TIP3   OH225341   0.198   3.299   7.043  0.5892 -0.2649 -0.4105
 1261TIP3    H125342   0.109   3.311   7.010  0.1912  3.2965  1.4400
 1261TIP3    H225343   0.251   3.281   6.966 -1.4463 -0.3408 -1.8379
 1262TIP3   OH225344   0.612   2.455   8.537  0.2938 -0.8152 -0.2822
 1262TIP3    H125345   0.655   2.423   8.616 -0.9573  0.6052  1.0560
 1262TIP3    H225346   0.563   2.531   8.567  1.4387  1.0671 -2.8528
 1263TIP3   OH225347   3.339   1.491   8.492  0.1003 -0.7251  0.2284
 1263TIP3    H125348   3.308   1.563   8.436 -1.3141 -1.7259 -0.3313
 1263TIP3    H225349   3.433   1.505   8.498 -0.0885  1.0170 -0.0875
 1264TIP3   OH225350   0.034   1.802   0.698  0.7433  0.4601  0.3551
 1264TIP3    H125351  -0.052   1.834   0.726  0.5758 -1.1320  1.8052
 1264TIP3    H225352   0.017   1.717   0.658  1.7928 -0.8641  2.5474
 1265TIP3   OH225353   6.423   0.064   8.445  0.0049  0.2627 -0.4258
 1265TIP3    H125354   6.516   0.066   8.421  0.2772  1.4289  0.5846
 1265TIP3    H225355   6.423   0.081   8.540 -1.2960  1.5596 -0.6200
 1266TIP3   OH225356   5.486   4.690   1.314 -0.1786 -0.0966 -0.7863
 1266TIP3    H125357   5.510   4.639   1.236 -0.7768 -1.6887  0.0199
 1266TIP3    H225358   5.565   4.689   1.368 -0.9216 -2.5993  0.4350
 1267TIP3   OH225359   0.158   0.310   8.142  0.2592  0.5937 -0.4300
 1267TIP3    H125360   0.130   0.283   8.054  1.5298 -0.5097 -0.5399
 1267TIP3    H225361   0.121   0.397   8.153 -2.7605 -0.5087 -0.7069
 1268TIP3   OH225362   5.311   3.614   7.228  0.3910 -0.6116 -0.5441
 1268TIP3    H125363   5.404   3.635   7.217  0.4199  0.3838  1.1802
 1268TIP3    H225364   5.270   3.639   7.145  1.6267 -0.8888 -1.2539
 1269TIP3   OH225365   1.665   6.019   7.228  0.9326  0.3319  0.0162
 1269TIP3    H125366   1.731   5.964   7.186 -0.8419 -1.9493  0.0490
 1269TIP3    H225367   1.599   6.034   7.160  0.1633  0.2723  0.7323
 1270TIP3   OH225368   3.299   6.184   1.990 -0.8214 -0.4610 -0.2167
 1270TIP3    H125369   3.368   6.150   2.048 -0.2195  0.8617 -0.1110
 1270TIP3    H225370   3.347   6.229   1.920 -1.4919  2.8313  1.2476
 1271TIP3   OH225371   6.873   5.090   8.438 -0.1055 -0.4461 -0.3905
 1271TIP3    H125372   6.889   5.184   8.442 -2.1687 -0.0391 -0.5574
 1271TIP3    H225373   6.879   5.061   8.529 -2.9778  0.5817  0.2458
 1272TIP3   OH225374   3.665   1.337   1.056  0.5953 -0.7330  0.1004
 1272TIP3    H125375   3.596   1.403   1.067  0.1825 -1.1156 -0.1705
 1272TIP3    H225376   3.699   1.324   1.144  2.6805  1.9420 -0.1779
 1273TIP3   OH225377   1.829   6.654   1.957 -0.1324  0.2653 -0.9669
 1273TIP3    H125378   1.898   6.592   1.977  0.0149  0.5596 -0.5578
 1273TIP3    H225379   1.814   6.644   1.863  0.6084  0.3477 -1.0972
 1274TIP3   OH225380   3.609   4.718   7.355  0.8111  0.1737 -0.2380
 1274TIP3    H125381   3.659   4.795   7.381  0.8473 -0.3808  1.4372
 1274TIP3    H225382   3.663   4.643   7.380  0.5349 -0.4220 -1.3367
 1275TIP3   OH225383   4.402   6.442   0.517 -0.2635  0.3378  0.6809
 1275TIP3    H125384   4.375   6.458   0.608 -0.7533 -0.9753  0.7932
 1275TIP3    H225385   4.464   6.370   0.523 -0.0101  0.4929 -0.0012
 1276TIP3   OH225386   5.865   1.937   8.030 -0.2459 -0.0003 -0.8470
 1276TIP3    H125387   5.821   2.018   8.056 -0.8974 -0.1626 -1.4214
 1276TIP3    H225388   5.955   1.963   8.014 -0.0043  0.2659  0.7409
 1277TIP3   OH225389   4.615   3.046   7.562  0.0867  0.1468  0.3571
 1277TIP3    H125390   4.661   3.104   7.622  1.0299  0.0461 -0.2365
 1277TIP3    H225391   4.684   3.012   7.504 -0.3762 -1.8079  0.8774
 1278TIP3   OH225392   3.379   0.743   0.326 -0.1147  0.0318 -0.2465
 1278TIP3    H125393   3.430   0.821   0.345 -1.8061  1.2428 -0.4394
 1278TIP3    H225394   3.342   0.717   0.411 -0.1170 -0.1499 -0.3023
 1279TIP3   OH225395   3.995   4.847   8.352 -0.7138 -0.5570  0.0344
 1279TIP3    H125396   3.920   4.904   8.337 -2.0371 -1.9838  1.0034
 1279TIP3    H225397   3.976   4.802   8.434  2.5204  1.0580  1.8469
 1280TIP3   OH225398   5.379   5.274   1.863 -0.3361 -0.3101  0.3724
 1280TIP3    H125399   5.445   5.209   1.837 -0.9611 -0.4279 -1.0471
 1280TIP3    H225400   5.380   5.273   1.958  0.8324 -1.2140  0.3711
 1281TIP3   OH225401   4.565   6.233   8.033 -0.0086  0.3324 -0.4157
 1281TIP3    H125402   4.485   6.214   8.082  0.8523  0.4270  1.0843
 1281TIP3    H225403   4.597   6.316   8.069 -0.5346  1.6314 -2.7481
 1282TIP3   OH225404   3.186   0.468   7.316  0.1808 -0.6616 -0.5220
 1282TIP3    H125405   3.126   0.489   7.387 -0.0587 -2.3228 -0.1783
 1282TIP3    H225406   3.271   0.499   7.347  0.4738 -3.0274  1.4580
 1283TIP3   OH225407   1.720   3.838   0.798 -0.2286  0.1836  0.0190
 1283TIP3    H125408   1.701   3.930   0.818 -0.0214  0.7795 -2.2963
 1283TIP3    H225409   1.716   3.833   0.703 -3.1125 -2.8532  0.1185
 1284TIP3   OH225410   5.751   6.172   0.336 -0.0948 -0.0812 -0.4699
 1284TIP3    H125411   5.789   6.253   0.301 -2.6177  0.8848 -1.2281
 1284TIP3    H225412   5.747   6.187   0.431  1.9131 -0.4911 -0.2843
 1285TIP3   OH225413   5.181   5.622   1.034 -0.3460 -0.4510  0.2590
 1285TIP3    H125414   5.187   5.560   0.962 -1.4130  0.9238 -1.0589
 1285TIP3    H225415   5.226   5.700   1.002 -1.1024  0.2860  0.9602
 1286TIP3   OH225416   6.379   4.150   1.420 -0.3651 -0.8690 -0.3118
 1286TIP3    H125417   6.426   4.070   1.393 -0.6079 -0.8956 -0.6575
 1286TIP3    H225418   6.359   4.195   1.338  1.6146  0.6311 -0.0544
 1287TIP3   OH225419   0.458   5.585   7.315 -0.3307  0.1630  0.4527
 1287TIP3    H125420   0.425   5.498   7.292  2.4964 -0.7639 -0.4770
 1287TIP3    H225421   0.446   5.638   7.236  0.5085 -0.2403  0.0360
 1288TIP3   OH225422   2.484   1.226   8.056 -0.3345 -0.1394 -0.3366
 1288TIP3    H125423   2.447   1.185   7.978  0.8083 -0.8954 -0.5089
 1288TIP3    H225424   2.507   1.314   8.028  0.5796 -0.5835 -1.0384
 1289TIP3   OH225425   1.810   5.481   0.321 -0.0664 -0.2579  0.1161
 1289TIP3    H125426   1.766   5.399   0.342 -1.0792 -0.4919 -2.4639
 1289TIP3    H225427   1.743   5.548   0.333  0.2484 -0.0181  0.5613
 1290TIP3   OH225428   1.234   3.788   1.189  0.2212  0.1973 -0.0706
 1290TIP3    H125429   1.176   3.768   1.262 -1.5814  2.5290 -0.7190
 1290TIP3    H225430   1.320   3.804   1.229 -0.6926  1.3245  1.5588
 1291TIP3   OH225431   4.528   6.591   8.063 -0.5939  0.2932  0.5225
 1291TIP3    H125432   4.556   6.527   8.128 -1.6880 -0.3250  0.4076
 1291TIP3    H225433   4.548   6.550   7.978 -1.3966  0.0423  0.4480
 1292TIP3   OH225434   3.212   5.731   7.141 -0.5447  0.8398 -0.0998
 1292TIP3    H125435   3.286   5.769   7.189 -1.8109  1.9448  1.1051
 1292TIP3    H225436   3.245   5.648   7.107  1.4126  1.5770 -0.1339
 1293TIP3   OH225437   4.482   6.847   7.693 -0.7545  0.4794  0.0458
 1293TIP3    H125438   4.499   6.918   7.756  1.2499 -0.2319  0.3953
 1293TIP3    H225439   4.465   6.771   7.748 -0.0777  0.0911 -0.2753
 1294TIP3   OH225440   2.118   5.811   1.747  0.3551 -0.4855 -0.2499
 1294TIP3    H125441   2.114   5.851   1.660  1.1465  0.4464  0.1218
 1294TIP3    H225442   2.109   5.885   1.807  0.8479 -0.9904  0.4540
 1295TIP3   OH225443   3.403   3.091   7.776 -0.8629  0.0898 -0.1819
 1295TIP3    H125444   3.360   3.176   7.774  0.1658  0.6207 -0.5184
 1295TIP3    H225445   3.411   3.066   7.684 -1.5269 -0.5660 -0.0647
 1296TIP3   OH225446   3.867   4.652   1.337 -0.1911  0.9059 -0.4792
 1296TIP3    H125447   3.807   4.695   1.398  0.7864  1.1594  0.3140
 1296TIP3    H225448   3.861   4.559   1.359 -0.9105  0.8339 -0.9579
 1297TIP3   OH225449   0.137   3.941   7.479 -0.3063  0.0732 -0.6205
 1297TIP3    H125450   0.061   3.992   7.453 -0.0781 -0.3505 -2.2236
 1297TIP3    H225451   0.179   3.993   7.548 -1.1152  1.1028 -0.8812
 1298TIP3   OH225452   3.238   4.682   2.467 -0.4157  0.4367 -0.5514
 1298TIP3    H125453   3.307   4.713   2.526  2.1860 -1.4676 -2.3598
 1298TIP3    H225454   3.209   4.599   2.505 -0.7243  0.5742 -0.4891
 1299TIP3   OH225455   4.474   5.305   8.017  0.1436 -0.1907  0.3536
 1299TIP3    H125456   4.380   5.294   8.024 -0.4377  2.0996 -1.9264
 1299TIP3    H225457   4.499   5.354   8.096 -1.2803  2.1865 -0.5494
 1300TIP3   OH225458   3.854   3.243   8.558  0.5877  0.2083  0.0096
 1300TIP3    H125459   3.861   3.181   8.631 -0.6152  0.3861  0.2936
 1300TIP3    H225460   3.927   3.220   8.501 -0.4121 -2.1791 -0.4416
 1301TIP3   OH225461   3.991   0.285   8.324 -0.3941  0.0477 -0.1948
 1301TIP3    H125462   3.933   0.360   8.336 -2.7339 -1.6731 -0.1007
 1301TIP3    H225463   3.944   0.227   8.264  1.0302 -1.6358  0.2151
 1302TIP3   OH225464   2.873   3.540   1.183  0.6274 -0.4481  0.1295
 1302TIP3    H125465   2.808   3.514   1.248  0.7658 -0.8740  0.0994
 1302TIP3    H225466   2.843   3.501   1.102  0.6725 -0.2585  0.0221
 1303TIP3   OH225467   0.669   5.946   7.737  0.2864  0.0897  0.0548
 1303TIP3    H125468   0.718   5.864   7.732 -0.4088 -0.3469  0.1488
 1303TIP3    H225469   0.600   5.928   7.801 -1.4910 -0.1405 -1.8248
 1304TIP3   OH225470   2.163   2.262   7.967  0.0516  0.5935  0.1340
 1304TIP3    H125471   2.191   2.314   7.892  2.2337 -0.3284  0.2469
 1304TIP3    H225472   2.200   2.308   8.043  1.1755 -0.5457  0.3068
 1305TIP3   OH225473   6.776   4.988   0.832  0.5240 -0.3793  0.1661
 1305TIP3    H125474   6.856   5.041   0.833 -0.6416  1.4802 -0.3533
 1305TIP3    H225475   6.761   4.969   0.739  0.9744 -1.7497  0.3535
 1306TIP3   OH225476   4.301   3.534   8.047  0.8463 -0.1961  0.7833
 1306TIP3    H125477   4.315   3.595   7.975  0.5348 -1.1826 -0.1443
 1306TIP3    H225478   4.384   3.486   8.055  0.6863 -0.4931  0.6808
 1307TIP3   OH225479   1.103   1.345   7.978 -0.4435 -0.2560  1.1855
 1307TIP3    H125480   1.157   1.275   7.941  1.7926  1.4657  0.9710
 1307TIP3    H225481   1.160   1.389   8.042 -0.5986  3.1591 -0.7635
 1308TIP3   OH225482   5.974   2.295   0.176 -0.3848 -0.0698 -0.5930
 1308TIP3    H125483   6.009   2.316   0.089  1.0567  1.9959  0.4215
 1308TIP3    H225484   5.879   2.298   0.164 -0.2314 -0.3094 -2.1845
 1309TIP3   OH225485   6.164   1.884   1.894  0.2117 -0.1342  0.0356
 1309TIP3    H125486   6.256   1.868   1.917  0.0952 -1.6925 -0.4027
 1309TIP3    H225487   6.166   1.963   1.841  1.1980  0.2831  0.6592
 1310TIP3   OH225488   0.417   3.376   1.925  0.0728  0.2435  0.5080
 1310TIP3    H125489   0.460   3.367   1.840 -2.0260 -1.1674 -0.4782
 1310TIP3    H225490   0.374   3.292   1.939 -0.9550  1.0106  2.2203
 1311TIP3   OH225491   5.949   2.129   0.492  0.8923 -0.4230 -0.0893
 1311TIP3    H125492   5.964   2.144   0.399  1.6677  0.6812  0.1818
 1311TIP3    H225493   5.860   2.160   0.507  1.2885  0.8635 -0.2054
 1312TIP3   OH225494   4.327   0.415   0.533 -0.2337  0.1265  0.0805
 1312TIP3    H125495   4.277   0.496   0.523 -0.2679  0.2185  0.9432
 1312TIP3    H225496   4.384   0.430   0.607  0.9736 -0.0496 -0.7792
 1313TIP3   OH225497   4.941   3.652   7.903  0.6482  0.1156  0.1263
 1313TIP3    H125498   4.913   3.586   7.840 -0.7066  0.5558  0.2426
 1313TIP3    H225499   4.860   3.688   7.939  1.3720  1.0134  0.9339
 1314TIP3   OH225500   5.464   2.933   1.970  0.1415  0.1581  0.1071
 1314TIP3    H125501   5.380   2.951   2.011 -0.8667 -0.9464 -1.3394
 1314TIP3    H225502   5.494   3.017   1.937 -0.2638  0.6086  0.8773
 1315TIP3   OH225503   1.965   3.091   1.094  0.4326  0.3228  0.5568
 1315TIP3    H125504   1.987   3.041   1.173 -0.0388 -0.0134  0.4793
 1315TIP3    H225505   1.985   3.031   1.022 -0.3148  0.1786  0.4690
 1316TIP3   OH225506   1.197   6.398   7.925 -0.1458 -0.2610 -0.4682
 1316TIP3    H125507   1.270   6.423   7.869  0.5502 -1.2915 -0.0584
 1316TIP3    H225508   1.141   6.344   7.868  0.6423 -1.4407 -0.1612
 1317TIP3   OH225509   4.145   3.122   7.496 -0.2626  0.5303  0.4588
 1317TIP3    H125510   4.194   3.200   7.519  1.5829 -0.3072 -0.3893
 1317TIP3    H225511   4.099   3.098   7.577  1.0675  1.1302  1.4415
 1318TIP3   OH225512   5.172   3.747   7.666  0.6476 -0.0720 -0.4020
 1318TIP3    H125513   5.144   3.722   7.754  1.4679 -1.4534 -0.5036
 1318TIP3    H225514   5.251   3.799   7.680  0.6659 -0.1236 -0.3130
 1319TIP3   OH225515   1.812   2.832   7.585 -0.0655  0.0851 -0.3721
 1319TIP3    H125516   1.842   2.804   7.499 -1.1339 -0.6256 -0.5270
 1319TIP3    H225517   1.739   2.891   7.567  0.1612  0.4956  0.0343
 1320TIP3   OH225518   1.974   5.403   1.299  0.1018 -0.0909  0.0936
 1320TIP3    H125519   1.951   5.388   1.207  1.2167  2.1229 -0.5983
 1320TIP3    H225520   1.943   5.491   1.317  1.7575  0.3012  1.2110
 1321TIP3   OH225521   0.619   3.620   8.450  0.5342 -0.2768 -0.1352
 1321TIP3    H125522   0.597   3.557   8.381 -0.4072  1.1357 -1.1686
 1321TIP3    H225523   0.537   3.636   8.496  0.3596  1.4084 -0.9519
 1322TIP3   OH225524   6.851   5.055   7.035  0.3888  0.4406  0.2425
 1322TIP3    H125525   6.924   5.025   6.980  0.4735  1.8827 -0.4862
 1322TIP3    H225526   6.873   5.025   7.123  0.9885 -0.6432 -0.2571
 1323TIP3   OH225527   3.372   2.942   8.298 -0.3232 -0.2347  0.4409
 1323TIP3    H125528   3.387   2.973   8.208  0.2341 -3.8000 -0.8858
 1323TIP3    H225529   3.457   2.951   8.341 -0.2152  0.1671  0.1467
 1324TIP3   OH225530   4.064   4.635   7.398 -0.9260  0.0953 -0.1132
 1324TIP3    H125531   4.112   4.554   7.380 -0.4319  0.2854  0.3289
 1324TIP3    H225532   4.026   4.660   7.313 -0.5682 -0.2676 -0.3803
 1325TIP3   OH225533   1.792   0.082   1.073  0.5274 -0.9581  0.2142
 1325TIP3    H125534   1.738   0.157   1.098 -2.8436 -3.3587  0.9832
 1325TIP3    H225535   1.819   0.043   1.156  0.1999 -1.8698 -0.0949
 1326TIP3   OH225536   6.807   4.671   0.640 -0.3401 -0.2427  0.5512
 1326TIP3    H125537   6.776   4.729   0.570  0.2958  1.1181  1.3516
 1326TIP3    H225538   6.903   4.675   0.633 -0.1920  1.5780  2.7524
 1327TIP3   OH225539   2.878   2.685   7.961  0.3852 -0.0625 -0.1762
 1327TIP3    H125540   2.883   2.642   8.046  0.9206  0.4716  0.0757
 1327TIP3    H225541   2.969   2.708   7.941  0.1317  0.8772 -0.3197
 1328TIP3   OH225542   5.774   1.541   8.575 -0.0647  0.8076 -0.6097
 1328TIP3    H125543   5.719   1.556   8.498 -0.2036 -0.7320 -0.8550
 1328TIP3    H225544   5.746   1.607   8.639 -0.4735  1.6125 -1.6064
 1329TIP3   OH225545   5.961   3.384   6.768 -0.1168  0.7247  0.2694
 1329TIP3    H125546   5.931   3.306   6.720 -3.3267  1.3423  1.0544
 1329TIP3    H225547   5.982   3.448   6.699  1.4999 -0.3888 -0.3496
 1330TIP3   OH225548   5.702   0.528   7.174  0.1251 -0.2648  0.1322
 1330TIP3    H125549   5.634   0.510   7.238 -1.4007  0.8482 -1.0929
 1330TIP3    H225550   5.698   0.623   7.160  2.6001 -0.0167  0.7150
 1331TIP3   OH225551   5.315   1.830   2.318  0.5898  0.0886  0.0985
 1331TIP3    H125552   5.351   1.849   2.231 -0.8370 -0.2580 -0.5889
 1331TIP3    H225553   5.365   1.754   2.347  1.2695  0.3720 -0.2887
 1332TIP3   OH225554   3.522   2.130   0.738  0.0844 -0.1113 -0.8006
 1332TIP3    H125555   3.509   2.213   0.783 -0.3153  0.6860 -2.3046
 1332TIP3    H225556   3.455   2.072   0.773  0.1078  0.3231 -0.0232
 1333TIP3   OH225557   3.058   6.730   8.444  0.4441 -0.3374 -0.2811
 1333TIP3    H125558   3.100   6.664   8.498  1.2388 -0.0185 -0.4910
 1333TIP3    H225559   3.061   6.810   8.496  0.4475 -0.2254 -0.4507
 1334TIP3   OH225560   5.147   4.151   0.010  0.3000  0.5888 -0.6528
 1334TIP3    H125561   5.129   4.240  -0.021  1.1792  1.9519  2.4362
 1334TIP3    H225562   5.082   4.135   0.078 -0.5258 -1.6285 -1.8691
 1335TIP3   OH225563   3.115   4.899   1.976 -0.0934  0.1845 -0.2758
 1335TIP3    H125564   3.180   4.945   2.029  0.2203  0.3964 -0.8238
 1335TIP3    H225565   3.031   4.927   2.010  0.0109  2.9231 -1.9469
 1336TIP3   OH225566   6.058   2.647   0.230 -0.5739 -0.4563  0.0103
 1336TIP3    H125567   6.122   2.656   0.160 -0.9701 -0.3214 -0.3404
 1336TIP3    H225568   5.974   2.646   0.185 -0.8080 -0.8423  0.4502
 1337TIP3   OH225569   4.656   2.864   2.446 -0.1962  0.2483  0.1205
 1337TIP3    H125570   4.725   2.898   2.503  0.2789 -0.1950 -0.1753
 1337TIP3    H225571   4.610   2.942   2.415  0.2562  0.5593  0.2188
 1338TIP3   OH225572   1.254   3.011   7.234 -0.5744  0.3201 -0.3071
 1338TIP3    H125573   1.189   2.963   7.183 -1.1616  0.7379  0.0300
 1338TIP3    H225574   1.338   2.981   7.201 -0.9369 -0.4864 -0.5153
 1339TIP3   OH225575   3.344   6.061   1.119  0.0970 -0.2715  0.3941
 1339TIP3    H125576   3.356   6.126   1.188 -0.2978  0.3863 -0.1496
 1339TIP3    H225577   3.403   6.089   1.049 -0.6440 -0.0514 -0.1553
 1340TIP3   OH225578   2.119   2.635   0.209 -0.4428  0.0281  0.1644
 1340TIP3    H125579   2.137   2.541   0.212  0.9910  0.2651 -0.2739
 1340TIP3    H225580   2.079   2.649   0.123  1.3926  0.1067 -0.7341
 1341TIP3   OH225581   0.845   0.690   2.255 -0.1540  0.5495 -0.7095
 1341TIP3    H125582   0.881   0.662   2.339 -0.2267 -1.3248 -1.2609
 1341TIP3    H225583   0.793   0.767   2.276 -1.9501 -1.1016  1.3812
 1342TIP3   OH225584   1.592   6.093   8.536  0.0381  0.2670  0.3477
 1342TIP3    H125585   1.609   6.149   8.613 -1.5062  0.2106  0.7662
 1342TIP3    H225586   1.534   6.146   8.481 -0.0202 -0.2519 -0.0925
 1343TIP3   OH225587   5.638   5.762   1.360 -0.3890 -0.1127  0.1895
 1343TIP3    H125588   5.659   5.841   1.410 -1.0522 -0.1191  0.4825
 1343TIP3    H225589   5.722   5.715   1.354 -0.3757 -0.3214  1.6597
 1344TIP3   OH225590   6.427   4.874   2.750 -0.6903 -0.3938  0.0936
 1344TIP3    H125591   6.385   4.807   2.696 -0.0435 -0.6836 -0.0682
 1344TIP3    H225592   6.464   4.937   2.688  0.2255 -0.8314  0.1663
 1345TIP3   OH225593   4.614   4.584   8.278 -0.1661 -0.2059  0.3612
 1345TIP3    H125594   4.655   4.669   8.295  1.3767 -0.8653  0.0473
 1345TIP3    H225595   4.683   4.520   8.296 -1.4968 -1.4474  1.2206
 1346TIP3   OH225596   1.914   3.235   0.373  0.7935  0.3828  0.2996
 1346TIP3    H125597   1.944   3.213   0.284 -0.3743 -1.6388  0.3616
 1346TIP3    H225598   1.818   3.234   0.367  0.6958  1.1595  1.3953
 1347TIP3   OH225599   2.461   3.111   6.818 -0.3863  0.0921  0.3446
 1347TIP3    H125600   2.544   3.071   6.793 -0.7038 -0.2409 -0.2086
 1347TIP3    H225601   2.481   3.161   6.897  0.9563  2.3234 -1.3038
 1348TIP3   OH225602   2.435   0.139   8.182  0.5815 -0.5053  0.2709
 1348TIP3    H125603   2.482   0.061   8.212  0.4483 -0.2293  1.2543
 1348TIP3    H225604   2.496   0.182   8.122  0.4333 -1.6456 -0.7105
 1349TIP3   OH225605   3.279   2.388   7.627 -0.4282  0.0156 -0.2239
 1349TIP3    H125606   3.371   2.360   7.633  0.4125  2.5687  0.4123
 1349TIP3    H225607   3.251   2.397   7.719 -1.5030 -1.1776 -0.4095
 1350TIP3   OH225608   1.421   5.067   7.434  0.2785 -0.1900  0.1015
 1350TIP3    H125609   1.432   5.089   7.527  2.8843 -0.2444 -0.1439
 1350TIP3    H225610   1.343   5.117   7.408  1.0803  2.0797  1.6504
 1351TIP3   OH225611   3.286   3.859   8.177 -0.2052  0.1933 -0.0100
 1351TIP3    H125612   3.314   3.814   8.257  0.6672  0.0193 -0.3916
 1351TIP3    H225613   3.314   3.800   8.106  3.0539  2.2492 -0.6703
 1352TIP3   OH225614   2.533   4.943   8.101 -0.1622  0.3468  0.0541
 1352TIP3    H125615   2.482   4.934   8.181 -0.6816 -1.3270 -0.4251
 1352TIP3    H225616   2.569   4.856   8.085  0.4511  0.7978 -1.1889
 1353TIP3   OH225617   1.442   5.389   0.241  0.0947 -0.8245  0.1967
 1353TIP3    H125618   1.347   5.393   0.229 -0.2834  0.9715  2.8689
 1353TIP3    H225619   1.476   5.461   0.189 -0.1076 -0.8298  0.0549
 1354TIP3   OH225620   1.234   6.878   2.542 -0.2428 -0.0892  0.0990
 1354TIP3    H125621   1.263   6.968   2.555 -0.9246 -0.0645  1.8169
 1354TIP3    H225622   1.260   6.834   2.623  1.2000 -1.7834 -1.2053
 1355TIP3   OH225623   2.663   6.295   1.620  0.1291  0.1341 -0.1241
 1355TIP3    H125624   2.625   6.381   1.603  0.8307  0.5456  0.3087
 1355TIP3    H225625   2.608   6.257   1.688 -0.0529  0.3317 -0.1607
 1356TIP3   OH225626   0.552   3.988   7.077 -0.2406  0.9749 -0.1323
 1356TIP3    H125627   0.585   4.041   7.151 -0.9496 -0.8529  1.5815
 1356TIP3    H225628   0.540   3.901   7.114 -1.7805  0.2722 -2.1230
 1357TIP3   OH225629   5.947   3.650   1.417 -0.0602  0.5578 -0.0110
 1357TIP3    H125630   5.952   3.662   1.323 -0.4030 -0.7822 -0.2279
 1357TIP3    H225631   5.854   3.656   1.438 -0.0728  0.0666  0.1044
 1358TIP3   OH225632   3.430   3.412   8.497  0.0720  0.2127 -0.0711
 1358TIP3    H125633   3.421   3.361   8.416  2.8086  0.2672 -0.4959
 1358TIP3    H225634   3.399   3.353   8.566  0.1630 -0.8364 -0.8945
 1359TIP3   OH225635   6.663   3.278   2.233  0.5097 -0.2473  0.2326
 1359TIP3    H125636   6.682   3.212   2.300 -0.2223 -0.9044 -0.1918
 1359TIP3    H225637   6.643   3.227   2.154 -3.3630  0.2852  0.6764
 1360TIP3   OH225638   3.031   5.303   0.801  0.0441  0.1140  0.1741
 1360TIP3    H125639   3.058   5.246   0.729 -2.6223  2.1129 -2.6754
 1360TIP3    H225640   3.092   5.377   0.796 -0.1899  0.2902 -0.1214
 1361TIP3   OH225641   3.229   3.568   6.839  0.6358 -0.1226 -0.7468
 1361TIP3    H125642   3.313   3.540   6.801  0.9265 -0.1635 -0.0882
 1361TIP3    H225643   3.229   3.530   6.927 -0.7695 -1.4319 -1.2768
 1362TIP3   OH225644   5.612   2.345   0.978 -0.1140  0.0093  0.1939
 1362TIP3    H125645   5.573   2.319   1.062  0.3555 -1.7089 -0.0905
 1362TIP3    H225646   5.643   2.434   0.993 -0.1946 -0.2027  1.7934
 1363TIP3   OH225647   2.721   0.411   7.471  0.1329 -0.2758 -0.1289
 1363TIP3    H125648   2.768   0.345   7.420  2.7243 -0.4597  2.2334
 1363TIP3    H225649   2.719   0.374   7.560 -1.7771  1.1789  0.4808
 1364TIP3   OH225650   6.050   0.993   8.563  0.4572 -0.0540  0.2350
 1364TIP3    H125651   5.959   0.964   8.562 -0.6207  2.5212 -4.2189
 1364TIP3    H225652   6.057   1.047   8.642 -0.4174 -3.6430  2.9989
 1365TIP3   OH225653   0.518   2.965   0.927 -0.1252 -0.5581 -0.2910
 1365TIP3    H125654   0.457   2.975   0.854  0.9066  0.6529 -1.0401
 1365TIP3    H225655   0.604   2.986   0.889  0.5588 -0.8024  1.0631
 1366TIP3   OH225656   0.415   1.130   7.527  0.2345 -0.0806 -0.4279
 1366TIP3    H125657   0.495   1.106   7.574  1.2120 -1.0962 -2.5133
 1366TIP3    H225658   0.366   1.049   7.520  0.4379 -0.1110 -1.7308
 1367TIP3   OH225659   1.153   2.285   2.215 -0.1847 -0.1809  0.1203
 1367TIP3    H125660   1.121   2.263   2.302 -0.3664  0.2690  0.1696
 1367TIP3    H225661   1.073   2.295   2.163 -0.0642 -1.7208 -0.4258
 1368TIP3   OH225662   2.442   1.632   1.800  0.0571 -0.5642 -0.5747
 1368TIP3    H125663   2.399   1.682   1.731  0.1698  0.0933 -0.1746
 1368TIP3    H225664   2.491   1.697   1.850  3.1767 -1.4680 -2.1793
 1369TIP3   OH225665   3.960   1.157   0.429 -0.4658 -0.0032 -0.3947
 1369TIP3    H125666   3.940   1.234   0.376 -2.2068  1.3099  1.9494
 1369TIP3    H225667   4.003   1.191   0.507 -1.5198 -1.3013  0.8377
 1370TIP3   OH225668   3.033   0.204   2.084 -0.4625  0.1991  0.1345
 1370TIP3    H125669   3.039   0.171   2.174 -1.4452  0.4948  0.3187
 1370TIP3    H225670   3.122   0.236   2.064 -0.4186  0.8515  1.2823
 1371TIP3   OH225671   1.038   3.465   1.896 -0.0043  0.0814  0.4282
 1371TIP3    H125672   0.998   3.551   1.908  0.6218  0.2993  1.0685
 1371TIP3    H225673   0.967   3.403   1.913 -1.0362  0.4449 -2.1844
 1372TIP3   OH225674   6.646   0.958   0.594  0.1865  0.2610 -0.1420
 1372TIP3    H125675   6.586   1.000   0.533 -0.8554 -1.0929 -0.0916
 1372TIP3    H225676   6.638   0.864   0.575  1.3148 -0.0424  0.7549
 1373TIP3   OH225677   6.198   3.010   6.880 -0.2213 -0.1542 -0.1194
 1373TIP3    H125678   6.120   2.957   6.859 -0.9896  0.0103  2.0190
 1373TIP3    H225679   6.199   3.078   6.814 -2.8255  0.7298  0.6119
 1374TIP3   OH225680   2.150   2.891   8.472 -0.1869  0.1579 -0.2502
 1374TIP3    H125681   2.107   2.811   8.502 -1.7888  0.9309 -0.3539
 1374TIP3    H225682   2.124   2.957   8.536  0.7201  0.7119 -0.4326
 1375TIP3   OH225683   5.957   2.927   1.481 -0.1278 -0.2107 -0.1061
 1375TIP3    H125684   5.932   2.875   1.405  0.3405 -0.6152  0.0130
 1375TIP3    H225685   5.874   2.945   1.526 -0.2307 -1.5134  0.2738
 1376TIP3   OH225686   3.561   6.012   6.519 -0.4286 -0.4390  0.8196
 1376TIP3    H125687   3.619   5.936   6.508 -0.0418 -0.0774  0.2963
 1376TIP3    H225688   3.536   6.036   6.430  0.0127  0.4803  0.9358
 1377TIP3   OH225689   4.162   0.686   0.202  0.0938 -0.3315 -0.0523
 1377TIP3    H125690   4.229   0.735   0.249 -0.0590 -0.4818  0.3257
 1377TIP3    H225691   4.202   0.600   0.186 -0.2889 -0.6826  0.8545
 1378TIP3   OH225692   5.203   5.651   7.338 -0.0674 -0.4809 -0.3343
 1378TIP3    H125693   5.246   5.674   7.256  0.7701  1.6134  0.6181
 1378TIP3    H225694   5.275   5.633   7.399 -0.6208 -0.4086  0.3540
 1379TIP3   OH225695   5.813   3.820   7.421 -0.4223  0.0240 -0.0297
 1379TIP3    H125696   5.854   3.737   7.398  2.3310  1.0293  0.9017
 1379TIP3    H225697   5.744   3.796   7.484  0.0793 -1.5652 -0.0439
 1380TIP3   OH225698   3.725   0.215   7.693 -0.0314  0.2132  0.4309
 1380TIP3    H125699   3.665   0.208   7.768  1.2264  1.1709  1.5926
 1380TIP3    H225700   3.778   0.136   7.697  0.2434  0.4106  0.7585
 1381TIP3   OH225701   6.036   1.813   1.668  0.9491  0.3565  0.3917
 1381TIP3    H125702   6.080   1.804   1.753  2.8188  0.1853 -0.5696
 1381TIP3    H225703   5.991   1.897   1.673 -0.5619 -0.4691  2.2267
 1382TIP3   OH225704   1.041   1.495   7.426  0.0577 -0.3931 -0.0375
 1382TIP3    H125705   0.946   1.490   7.440  0.1198  0.2949  0.7118
 1382TIP3    H225706   1.051   1.498   7.331 -0.6254 -1.1795 -0.1547
 1383TIP3   OH225707   0.130   0.848   6.580  0.0928 -0.0964 -0.0127
 1383TIP3    H125708   0.194   0.882   6.517  0.0742  0.4793  0.2735
 1383TIP3    H225709   0.048   0.847   6.531  0.0753  0.3647  0.0031
 1384TIP3   OH225710   0.268   6.540   7.379 -0.1394 -0.5158  0.0169
 1384TIP3    H125711   0.174   6.540   7.361  0.2056  0.5182 -2.1580
 1384TIP3    H225712   0.297   6.629   7.356  1.5303 -1.1216 -0.3449
 1385TIP3   OH225713   5.681   6.378   0.513 -0.1083 -0.0218  0.0362
 1385TIP3    H125714   5.594   6.400   0.547 -0.0962 -2.1123  1.5688
 1385TIP3    H225715   5.738   6.447   0.546 -0.3958 -1.0759  3.0408
 1386TIP3   OH225716   3.587   1.876   7.500 -0.1470  0.0935 -0.6073
 1386TIP3    H125717   3.496   1.848   7.511 -0.6481  1.4096 -1.1858
 1386TIP3    H225718   3.600   1.942   7.568  0.5686 -0.4896 -0.1616
 1387TIP3   OH225719   6.673   5.549   8.006 -0.6015  0.2536  0.5540
 1387TIP3    H125720   6.597   5.519   7.956  0.6599  0.1905 -1.4043
 1387TIP3    H225721   6.697   5.632   7.965  0.6651  0.0445  0.8492
 1388TIP3   OH225722   1.998   0.085   8.151  0.4573  0.4274  0.3875
 1388TIP3    H125723   1.953   0.015   8.200  0.1552  1.6296  1.9330
 1388TIP3    H225724   1.969   0.073   8.061 -2.6780  0.8194  1.2088
 1389TIP3   OH225725   3.066   4.081   7.665 -0.6991 -0.4852  0.2714
 1389TIP3    H125726   2.976   4.103   7.690 -0.2539 -0.1433  1.7103
 1389TIP3    H225727   3.116   4.160   7.685 -0.3338  0.0343 -2.3399
 1390TIP3   OH225728   2.275   6.398   0.485 -0.2856  0.3044  0.1095
 1390TIP3    H125729   2.184   6.412   0.460 -0.2702 -0.0462 -0.1573
 1390TIP3    H225730   2.317   6.483   0.472 -0.3556  0.2184 -0.7457
 1391TIP3   OH225731   6.317   2.364   1.363 -0.0895 -0.2999 -0.0155
 1391TIP3    H125732   6.293   2.280   1.323 -1.4310 -0.5045  1.1755
 1391TIP3    H225733   6.261   2.428   1.319 -0.3304 -0.2780  0.3256
 1392TIP3   OH225734   4.176   0.886   6.992 -0.5388 -0.7979  0.2265
 1392TIP3    H125735   4.109   0.929   7.045 -0.8534 -2.8385  1.6130
 1392TIP3    H225736   4.159   0.916   6.903 -1.8764  0.4681  0.8608
 1393TIP3   OH225737   2.975   3.992   1.078  0.0505 -0.2755 -0.1328
 1393TIP3    H125738   2.944   3.967   1.165  0.6011  0.8071  0.4008
 1393TIP3    H225739   2.922   4.069   1.055 -0.5952 -0.9902 -1.0792
 1394TIP3   OH225740   4.126   5.508   1.782 -0.1538 -0.2697  0.1831
 1394TIP3    H125741   4.187   5.459   1.727  2.3466  0.6572  1.9600
 1394TIP3    H225742   4.181   5.551   1.847 -2.6491  1.3968  1.3600
 1395TIP3   OH225743   5.598   6.018   1.080 -0.4294  0.6477 -0.4290
 1395TIP3    H125744   5.555   6.090   1.127  0.0684 -0.4553  1.8487
 1395TIP3    H225745   5.526   5.962   1.051 -0.7267 -0.6852  2.5294
 1396TIP3   OH225746   2.862   0.338   0.709  0.5920  0.0974  0.1394
 1396TIP3    H125747   2.926   0.273   0.681 -0.7605 -1.4652  0.4647
 1396TIP3    H225748   2.867   0.337   0.804  1.0732  1.0280  0.1286
 1397TIP3   OH225749   3.204   1.465   0.181  0.2491 -0.1268 -0.4528
 1397TIP3    H125750   3.238   1.469   0.092  1.2671  1.6291 -0.0358
 1397TIP3    H225751   3.120   1.512   0.177 -0.1392 -0.8235 -0.6459
 1398TIP3   OH225752   2.358   2.823   6.510  0.1523  0.0338  0.0086
 1398TIP3    H125753   2.406   2.878   6.447  0.2698 -0.4348 -0.3189
 1398TIP3    H225754   2.426   2.775   6.556  0.0366 -0.0301  0.1105
 1399TIP3   OH225755   0.677   1.524   7.720  0.1578  0.1798 -0.0010
 1399TIP3    H125756   0.742   1.470   7.767  0.0973  0.9796  1.0347
 1399TIP3    H225757   0.600   1.522   7.777 -0.2595  0.3637 -0.5587
 1400TIP3   OH225758   4.849   1.220   0.355  0.0317 -0.2371 -0.1102
 1400TIP3    H125759   4.797   1.272   0.293  0.2092 -1.0594 -0.9760
 1400TIP3    H225760   4.939   1.244   0.336  0.1597 -1.2980 -0.9624
 1401TIP3   OH225761   1.355   1.360   1.149 -0.4243 -0.2188  0.1805
 1401TIP3    H125762   1.360   1.401   1.235  0.3546  0.0435  0.0183
 1401TIP3    H225763   1.372   1.431   1.087 -2.1849 -0.1423 -0.2694
 1402TIP3   OH225764   5.695   2.614   0.970  0.5386 -0.2198  0.6175
 1402TIP3    H125765   5.786   2.588   0.982  1.0729  0.5859 -1.2729
 1402TIP3    H225766   5.699   2.691   0.914 -1.3479 -0.6207 -0.1619
 1403TIP3   OH225767   2.066   3.852   2.483  0.6399 -0.2956 -0.2873
 1403TIP3    H125768   2.063   3.947   2.482 -2.5529 -0.2113  1.6869
 1403TIP3    H225769   2.095   3.830   2.572  1.0450 -1.1742 -0.6230
 1404TIP3   OH225770   3.292   2.150   0.518  0.0073  0.0512  0.5213
 1404TIP3    H125771   3.330   2.065   0.496 -0.0095 -0.1890  1.3858
 1404TIP3    H225772   3.263   2.141   0.609 -0.5361  0.7900  0.4333
 1405TIP3   OH225773   4.506   3.313   2.788  1.0427 -0.0092  0.5122
 1405TIP3    H125774   4.483   3.220   2.787 -1.0012  0.4220  1.6813
 1405TIP3    H225775   4.451   3.352   2.720  0.1900  0.6636  1.5606
 1406TIP3   OH225776   5.520   3.428   8.221 -0.6022 -0.3858  0.5461
 1406TIP3    H125777   5.460   3.359   8.192 -1.1213 -0.5076  1.8039
 1406TIP3    H225778   5.465   3.506   8.228  0.0593  0.2885 -1.2290
 1407TIP3   OH225779   2.938   6.001   6.953 -0.4322 -0.1263 -0.0873
 1407TIP3    H125780   2.905   5.997   6.863 -1.1020 -0.8322  0.1792
 1407TIP3    H225781   3.032   6.015   6.943 -0.6738  1.1178 -0.8775
 1408TIP3   OH225782   5.919   1.086   6.513 -0.2323  0.0256 -0.0076
 1408TIP3    H125783   5.849   1.141   6.549  0.4037  1.0164 -0.2638
 1408TIP3    H225784   5.908   1.091   6.418  0.1720  0.1595 -0.0487
 1409TIP3   OH225785   0.984   0.287   8.194  0.0783  0.1310  0.5193
 1409TIP3    H125786   0.931   0.208   8.182  2.4468 -1.3517 -1.3211
 1409TIP3    H225787   1.064   0.255   8.236  0.6788  1.7504  0.6455
 1410TIP3   OH225788   1.204   5.760   2.606 -0.1620  0.2622  0.0690
 1410TIP3    H125789   1.249   5.754   2.691  1.2950  0.6398 -0.6471
 1410TIP3    H225790   1.125   5.708   2.618 -1.1943  2.1603  2.4180
 1411TIP3   OH225791   2.641   5.829   0.840 -0.0672 -0.1124  0.3909
 1411TIP3    H125792   2.667   5.883   0.914  0.7239 -1.5388  1.1993
 1411TIP3    H225793   2.612   5.746   0.879 -1.8457 -0.1055 -0.7550
 1412TIP3   OH225794   3.989   3.091   8.096 -0.0414  0.1746 -0.0135
 1412TIP3    H125795   4.060   3.034   8.123 -0.3715 -0.1534  0.1786
 1412TIP3    H225796   3.921   3.031   8.065 -0.4577  0.4543  0.3468
 1413TIP3   OH225797   2.139   3.635   7.664 -0.3881 -0.1884  0.4070
 1413TIP3    H125798   2.223   3.673   7.690 -0.2198  0.5576 -1.0849
 1413TIP3    H225799   2.147   3.622   7.570 -1.7696 -0.5742  0.3187
 1414TIP3   OH225800   4.861   0.517   7.895 -0.1576 -0.0164 -0.0592
 1414TIP3    H125801   4.943   0.516   7.845  0.2131 -0.2007  0.5461
 1414TIP3    H225802   4.868   0.591   7.954 -0.6388  0.2587 -0.3355
 1415TIP3   OH225803   2.500   1.299   6.867  0.3783  0.0666 -0.5496
 1415TIP3    H125804   2.424   1.350   6.895  0.2502 -0.3942 -0.0420
 1415TIP3    H225805   2.474   1.208   6.878  0.4340 -0.1354 -1.9171
 1416TIP3   OH225806   6.724   5.751   7.137  0.2996 -0.2148  0.3567
 1416TIP3    H125807   6.816   5.730   7.149  0.3741 -0.0704  0.0469
 1416TIP3    H225808   6.712   5.756   7.043 -0.4168 -1.9217  0.3242
 1417TIP3   OH225809   3.931   5.645   8.049  0.1961 -0.2254  0.0203
 1417TIP3    H125810   3.844   5.675   8.075 -0.3969 -1.3395 -0.5899
 1417TIP3    H225811   3.921   5.619   7.957  0.8966 -1.3350  0.2292
 1418TIP3   OH225812   6.783   6.248   2.153  0.2231  0.1600  0.3291
 1418TIP3    H125813   6.687   6.251   2.148  0.1837 -1.4711 -0.6247
 1418TIP3    H225814   6.803   6.282   2.240 -1.2808 -0.2820  0.8937
 1419TIP3   OH225815   6.686   5.375   1.176  0.2463 -0.0638  0.3966
 1419TIP3    H125816   6.664   5.465   1.199 -0.8734 -0.8763  2.9650
 1419TIP3    H225817   6.666   5.367   1.083  1.7721  2.6774 -0.2681
 1420TIP3   OH225818   2.646   1.595   0.370  0.5754  0.4680  0.0293
 1420TIP3    H125819   2.565   1.595   0.421  0.4129  1.6405 -0.2071
 1420TIP3    H225820   2.714   1.622   0.432  0.9815 -1.4489  0.4781
 1421TIP3   OH225821   4.222   3.311   0.514  0.0760 -0.2707  0.0371
 1421TIP3    H125822   4.199   3.241   0.453 -1.3510  0.0207  0.2074
 1421TIP3    H225823   4.173   3.387   0.484 -0.2079  0.0330  1.1873
 1422TIP3   OH225824   0.803   3.526   2.447 -0.4362  0.1202 -0.2122
 1422TIP3    H125825   0.814   3.576   2.527 -1.0181 -0.1146  0.0257
 1422TIP3    H225826   0.709   3.532   2.428 -0.0455  1.8445 -1.9796
 1423TIP3   OH225827   1.348   4.301   7.505 -0.2463 -0.3901 -0.0817
 1423TIP3    H125828   1.297   4.380   7.484  1.3466  0.6016 -0.4097
 1423TIP3    H225829   1.407   4.330   7.575  0.2651 -1.3362 -0.1115
 1424TIP3   OH225830   5.905   4.640   2.383  0.0757 -0.4708 -0.5932
 1424TIP3    H125831   5.962   4.684   2.321 -0.9199  1.6662 -0.0730
 1424TIP3    H225832   5.963   4.613   2.454  0.6869  0.1708 -0.8361
 1425TIP3   OH225833   3.425   2.054   7.275 -0.0678 -0.7924 -0.6125
 1425TIP3    H125834   3.449   2.095   7.359 -2.8752  0.3169 -0.2535
 1425TIP3    H225835   3.445   2.121   7.210  0.3678 -0.9338 -0.6254
 1426TIP3   OH225836   5.922   2.066   1.677 -0.5772  0.1531  0.6422
 1426TIP3    H125837   5.936   2.087   1.770  0.4745  0.0174  0.5239
 1426TIP3    H225838   5.883   2.145   1.640  1.5904  1.2973  0.6126
 1427TIP3   OH225839   6.600   5.899   0.792 -0.4543 -0.1439 -0.6880
 1427TIP3    H125840   6.546   5.977   0.780  0.1167  0.8547  2.3762
 1427TIP3    H225841   6.681   5.918   0.746 -0.3873  1.0591 -0.1093
 1428TIP3   OH225842   0.747   2.965   0.765 -0.3384  0.2921  0.1520
 1428TIP3    H125843   0.817   2.902   0.782 -0.5031  0.1713  0.3893
 1428TIP3    H225844   0.691   2.921   0.701  0.4231  0.8518 -0.9281
 1429TIP3   OH225845   0.148   2.547   0.069  0.3333 -0.0906  0.2778
 1429TIP3    H125846   0.208   2.505   0.130  0.6657  2.3262  1.7191
 1429TIP3    H225847   0.121   2.628   0.113 -3.1619 -0.5397 -0.7651
 1430TIP3   OH225848   4.756   6.229   0.574 -0.4079 -0.4528  0.1935
 1430TIP3    H125849   4.785   6.161   0.513  0.3366  0.0400 -0.0192
 1430TIP3    H225850   4.806   6.307   0.549 -1.3621  0.2273  0.3248
 1431TIP3   OH225851   2.862   4.982   2.071  0.7325  0.2980  1.0077
 1431TIP3    H125852   2.845   5.013   2.160 -1.2408  0.4794  0.6134
 1431TIP3    H225853   2.794   5.024   2.018 -0.2567 -2.4277 -0.0313
 1432TIP3   OH225854   1.714   4.906   0.623  0.3772  0.0256 -0.4039
 1432TIP3    H125855   1.631   4.940   0.587 -1.1652 -2.2353  0.7748
 1432TIP3    H225856   1.778   4.920   0.553 -0.9838  1.7975 -1.3881
 1433TIP3   OH225857   2.548   6.643   1.003  0.2840 -0.4779 -0.5142
 1433TIP3    H125858   2.514   6.568   0.953  0.4738 -0.3572 -0.8277
 1433TIP3    H225859   2.515   6.720   0.956 -0.6789 -0.3550  0.3332
 1434TIP3   OH225860   3.993   3.413   7.709  0.2018 -0.1828 -0.1708
 1434TIP3    H125861   3.974   3.486   7.768 -2.8629 -1.6945  0.9601
 1434TIP3    H225862   4.047   3.354   7.762  1.9024  0.7532 -0.7768
 1435TIP3   OH225863   3.333   5.755   0.316  0.0544  0.3100 -0.6649
 1435TIP3    H125864   3.397   5.768   0.245  1.2337 -2.2547 -0.2029
 1435TIP3    H225865   3.387   5.730   0.391 -1.4568 -1.3482 -0.0904
 1436TIP3   OH225866   3.199   4.211   7.252 -0.3328  0.5015  0.1964
 1436TIP3    H125867   3.208   4.119   7.276 -0.1228  0.4890  0.0775
 1436TIP3    H225868   3.168   4.209   7.162  1.3001  0.5294 -0.4031
 1437TIP3   OH225869   5.953   5.299   7.931 -0.0348 -0.0027 -0.3181
 1437TIP3    H125870   5.952   5.248   8.012  0.2662  0.6225  0.0786
 1437TIP3    H225871   5.898   5.248   7.871  1.9317 -1.9235 -0.6173
 1438TIP3   OH225872   3.842   2.874   1.356 -0.3123  0.2417  0.4865
 1438TIP3    H125873   3.785   2.797   1.354 -1.9700  1.3175  2.5957
 1438TIP3    H225874   3.875   2.881   1.266 -0.2523 -2.7457  0.1511
 1439TIP3   OH225875   1.125   4.317   1.399 -0.1634 -0.4953  0.0943
 1439TIP3    H125876   1.081   4.257   1.459  0.9650 -1.1737  0.2694
 1439TIP3    H225877   1.112   4.403   1.439  0.7013 -0.9449  1.4344
 1440TIP3   OH225878   0.114   3.121   0.146 -0.6326  0.2164  0.0533
 1440TIP3    H125879   0.199   3.165   0.144  0.0676 -1.0503  0.8026
 1440TIP3    H225880   0.062   3.165   0.078  1.3019 -0.3698 -1.8926
 1441TIP3   OH225881   5.899   0.731   1.979 -0.2612 -0.4162 -0.1841
 1441TIP3    H125882   5.978   0.701   2.022  0.3837 -1.2013 -1.8017
 1441TIP3    H225883   5.830   0.672   2.011  0.3179 -1.3681 -0.6533
 1442TIP3   OH225884   3.105   0.275   1.306 -0.3157  0.4642 -0.8045
 1442TIP3    H125885   3.116   0.331   1.383 -0.6376 -0.7924  0.1725
 1442TIP3    H225886   3.102   0.337   1.232 -0.9791  1.7669  0.2647
 1443TIP3   OH225887   6.261   5.027   7.071 -0.1418  0.1282 -0.6963
 1443TIP3    H125888   6.344   4.985   7.092  0.0227  0.2562 -1.0861
 1443TIP3    H225889   6.285   5.113   7.037 -0.4533  0.3313 -0.4053
 1444TIP3   OH225890   6.069   6.410   8.461 -0.0625 -0.3724  0.1467
 1444TIP3    H125891   6.056   6.354   8.384 -0.1890  0.5112 -0.4972
 1444TIP3    H225892   6.158   6.389   8.490 -0.4886 -1.6725  0.5746
 1445TIP3   OH225893   6.414   2.511   7.387  0.0024  0.2022 -0.0394
 1445TIP3    H125894   6.473   2.581   7.413  1.5382 -1.8597  2.5172
 1445TIP3    H225895   6.338   2.522   7.444 -0.0118  0.1138 -0.0422
 1446TIP3   OH225896   5.331   0.186   2.227  0.8191  0.5807 -0.3104
 1446TIP3    H125897   5.355   0.258   2.284  1.3682  0.7601 -0.7586
 1446TIP3    H225898   5.249   0.213   2.186  0.6760  0.6573  0.0246
 1447TIP3   OH225899   6.312   1.824   1.271 -0.3105 -0.1032  0.0928
 1447TIP3    H125900   6.247   1.789   1.333  0.4737  0.5229  1.3263
 1447TIP3    H225901   6.329   1.752   1.211 -1.7060 -0.4729  0.1062
 1448TIP3   OH225902   0.778   3.669   2.665  0.2646  0.0316 -0.0864
 1448TIP3    H125903   0.712   3.733   2.690  2.4058  1.8937  1.1123
 1448TIP3    H225904   0.790   3.615   2.744  3.0875  2.4172  1.2850
 1449TIP3   OH225905   3.667   2.370   1.988 -0.4000 -0.5277 -0.2779
 1449TIP3    H125906   3.660   2.283   1.948 -2.5899  0.3314 -1.9675
 1449TIP3    H225907   3.610   2.366   2.064  0.9978 -1.0834  0.7922
 1450TIP3   OH225908   6.340   4.058   7.821  0.1117 -0.5188 -0.3566
 1450TIP3    H125909   6.425   4.043   7.863  1.1686 -0.5718 -2.3981
 1450TIP3    H225910   6.281   4.075   7.894  1.9299 -0.1317  1.1226
 1451TIP3   OH225911   2.981   2.948   7.300  0.2799  0.6149  0.5333
 1451TIP3    H125912   2.960   2.890   7.373  0.1179  0.9471  0.7544
 1451TIP3    H225913   3.003   2.889   7.227  1.6708  0.2770  1.1871
 1452TIP3   OH225914   5.911   3.659   0.862  0.0204  0.4479 -0.0524
 1452TIP3    H125915   5.960   3.647   0.781 -0.8377  0.6992 -0.6297
 1452TIP3    H225916   5.839   3.595   0.856  1.2419 -1.1679  1.5938
 1453TIP3   OH225917   1.771   0.529   7.057  0.1335 -0.6016  0.2661
 1453TIP3    H125918   1.792   0.444   7.018 -0.4020 -0.2700 -0.7700
 1453TIP3    H225919   1.849   0.583   7.042  1.1071 -1.3468  2.3142
 1454TIP3   OH225920   2.611   2.050   0.705  0.4924  0.0971  0.4952
 1454TIP3    H125921   2.697   2.015   0.728  1.0749 -0.3267 -2.0817
 1454TIP3    H225922   2.585   2.000   0.628 -1.6672  0.8796  0.6538
 1455TIP3   OH225923   1.396   2.540   1.855 -0.1712  0.6227 -0.2585
 1455TIP3    H125924   1.445   2.463   1.825  0.8584  1.1718 -0.0237
 1455TIP3    H225925   1.344   2.508   1.929 -1.1459 -0.2551 -1.2778
 1456TIP3   OH225926   2.129   3.274   7.621 -0.0503 -0.0371 -0.2234
 1456TIP3    H125927   2.083   3.220   7.685 -0.6734  0.0425 -0.6058
 1456TIP3    H225928   2.152   3.353   7.669  1.8342 -1.0399  0.6723
 1457TIP3   OH225929   6.387   2.494   7.926 -0.3787 -0.2730 -0.4823
 1457TIP3    H125930   6.470   2.529   7.960  0.6196 -0.6761 -2.3617
 1457TIP3    H225931   6.338   2.571   7.898  0.6021 -0.1339 -1.9581
 1458TIP3   OH225932   6.358   2.782   1.700  0.0765 -0.8522 -0.3151
 1458TIP3    H125933   6.402   2.859   1.663 -0.4501 -1.3288 -1.9844
 1458TIP3    H225934   6.266   2.808   1.706 -0.2009 -1.5426 -1.4397
 1459TIP3   OH225935   2.926   5.340   7.371 -0.2417 -0.5615 -0.2741
 1459TIP3    H125936   2.968   5.363   7.454  2.0519  0.1884 -1.5487
 1459TIP3    H225937   2.953   5.250   7.354  1.6277  0.1432 -1.4339
 1460TIP3   OH225938   3.152   1.758   0.947  0.1175 -0.1232  0.5268
 1460TIP3    H125939   3.111   1.799   1.023 -1.3408  0.0049 -0.2973
 1460TIP3    H225940   3.159   1.665   0.971  2.7254  0.3593  2.0870
 1461TIP3   OH225941   5.985   5.801   8.049 -0.1963 -0.2636  0.6792
 1461TIP3    H125942   5.989   5.726   7.989 -3.2451  0.6591 -0.8578
 1461TIP3    H225943   6.075   5.811   8.080  0.5226 -3.8943  0.1910
 1462TIP3   OH225944   0.165   2.453   1.889  0.4113  0.0125  0.1642
 1462TIP3    H125945   0.244   2.462   1.836  0.8141 -1.4323  0.4619
 1462TIP3    H225946   0.105   2.402   1.834  0.3371 -0.3694  0.5950
 1463TIP3   OH225947   1.543   5.649   0.831 -0.0336 -0.4044 -0.1039
 1463TIP3    H125948   1.535   5.742   0.812  1.3393 -0.2301  0.1102
 1463TIP3    H225949   1.522   5.605   0.748  0.0009  0.1126 -0.3883
 1464TIP3   OH225950   1.195   3.176   1.519 -0.5424  0.0291 -0.1386
 1464TIP3    H125951   1.203   3.231   1.597  0.6916 -0.5059  0.1419
 1464TIP3    H225952   1.118   3.121   1.535  1.4127 -2.2787  2.1785
 1465TIP3   OH225953   5.662   3.801   1.195  0.2337 -0.9379 -0.8751
 1465TIP3    H125954   5.743   3.751   1.200  0.8918  0.2427  2.0115
 1465TIP3    H225955   5.688   3.892   1.207 -1.5164 -0.5534  0.4791
 1466TIP3   OH225956   1.757   2.505   8.512  0.0908 -0.5989  0.1081
 1466TIP3    H125957   1.768   2.474   8.602  0.5162  0.4622  0.4317
 1466TIP3    H225958   1.714   2.432   8.467  1.0293 -1.6350  0.8453
 1467TIP3   OH225959   3.323   0.548   2.030 -0.2996  0.5789 -0.0203
 1467TIP3    H125960   3.252   0.564   2.092 -0.4368  1.1613 -0.3180
 1467TIP3    H225961   3.399   0.527   2.084 -0.7460 -0.2703  0.2992
 1468TIP3   OH225962   6.614   0.200   0.277  0.1395  0.3433  0.0402
 1468TIP3    H125963   6.676   0.139   0.318 -0.4719  1.2045  2.4657
 1468TIP3    H225964   6.535   0.194   0.331 -0.8858  1.3293 -1.2742
 1469TIP3   OH225965   0.561   1.764   1.677  0.3063 -0.4516  0.1000
 1469TIP3    H125966   0.562   1.847   1.630 -3.8337 -0.4300 -0.3368
 1469TIP3    H225967   0.590   1.699   1.612 -3.0698 -0.1215 -1.9558
 1470TIP3   OH225968   0.507   3.512   8.168 -0.0786  0.7163  0.0956
 1470TIP3    H125969   0.526   3.509   8.074 -1.6815  0.2044 -0.2429
 1470TIP3    H225970   0.424   3.559   8.174 -0.6149 -0.3133  1.1380
 1471TIP3   OH225971   6.131   1.691   1.447  0.2483 -0.1044  0.6183
 1471TIP3    H125972   6.103   1.731   1.529  0.1991 -0.2017  0.6495
 1471TIP3    H225973   6.187   1.618   1.475 -0.8139 -0.9416  0.6037
 1472TIP3   OH225974   4.441   2.825   2.616  0.0339 -0.1264 -0.5329
 1472TIP3    H125975   4.507   2.804   2.550 -1.3886 -1.7158 -1.5409
 1472TIP3    H225976   4.390   2.745   2.624 -0.1045  0.1491  2.2418
 1473TIP3   OH225977   2.253   2.001   7.871 -0.5974  0.0352 -0.3728
 1473TIP3    H125978   2.205   2.081   7.891  0.9740  0.7756  0.6233
 1473TIP3    H225979   2.340   2.014   7.909 -0.8825 -2.9769  1.7437
 1474TIP3   OH225980   6.839   4.069   1.211 -0.6141 -0.6165  0.3689
 1474TIP3    H125981   6.934   4.083   1.210 -0.5851 -0.7848  0.5970
 1474TIP3    H225982   6.802   4.149   1.175 -0.5367  0.6476  2.9167
 1475TIP3   OH225983   2.614   5.853   0.535  0.5911 -0.1556  0.3541
 1475TIP3    H125984   2.603   5.847   0.630  0.3471  0.0583  0.3400
 1475TIP3    H225985   2.577   5.772   0.502  0.3922 -0.0938  0.4202
 1476TIP3   OH225986   5.448   5.102   7.127  0.6719  0.2975  0.0440
 1476TIP3    H125987   5.470   5.167   7.060 -1.4939  0.3889 -0.6363
 1476TIP3    H225988   5.357   5.079   7.109  1.3557 -2.9678  0.2410
 1477TIP3   OH225989   6.189   0.253   7.951 -0.0764  0.9067 -0.0449
 1477TIP3    H125990   6.144   0.274   8.033 -1.1524 -1.9370  0.2186
 1477TIP3    H225991   6.253   0.186   7.976  1.2905  1.7428 -1.1753
 1478TIP3   OH225992   2.672   1.837   8.002 -0.1480 -0.1775 -0.2386
 1478TIP3    H125993   2.630   1.801   7.924  0.1890 -1.6562  0.2262
 1478TIP3    H225994   2.612   1.814   8.073  0.0289  0.2908  0.0650
 1479TIP3   OH225995   3.614   6.229   7.610  0.0608  0.0154  0.3231
 1479TIP3    H125996   3.616   6.314   7.566 -0.5857  0.8222  1.7642
 1479TIP3    H225997   3.534   6.188   7.579  0.0705  0.1884  0.0650
 1480TIP3   OH225998   0.507   3.203   7.977 -0.0513 -0.0237  0.5493
 1480TIP3    H125999   0.548   3.288   7.957  0.1469 -0.4309 -0.8823
 1480TIP3    H226000   0.476   3.171   7.893 -0.7757 -1.0523  1.1890
 1481TIP3   OH226001   1.933   1.739   1.855 -0.4110  0.4763 -0.1862
 1481TIP3    H126002   1.956   1.736   1.948  1.1844 -0.0720 -0.5717
 1481TIP3    H226003   1.926   1.647   1.830 -2.2101  0.6159 -0.3181
 1482TIP3   OH226004   5.845   6.859   1.232 -0.2015 -0.7015 -1.1077
 1482TIP3    H126005   5.846   6.945   1.273  0.3612 -1.5371  0.7330
 1482TIP3    H226006   5.780   6.809   1.281  1.2802 -2.0709 -0.4359
 1483TIP3   OH226007   0.779   2.346   7.560 -0.5841 -0.7546 -0.0922
 1483TIP3    H126008   0.799   2.341   7.466 -1.5729  0.2588 -0.3899
 1483TIP3    H226009   0.822   2.427   7.589  0.1179 -1.3102  0.4519
 1484TIP3   OH226010   6.094   3.531   2.797  0.2257 -0.5221  0.3494
 1484TIP3    H126011   6.057   3.618   2.815 -0.0925 -0.7852  1.0017
 1484TIP3    H226012   6.019   3.472   2.799  0.7343 -1.1770  2.4835
 1485TIP3   OH226013   6.785   3.808   0.390 -0.1799 -0.7543  0.4038
 1485TIP3    H126014   6.743   3.765   0.465  0.0666 -0.6705  0.5917
 1485TIP3    H226015   6.840   3.740   0.351  0.3590 -0.5669  0.8151
 1486TIP3   OH226016   0.518   2.899   1.550  0.0061 -0.4084 -0.7526
 1486TIP3    H126017   0.458   2.851   1.606  0.0734 -0.0193 -0.3402
 1486TIP3    H226018   0.571   2.951   1.610 -1.9815  2.4291 -1.2458
 1487TIP3   OH226019   4.234   3.728   7.338 -0.0864 -0.3404 -0.1423
 1487TIP3    H126020   4.156   3.783   7.331  0.5318  0.4575 -0.9343
 1487TIP3    H226021   4.235   3.676   7.258 -0.1739 -0.8447  0.1819
 1488TIP3   OH226022   0.854   6.510   1.302 -0.6547 -0.3903 -0.0299
 1488TIP3    H126023   0.935   6.459   1.304 -0.5084 -0.1917  2.5436
 1488TIP3    H226024   0.883   6.599   1.283 -0.4296 -0.5395 -0.4049
 1489TIP3   OH226025   0.872   3.435   6.493  0.2443  0.0109  0.0624
 1489TIP3    H126026   0.905   3.522   6.469 -0.6388  0.0786 -0.9801
 1489TIP3    H226027   0.825   3.405   6.415  1.7880 -2.0680 -0.1253
 1490TIP3   OH226028   3.712   1.970   7.203 -0.0354 -0.3147 -0.0290
 1490TIP3    H126029   3.656   1.989   7.279 -0.2688  0.6529 -0.4397
 1490TIP3    H226030   3.651   1.961   7.130  0.2028 -1.1190 -0.1380
 1491TIP3   OH226031   0.398   6.376   2.685 -0.7963  0.2263 -0.3317
 1491TIP3    H126032   0.437   6.289   2.687 -2.8391 -0.7550  1.5905
 1491TIP3    H226033   0.402   6.402   2.593  4.0916  0.2576 -0.3259
 1492TIP3   OH226034   4.913   5.835   2.391 -0.0283 -0.8163 -0.0726
 1492TIP3    H126035   4.837   5.887   2.419  0.3112 -1.0734  1.4076
 1492TIP3    H226036   4.927   5.773   2.463  0.8757 -1.5408 -0.8565
 1493TIP3   OH226037   5.611   3.789   7.584  0.1031 -0.1612 -0.0989
 1493TIP3    H126038   5.592   3.695   7.585 -0.7876  0.0016 -0.4385
 1493TIP3    H226039   5.618   3.814   7.676 -0.0050 -0.4945  0.0008
 1494TIP3   OH226040   6.261   2.597   0.051 -0.3439  0.1320 -0.6727
 1494TIP3    H126041   6.324   2.525   0.051  0.2689  0.6426 -2.0366
 1494TIP3    H226042   6.311   2.674   0.077 -0.8012  0.2297 -0.0622
 1495TIP3   OH226043   5.125   1.876   7.527  0.0809  0.1843  0.1154
 1495TIP3    H126044   5.049   1.883   7.585  0.1630  2.1828  0.0371
 1495TIP3    H226045   5.176   1.805   7.565 -0.9800 -0.0541  1.1716
 1496TIP3   OH226046   4.730   3.047   1.541  0.4336  0.3037 -0.2119
 1496TIP3    H126047   4.665   3.008   1.600 -0.7445  0.1542 -1.5644
 1496TIP3    H226048   4.679   3.085   1.470  1.7431  1.7079 -0.4620
 1497TIP3   OH226049   5.079   1.306   0.837  0.1457 -0.7272  0.2613
 1497TIP3    H126050   5.037   1.304   0.923 -1.6227 -1.6563 -0.5750
 1497TIP3    H226051   5.014   1.269   0.777  1.8756 -1.4903 -1.2578
 1498TIP3   OH226052   6.159   4.630   7.756 -0.6344  0.3339  0.0415
 1498TIP3    H126053   6.126   4.564   7.816  1.0413 -1.7082 -1.1506
 1498TIP3    H226054   6.236   4.667   7.801 -0.9997  0.8081  0.2903
 1499TIP3   OH226055   3.607   0.628   8.558  0.1971 -0.0055 -0.4328
 1499TIP3    H126056   3.569   0.631   8.470 -0.0262  1.7317 -0.3277
 1499TIP3    H226057   3.534   0.652   8.615  0.3301 -1.1555  0.2562
 1500TIP3   OH226058   1.190   6.625   2.448 -0.1181 -0.1471 -0.9611
 1500TIP3    H126059   1.214   6.712   2.480 -1.1909  0.2346 -1.1573
 1500TIP3    H226060   1.160   6.640   2.358 -1.1259 -0.5799 -0.7089
 1501TIP3   OH226061   1.764   2.198   0.708 -0.4765 -0.2557  0.2911
 1501TIP3    H126062   1.681   2.223   0.749  0.4010  0.6874  1.6013
 1501TIP3    H226063   1.796   2.126   0.762 -0.8220 -1.1896 -0.7235
 1502TIP3   OH226064   0.450   6.185   7.663  0.7330  0.4393 -0.5018
 1502TIP3    H126065   0.529   6.163   7.613  0.8240  1.1455 -0.6878
 1502TIP3    H226066   0.482   6.227   7.742  0.5486  2.6047 -1.4904
 1503TIP3   OH226067   1.120   0.435   8.592  0.2607  0.5391 -0.2033
 1503TIP3    H126068   1.054   0.437   8.662 -1.1575  0.6111 -1.4900
 1503TIP3    H226069   1.119   0.523   8.556 -0.4751 -0.0080 -1.5829
 1504TIP3   OH226070   0.656   2.076   1.719 -0.2352 -0.3148  0.3602
 1504TIP3    H126071   0.562   2.090   1.733  0.0584  1.5905  0.6963
 1504TIP3    H226072   0.662   2.041   1.630 -1.2195  0.1032  0.1186
 1505TIP3   OH226073   2.388   3.981   1.667  0.2901  0.4956 -0.1873
 1505TIP3    H126074   2.421   3.982   1.757  0.7305  0.7774 -0.3523
 1505TIP3    H226075   2.293   3.969   1.677  0.4697 -0.6190  0.2733
 1506TIP3   OH226076   6.583   4.355   6.462  0.0704  0.2212  0.1690
 1506TIP3    H126077   6.662   4.394   6.426  0.0555  1.5309  1.4622
 1506TIP3    H226078   6.610   4.319   6.546 -0.3509 -0.8894 -0.1509
 1507TIP3   OH226079   2.863   4.941   2.376 -0.2290 -0.1300  0.2965
 1507TIP3    H126080   2.834   4.864   2.425 -1.3205 -0.2624 -0.5114
 1507TIP3    H226081   2.952   4.919   2.347 -0.3370 -0.8754  0.5147
 1508TIP3   OH226082   0.583   1.515   7.166 -0.0673 -0.1263  0.0580
 1508TIP3    H126083   0.676   1.529   7.152  0.3359 -2.5806  0.0232
 1508TIP3    H226084   0.578   1.465   7.248 -1.4749  1.0878  0.7840
 1509TIP3   OH226085   6.741   4.080   7.350 -0.5172 -0.0079  0.5564
 1509TIP3    H126086   6.787   4.103   7.270 -0.7291  1.2756  0.7846
 1509TIP3    H226087   6.651   4.061   7.323 -0.7661  1.1170  0.5663
 1510TIP3   OH226088   5.464   4.520   1.089 -0.0169 -0.5285 -0.1319
 1510TIP3    H126089   5.436   4.447   1.032  0.3726 -0.5766 -0.2662
 1510TIP3    H226090   5.448   4.598   1.037 -2.4011 -0.3277  0.7754
 1511TIP3   OH226091   2.747   0.501   7.997  0.5440  0.4537  0.4394
 1511TIP3    H126092   2.725   0.438   8.065 -0.1775 -0.3451 -0.4935
 1511TIP3    H226093   2.667   0.510   7.945  0.7393  1.8651  0.3174
 1512TIP3   OH226094   3.215   3.588   8.048  0.0791  0.1379 -0.1190
 1512TIP3    H126095   3.236   3.623   7.961 -1.0865  2.0765  0.3056
 1512TIP3    H226096   3.295   3.600   8.099  0.0973  1.0446 -0.3460
 1513TIP3   OH226097   1.565   4.718   0.392 -0.0121  0.1581  0.1858
 1513TIP3    H126098   1.544   4.658   0.463 -1.9705  0.3757 -0.1649
 1513TIP3    H226099   1.497   4.703   0.326  1.8653 -0.2233 -1.8134
 1514TIP3   OH226100   6.626   3.681   8.193  0.2449  0.6118 -0.2139
 1514TIP3    H126101   6.661   3.597   8.223 -1.0191  0.4915  1.0176
 1514TIP3    H226102   6.688   3.710   8.127  2.0536 -0.1067  1.0935
 1515TIP3   OH226103   6.633   4.385   6.883 -0.0957  0.1435 -0.1895
 1515TIP3    H126104   6.648   4.345   6.798  0.1892 -1.2281  0.4895
 1515TIP3    H226105   6.720   4.409   6.915  0.0732 -1.5168  0.7230
 1516TIP3   OH226106   0.279   0.849   1.141 -1.0582  0.0550  0.7359
 1516TIP3    H126107   0.291   0.763   1.099  0.1809  1.1971 -1.4145
 1516TIP3    H226108   0.266   0.828   1.233 -3.9680 -2.6302 -0.0780
 1517TIP3   OH226109   3.862   6.106   7.500 -0.0522 -0.1142  0.7749
 1517TIP3    H126110   3.916   6.041   7.546 -0.7911 -1.9644 -0.8194
 1517TIP3    H226111   3.816   6.153   7.570  3.1074  1.1605  2.1664
 1518TIP3   OH226112   3.606   4.057   8.258 -0.1136  0.0315 -0.1130
 1518TIP3    H126113   3.538   4.116   8.291  1.5410  0.8013  2.1776
 1518TIP3    H226114   3.610   3.987   8.324  2.4002  0.8970  0.7651
 1519TIP3   OH226115   6.891   6.578   7.427  0.2238  0.4820 -1.0053
 1519TIP3    H126116   6.874   6.665   7.463  0.4126  0.5187 -1.0061
 1519TIP3    H226117   6.834   6.571   7.351 -1.2673 -0.1371  0.1232
 1520TIP3   OH226118   0.688   2.708   2.340  0.2547  0.7184 -0.0790
 1520TIP3    H126119   0.719   2.794   2.313  0.4242  0.8889  0.6493
 1520TIP3    H226120   0.661   2.719   2.431 -0.2337  0.1331 -0.1460
 1521TIP3   OH226121   4.475   3.676   8.294  0.2606  0.1113  0.2110
 1521TIP3    H126122   4.477   3.590   8.250 -0.2043  0.6862 -0.9740
 1521TIP3    H226123   4.483   3.655   8.387  0.3916 -1.2098 -0.0740
 1522TIP3   OH226124   0.460   1.407   8.203  0.8177 -0.3653 -0.5844
 1522TIP3    H126125   0.485   1.328   8.252 -0.1007 -1.5644 -1.9634
 1522TIP3    H226126   0.364   1.405   8.204  0.6132  2.4436  1.9665
 1523TIP3   OH226127   5.122   2.937   7.677  0.3022 -0.1751  0.3082
 1523TIP3    H126128   5.119   2.845   7.651 -3.0354 -0.3076  0.7738
 1523TIP3    H226129   5.167   2.981   7.604  2.7305 -2.2020  0.4677
 1524TIP3   OH226130   0.176   2.308   7.915 -0.1246 -0.1112 -0.2707
 1524TIP3    H126131   0.102   2.268   7.961  0.7761 -0.6561  0.7458
 1524TIP3    H226132   0.212   2.237   7.862  1.0515 -0.5153  1.0063
 1525TIP3   OH226133   3.011   6.466   0.865  0.7676  0.4251 -0.0988
 1525TIP3    H126134   3.031   6.387   0.914 -0.4944 -0.0469 -0.2926
 1525TIP3    H226135   3.088   6.481   0.810  0.7159 -1.1360 -0.6503
 1526TIP3   OH226136   4.877   0.527   6.958  0.2470  0.3708  0.2340
 1526TIP3    H126137   4.914   0.441   6.980 -1.4867 -0.3285  0.5472
 1526TIP3    H226138   4.823   0.510   6.881 -0.7238  1.0246  0.7564
 1527TIP3   OH226139   2.552   5.886   8.090  0.7549  0.0372 -0.0781
 1527TIP3    H126140   2.587   5.797   8.084 -0.8775 -0.6771  0.4162
 1527TIP3    H226141   2.560   5.909   8.182 -3.3210 -1.6245  0.8812
 1528TIP3   OH226142   3.732   0.469   6.566 -0.5476  0.3440 -0.0050
 1528TIP3    H126143   3.792   0.395   6.559 -1.1866 -0.1527 -0.3296
 1528TIP3    H226144   3.788   0.545   6.581  0.1633 -0.0995 -0.4055
 1529TIP3   OH226145   4.001   5.190   8.306  0.1222 -0.5193  0.3874
 1529TIP3    H126146   3.929   5.131   8.285  0.1436 -0.8366  1.1818
 1529TIP3    H226147   4.062   5.181   8.233 -0.6532 -0.2248 -0.3042
 1530TIP3   OH226148   1.298   6.835   1.238  0.1508 -0.7399 -0.6135
 1530TIP3    H126149   1.253   6.750   1.237 -0.5824 -0.3541 -0.9439
 1530TIP3    H226150   1.228   6.899   1.233  0.7514 -0.1214 -1.3678
 1531TIP3   OH226151   2.519   2.755   0.310 -0.7549 -0.1551  0.3792
 1531TIP3    H126152   2.504   2.834   0.257  0.5799  0.2727  0.5986
 1531TIP3    H226153   2.485   2.778   0.397 -1.8480 -0.4234  0.0366
 1532TIP3   OH226154   0.856   3.012   1.192 -0.2501 -0.7366  0.1814
 1532TIP3    H126155   0.809   3.090   1.164  2.4912  0.7376 -0.7241
 1532TIP3    H226156   0.798   2.969   1.255 -1.9547  1.9185  0.5587
 1533TIP3   OH226157   1.041   0.884   0.890 -0.3226  0.0314 -0.4252
 1533TIP3    H126158   0.970   0.833   0.928 -0.0418 -0.0929 -0.0602
 1533TIP3    H226159   1.003   0.971   0.875 -0.3022  0.2316  0.6116
 1534TIP3   OH226160   6.431   2.533   0.392  0.1449 -0.1386  0.2085
 1534TIP3    H126161   6.439   2.532   0.487 -0.6930  0.0466  0.2925
 1534TIP3    H226162   6.344   2.496   0.375 -0.1051  0.7204 -0.4381
 1535TIP3   OH226163   0.573   6.641   1.275 -0.4645 -0.7366  0.1483
 1535TIP3    H126164   0.572   6.627   1.181 -3.0192  1.8990 -0.3597
 1535TIP3    H226165   0.662   6.670   1.295  0.0910 -1.2957 -1.4286
 1536TIP3   OH226166   2.553   6.228   7.302 -0.1759 -0.0495 -0.0929
 1536TIP3    H126167   2.568   6.311   7.348 -0.8611  0.6592 -1.0970
 1536TIP3    H226168   2.614   6.230   7.229  1.7279 -1.6897  1.3439
 1537TIP3   OH226169   1.214   4.859   0.088  0.2813 -0.2373 -0.2861
 1537TIP3    H126170   1.126   4.831   0.113  0.2593  1.1640  1.3430
 1537TIP3    H226171   1.205   4.890  -0.002 -0.7696 -0.5806 -0.3077
 1538TIP3   OH226172   4.841   0.425   7.499 -0.3927  0.2909  0.4715
 1538TIP3    H126173   4.931   0.414   7.531 -0.7172 -0.4943  1.1442
 1538TIP3    H226174   4.835   0.364   7.425 -0.2406  0.6791  0.1332
 1539TIP3   OH226175   6.761   1.123   0.271 -0.3362 -0.1868  0.4853
 1539TIP3    H126176   6.772   1.035   0.306  0.4608 -1.6441 -2.9981
 1539TIP3    H226177   6.667   1.131   0.255 -0.3474 -0.6617  0.2967
 1540TIP3   OH226178   2.598   6.241   7.871  0.6120 -0.0534 -0.3482
 1540TIP3    H126179   2.597   6.151   7.839 -0.9963 -0.2143  0.0282
 1540TIP3    H226180   2.682   6.251   7.916  0.5272 -1.5937  0.1998
 1541TIP3   OH226181   1.586   6.181   1.759  0.0333  0.0418 -0.5698
 1541TIP3    H126182   1.605   6.141   1.674  3.3165 -0.0548  0.0774
 1541TIP3    H226183   1.591   6.275   1.743 -0.9266  0.0767 -0.7450
 1542TIP3   OH226184   5.995   0.316   1.698 -0.3035 -0.9850 -0.3356
 1542TIP3    H126185   5.905   0.348   1.706  0.5208  1.4070 -0.0232
 1542TIP3    H226186   6.016   0.329   1.605 -0.3955 -1.9848 -0.5114
 1543TIP3   OH226187   1.447   5.303   7.955 -0.5735  0.4589 -0.4460
 1543TIP3    H126188   1.449   5.311   8.051  0.3981  0.5349 -0.4708
 1543TIP3    H226189   1.394   5.378   7.927 -1.4916  0.0311  0.0623
 1544TIP3   OH226190   0.593   5.495   2.330 -0.1855 -0.4215  0.0228
 1544TIP3    H126191   0.503   5.469   2.310 -0.1150 -0.9838  0.4304
 1544TIP3    H226192   0.616   5.447   2.409 -0.5625  1.9949  1.7144
 1545TIP3   OH226193   0.038   2.110   2.308 -0.6291  0.2043  0.2544
 1545TIP3    H126194  -0.009   2.148   2.382 -2.8604  0.6017 -1.2777
 1545TIP3    H226195   0.087   2.183   2.271 -1.2520  0.5250  0.0485
 1546TIP3   OH226196   0.452   4.688   1.772 -0.1294  0.4024 -0.1610
 1546TIP3    H126197   0.371   4.703   1.820 -0.5148 -0.8216 -0.3904
 1546TIP3    H226198   0.439   4.733   1.689 -0.9517 -0.4982 -0.5441
 1547TIP3   OH226199   2.316   0.755   8.398  0.6624  0.3426 -0.3882
 1547TIP3    H126200   2.394   0.791   8.355  1.5925 -0.8173  0.2534
 1547TIP3    H226201   2.346   0.672   8.437 -1.0822 -0.5268 -0.7762
 1548TIP3   OH226202   4.777   2.272   1.732  0.3417 -0.3311 -0.6507
 1548TIP3    H126203   4.818   2.328   1.667  0.5873 -0.7032 -0.8165
 1548TIP3    H226204   4.849   2.247   1.791  0.1173  0.0342 -0.2098
 1549TIP3   OH226205   3.726   5.828   0.393  0.5628  0.6424  0.2068
 1549TIP3    H126206   3.819   5.848   0.405  1.2628 -1.0336 -1.8807
 1549TIP3    H226207   3.703   5.777   0.471  2.3155 -1.7034 -0.7148
 1550TIP3   OH226208   4.322   6.753   0.723  0.7030 -0.1001 -0.4100
 1550TIP3    H126209   4.255   6.787   0.782  1.5408  1.2994 -0.1968
 1550TIP3    H226210   4.281   6.753   0.636 -0.4532 -1.9340  0.0903
 1551TIP3   OH226211   6.885   5.539   1.639  0.2847  0.4770  0.3230
 1551TIP3    H126212   6.796   5.512   1.618  0.7283 -0.4768 -0.3841
 1551TIP3    H226213   6.879   5.571   1.729 -0.7763  0.4565  0.2766
 1552TIP3   OH226214   0.706   0.606   6.674 -0.4765 -0.3649  1.0087
 1552TIP3    H126215   0.754   0.596   6.757 -0.3776 -0.9420  0.8874
 1552TIP3    H226216   0.760   0.560   6.610 -0.1532  0.7393  0.4578
 1553TIP3   OH226217   3.997   1.845   8.003  0.1040 -0.0533  0.4727
 1553TIP3    H126218   3.929   1.835   7.937  1.0070  0.5869 -0.6076
 1553TIP3    H226219   4.025   1.756   8.023 -1.7866 -0.4059  1.7872
 1554TIP3   OH226220   5.314   4.013   8.389  0.0600  0.2203  0.5750
 1554TIP3    H126221   5.311   3.934   8.443 -1.0296  0.1715  0.4620
 1554TIP3    H226222   5.252   4.073   8.431 -2.0774 -0.3979 -1.4708
 1555TIP3   OH226223   6.707   4.828   1.189  0.0763  0.0045 -0.8838
 1555TIP3    H126224   6.731   4.801   1.278  0.4954 -1.2340 -1.3498
 1555TIP3    H226225   6.782   4.879   1.158  0.4568 -0.5738 -0.9395
 1556TIP3   OH226226   0.188   3.457   1.204 -0.3885  0.4287 -0.5002
 1556TIP3    H126227   0.104   3.487   1.170 -0.4215  1.5241  0.5189
 1556TIP3    H226228   0.167   3.413   1.286  0.1269  1.8658  0.4436
 1557TIP3   OH226229   2.217   3.929   8.399  0.4154 -0.7908  0.4144
 1557TIP3    H126230   2.147   3.867   8.374  0.7647 -0.0613 -2.7907
 1557TIP3    H226231   2.177   4.015   8.388  1.3147 -0.3920  0.2612
 1558TIP3   OH226232   4.390   1.436   8.200  0.0354 -0.0926 -0.7334
 1558TIP3    H126233   4.359   1.411   8.287  0.3085  2.2338  0.1141
 1558TIP3    H226234   4.354   1.370   8.141 -0.5269 -1.4754  1.0741
 1559TIP3   OH226235   2.260   4.000   0.201  0.3680  0.1760  0.1097
 1559TIP3    H126236   2.186   4.049   0.237 -0.9262  0.5882 -2.8136
 1559TIP3    H226237   2.337   4.052   0.225 -0.3745  0.5096  1.9776
 1560TIP3   OH226238   1.693   4.398   2.768  0.4542 -0.2938 -0.6795
 1560TIP3    H126239   1.650   4.323   2.808  0.0352 -1.3879 -2.9939
 1560TIP3    H226240   1.702   4.462   2.839 -0.6024 -1.9110  0.9882
 1561TIP3   OH226241   4.691   2.393   1.991  0.1528 -0.5110  0.3218
 1561TIP3    H126242   4.703   2.354   1.905  1.1401 -1.4877  0.8636
 1561TIP3    H226243   4.619   2.344   2.030 -1.1506  0.7829 -0.3987
 1562TIP3   OH226244   5.798   0.391   7.377 -0.2190  0.0978 -0.2601
 1562TIP3    H126245   5.774   0.466   7.323 -0.4554  1.1856  1.3043
 1562TIP3    H226246   5.739   0.395   7.452  1.9530  0.3286  1.5382
 1563TIP3   OH226247   5.827   1.458   7.548 -0.4850 -0.7097 -0.1293
 1563TIP3    H126248   5.913   1.422   7.566 -1.0142 -1.8581  0.2478
 1563TIP3    H226249   5.802   1.419   7.463 -1.0657 -1.2705  0.2834
 1564TIP3   OH226250   2.058   2.889   2.055  0.1786 -0.3406 -0.2577
 1564TIP3    H126251   2.136   2.934   2.089  0.9846 -1.0169 -1.1540
 1564TIP3    H226252   2.063   2.801   2.093  0.6806 -0.8617 -1.4849
 1565TIP3   OH226253   2.979   5.662   7.601 -0.3139 -0.1167 -0.2277
 1565TIP3    H126254   3.004   5.754   7.604  1.5779 -0.5960  1.0621
 1565TIP3    H226255   3.033   5.625   7.531 -0.4362 -0.3994 -0.1766
 1566TIP3   OH226256   3.718   6.755   7.200  0.0167  0.1924 -0.5439
 1566TIP3    H126257   3.647   6.793   7.251  0.0271 -1.0280  0.4203
 1566TIP3    H226258   3.716   6.804   7.117 -0.7622  1.4022  0.1461
 1567TIP3   OH226259   5.970   6.620   7.187 -0.1121 -0.5133  0.5699
 1567TIP3    H126260   5.980   6.566   7.265 -0.3320 -2.2464 -0.5559
 1567TIP3    H226261   6.056   6.617   7.145 -0.5906 -1.4434 -0.3824
 1568TIP3   OH226262   3.180   2.912   7.003 -0.3051  1.2206 -0.2614
 1568TIP3    H126263   3.273   2.900   7.022 -0.5711  0.5822  0.7258
 1568TIP3    H226264   3.137   2.837   7.045 -1.1926  1.0811 -1.3731
 1569TIP3   OH226265   1.347   6.026   7.907  0.1932  0.5809 -0.3946
 1569TIP3    H126266   1.289   6.079   7.853  1.4841  1.7233 -0.7086
 1569TIP3    H226267   1.288   5.980   7.967 -1.0030  2.1670 -0.2760
 1570TIP3   OH226268   1.613   0.055   6.806  0.4587 -0.0445 -0.5008
 1570TIP3    H126269   1.527   0.053   6.846 -0.7822  0.2161 -2.9747
 1570TIP3    H226270   1.648  -0.033   6.818 -0.4166 -0.3397 -0.0324
 1571TIP3   OH226271   2.585   5.785   6.736 -0.2858  0.4088 -0.8918
 1571TIP3    H126272   2.579   5.799   6.830  1.3367 -1.4274 -0.4333
 1571TIP3    H226273   2.555   5.866   6.697 -1.0404  1.1945  1.2075
 1572TIP3   OH226274   1.962   4.846   0.210  0.4010 -0.6409  0.0189
 1572TIP3    H126275   2.039   4.890   0.174  0.5915 -1.0130 -0.0352
 1572TIP3    H226276   1.952   4.767   0.157 -0.0488 -0.5698 -0.0041
 1573TIP3   OH226277   6.324   3.427   0.752 -0.5491  0.3167 -0.1014
 1573TIP3    H126278   6.282   3.457   0.671  0.0782  1.9228  0.1498
 1573TIP3    H226279   6.415   3.413   0.727 -0.1667  1.6432  0.5158
 1574TIP3   OH226280   2.977   6.723   1.926  0.1399  0.0850  0.4529
 1574TIP3    H126281   2.966   6.773   2.007 -0.5045  0.6158  0.0490
 1574TIP3    H226282   2.948   6.634   1.947  0.0133  0.2141  0.8148
 1575TIP3   OH226283   4.613   2.896   0.871  0.1726  0.0170  0.2912
 1575TIP3    H126284   4.658   2.899   0.786  0.0291 -1.7973  0.1025
 1575TIP3    H226285   4.683   2.907   0.936  0.5438 -0.3353 -0.0442
 1576TIP3   OH226286   2.703   1.620   2.195  0.1731 -0.6815  0.5047
 1576TIP3    H126287   2.683   1.527   2.209 -0.4460 -0.5995  0.1736
 1576TIP3    H226288   2.733   1.650   2.281 -1.5082 -0.7202  1.1501
 1577TIP3   OH226289   1.599   3.690   8.187 -0.1811  0.1965 -0.2398
 1577TIP3    H126290   1.506   3.709   8.173 -0.2257  2.0122  1.8935
 1577TIP3    H226291   1.628   3.757   8.250  1.4988 -2.7303  2.4164
 1578TIP3   OH226292   5.984   6.232   7.498 -0.2223  0.0963  0.8945
 1578TIP3    H126293   5.911   6.222   7.560 -0.7124  0.7079  0.4275
 1578TIP3    H226294   5.987   6.148   7.452 -2.2078  0.8248 -0.7417
 1579TIP3   OH226295   0.554   0.390   8.077 -0.3067  0.1954  0.1375
 1579TIP3    H126296   0.562   0.465   8.018 -0.5753 -0.8401 -1.2371
 1579TIP3    H226297   0.562   0.313   8.021 -2.2425 -0.8503  1.1712
 1580TIP3   OH226298   5.297   5.748   0.327  0.1922 -0.0526  0.2982
 1580TIP3    H126299   5.267   5.796   0.249  3.3892  0.2399 -0.8940
 1580TIP3    H226300   5.323   5.662   0.294  0.5342 -0.3274  1.2572
 1581TIP3   OH226301   1.997   5.724   2.055 -0.1561 -0.6483  0.5660
 1581TIP3    H126302   2.033   5.805   2.020 -1.6459 -0.5522 -0.8454
 1581TIP3    H226303   1.939   5.752   2.126  0.3891 -0.6135  1.0127
 1582TIP3   OH226304   3.815   2.467   7.972 -0.0712 -0.0855  0.0331
 1582TIP3    H126305   3.800   2.536   7.906  2.6068  2.2178  1.5909
 1582TIP3    H226306   3.787   2.507   8.054  0.4258 -1.3237  0.8231
 1583TIP3   OH226307   0.902   4.772   7.042 -0.1768  0.2247  0.2407
 1583TIP3    H126308   0.847   4.750   6.967 -0.0150 -1.3253  0.5424
 1583TIP3    H226309   0.840   4.782   7.115 -0.1100 -1.8430  0.6533
 1584TIP3   OH226310   6.148   3.443   1.310  0.3024  0.6007 -0.1669
 1584TIP3    H126311   6.114   3.421   1.396 -1.6355 -1.2857 -1.3339
 1584TIP3    H226312   6.113   3.531   1.292  0.7721  1.0343  0.9468
 1585TIP3   OH226313   6.047   4.213   0.732  0.5330 -0.5463  0.2108
 1585TIP3    H126314   6.136   4.190   0.759  1.3714  0.9323 -1.1512
 1585TIP3    H226315   6.041   4.307   0.747 -0.4506 -0.4633 -0.6227
 1586TIP3   OH226316   1.958   2.939   7.796 -0.9941 -0.5257  0.2193
 1586TIP3    H126317   1.993   2.877   7.859 -1.5986 -0.7536  0.3307
 1586TIP3    H226318   1.906   2.886   7.736  0.5393 -0.5088 -1.2221
 1587TIP3   OH226319   1.267   5.553   8.213 -0.2851 -0.4550 -0.0522
 1587TIP3    H126320   1.214   5.517   8.142  0.5487 -1.1464 -0.3460
 1587TIP3    H226321   1.296   5.476   8.262 -1.6616  0.0522  1.6690
 1588TIP3   OH226322   4.703   2.944   8.211 -0.3340 -0.4318 -0.5536
 1588TIP3    H126323   4.760   2.868   8.202 -1.2131 -1.1134 -0.3946
 1588TIP3    H226324   4.634   2.931   8.147 -1.3162 -0.5252  0.5084
 1589TIP3   OH226325   5.016   2.036   1.549 -0.0007  0.0384 -0.3673
 1589TIP3    H126326   5.021   2.082   1.465 -0.1130 -0.1777 -0.4936
 1589TIP3    H226327   5.081   2.080   1.604 -2.0462  2.2506  0.4526
 1590TIP3   OH226328   3.027   4.423   2.363  0.2927 -0.3731  0.3643
 1590TIP3    H126329   3.087   4.421   2.437 -0.4897 -0.3008  1.0150
 1590TIP3    H226330   2.970   4.347   2.376 -2.3378  1.7004  2.0043
 1591TIP3   OH226331   0.508   2.265   7.858 -0.3338 -0.4161  0.4673
 1591TIP3    H126332   0.528   2.358   7.853 -1.5601 -0.1955 -1.1994
 1591TIP3    H226333   0.453   2.248   7.782  0.0684 -2.5665  0.5895
 1592TIP3   OH226334   3.715   2.963   7.130 -0.0576  0.4565  0.2887
 1592TIP3    H126335   3.716   3.058   7.139 -1.0789  0.2628  4.1711
 1592TIP3    H226336   3.795   2.934   7.173 -0.6696 -0.5003  0.8110
 1593TIP3   OH226337   3.837   4.128   0.474 -0.5478  0.1113 -0.1234
 1593TIP3    H126338   3.796   4.043   0.489 -1.8136  1.2267  3.7177
 1593TIP3    H226339   3.768   4.183   0.438 -0.0367 -0.1203 -1.5255
 1594TIP3   OH226340   1.420   5.944   1.684 -0.2631  0.0443  0.6647
 1594TIP3    H126341   1.489   5.920   1.622 -0.5960 -0.8104  0.6088
 1594TIP3    H226342   1.424   6.039   1.689  0.0978  0.0911 -0.2893
 1595TIP3   OH226343   3.132   1.832   0.237  0.7628  0.6949  0.1471
 1595TIP3    H126344   3.075   1.760   0.211  0.6536  1.4556 -1.8880
 1595TIP3    H226345   3.074   1.892   0.284 -0.1539  1.3500 -1.6949
 1596TIP3   OH226346   3.283   1.799   7.862 -0.0705 -0.1914  0.8402
 1596TIP3    H126347   3.344   1.738   7.822  1.1092  0.9200  0.8865
 1596TIP3    H226348   3.197   1.760   7.848  0.7066 -2.3614  1.7543
 1597TIP3   OH226349   0.416   2.957   7.307  0.0114 -0.3440  0.8173
 1597TIP3    H126350   0.333   2.979   7.266 -0.4057  1.4949  2.5106
 1597TIP3    H226351   0.405   2.866   7.336 -0.1397 -1.2472 -1.8493
 1598TIP3   OH226352   0.906   5.664   0.370 -0.5268  0.1549 -0.7790
 1598TIP3    H126353   0.985   5.712   0.346 -0.7235  0.2954 -1.1640
 1598TIP3    H226354   0.931   5.572   0.362 -0.3594  0.1980 -0.7579
 1599TIP3   OH226355   3.177   3.825   0.285  0.3024  0.2046 -0.0246
 1599TIP3    H126356   3.132   3.838   0.368 -1.2925 -1.7897 -0.5180
 1599TIP3    H226357   3.129   3.879   0.223  1.0532  1.1241  0.1583
 1600TIP3   OH226358   4.598   2.138   0.955  0.2409  0.2126 -0.0904
 1600TIP3    H126359   4.561   2.221   0.986 -1.2514 -0.3964 -0.1384
 1600TIP3    H226360   4.644   2.102   1.031 -0.7202  0.2130  0.5102
 1601TIP3   OH226361   1.041   1.147   0.746  0.0058  0.9425  0.0808
 1601TIP3    H126362   1.039   1.242   0.752  1.4345  0.9874  0.1439
 1601TIP3    H226363   1.060   1.130   0.653  1.9250  0.8039  0.4505
 1602TIP3   OH226364   5.508   0.959   1.637  0.1744  0.3477 -0.4682
 1602TIP3    H126365   5.428   0.928   1.679 -1.5591  1.8196 -2.5415
 1602TIP3    H226366   5.574   0.954   1.707 -2.5157  2.7703  2.5814
 1603TIP3   OH226367   4.672   0.260   1.243  0.0282 -0.2379  0.1756
 1603TIP3    H126368   4.616   0.201   1.295  0.1238 -1.3981 -0.9849
 1603TIP3    H226369   4.623   0.274   1.162  0.9043 -0.3800 -0.3960
 1604TIP3   OH226370   6.106   0.899   8.103  0.2287 -0.0460  0.1292
 1604TIP3    H126371   6.023   0.851   8.107  1.1275 -1.6027  1.4303
 1604TIP3    H226372   6.086   0.984   8.142 -1.1808  0.3373 -1.3351
 1605TIP3   OH226373   2.364   6.695   8.510  0.7832 -0.2121 -0.0032
 1605TIP3    H126374   2.429   6.764   8.498  0.7201 -0.0454  0.5779
 1605TIP3    H226375   2.384   6.658   8.595 -0.4815  0.4955  0.6307
 1606TIP3   OH226376   4.243   2.255   6.876 -0.2676 -0.8208 -0.1864
 1606TIP3    H126377   4.319   2.251   6.934 -0.4532 -1.2777  0.0294
 1606TIP3    H226378   4.281   2.251   6.788  0.0333  0.2041 -0.1141
 1607TIP3   OH226379   4.595   6.662   7.500  0.4817 -0.0554 -0.0592
 1607TIP3    H126380   4.576   6.720   7.573  0.5174 -0.8340  0.5810
 1607TIP3    H226381   4.657   6.599   7.535  1.5888  0.3789 -1.1506
 1608TIP3   OH226382   0.163   6.620   7.686  0.4246 -0.0774  0.3130
 1608TIP3    H126383   0.130   6.557   7.622 -0.5264  0.1941  0.5128
 1608TIP3    H226384   0.243   6.581   7.721  0.5817 -0.5394 -0.5431
 1609TIP3   OH226385   6.874   0.866   7.330  0.4215 -0.3767 -0.3063
 1609TIP3    H126386   6.895   0.773   7.319  2.4311 -0.1141  0.7205
 1609TIP3    H226387   6.799   0.867   7.388  0.5108 -1.3588 -0.1485
 1610TIP3   OH226388   0.937   2.410   7.866 -0.4582 -0.0437  0.4256
 1610TIP3    H126389   1.011   2.451   7.912 -2.2067  0.6170  2.8414
 1610TIP3    H226390   0.941   2.446   7.778  0.8604  1.6324  1.1054
 1611TIP3   OH226391   6.756   0.241   1.968 -0.4561  0.2558  0.6699
 1611TIP3    H126392   6.708   0.277   2.042 -1.3723  0.2274  0.1052
 1611TIP3    H226393   6.834   0.296   1.960 -1.6298  1.9231  0.0584
 1612TIP3   OH226394   0.835   0.378   7.527 -0.3980  0.8143 -0.4462
 1612TIP3    H126395   0.843   0.445   7.594  3.3688 -1.2008  1.4964
 1612TIP3    H226396   0.875   0.416   7.448 -1.1375  1.8430 -0.3278
 1613TIP3   OH226397   6.146   5.976   8.578 -0.1976  0.1799 -0.7487
 1613TIP3    H126398   6.074   5.997   8.638 -1.6931 -1.2403 -1.9688
 1613TIP3    H226399   6.146   5.881   8.573  2.6088  0.0254  0.1227
 1614TIP3   OH226400   4.856   2.515   0.396 -0.2796  0.0746  0.1425
 1614TIP3    H126401   4.794   2.489   0.463  0.3684  1.6143  1.4043
 1614TIP3    H226402   4.942   2.494   0.433  0.0555 -0.0268 -0.6561
 1615TIP3   OH226403   0.407   1.035   7.190 -0.4768 -0.3806 -0.4608
 1615TIP3    H126404   0.495   1.066   7.169  0.0932  0.4478  2.7359
 1615TIP3    H226405   0.354   1.114   7.193 -0.6985 -0.5588  0.3440
 1616TIP3   OH226406   1.069   0.694   8.483 -0.3500  0.2417 -0.6121
 1616TIP3    H126407   1.162   0.703   8.506 -0.8881 -0.5062  2.2248
 1616TIP3    H226408   1.027   0.772   8.518 -0.9845 -0.0430 -0.7179
 1617TIP3   OH226409   5.560   5.697   1.081  0.0309  0.8819 -0.9643
 1617TIP3    H126410   5.564   5.715   1.175 -1.6095  0.2989 -0.7435
 1617TIP3    H226411   5.479   5.739   1.052  0.7247  1.4065 -2.2247
 1618TIP3   OH226412   4.715   6.465   0.866  0.6917 -0.2711  0.2436
 1618TIP3    H126413   4.621   6.455   0.877  0.6094 -1.2969 -1.1510
 1618TIP3    H226414   4.728   6.557   0.843 -0.1714 -0.4879 -1.2217
 1619TIP3   OH226415   6.530   2.156   0.911  0.4665 -0.3997 -0.3338
 1619TIP3    H126416   6.571   2.229   0.864  0.1654  1.2359  1.7592
 1619TIP3    H226417   6.564   2.164   1.000 -0.9635 -1.7471  0.3658
 1620TIP3   OH226418   3.876   4.058   1.488 -0.2459 -0.5881  0.3471
 1620TIP3    H126419   3.835   4.083   1.405 -0.0402  2.3118  1.0168
 1620TIP3    H226420   3.813   3.999   1.529 -2.2736  1.0947 -0.1568
 1621TIP3   OH226421   0.609   0.398   0.950 -0.4426  0.0713 -0.7823
 1621TIP3    H126422   0.612   0.322   1.009  0.6979  1.1507  0.6389
 1621TIP3    H226423   0.682   0.453   0.978 -1.7550  2.1370 -1.1536
 1622TIP3   OH226424   2.742   4.437   2.585  0.2603 -0.2831  0.1512
 1622TIP3    H126425   2.741   4.443   2.489  1.4914  0.2069  0.1552
 1622TIP3    H226426   2.716   4.524   2.615 -0.0489 -0.4140  0.2629
 1623TIP3   OH226427   3.936   2.506   7.414  0.3460 -0.0683 -0.3551
 1623TIP3    H126428   3.983   2.451   7.351  0.4233 -0.5503  0.1159
 1623TIP3    H226429   3.964   2.473   7.500  0.2797  0.6096 -0.0647
 1624TIP3   OH226430   0.300   2.945   2.270  0.3160  0.2687 -0.3811
 1624TIP3    H126431   0.396   2.943   2.278  0.4286  0.2407 -1.6367
 1624TIP3    H226432   0.270   2.978   2.355  1.4601  0.6580 -0.1080
 1625TIP3   OH226433   3.510   5.403   8.274  0.2164  0.0147  0.2125
 1625TIP3    H126434   3.473   5.476   8.225 -0.2271  0.2632  0.8983
 1625TIP3    H226435   3.434   5.360   8.313  0.5460 -0.2856  0.5286
 1626TIP3   OH226436   1.484   1.842   2.766  0.5922  0.7884  0.4444
 1626TIP3    H126437   1.546   1.915   2.766  1.2189  0.3018  1.7217
 1626TIP3    H226438   1.540   1.764   2.760  0.1057  0.3548  1.3465
 1627TIP3   OH226439   0.702   1.800   2.447  0.8197  0.4842  0.0611
 1627TIP3    H126440   0.771   1.736   2.460  0.6282 -0.5598 -3.2190
 1627TIP3    H226441   0.748   1.881   2.425  1.0070  0.8273  1.6137
 1628TIP3   OH226442   1.208   0.068   0.961  0.1460 -0.0178  0.3476
 1628TIP3    H126443   1.137   0.039   1.018  0.4967 -0.3476  0.6219
 1628TIP3    H226444   1.166   0.086   0.877 -0.2547 -0.2698  0.4930
 1629TIP3   OH226445   0.413   3.093   0.685 -0.0280 -0.4749 -0.2421
 1629TIP3    H126446   0.360   3.151   0.630 -1.9913 -0.0787  1.9255
 1629TIP3    H226447   0.465   3.152   0.739  1.7103 -0.8567 -1.4305
 1630TIP3   OH226448   5.418   4.658   0.242  0.0716 -0.3581 -0.4059
 1630TIP3    H126449   5.399   4.565   0.237 -0.7614 -0.1268 -1.8985
 1630TIP3    H226450   5.334   4.701   0.230  0.8363  0.6129 -2.9569
 1631TIP3   OH226451   5.431   2.898   1.628  0.1228 -0.3462 -0.3900
 1631TIP3    H126452   5.349   2.858   1.600  0.4375 -1.8757  0.7272
 1631TIP3    H226453   5.411   2.939   1.712  0.5812 -1.1090  0.1054
 1632TIP3   OH226454   3.037   4.385   1.168 -0.2280 -0.4777 -0.6655
 1632TIP3    H126455   2.973   4.425   1.227  1.2142  0.1929  0.4913
 1632TIP3    H226456   3.062   4.304   1.211  1.2949  0.3125  0.0317
 1633TIP3   OH226457   0.475   1.664   2.355 -0.3412 -0.2260 -0.2700
 1633TIP3    H126458   0.457   1.610   2.432  0.1104  0.1710  0.1187
 1633TIP3    H226459   0.556   1.711   2.377 -0.5043  0.2978 -0.7694
 1634TIP3   OH226460   3.619   5.320   1.895  0.2820 -0.1990 -0.6120
 1634TIP3    H126461   3.703   5.299   1.937  0.1480  2.1945  1.0749
 1634TIP3    H226462   3.643   5.375   1.821  0.2638 -0.9878 -1.2201
 1635TIP3   OH226463   2.862   6.763   7.530  0.3751  0.2940 -0.3797
 1635TIP3    H126464   2.842   6.684   7.580  3.0312 -0.1716  0.0773
 1635TIP3    H226465   2.802   6.830   7.565 -2.2873 -1.5372 -1.1290
 1636TIP3   OH226466   4.899   2.553   2.027  0.0599  0.2863 -0.4313
 1636TIP3    H126467   4.836   2.485   2.002 -0.4282  0.7891 -0.5937
 1636TIP3    H226468   4.846   2.633   2.034  0.4775  0.4834  0.5848
 1637TIP3   OH226469   4.202   4.162   1.753 -0.2143  0.2366  0.1380
 1637TIP3    H126470   4.243   4.135   1.671 -0.3761  0.5622 -0.0490
 1637TIP3    H226471   4.265   4.223   1.792 -0.5142  0.7348 -0.1478
 1638TIP3   OH226472   3.495   5.288   7.198 -0.2032 -0.1800 -0.5770
 1638TIP3    H126473   3.534   5.375   7.195  0.6852 -0.5449  0.0259
 1638TIP3    H226474   3.515   5.250   7.112  1.4836 -0.6364 -0.0294
 1639TIP3   OH226475   2.077   1.304   2.958  0.0940  0.0506  0.1910
 1639TIP3    H126476   2.103   1.277   2.870 -0.3181  1.7869 -0.5146
 1639TIP3    H226477   2.158   1.304   3.008  0.5373  0.1799 -0.5128
 1640TIP3   OH226478   3.212   2.113   8.188  0.2567 -0.2177  0.2973
 1640TIP3    H126479   3.250   2.197   8.215 -0.5648  0.6303 -1.0539
 1640TIP3    H226480   3.158   2.135   8.111 -1.6897 -1.6040  1.1752
 1641TIP3   OH226481   6.567   2.948   7.186 -0.4357  0.1677 -0.2273
 1641TIP3    H126482   6.571   3.005   7.109 -1.2392  1.5067  0.6585
 1641TIP3    H226483   6.656   2.945   7.218 -0.1362 -0.1998 -1.0658
 1642TIP3   OH226484   1.730   4.496   0.338  0.5664 -0.3280  0.1420
 1642TIP3    H126485   1.676   4.539   0.405  1.5596 -0.3160  0.9469
 1642TIP3    H226486   1.754   4.567   0.278  0.7195 -0.0916  0.4787
 1643TIP3   OH226487   3.397   1.873   0.528 -0.2023 -0.2254  0.6870
 1643TIP3    H126488   3.393   1.802   0.464 -0.6781  1.6349 -1.4943
 1643TIP3    H226489   3.367   1.833   0.610 -2.0062 -2.1742 -0.7881
 1644TIP3   OH226490   3.233   1.582   7.096  0.0852  0.1496 -0.7426
 1644TIP3    H126491   3.214   1.497   7.136  0.8809  0.3667  0.1062
 1644TIP3    H226492   3.212   1.646   7.164 -0.0816  0.6191 -1.2274
 1645TIP3   OH226493   0.204   3.468   7.440 -0.0402 -0.3704 -0.0621
 1645TIP3    H126494   0.297   3.475   7.417  0.3644  0.7841  1.7130
 1645TIP3    H226495   0.200   3.397   7.503 -0.2265  0.0490  0.4059
 1646TIP3   OH226496   1.039   0.676   1.576  0.3121  0.1047 -0.2662
 1646TIP3    H126497   0.974   0.615   1.539  0.0579  0.4180 -0.3466
 1646TIP3    H226498   1.123   0.643   1.546  0.1086  0.3782 -1.1832
 1647TIP3   OH226499   5.574   1.596   8.266  0.1883 -0.1131  0.2106
 1647TIP3    H126500   5.494   1.559   8.229  0.6512 -0.6126 -0.3281
 1647TIP3    H226501   5.593   1.671   8.210  1.2431 -1.2498 -1.0308
 1648TIP3   OH226502   3.103   5.567   1.115 -0.3946  0.0563 -0.1609
 1648TIP3    H126503   3.052   5.571   1.035 -1.8834 -0.7942  0.7101
 1648TIP3    H226504   3.093   5.477   1.146 -0.3119  0.5110  1.2586
 1649TIP3   OH226505   1.443   2.084   1.189  0.3997 -0.0799 -0.2482
 1649TIP3    H126506   1.369   2.140   1.164  1.1257  0.2407 -1.7687
 1649TIP3    H226507   1.402   2.003   1.219 -0.5719  0.0796 -1.0919
 1650TIP3   OH226508   3.526   5.960   8.278 -0.1157  0.2104 -0.7789
 1650TIP3    H126509   3.519   5.928   8.188  2.6704  0.5310 -1.1873
 1650TIP3    H226510   3.548   5.882   8.329 -0.4454  0.2484 -0.5787
 1651TIP3   OH226511   5.230   6.178   8.107 -0.0351 -0.2367 -0.1736
 1651TIP3    H126512   5.203   6.122   8.034  0.5369 -0.6926 -0.0359
 1651TIP3    H226513   5.325   6.169   8.111  0.0009  0.2880  0.2231
 1652TIP3   OH226514   6.000   2.273   8.471 -0.2349  0.6552  0.6080
 1652TIP3    H126515   5.912   2.298   8.440 -0.4619  0.7529  1.3076
 1652TIP3    H226516   6.057   2.341   8.436  0.0774 -1.0289 -2.4658
 1653TIP3   OH226517   6.717   4.032   1.896 -0.1546  0.0931  0.5702
 1653TIP3    H126518   6.803   3.992   1.879 -0.2253 -0.3872  1.3203
 1653TIP3    H226519   6.669   3.966   1.945 -1.0967  0.2117 -0.1584
 1654TIP3   OH226520   2.558   4.444   0.045 -1.0942  0.0484 -0.1687
 1654TIP3    H126521   2.471   4.407   0.030 -2.1349  1.1812  2.5032
 1654TIP3    H226522   2.556   4.473   0.136  2.9664 -2.1816  0.8387
 1655TIP3   OH226523   2.663   3.435   1.749  0.4382  0.5578  1.0566
 1655TIP3    H126524   2.597   3.368   1.729  1.5789 -0.7181  1.4139
 1655TIP3    H226525   2.640   3.509   1.692 -1.6814  0.4299  1.6399
 1656TIP3   OH226526   1.079   6.111   8.238  0.4975  0.5826 -0.3472
 1656TIP3    H126527   1.165   6.069   8.239  1.4391  2.3142  2.0817
 1656TIP3    H226528   1.092   6.193   8.286 -2.2026  1.6141 -1.1791
 1657TIP3   OH226529   0.944   2.605   7.030  0.0636 -0.3176 -0.1218
 1657TIP3    H126530   1.001   2.632   6.958  0.4257 -1.7307 -0.4111
 1657TIP3    H226531   0.859   2.591   6.989  0.1535 -0.6646 -0.1970
 1658TIP3   OH226532   2.975   5.581   2.438 -0.3498 -0.4552  0.6915
 1658TIP3    H126533   2.919   5.657   2.457  1.3565  0.8975  0.5388
 1658TIP3    H226534   2.915   5.514   2.406 -1.7026  1.4273 -0.8836
 1659TIP3   OH226535   4.309   2.496   1.254 -0.0021 -0.5091  0.0010
 1659TIP3    H126536   4.294   2.403   1.235  1.0108 -0.6800 -0.0395
 1659TIP3    H226537   4.340   2.497   1.344  0.8973 -0.3251 -0.2948
 1660TIP3   OH226538   2.729   0.998   2.190 -0.0962 -0.2539 -0.2703
 1660TIP3    H126539   2.661   0.994   2.122 -0.4074  0.4666 -0.0093
 1660TIP3    H226540   2.681   1.011   2.271  0.2980 -0.7832  0.0565
 1661TIP3   OH226541   3.915   1.427   7.313 -0.1439  0.5061 -0.2505
 1661TIP3    H126542   3.839   1.457   7.264  0.0274 -0.7008 -1.3126
 1661TIP3    H226543   3.902   1.332   7.323  0.3493  0.5473  1.1351
 1662TIP3   OH226544   5.795   3.198   6.624 -0.8058  0.4990 -0.4859
 1662TIP3    H126545   5.785   3.147   6.544  1.0954 -0.0063 -0.4405
 1662TIP3    H226546   5.756   3.142   6.692 -2.8511  1.1334 -1.0698
 1663TIP3   OH226547   0.277   5.085   6.861 -0.7769 -0.3291  0.0018
 1663TIP3    H126548   0.322   5.039   6.790 -0.4467  0.9867 -0.6787
 1663TIP3    H226549   0.295   5.177   6.845 -1.7125  0.0763  1.1211
 1664TIP3   OH226550   2.089   2.170   2.115 -0.1845 -0.1676 -0.3582
 1664TIP3    H126551   2.155   2.105   2.089 -0.7573 -0.3170 -1.4806
 1664TIP3    H226552   2.141   2.245   2.146  0.4838 -1.2042  1.1425
 1665TIP3   OH226553   6.559   4.595   1.723 -0.2823  0.1700  0.0967
 1665TIP3    H126554   6.506   4.519   1.745  0.4129 -0.2556  0.3180
 1665TIP3    H226555   6.495   4.667   1.715 -0.9349 -0.4228 -0.0895
 1666TIP3   OH226556   6.115   3.259   1.993 -0.3821 -0.1667 -0.1014
 1666TIP3    H126557   6.177   3.196   1.957 -0.2252 -0.2374  0.2832
 1666TIP3    H226558   6.099   3.228   2.082 -0.0354  0.5354  0.2110
 1667TIP3   OH226559   3.144   3.574   0.572 -0.5768 -0.3305 -0.0739
 1667TIP3    H126560   3.181   3.518   0.641  1.4761  0.4121 -0.4998
 1667TIP3    H226561   3.153   3.522   0.492 -0.2381 -0.0679 -0.2091
 1668TIP3   OH226562   4.223   5.636   2.382 -0.0028 -0.4380  0.4081
 1668TIP3    H126563   4.142   5.618   2.430 -0.4220  1.0006  0.2995
 1668TIP3    H226564   4.215   5.728   2.356  0.8518 -0.7830 -1.1940
 1669TIP3   OH226565   2.467   2.531   7.548  0.7020  0.2638  0.0626
 1669TIP3    H126566   2.553   2.489   7.540 -0.1658 -1.3425 -1.3959
 1669TIP3    H226567   2.471   2.606   7.490  0.1809 -1.5519 -2.4790
 1670TIP3   OH226568   4.024   6.399   7.537 -0.0772 -0.0655  0.0160
 1670TIP3    H126569   4.012   6.367   7.448  0.2563  0.7227 -0.3253
 1670TIP3    H226570   4.093   6.466   7.529  0.4368 -0.4640  0.9746
 1671TIP3   OH226571   1.871   1.190   0.359 -0.5435 -0.9022  0.4314
 1671TIP3    H126572   1.785   1.159   0.385 -0.0525 -2.7031  0.0445
 1671TIP3    H226573   1.865   1.201   0.265 -1.2371  2.0844  0.7216
 1672TIP3   OH226574   1.659   3.521   0.129 -0.8961 -0.9085  0.1658
 1672TIP3    H126575   1.579   3.520   0.181  0.2283  0.4100  2.0504
 1672TIP3    H226576   1.730   3.514   0.193  0.5335 -3.1995 -1.5061
 1673TIP3   OH226577   4.985   6.446   2.355  0.0657 -0.1787  0.1392
 1673TIP3    H126578   5.028   6.372   2.311  0.3125 -0.0597  0.1807
 1673TIP3    H226579   4.909   6.465   2.301 -1.5664 -2.2135  1.5215
 1674TIP3   OH226580   4.199   3.743   0.844 -0.0911  0.5219  0.4299
 1674TIP3    H126581   4.193   3.838   0.834 -1.7043  0.3929 -0.2029
 1674TIP3    H226582   4.111   3.717   0.872  0.4604 -0.7463  1.0669
 1675TIP3   OH226583   1.142   4.589   1.525  0.5320  0.6624 -0.1922
 1675TIP3    H126584   1.158   4.539   1.605  0.2081  1.6451  0.5014
 1675TIP3    H226585   1.230   4.607   1.491  0.6496 -0.6927 -0.6759
 1676TIP3   OH226586   0.790   2.875   8.133 -0.3093  0.5751  0.3558
 1676TIP3    H126587   0.748   2.852   8.049  0.5123  0.8867 -0.1543
 1676TIP3    H226588   0.725   2.930   8.177 -2.3185 -2.5354  1.5901
 1677TIP3   OH226589   1.585   5.552   6.670  0.3761  0.5396  0.3210
 1677TIP3    H126590   1.660   5.598   6.708  1.2097 -0.2728 -0.2919
 1677TIP3    H226591   1.559   5.489   6.737  0.0367  1.0390  0.6607
 1678TIP3   OH226592   0.809   2.451   1.179 -0.2102 -0.2864  0.0758
 1678TIP3    H126593   0.824   2.483   1.090  0.0466  1.9548  0.8601
 1678TIP3    H226594   0.722   2.484   1.201  0.6322  1.1539  1.4174
 1679TIP3   OH226595   1.162   4.256   1.138  0.0383 -0.9730  0.2867
 1679TIP3    H126596   1.145   4.260   1.232 -1.2667 -1.0868  0.0710
 1679TIP3    H226597   1.252   4.224   1.132  0.1761 -0.8767  1.4923
 1680TIP3   OH226598   5.555   2.761   2.604  0.7033  0.4376 -0.3086
 1680TIP3    H126599   5.513   2.694   2.550  0.0149 -0.5271  1.3345
 1680TIP3    H226600   5.626   2.715   2.649  1.1130  1.1575 -0.2062
 1681TIP3   OH226601   2.671   2.217   1.639 -0.6814 -0.5569  0.3031
 1681TIP3    H126602   2.603   2.258   1.693 -0.5495  0.1946 -0.0958
 1681TIP3    H226603   2.725   2.169   1.702 -0.2718  0.6673  0.9169
 1682TIP3   OH226604   1.345   0.670   8.592 -0.2027 -0.0147 -0.0958
 1682TIP3    H126605   1.312   0.650   8.680  1.3545 -1.0164  0.3082
 1682TIP3    H226606   1.439   0.677   8.603 -0.0285  0.3527 -1.6116
 1683TIP3   OH226607   0.311   2.230   1.974  0.6240  0.2591  0.2861
 1683TIP3    H126608   0.239   2.283   2.009  0.4642  1.0227 -1.1164
 1683TIP3    H226609   0.270   2.149   1.945 -0.4340  1.9483 -3.6106
 1684TIP3   OH226610   0.712   0.728   1.734  0.0778 -0.2881  0.2396
 1684TIP3    H126611   0.768   0.801   1.761  0.0111 -1.0013  2.5462
 1684TIP3    H226612   0.743   0.705   1.646  2.6344  0.1412  0.9347
 1685TIP3   OH226613   4.735   5.050   2.084  0.3487  0.7644  0.0129
 1685TIP3    H126614   4.708   5.070   2.174 -0.8933  0.7769 -0.3544
 1685TIP3    H226615   4.706   4.960   2.070  0.0823  0.9351 -0.5527
 1686TIP3   OH226616   4.964   3.686   0.400  0.2085  0.1660 -0.0294
 1686TIP3    H126617   4.924   3.601   0.417  0.6181  0.1191  0.7257
 1686TIP3    H226618   4.932   3.742   0.470  0.8220  0.3390  0.1160
 1687TIP3   OH226619   2.050   6.520   6.618 -0.0247 -0.6469  0.0747
 1687TIP3    H126620   2.087   6.583   6.557 -0.6518 -0.0099  0.3433
 1687TIP3    H226621   2.070   6.555   6.704 -0.9538 -0.4699  0.2229
 1688TIP3   OH226622   5.808   6.756   2.015 -0.1927 -0.2158 -0.1689
 1688TIP3    H126623   5.721   6.753   2.053 -0.0151  1.0729  0.3968
 1688TIP3    H226624   5.814   6.677   1.962 -1.1449 -1.0899  0.9818
 1689TIP3   OH226625   5.350   0.179   8.382  0.0787 -0.3724 -0.2408
 1689TIP3    H126626   5.357   0.263   8.338  4.2714  1.0283  2.4882
 1689TIP3    H226627   5.306   0.199   8.465  0.7541 -0.9169  0.2617
 1690TIP3   OH226628   2.364   4.240   1.853  0.1512 -0.0948  0.1873
 1690TIP3    H126629   2.356   4.301   1.926 -0.1145 -1.1519  1.0605
 1690TIP3    H226630   2.371   4.154   1.894 -2.6602 -1.0321 -1.0502
 1691TIP3   OH226631   1.339   4.987   6.555 -0.7658 -0.6964 -0.5655
 1691TIP3    H126632   1.346   5.079   6.584  1.1957 -1.1404  0.5390
 1691TIP3    H226633   1.245   4.975   6.538 -1.3011  1.0776  0.7641
 1692TIP3   OH226634   1.464   2.510   2.314  0.4899  0.7480 -0.3628
 1692TIP3    H126635   1.431   2.486   2.228 -2.3159 -1.4614  1.1636
 1692TIP3    H226636   1.456   2.605   2.317  1.0884  0.9263 -2.6449
 1693TIP3   OH226637   1.028   0.100   1.237 -0.2436 -0.3278  0.0877
 1693TIP3    H126638   0.940   0.100   1.274  0.2214  0.9820  1.2576
 1693TIP3    H226639   1.031   0.179   1.182 -0.5054 -1.5685 -1.8197
 1694TIP3   OH226640   6.782   3.382   1.361 -0.3114 -0.2402 -0.0740
 1694TIP3    H126641   6.728   3.377   1.439  1.4590 -0.7803  1.1962
 1694TIP3    H226642   6.860   3.331   1.383  0.3168 -0.2809 -2.1517
 1695TIP3   OH226643   0.811   1.087   8.269 -0.3524 -0.2278  0.2010
 1695TIP3    H126644   0.880   1.026   8.244  0.4007  0.3067  0.8969
 1695TIP3    H226645   0.855   1.173   8.272 -1.0841  0.1466  0.4825
 1696TIP3   OH226646   3.265   5.736   1.926  0.0660 -0.0922  0.2732
 1696TIP3    H126647   3.239   5.673   1.859 -0.4513  0.7874 -0.3791
 1696TIP3    H226648   3.212   5.713   2.003 -1.1155  0.3604 -0.3776
 1697TIP3   OH226649   2.408   4.485   1.403  0.3369  0.0691 -0.1682
 1697TIP3    H126650   2.366   4.465   1.487  0.5488  0.0175 -0.0743
 1697TIP3    H226651   2.365   4.427   1.340  0.5106 -0.2373 -0.0092
 1698TIP3   OH226652   2.974   1.172   8.237 -0.3133  0.4391 -0.5722
 1698TIP3    H126653   2.891   1.218   8.230 -1.6780 -1.5749  1.1389
 1698TIP3    H226654   2.981   1.122   8.155 -0.9366  0.4147 -0.6159
 1699TIP3   OH226655   0.183   6.561   6.851 -0.1545  0.1555 -0.1672
 1699TIP3    H126656   0.261   6.567   6.908 -0.8808  0.0677  0.8667
 1699TIP3    H226657   0.155   6.652   6.839 -0.9824  0.0794  1.0374
 1700TIP3   OH226658   6.199   5.047   6.767  0.3234 -0.3836  0.0801
 1700TIP3    H126659   6.251   5.112   6.719  1.8634 -1.8575 -0.3868
 1700TIP3    H226660   6.256   5.020   6.839  0.0872 -1.7878 -0.2264
 1701TIP3   OH226661   5.168   5.684   2.376 -0.5194  0.2566 -0.3491
 1701TIP3    H126662   5.099   5.619   2.362 -0.6194  0.4787 -0.9280
 1701TIP3    H226663   5.121   5.765   2.393 -0.4094  0.4149 -0.7750
 1702TIP3   OH226664   2.388   6.424   1.771  0.5224  0.1748 -0.0787
 1702TIP3    H126665   2.336   6.345   1.785 -0.0191  0.5244 -0.0816
 1702TIP3    H226666   2.424   6.444   1.857  1.8736 -0.8942 -0.3583
 1703TIP3   OH226667   6.400   5.399   1.554  0.0659 -0.4505  0.5499
 1703TIP3    H126668   6.363   5.421   1.640  1.7663 -0.9779  1.4763
 1703TIP3    H226669   6.402   5.303   1.553  1.8009 -0.4409  0.7499
 1704TIP3   OH226670   3.995   6.459   2.713  0.1147  0.0801  0.3830
 1704TIP3    H126671   3.924   6.520   2.731 -0.2523 -0.4197  0.6351
 1704TIP3    H226672   4.061   6.512   2.667  0.0542  0.7981  1.1094
 1705TIP3   OH226673   5.966   1.085   2.803  0.3294 -0.4411  0.2406
 1705TIP3    H126674   5.891   1.030   2.828  0.9555 -0.7073  1.5782
 1705TIP3    H226675   5.977   1.068   2.709  0.5605 -2.7222  0.6216
 1706TIP3   OH226676   0.490   6.464   6.810  0.1012 -0.3910  0.3657
 1706TIP3    H126677   0.540   6.437   6.887  0.1548 -0.4201  0.3204
 1706TIP3    H226678   0.474   6.558   6.823  0.8741 -0.1969 -0.0180
 1707TIP3   OH226679   3.144   3.239   0.407  0.0071  0.3482 -0.5715
 1707TIP3    H126680   3.051   3.257   0.418 -0.2065  1.1219 -3.0035
 1707TIP3    H226681   3.185   3.272   0.487 -1.7833  0.0221  0.5191
 1708TIP3   OH226682   4.514   5.418   0.838  0.1911 -0.5825  0.6734
 1708TIP3    H126683   4.575   5.355   0.875  0.4543 -0.6782  0.0924
 1708TIP3    H226684   4.471   5.371   0.767 -0.1031 -0.3187  0.6737
 1709TIP3   OH226685   4.775   2.753   1.336  0.1143  0.7300 -0.2965
 1709TIP3    H126686   4.751   2.838   1.299  1.7150  1.6847  0.7683
 1709TIP3    H226687   4.826   2.773   1.414  0.2551 -1.2245  0.1859
 1710TIP3   OH226688   0.088   5.507   0.877 -0.8213 -0.0147  0.6407
 1710TIP3    H126689   0.033   5.552   0.941 -2.3479 -1.2095  0.2460
 1710TIP3    H226690   0.066   5.414   0.888 -1.8710 -0.1858 -2.2280
 1711TIP3   OH226691   6.383   5.871   2.257 -0.0190 -0.8156 -0.5712
 1711TIP3    H126692   6.287   5.864   2.255 -0.1576  0.7190 -1.4561
 1711TIP3    H226693   6.399   5.962   2.282  1.1808 -0.7058 -1.6411
 1712TIP3   OH226694   4.150   0.436   7.027  0.4174  0.7452 -0.1105
 1712TIP3    H126695   4.130   0.419   7.118 -1.3806  0.8059 -0.4513
 1712TIP3    H226696   4.207   0.365   7.000  1.2535  0.9277  1.1430
 1713TIP3   OH226697   4.311   0.755   1.942  0.2856  0.2981  0.0538
 1713TIP3    H126698   4.305   0.675   1.890 -0.9623 -0.5193  1.3618
 1713TIP3    H226699   4.280   0.825   1.884 -0.3436 -0.4656 -0.5490
 1714TIP3   OH226700   6.835   4.597   2.579  0.2369  0.6225 -0.0376
 1714TIP3    H126701   6.812   4.688   2.602  0.2667  1.6397 -3.4527
 1714TIP3    H226702   6.755   4.547   2.596  0.6688  0.8441  3.3641
 1715TIP3   OH226703   4.828   5.717   7.870 -0.3638  0.2761 -0.7077
 1715TIP3    H126704   4.739   5.694   7.846 -0.2944  1.1215 -1.8143
 1715TIP3    H226705   4.837   5.809   7.847 -0.1652  1.1257  2.2593
 1716TIP3   OH226706   6.083   3.227   8.136  0.7116  0.4823  0.1032
 1716TIP3    H126707   6.058   3.137   8.159 -0.2922 -0.1584 -3.0274
 1716TIP3    H226708   6.017   3.282   8.179 -0.1443 -0.4645  0.0178
 1717TIP3   OH226709   3.789   1.311   6.317 -0.3810  0.5457 -0.2587
 1717TIP3    H126710   3.855   1.322   6.249 -0.7728  0.4568 -0.6605
 1717TIP3    H226711   3.767   1.400   6.344 -0.9099  0.6276 -0.9282
 1718TIP3   OH226712   5.468   5.275   7.662  0.0978  0.1542 -0.3750
 1718TIP3    H126713   5.459   5.234   7.576  0.5784 -2.0941  0.5861
 1718TIP3    H226714   5.383   5.317   7.677 -1.1397 -2.1179 -0.6460
 1719TIP3   OH226715   6.775   1.194   1.744 -0.5649 -0.2458  0.3458
 1719TIP3    H126716   6.753   1.108   1.779  1.0417 -0.7320  0.2487
 1719TIP3    H226717   6.787   1.249   1.821 -1.2541 -0.1743  0.4146
 1720TIP3   OH226718   6.765   2.558   8.491  0.0410  0.3271  0.3590
 1720TIP3    H126719   6.679   2.595   8.471 -0.3120 -0.5105  0.3123
 1720TIP3    H226720   6.822   2.590   8.421  0.3778  2.9342  1.6839
 1721TIP3   OH226721   5.908   0.002   2.281  0.1007  0.5866  0.3815
 1721TIP3    H126722   5.947  -0.079   2.249 -0.9773  0.1787  0.0337
 1721TIP3    H226723   5.846  -0.026   2.348  1.7617  1.3671  2.3362
 1722TIP3   OH226724   2.553   3.044   7.492 -0.6957  0.5414 -0.5757
 1722TIP3    H126725   2.626   3.101   7.468 -1.4097  2.4171  1.4324
 1722TIP3    H226726   2.593   2.959   7.510  0.5623  0.6962 -2.3922
 1723TIP3   OH226727   2.669   4.170   2.940 -0.4837  0.3278 -0.3569
 1723TIP3    H126728   2.665   4.080   2.909 -1.3804  0.5403 -0.8849
 1723TIP3    H226729   2.606   4.217   2.886  2.0870  1.9074 -2.2248
 1724TIP3   OH226730   5.600   4.892   0.255 -0.2389 -0.0821 -0.0641
 1724TIP3    H126731   5.556   4.967   0.215  0.1542  0.1073 -0.1469
 1724TIP3    H226732   5.542   4.818   0.238 -0.4683  0.1445 -0.2716
 1725TIP3   OH226733   0.276   5.912   8.136 -0.5421  0.1909  0.4204
 1725TIP3    H126734   0.253   5.825   8.169 -1.6736  0.5518  0.6204
 1725TIP3    H226735   0.350   5.939   8.191  0.3024 -0.9281 -0.1219
 1726TIP3   OH226736   4.842   2.298   0.745 -0.2247 -0.3254 -0.0010
 1726TIP3    H126737   4.843   2.257   0.658 -1.3351 -1.3828  0.4521
 1726TIP3    H226738   4.908   2.367   0.740 -0.2263 -0.4026 -1.6644
 1727TIP3   OH226739   3.811   2.969   2.468  0.2530 -0.1556 -0.3658
 1727TIP3    H126740   3.798   2.929   2.554  0.7419  1.2700  0.4095
 1727TIP3    H226741   3.896   2.935   2.438  0.6214  0.2119  0.2425
 1728TIP3   OH226742   5.984   1.033   7.340 -0.4140  0.0568  0.0350
 1728TIP3    H126743   5.947   0.984   7.413  0.0604 -0.6764 -0.2083
 1728TIP3    H226744   6.052   0.976   7.304 -1.2579  0.0011 -1.5499
 1729TIP3   OH226745   6.072   5.438   7.666  0.1447  0.0030 -0.1257
 1729TIP3    H126746   6.106   5.384   7.595 -1.1020  0.4893 -1.1314
 1729TIP3    H226747   6.007   5.382   7.709  1.4469 -0.5734  1.1647
 1730TIP3   OH226748   3.960   5.863   7.560  0.5058  0.6343 -0.3024
 1730TIP3    H126749   4.048   5.834   7.586  0.8225  2.2109  0.4780
 1730TIP3    H226750   3.916   5.884   7.643 -0.8116 -0.6291 -0.6465
 1731TIP3   OH226751   6.062   1.611   6.953 -0.0192 -0.0681  0.4738
 1731TIP3    H126752   6.024   1.695   6.927  0.7874  0.2923  0.4466
 1731TIP3    H226753   6.130   1.594   6.889 -0.7601 -1.1949 -0.0601
 1732TIP3   OH226754   4.742   0.717   7.435 -0.6287  0.2666  0.1671
 1732TIP3    H126755   4.829   0.686   7.461 -0.8217 -0.5530 -0.1326
 1732TIP3    H226756   4.745   0.812   7.449  0.3869  0.2747 -0.0507
 1733TIP3   OH226757   0.050   3.045   1.505  0.4196  0.1232  0.0900
 1733TIP3    H126758   0.062   2.981   1.435  0.0106 -0.9767  0.9958
 1733TIP3    H226759   0.118   3.023   1.569  0.2110  0.5419  0.4585
 1734TIP3   OH226760   0.315   4.165   7.052 -0.0808  0.1916 -0.6043
 1734TIP3    H126761   0.275   4.136   6.970  2.9184 -0.5095 -1.9537
 1734TIP3    H226762   0.385   4.102   7.068  0.9536  1.6964  1.1838
 1735TIP3   OH226763   5.580   2.629   8.435 -0.0062 -0.0029  0.9563
 1735TIP3    H126764   5.555   2.660   8.522  0.2341  1.2910  0.5892
 1735TIP3    H226765   5.542   2.693   8.375 -1.3014 -1.5834  0.0002
 1736TIP3   OH226766   1.387   0.565   1.098 -0.1909  0.1912  0.1759
 1736TIP3    H126767   1.380   0.572   1.003 -0.4073 -0.5260  0.1310
 1736TIP3    H226768   1.384   0.471   1.115  0.3588  0.2868  0.8530
 1737TIP3   OH226769   1.228   5.808   8.022  0.3174  0.0317 -0.0056
 1737TIP3    H126770   1.244   5.763   8.106  0.0537  1.6214  0.9344
 1737TIP3    H226771   1.155   5.759   7.984 -1.8738  1.2288  2.3170
 1738TIP3   OH226772   5.879   0.256   7.687 -0.6558  0.2013 -0.0079
 1738TIP3    H126773   5.896   0.258   7.593  3.8144  3.6452  0.5166
 1738TIP3    H226774   5.942   0.193   7.722 -1.7322 -0.4598  0.8085
 1739TIP3   OH226775   0.058   4.142   8.399 -0.0319  0.0151  0.1579
 1739TIP3    H126776  -0.023   4.105   8.434 -0.7590  1.1566 -0.2838
 1739TIP3    H226777   0.038   4.234   8.381  1.8673  0.8023  1.6785
 1740TIP3   OH226778   3.969   4.772   7.635  0.1079  0.1233 -0.3855
 1740TIP3    H126779   3.935   4.836   7.572  1.1229  0.9160 -0.1619
 1740TIP3    H226780   4.021   4.712   7.581  0.3919  0.3831 -0.4050
 1741TIP3   OH226781   4.387   0.321   7.424  0.3312  0.1927  0.1112
 1741TIP3    H126782   4.426   0.406   7.443  1.5028 -0.1143 -0.7522
 1741TIP3    H226783   4.461   0.267   7.397 -0.2914 -1.3119  1.2857
 1742TIP3   OH226784   2.309   2.551   6.484 -0.0744 -0.0682 -0.2590
 1742TIP3    H126785   2.313   2.645   6.502  1.2784 -0.0125 -0.7367
 1742TIP3    H226786   2.399   2.520   6.496 -0.8386 -1.7191  1.9800
 1743TIP3   OH226787   4.378   0.274   2.330 -0.5000  0.3573 -0.1249
 1743TIP3    H126788   4.398   0.205   2.393 -2.1298 -0.5640 -0.5648
 1743TIP3    H226789   4.452   0.272   2.268 -0.8393 -1.5192 -0.5428
 1744TIP3   OH226790   5.171   2.908   1.262 -0.3917 -0.3538 -0.4374
 1744TIP3    H126791   5.178   2.889   1.356  1.1753 -0.8686 -0.6413
 1744TIP3    H226792   5.235   2.977   1.246  1.0741 -1.8879 -1.5225
 1745TIP3   OH226793   1.896   5.165   6.829 -0.2100 -0.1951  0.1230
 1745TIP3    H126794   1.884   5.260   6.826  2.0859  0.1810  1.0776
 1745TIP3    H226795   1.991   5.152   6.829 -0.4611 -2.4603  0.7144
 1746TIP3   OH226796   4.518   1.249   7.951  0.6534 -0.8044  0.3710
 1746TIP3    H126797   4.496   1.241   7.858  1.5695  2.3591 -0.2153
 1746TIP3    H226798   4.438   1.281   7.992  1.0894  0.6611  0.1092
 1747TIP3   OH226799   1.003   3.042   7.982 -0.6813  0.2899 -0.1513
 1747TIP3    H126800   0.975   3.020   7.893 -3.2110  1.9885  0.1277
 1747TIP3    H226801   0.977   2.967   8.035 -0.6974  0.0017 -0.5579
 1748TIP3   OH226802   4.422   6.638   1.813  0.4743 -0.3121 -0.1459
 1748TIP3    H126803   4.484   6.649   1.741 -1.7166  4.0479 -1.7258
 1748TIP3    H226804   4.451   6.702   1.879  0.4508 -1.7963  1.3750
 1749TIP3   OH226805   1.164   2.469   7.991  0.1987 -0.2356  0.0845
 1749TIP3    H126806   1.221   2.541   7.963 -1.8788  0.7428 -1.9198
 1749TIP3    H226807   1.179   2.462   8.085  3.3806  0.1239 -0.2788
 1750TIP3   OH226808   1.532   5.016   0.415  0.0947 -0.3271  0.2043
 1750TIP3    H126809   1.574   4.974   0.340  2.4386 -0.0685  1.2949
 1750TIP3    H226810   1.441   4.986   0.411 -0.0756  0.2742 -3.1394
 1751TIP3   OH226811   4.125   2.848   0.168 -0.0975 -0.0504 -0.6496
 1751TIP3    H126812   4.130   2.754   0.152 -0.5377 -0.1548 -0.2179
 1751TIP3    H226813   4.045   2.859   0.220  0.4203  0.4516  0.0649
 1752TIP3   OH226814   2.989   6.204   1.878  0.5880  0.1558  0.1701
 1752TIP3    H126815   3.066   6.195   1.934 -0.1234  0.2024  1.1891
 1752TIP3    H226816   2.927   6.255   1.930 -0.6725 -1.0835 -0.0545
 1753TIP3   OH226817   6.582   5.601   1.281  0.7731 -0.2390 -0.1683
 1753TIP3    H126818   6.620   5.681   1.246 -1.1547  0.7269 -0.1896
 1753TIP3    H226819   6.489   5.606   1.258  0.2777 -1.6748  1.2641
 1754TIP3   OH226820   1.638   6.611   7.180 -0.4538  0.0153 -0.6176
 1754TIP3    H126821   1.564   6.664   7.209 -0.2486  0.4284 -0.8354
 1754TIP3    H226822   1.614   6.582   7.092 -1.2146 -1.5006  0.0503
 1755TIP3   OH226823   3.368   5.385   0.035 -0.1613  0.2574  0.1839
 1755TIP3    H126824   3.419   5.445   0.090 -2.5224  1.3439  1.3471
 1755TIP3    H226825   3.345   5.438  -0.042 -0.0899 -0.0204 -0.0308
 1756TIP3   OH226826   4.230   1.288   6.322  0.3096  0.3639 -0.2256
 1756TIP3    H126827   4.302   1.234   6.354  0.8622  0.5993 -1.0570
 1756TIP3    H226828   4.265   1.376   6.318  1.0632  0.0337 -3.6913
 1757TIP3   OH226829   6.822   1.982   8.267 -0.5177  0.6993  0.0935
 1757TIP3    H126830   6.811   1.905   8.210  0.7443  0.2778  0.3953
 1757TIP3    H226831   6.734   2.019   8.274 -0.7419  0.6568 -1.9664
 1758TIP3   OH226832   4.139   0.646   0.790 -0.2306 -0.2055  0.8877
 1758TIP3    H126833   4.116   0.673   0.701  1.2041 -2.1179 -0.1537
 1758TIP3    H226834   4.191   0.718   0.825  0.7890 -0.1918 -0.5721
 1759TIP3   OH226835   5.598   2.732   6.918  0.2373  0.5128 -0.0239
 1759TIP3    H126836   5.645   2.678   6.982  1.5123  2.2343  0.5704
 1759TIP3    H226837   5.608   2.686   6.835  0.8875 -0.3900  0.5372
 1760TIP3   OH226838   0.518   2.158   7.015  0.3020  0.2777  0.7495
 1760TIP3    H126839   0.556   2.236   6.975  0.1231  0.5760  1.1481
 1760TIP3    H226840   0.429   2.154   6.981  0.4161  0.0590  0.4732
 1761TIP3   OH226841   4.253   6.579   6.306 -0.0157 -0.0654 -0.9235
 1761TIP3    H126842   4.271   6.506   6.366 -1.0410  0.2728 -0.1717
 1761TIP3    H226843   4.307   6.651   6.340 -2.0633  0.7314  0.8859
 1762TIP3   OH226844   1.919   3.497   2.615 -0.0553 -0.0940  0.2653
 1762TIP3    H126845   1.936   3.427   2.552  1.4866  0.1579  0.3668
 1762TIP3    H226846   1.983   3.482   2.686 -1.3328 -0.0050  1.4767
 1763TIP3   OH226847   4.697   6.474   8.573  0.7898 -0.4035  0.3314
 1763TIP3    H126848   4.661   6.520   8.649 -0.2232 -0.2388 -0.2448
 1763TIP3    H226849   4.659   6.518   8.497  2.5670  0.1046 -0.3349
 1764TIP3   OH226850   2.321   2.559   8.338  0.0140  0.1677 -0.3829
 1764TIP3    H126851   2.250   2.503   8.370  0.7999  0.4143  2.0058
 1764TIP3    H226852   2.331   2.626   8.406  0.7411  1.7644 -1.9972
 1765TIP3   OH226853   6.168   3.848   0.836 -0.1718 -0.4760 -0.2790
 1765TIP3    H126854   6.139   3.822   0.749  0.6604  1.9996 -1.3919
 1765TIP3    H226855   6.089   3.851   0.889 -0.5189 -3.3905 -0.4765
 1766TIP3   OH226856   4.976   0.091   8.365  0.4288  0.0978 -0.1004
 1766TIP3    H126857   4.994   0.020   8.303 -0.4311  0.0860 -0.3503
 1766TIP3    H226858   4.998   0.171   8.317  0.1337  0.0699 -0.2800
 1767TIP3   OH226859   4.845   2.981   7.434 -0.0191  0.5116  0.3610
 1767TIP3    H126860   4.870   2.892   7.461  1.5514  0.8257  0.0837
 1767TIP3    H226861   4.903   3.000   7.360 -0.3821  1.7412  0.3667
 1768TIP3   OH226862   2.145   5.310   0.803  0.0862  0.9408  0.2484
 1768TIP3    H126863   2.134   5.393   0.849 -0.6797  1.1787 -0.3549
 1768TIP3    H226864   2.218   5.268   0.848  0.7901  2.1387  0.2700
 1769TIP3   OH226865   4.012   1.430   6.828 -0.0643  0.0444  0.8509
 1769TIP3    H126866   3.954   1.451   6.755  0.8606 -2.1900 -0.6339
 1769TIP3    H226867   4.099   1.452   6.796  0.1596  1.4065  2.2796
 1770TIP3   OH226868   5.336   1.562   1.563 -0.1206 -0.0965  0.3556
 1770TIP3    H126869   5.250   1.519   1.570 -1.3082  2.2735  1.7153
 1770TIP3    H226870   5.343   1.586   1.471 -0.1928 -1.6284 -0.0799
 1771TIP3   OH226871   3.955   0.235   2.252  1.5716 -0.2667 -0.2173
 1771TIP3    H126872   3.912   0.309   2.211 -0.4491 -1.1209  0.2080
 1771TIP3    H226873   3.929   0.240   2.344  1.9964 -1.0991 -0.0367
 1772TIP3   OH226874   6.413   2.841   7.801 -0.2029 -0.0491  0.4684
 1772TIP3    H126875   6.453   2.827   7.887  0.6994 -2.6788 -0.3066
 1772TIP3    H226876   6.487   2.855   7.742 -0.7555  0.5107 -0.1173
 1773TIP3   OH226877   4.844   5.028   7.291  0.0214 -0.0962 -0.0811
 1773TIP3    H126878   4.824   4.938   7.265 -0.9366  0.0937 -0.0524
 1773TIP3    H226879   4.766   5.057   7.339  1.5298 -0.3272  2.7404
 1774TIP3   OH226880   5.342   4.499   2.818 -0.8354 -0.5353 -0.4123
 1774TIP3    H126881   5.436   4.518   2.818 -0.7287 -1.0306 -0.4661
 1774TIP3    H226882   5.309   4.541   2.897 -0.8909  1.1054 -1.2827
 1775TIP3   OH226883   2.213   1.779   0.984  0.4003 -0.4972 -0.1667
 1775TIP3    H126884   2.119   1.793   0.975  0.3080 -2.1609 -3.0404
 1775TIP3    H226885   2.223   1.684   0.987  2.0108 -0.3594 -0.3889
 1776TIP3   OH226886   0.083   2.219   1.761 -0.0607  0.3356  0.2186
 1776TIP3    H126887   0.027   2.173   1.824  1.1119  0.4852  1.4070
 1776TIP3    H226888   0.081   2.164   1.683 -0.6419 -0.4475  0.7646
 1777TIP3   OH226889   4.830   5.960   8.522 -0.2935  0.4033  0.3688
 1777TIP3    H126890   4.778   5.880   8.525 -2.3430  1.6526 -0.0062
 1777TIP3    H226891   4.809   6.006   8.603 -0.1238  1.1365  0.0054
 1778TIP3   OH226892   0.555   0.387   1.628  0.1628  0.2799  0.3709
 1778TIP3    H126893   0.494   0.345   1.688  0.6594 -0.2530  0.5156
 1778TIP3    H226894   0.513   0.469   1.603 -1.0073 -0.4584 -0.1926
 1779TIP3   OH226895   0.747   0.040   1.931 -0.6151  0.0011  0.5466
 1779TIP3    H126896   0.740   0.072   1.842 -1.0679 -1.4330  0.0341
 1779TIP3    H226897   0.699   0.105   1.984  0.1214  1.1399 -0.1480
 1780TIP3   OH226898   2.246   3.005   6.664  0.0281 -0.6056  0.4649
 1780TIP3    H126899   2.327   3.035   6.705 -0.1037  0.1157  0.1986
 1780TIP3    H226900   2.276   2.940   6.600  0.5312  0.5346 -0.4970
 1781TIP3   OH226901   5.325   0.410   0.963  0.0418 -0.1006  0.5753
 1781TIP3    H126902   5.415   0.438   0.945 -0.4047  1.3121  0.4029
 1781TIP3    H226903   5.332   0.359   1.044  0.8986  0.6824  1.0206
 1782TIP3   OH226904   1.771   2.125   7.806 -0.5595  0.0060  0.3687
 1782TIP3    H126905   1.812   2.140   7.721 -0.7180 -0.0055  0.2898
 1782TIP3    H226906   1.683   2.093   7.785 -0.7316  0.3714  0.5381
 1783TIP3   OH226907   5.407   3.340   8.496 -0.1164  0.5241  0.0487
 1783TIP3    H126908   5.465   3.415   8.510  0.8965 -0.0223 -1.0126
 1783TIP3    H226909   5.333   3.376   8.447  1.3512  0.5269 -2.3463
 1784TIP3   OH226910   1.553   0.494   7.800 -0.2508  0.2857 -0.7739
 1784TIP3    H126911   1.461   0.469   7.811  0.0744 -2.0000 -2.6651
 1784TIP3    H226912   1.551   0.590   7.800 -2.6015  0.2978 -0.5521
 1785TIP3   OH226913   4.450   5.829   1.483  0.2000  0.3915  0.7065
 1785TIP3    H126914   4.524   5.822   1.424 -1.1689  0.4641 -1.0846
 1785TIP3    H226915   4.464   5.912   1.530  2.0385 -0.3832  1.6097
 1786TIP3   OH226916   5.052   5.204   7.593  0.0208 -0.2749 -0.4332
 1786TIP3    H126917   5.069   5.201   7.499  1.8862 -1.3775 -0.1182
 1786TIP3    H226918   5.006   5.122   7.611 -3.3981  1.3765 -0.8042
 1787TIP3   OH226919   6.763   4.061   0.536  0.3027 -0.4635 -0.0636
 1787TIP3    H126920   6.802   4.008   0.466  0.7297  0.7132 -0.7453
 1787TIP3    H226921   6.828   4.129   0.554 -1.0254  1.0271 -0.6139
 1788TIP3   OH226922   4.162   5.702   7.687 -0.8319 -1.0287  0.2830
 1788TIP3    H126923   4.238   5.736   7.733 -1.3495 -0.5018  0.7630
 1788TIP3    H226924   4.182   5.610   7.671  0.1316 -0.7667 -0.0795
 1789TIP3   OH226925   0.141   6.386   1.713 -0.4532  0.1946 -0.0896
 1789TIP3    H126926   0.060   6.378   1.763 -1.3354  1.1132 -1.3454
 1789TIP3    H226927   0.160   6.296   1.685 -2.5693  0.3068 -2.1130
 1790TIP3   OH226928   5.734   3.433   8.069 -0.0737  0.6026  0.1428
 1790TIP3    H126929   5.647   3.399   8.093  0.1203 -0.5168 -0.6483
 1790TIP3    H226930   5.783   3.434   8.151 -0.4846  0.1462  0.4035
 1791TIP3   OH226931   1.025   1.422   0.582  0.3645  0.1330  0.2186
 1791TIP3    H126932   1.030   1.515   0.603  1.6965  0.0053  0.5242
 1791TIP3    H226933   0.933   1.400   0.593 -0.0672  1.5334 -0.3796
 1792TIP3   OH226934   2.444   3.580   0.369 -0.9970 -0.9527 -0.2131
 1792TIP3    H126935   2.362   3.590   0.416 -0.8749  0.9333 -0.3253
 1792TIP3    H226936   2.474   3.670   0.353  1.1228 -1.5886 -0.1025
 1793TIP3   OH226937   3.924   1.894   1.400 -0.4352 -0.0501 -0.8043
 1793TIP3    H126938   3.911   1.885   1.306  1.0644  0.4558 -1.0756
 1793TIP3    H226939   3.845   1.939   1.430 -1.7805 -1.8418 -1.4967
 1794TIP3   OH226940   4.904   6.804   6.240  0.5923  0.4245  0.3440
 1794TIP3    H126941   4.985   6.777   6.281  0.4815  1.1159  1.0418
 1794TIP3    H226942   4.846   6.729   6.248  0.7339  0.3866  1.0209
 1795TIP3   OH226943   3.934   3.829   2.085 -0.0209  0.4926  0.1511
 1795TIP3    H126944   3.978   3.907   2.050 -0.5032  0.9129  0.4713
 1795TIP3    H226945   3.843   3.856   2.095 -0.4223 -0.4433 -0.7381
 1796TIP3   OH226946   6.887   4.304   7.743  0.7561  0.2987 -0.5298
 1796TIP3    H126947   6.814   4.242   7.737 -0.5767  1.7354  0.3228
 1796TIP3    H226948   6.939   4.286   7.664 -0.0838 -1.2609 -0.7795
 1797TIP3   OH226949   3.525   3.877   2.964 -0.1533  0.1866  0.3200
 1797TIP3    H126950   3.454   3.882   3.028 -1.7246  0.8998 -1.3525
 1797TIP3    H226951   3.480   3.888   2.879  1.7616 -1.0724 -0.9227
 1798TIP3   OH226952   6.828   0.304   2.619  0.4191  0.4676 -0.3882
 1798TIP3    H126953   6.880   0.314   2.539  1.9481 -0.3257  0.4582
 1798TIP3    H226954   6.887   0.329   2.689 -0.7956  0.8249  0.5359
 1799TIP3   OH226955   6.780   2.386   7.935  0.0787  0.1896  0.0346
 1799TIP3    H126956   6.747   2.471   7.906 -1.2104  0.1016  1.1482
 1799TIP3    H226957   6.840   2.406   8.006  0.1526  0.1975 -0.0300
 1800TIP3   OH226958   6.463   1.729   8.231 -0.8113  0.2747 -0.2664
 1800TIP3    H126959   6.394   1.762   8.174 -2.3370 -0.4185  1.0809
 1800TIP3    H226960   6.417   1.677   8.297  1.0818 -0.8705  0.2460
 1801TIP3   OH226961   1.706   2.756   6.906 -0.1964 -0.0086 -0.1295
 1801TIP3    H126962   1.630   2.713   6.867 -1.4338 -1.0147  3.1018
 1801TIP3    H226963   1.776   2.692   6.899 -0.9014 -0.9209  0.8902
 1802TIP3   OH226964   4.679   3.041   8.476 -0.2681 -0.3087 -0.0510
 1802TIP3    H126965   4.752   2.984   8.498  1.1742  1.2115 -0.6546
 1802TIP3    H226966   4.667   3.030   8.382 -1.1072 -0.8723  0.1202
 1803TIP3   OH226967   0.558   4.316   8.451  0.3099  0.1695  0.1733
 1803TIP3    H126968   0.536   4.287   8.539  1.0794 -1.0513 -0.0112
 1803TIP3    H226969   0.556   4.236   8.398  1.0108  0.6947 -0.6804
 1804TIP3   OH226970   3.939   3.698   0.863 -0.1015 -0.1168  0.1874
 1804TIP3    H126971   3.936   3.602   0.870  0.7911 -0.1671  0.0041
 1804TIP3    H226972   3.848   3.725   0.872 -0.5136 -1.0677 -0.7852
 1805TIP3   OH226973   4.170   4.044   2.924  0.5857 -0.3604  0.2090
 1805TIP3    H126974   4.108   4.008   2.988 -0.1838 -0.2092 -0.4309
 1805TIP3    H226975   4.148   4.137   2.920 -0.4159 -0.6281 -1.3773
 1806TIP3   OH226976   5.790   0.787   8.394 -0.3923  0.2365 -0.4270
 1806TIP3    H126977   5.828   0.874   8.410  3.1257 -1.3040  0.7395
 1806TIP3    H226978   5.716   0.782   8.453 -0.1790  2.1612  0.0861
 1807TIP3   OH226979   5.746   1.305   2.633  0.6099  0.2905 -0.0449
 1807TIP3    H126980   5.813   1.373   2.625  1.2674 -0.3698 -0.2543
 1807TIP3    H226981   5.795   1.226   2.654 -0.0959 -0.2260 -0.3284
 1808TIP3   OH226982   1.926   1.470   1.812  0.6172 -0.0311 -0.2692
 1808TIP3    H126983   1.876   1.427   1.881  1.7085  1.6416  1.6520
 1808TIP3    H226984   2.017   1.451   1.832  1.0047  1.3094 -0.6173
 1809TIP3   OH226985   0.720   2.607   7.358 -0.2596 -0.1227  0.0511
 1809TIP3    H126986   0.751   2.659   7.433  0.5552 -0.9157  0.2880
 1809TIP3    H226987   0.788   2.541   7.346 -0.0407  0.3951 -1.8303
 1810TIP3   OH226988   0.894   4.298   1.069  0.2963  0.7027  0.2757
 1810TIP3    H126989   0.898   4.260   0.981  1.1615 -1.0492  1.0212
 1810TIP3    H226990   0.983   4.288   1.103 -0.4551 -0.4319  2.0322
 1811TIP3   OH226991   4.895   3.401   0.752 -0.1776 -0.3757  0.3414
 1811TIP3    H126992   4.898   3.305   0.758 -1.7681 -0.5789 -1.4143
 1811TIP3    H226993   4.863   3.429   0.838  1.0235 -1.3291  1.1477
 1812TIP3   OH226994   2.146   1.269   7.535 -0.5483 -0.8104 -0.5480
 1812TIP3    H126995   2.216   1.247   7.595 -0.1472  0.4166 -0.5366
 1812TIP3    H226996   2.185   1.259   7.448 -0.0668  0.6804 -0.5325
 1813TIP3   OH226997   5.443   4.740   0.929 -0.0996 -0.1598 -0.7966
 1813TIP3    H126998   5.451   4.809   0.863 -1.6391  0.5904 -0.2342
 1813TIP3    H226999   5.376   4.771   0.990 -0.6757 -2.0293 -0.3880
 1814TIP3   OH227000   3.926   6.881   0.283 -0.1468 -0.2152 -0.6366
 1814TIP3    H127001   3.953   6.809   0.339  1.8358  1.3929  0.5866
 1814TIP3    H227002   3.890   6.947   0.342  1.7673  1.4204 -1.1764
 1815TIP3   OH227003   6.655   2.504   7.660  0.7866 -0.4755 -0.2697
 1815TIP3    H127004   6.681   2.414   7.680  2.3376  0.2497  1.1685
 1815TIP3    H227005   6.672   2.513   7.566  0.8123 -1.5938 -0.3905
 1816TIP3   OH227006   1.713   5.017   1.384 -0.2975 -0.1111 -0.0240
 1816TIP3    H127007   1.805   4.999   1.404 -0.3705 -1.0008 -0.4223
 1816TIP3    H227008   1.716   5.095   1.328  0.0390  1.2035  1.7476
 1817TIP3   OH227009   2.025   4.692   0.533 -0.7702  0.0155 -0.2787
 1817TIP3    H127010   2.035   4.775   0.487  1.5074  0.2222  0.4606
 1817TIP3    H227011   1.933   4.668   0.521 -0.6017  0.6423 -3.8748
 1818TIP3   OH227012   3.113   3.996   6.953 -0.6860 -0.1471 -0.1311
 1818TIP3    H127013   3.182   3.929   6.955  0.5262  1.0519 -0.4264
 1818TIP3    H227014   3.083   3.996   6.863 -1.4161 -0.9755  0.0933
 1819TIP3   OH227015   6.334   4.651   8.586 -0.0422  0.2111 -0.0781
 1819TIP3    H127016   6.413   4.667   8.637  0.0158 -1.0598  0.2636
 1819TIP3    H227017   6.347   4.699   8.504  1.3549 -0.4934 -0.2919
 1820TIP3   OH227018   6.217   6.830   7.171  0.0255 -0.1049 -0.7265
 1820TIP3    H127019   6.228   6.738   7.147 -0.8413 -0.0574 -1.3560
 1820TIP3    H227020   6.159   6.865   7.103 -0.4442  0.6656  0.0644
 1821TIP3   OH227021   0.476   2.506   7.302  0.2431 -0.5067  0.5442
 1821TIP3    H127022   0.560   2.549   7.312  0.3139 -0.0623 -1.5320
 1821TIP3    H227023   0.496   2.412   7.306  0.5182 -0.4053  2.0240
 1822TIP3   OH227024   6.775   5.934   0.082 -0.6708  0.1959  0.1433
 1822TIP3    H127025   6.751   5.939   0.175 -0.2002 -1.2160  0.3554
 1822TIP3    H227026   6.701   5.891   0.041 -0.2006 -0.6281  0.1433
 1823TIP3   OH227027   0.500   6.255   1.600 -0.9753  0.2196  0.2490
 1823TIP3    H127028   0.500   6.291   1.511 -2.2005  0.1450  0.2068
 1823TIP3    H227029   0.482   6.162   1.589  1.5671 -0.3580  0.4088
 1824TIP3   OH227030   6.807   2.200   7.042  0.2474 -0.4879  0.5117
 1824TIP3    H127031   6.750   2.216   7.118  1.8150 -0.6601  1.7764
 1824TIP3    H227032   6.811   2.104   7.034 -0.4473 -0.4642 -0.2290
 1825TIP3   OH227033   3.177   1.055   7.148  0.3529  0.2063 -0.0185
 1825TIP3    H127034   3.210   0.968   7.174 -0.3668 -0.9149 -2.5412
 1825TIP3    H227035   3.129   1.039   7.066 -1.5571  2.6937  0.5072
 1826TIP3   OH227036   6.834   4.489   1.783  0.3288 -0.4721 -0.2230
 1826TIP3    H127037   6.780   4.426   1.737 -0.3127  0.3097 -0.5740
 1826TIP3    H227038   6.772   4.557   1.811  0.6824 -0.9152  1.7962
 1827TIP3   OH227039   0.355   2.920   7.853 -0.1524  0.1869  0.4689
 1827TIP3    H127040   0.373   3.004   7.811  0.6656 -0.9587 -1.6479
 1827TIP3    H227041   0.261   2.907   7.841 -0.1858  0.5627  0.3165
 1828TIP3   OH227042   0.862   3.187   1.971  0.1942  0.5969  0.4767
 1828TIP3    H127043   0.931   3.172   2.036 -0.0878  1.2540  0.9429
 1828TIP3    H227044   0.792   3.229   2.020  0.4871  2.3400 -0.4943
 1829TIP3   OH227045   5.856   2.898   2.257  0.3898  0.0864 -0.2272
 1829TIP3    H127046   5.863   2.916   2.164  1.0720  0.9769 -0.0139
 1829TIP3    H227047   5.915   2.824   2.273 -2.1132 -2.2573 -1.0327
 1830TIP3   OH227048   0.875   1.931   0.777  0.1426  0.2618  0.3585
 1830TIP3    H127049   0.882   2.022   0.806 -2.8243  1.2585 -1.5648
 1830TIP3    H227050   0.807   1.933   0.710  1.3546 -3.0921 -1.1817
 1831TIP3   OH227051   2.643   1.582   7.569 -0.0453  0.1433  0.1657
 1831TIP3    H127052   2.623   1.495   7.603  2.1810 -0.3712  0.3307
 1831TIP3    H227053   2.646   1.571   7.474  1.9993 -0.4776  0.2358
 1832TIP3   OH227054   4.819   1.796   0.678  0.3871 -0.0544 -0.3799
 1832TIP3    H127055   4.760   1.871   0.685  1.3057  0.8861 -2.1419
 1832TIP3    H227056   4.860   1.789   0.765 -0.9709  0.3703  0.3257
 1833TIP3   OH227057   0.414   6.776   8.575 -0.6018 -0.0148 -0.3707
 1833TIP3    H127058   0.456   6.703   8.621  0.9494  0.8813 -0.3046
 1833TIP3    H227059   0.465   6.853   8.601 -3.0956  1.3715  0.7451
 1834TIP3   OH227060   3.418   0.061   1.429  0.0450 -0.3071  0.7119
 1834TIP3    H127061   3.330   0.092   1.409  0.3518  0.8865  1.1772
 1834TIP3    H227062   3.405  -0.005   1.497 -0.4800 -0.0392  0.8777
 1835TIP3   OH227063   0.995   0.411   7.300  0.4855 -0.0673 -0.4610
 1835TIP3    H127064   0.989   0.462   7.220 -0.3983  1.2551  0.4121
 1835TIP3    H227065   0.987   0.320   7.271  1.1648  0.3158 -1.9516
 1836TIP3   OH227066   5.662   0.884   0.425  0.0758  0.1404  0.0632
 1836TIP3    H127067   5.657   0.908   0.333  0.3925  2.6216  0.6325
 1836TIP3    H227068   5.692   0.793   0.425 -0.2638 -0.0165 -2.2567
 1837TIP3   OH227069   5.642   4.798   2.129 -0.0266  0.3682  0.4027
 1837TIP3    H127070   5.649   4.888   2.161 -0.9945 -0.1532  2.1996
 1837TIP3    H227071   5.578   4.803   2.058  1.5257  1.4029 -1.0114
 1838TIP3   OH227072   6.632   0.499   6.623  0.3554  0.4359 -0.1820
 1838TIP3    H127073   6.646   0.593   6.636 -0.8585  0.5400  0.6255
 1838TIP3    H227074   6.540   0.486   6.646 -0.4894 -0.3988 -3.5806
 1839TIP3   OH227075   5.895   5.151   1.685  0.0441 -0.0317  0.1725
 1839TIP3    H127076   5.957   5.207   1.732 -0.2262 -0.1122  0.6359
 1839TIP3    H227077   5.915   5.165   1.593  1.7726 -1.1912  0.3171
 1840TIP3   OH227078   3.378   5.438   1.970 -0.2573  0.3117  0.0765
 1840TIP3    H127079   3.448   5.377   1.946  0.1317  0.9250 -0.3368
 1840TIP3    H227080   3.422   5.521   1.985 -0.8698  0.6453  0.0489
 1841TIP3   OH227081   0.324   5.337   6.778 -0.4434  0.3470 -0.2962
 1841TIP3    H127082   0.406   5.337   6.728  1.4677  2.2295  2.5594
 1841TIP3    H227083   0.257   5.312   6.714  1.8139  2.1388 -3.6520
 1842TIP3   OH227084   4.661   2.503   0.647 -0.1524  0.3428  0.4192
 1842TIP3    H127085   4.704   2.419   0.661 -0.1220  0.4431  0.9533
 1842TIP3    H227086   4.604   2.514   0.724  0.3758  1.1357  0.7086
 1843TIP3   OH227087   3.139   5.144   1.622  0.3047 -0.3086  0.1482
 1843TIP3    H127088   3.135   5.201   1.699  0.9127 -0.0650  0.0053
 1843TIP3    H227089   3.152   5.056   1.658  0.2710 -0.2387  0.3330
 1844TIP3   OH227090   6.412   1.692   1.713 -0.0286  0.1002 -0.3696
 1844TIP3    H127091   6.462   1.668   1.791 -1.9819  0.7912  1.1977
 1844TIP3    H227092   6.398   1.787   1.722  0.6030  0.3972 -2.1411
 1845TIP3   OH227093   6.375   4.157   8.131 -0.4495 -0.0342  0.0887
 1845TIP3    H127094   6.360   4.223   8.064 -2.3923 -0.1745  0.3374
 1845TIP3    H227095   6.460   4.118   8.107  0.3656  1.9655 -0.5055
 1846TIP3   OH227096   3.215   5.881   8.431  0.3368 -0.1968 -0.4381
 1846TIP3    H127097   3.188   5.807   8.376 -1.2932  0.5821 -0.7225
 1846TIP3    H227098   3.199   5.851   8.520 -0.8505 -0.0038 -0.5739
 1847TIP3   OH227099   1.884   6.868   0.313 -0.3489  0.0854 -0.3551
 1847TIP3    H127100   1.851   6.954   0.338  1.1265  1.5280 -2.8952
 1847TIP3    H227101   1.830   6.842   0.238  0.6704 -0.0740 -1.0637
 1848TIP3   OH227102   3.823   0.164   0.482 -0.3601  0.3867 -0.2538
 1848TIP3    H127103   3.729   0.179   0.472 -0.2956  0.7349 -0.3570
 1848TIP3    H227104   3.830   0.102   0.554 -0.6567  0.5643 -0.0689
 1849TIP3   OH227105   5.413   6.334   7.642  0.5860 -0.0526  0.4634
 1849TIP3    H127106   5.347   6.391   7.682  1.1208  0.6509  0.3626
 1849TIP3    H227107   5.397   6.248   7.681 -1.7199 -0.4011 -1.1118
 1850TIP3   OH227108   1.020   5.494   1.703 -0.0702 -0.1270  0.5170
 1850TIP3    H127109   0.955   5.474   1.635 -1.5691 -2.7185  2.4892
 1850TIP3    H227110   1.101   5.455   1.671 -0.5539 -0.6241 -0.1297
 1851TIP3   OH227111   6.220   6.034   1.302  0.3228 -0.0123  0.7631
 1851TIP3    H127112   6.216   5.944   1.270  2.3557 -0.3187  1.2333
 1851TIP3    H227113   6.255   6.084   1.228  1.7134 -0.1048  1.3312
 1852TIP3   OH227114   0.050   3.226   1.817  0.5038 -0.6040  0.0177
 1852TIP3    H127115   0.033   3.310   1.775  1.7985 -0.3395  0.0092
 1852TIP3    H227116   0.144   3.211   1.806  0.3834 -1.8285  0.4339
 1853TIP3   OH227117   2.948   1.294   0.994  0.9029  0.2214 -0.0894
 1853TIP3    H127118   2.938   1.381   1.033  2.3910  0.2372  0.3150
 1853TIP3    H227119   2.936   1.308   0.900  1.3058  0.8995 -0.0443
 1854TIP3   OH227120   4.088   3.634   0.560  0.0746  0.4083  0.3381
 1854TIP3    H127121   4.080   3.567   0.628  0.7632 -1.0447 -0.9158
 1854TIP3    H227122   4.051   3.713   0.598  0.1180 -0.4401  2.2483
 1855TIP3   OH227123   0.049   2.770   0.968 -0.0815  0.4002 -0.4927
 1855TIP3    H127124   0.109   2.844   0.963  0.8298 -0.2360  0.5012
 1855TIP3    H227125   0.040   2.753   1.062  2.5133 -2.8774 -0.6527
 1856TIP3   OH227126   2.220   0.643   7.837  0.3594  0.0804  0.3814
 1856TIP3    H127127   2.147   0.661   7.778  0.9734  0.0449 -0.4003
 1856TIP3    H227128   2.211   0.550   7.858 -0.1561  0.2124  0.7551
 1857TIP3   OH227129   2.150   0.034   1.174  0.4617  0.3048  0.1862
 1857TIP3    H127130   2.124   0.126   1.168  1.5418  0.6607  0.7995
 1857TIP3    H227131   2.094  -0.003   1.242 -0.0371  0.4717 -0.1243
 1858TIP3   OH227132   4.546   0.036   0.408 -0.6034  0.5814 -0.3887
 1858TIP3    H127133   4.533   0.090   0.486 -0.1718 -2.2655  1.8320
 1858TIP3    H227134   4.461  -0.006   0.394 -0.0474 -0.8576  0.2329
 1859TIP3   OH227135   4.026   5.912   7.972  0.0465 -0.5495 -0.5066
 1859TIP3    H127136   4.015   5.823   8.004 -1.9023  0.3715  1.6632
 1859TIP3    H227137   3.962   5.920   7.901 -1.0905 -0.3800  0.5079
 1860TIP3   OH227138   0.390   3.218   0.227 -0.2239 -0.3578  0.1280
 1860TIP3    H127139   0.409   3.126   0.210  1.6848  0.2291 -1.1688
 1860TIP3    H227140   0.458   3.266   0.181 -0.1257  1.6881  2.2041
 1861TIP3   OH227141   3.822   1.790   7.796  0.2406 -0.2436 -0.3335
 1861TIP3    H127142   3.816   1.697   7.816 -0.1157 -0.0164  0.6543
 1861TIP3    H227143   3.837   1.793   7.701 -1.1134 -1.2811 -0.6158
 1862TIP3   OH227144   3.305   1.179   1.445  0.0036  0.2277  0.5465
 1862TIP3    H127145   3.368   1.108   1.464 -2.1025 -1.6780  0.8653
 1862TIP3    H227146   3.279   1.210   1.532  0.5059  1.0537  0.4113
 1863TIP3   OH227147   1.296   5.866   1.073  0.2794 -0.7003 -0.5404
 1863TIP3    H127148   1.335   5.935   1.020  1.0697 -0.3586  0.4452
 1863TIP3    H227149   1.371   5.826   1.119 -0.3757 -0.9535  0.3383
 1864TIP3   OH227150   1.727   5.735   8.416  0.3339 -0.3508 -0.0908
 1864TIP3    H127151   1.786   5.707   8.346  0.1277  1.4149 -1.0217
 1864TIP3    H227152   1.781   5.795   8.469 -0.2184  0.2070 -0.1545
 1865TIP3   OH227153   0.122   2.712   1.611  0.7451  0.5060 -0.1832
 1865TIP3    H127154   0.070   2.632   1.619  1.2630  0.3111  1.8702
 1865TIP3    H227155   0.067   2.780   1.651  0.6799  1.0083 -1.1033
 1866TIP3   OH227156   3.585   4.885   8.379 -0.0266  0.2226  0.2266
 1866TIP3    H127157   3.505   4.846   8.342 -0.7379  0.5186  1.4036
 1866TIP3    H227158   3.557   4.970   8.411  1.1531  1.0384 -0.8172
 1867TIP3   OH227159   3.207   2.420   7.343  0.6477  0.5801 -0.5858
 1867TIP3    H127160   3.210   2.333   7.304 -0.7157  0.7891 -1.2035
 1867TIP3    H227161   3.210   2.405   7.438  0.6734 -0.1129 -0.6959
 1868TIP3   OH227162   1.255   4.263   8.074 -0.0673 -0.4464  0.3842
 1868TIP3    H127163   1.290   4.210   8.002  0.6287 -0.5893  0.8135
 1868TIP3    H227164   1.172   4.297   8.041  1.1201  1.0815 -1.2148
 1869TIP3   OH227165   4.637   1.973   2.004  0.2663  0.7304 -0.1405
 1869TIP3    H127166   4.621   1.951   2.095 -1.1186  0.4295 -0.4356
 1869TIP3    H227167   4.730   1.955   1.991  0.1101 -0.9010  0.7501
 1870TIP3   OH227168   6.477   2.944   1.537 -0.6789 -0.4841  0.1570
 1870TIP3    H127169   6.518   3.006   1.477 -1.2620 -0.6006 -0.3802
 1870TIP3    H227170   6.421   2.890   1.481 -0.3103 -1.3871  0.6372
 1871TIP3   OH227171   4.373   0.788   7.571 -0.0732 -0.6670  0.3212
 1871TIP3    H127172   4.414   0.832   7.496 -1.9707 -1.2086 -1.1228
 1871TIP3    H227173   4.429   0.712   7.586 -1.0387 -2.0455 -2.3631
 1872TIP3   OH227174   3.473   4.355   0.912 -0.0175 -0.1524  0.0977
 1872TIP3    H127175   3.384   4.325   0.928 -0.7764  1.3207 -1.0865
 1872TIP3    H227176   3.516   4.281   0.869 -1.0353 -0.4869 -0.3883
 1873TIP3   OH227177   1.254   0.204   7.457 -0.0328 -0.4713 -0.3342
 1873TIP3    H127178   1.335   0.252   7.471 -0.6302  0.6454 -0.6056
 1873TIP3    H227179   1.221   0.238   7.374 -0.1520 -1.8218 -0.8636
 1874TIP3   OH227180   5.469   5.110   0.122 -0.6219 -0.1450 -0.0529
 1874TIP3    H127181   5.507   5.178   0.065  0.4972 -0.3983  0.3571
 1874TIP3    H227182   5.445   5.157   0.201 -0.4577 -0.1074 -0.0241
 1875TIP3   OH227183   3.231   2.221   6.602 -0.1303 -0.1228 -0.8088
 1875TIP3    H127184   3.305   2.229   6.543  0.1057  0.4061 -0.4471
 1875TIP3    H227185   3.197   2.310   6.611  0.9126  0.1427  1.2096
 1876TIP3   OH227186   3.103   6.596   8.013  0.0832  0.1397 -0.1691
 1876TIP3    H127187   3.183   6.572   7.967 -0.0625 -2.2043  0.6406
 1876TIP3    H227188   3.032   6.564   7.958 -0.2869  1.3117 -0.4045
 1877TIP3   OH227189   4.096   1.289   1.660  0.1147  0.1165  0.7024
 1877TIP3    H127190   4.090   1.309   1.566  0.7412  1.0721  0.8529
 1877TIP3    H227191   4.015   1.324   1.697 -0.3060 -0.5921  0.4734
 1878TIP3   OH227192   6.059   3.955   1.101 -0.6574 -0.0366 -0.2792
 1878TIP3    H127193   6.034   3.976   1.191  1.4676 -1.8577  0.8474
 1878TIP3    H227194   6.124   4.022   1.078 -0.7062  0.0414 -0.1885
 1879TIP3   OH227195   1.527   5.131   0.832 -0.0994 -0.6659 -0.5033
 1879TIP3    H127196   1.599   5.081   0.872  1.5863  1.0730 -1.2152
 1879TIP3    H227197   1.461   5.064   0.812  0.6883 -2.1416  1.4346
 1880TIP3   OH227198   2.192   1.111   0.127  0.0867  0.0025  0.3076
 1880TIP3    H127199   2.238   1.127   0.210  1.2979  1.0863 -0.5297
 1880TIP3    H227200   2.169   1.199   0.096 -2.6598 -0.4808  0.6934
 1881TIP3   OH227201   5.191   6.429   8.234 -0.4198 -0.0901  0.4753
 1881TIP3    H127202   5.256   6.395   8.296 -1.0477 -1.5185  0.3817
 1881TIP3    H227203   5.151   6.351   8.196 -1.5731  0.7695 -0.1255
 1882TIP3   OH227204   1.613   2.196   8.480  0.4693  0.1829 -0.9575
 1882TIP3    H127205   1.568   2.121   8.519 -0.4397  1.8848  1.4883
 1882TIP3    H227206   1.571   2.207   8.395  1.0798 -2.3976 -1.6968
 1883TIP3   OH227207   6.615   4.005   7.982 -0.4542  0.2303  0.0832
 1883TIP3    H127208   6.702   4.009   7.941 -0.3972 -0.2368  0.1515
 1883TIP3    H227209   6.602   3.912   8.001 -0.3882  0.4703  1.3395
 1884TIP3   OH227210   2.488   1.126   2.612  0.0857 -0.6575 -0.8606
 1884TIP3    H127211   2.451   1.176   2.539 -0.6772 -0.6029 -0.4437
 1884TIP3    H227212   2.582   1.124   2.594  0.0598  0.4371 -1.1734
 1885TIP3   OH227213   0.065   1.461   0.681  0.0196  0.3509 -0.2802
 1885TIP3    H127214   0.073   1.522   0.607 -0.6646  1.0713  0.2263
 1885TIP3    H227215   0.149   1.414   0.682  0.5667  1.2873 -0.6840
 1886TIP3   OH227216   2.690   2.452   1.929 -0.1263  0.0226 -0.2500
 1886TIP3    H127217   2.669   2.416   2.015  0.5760  1.6747  0.6548
 1886TIP3    H227218   2.611   2.437   1.877 -0.8722 -0.2482  0.9312
 1887TIP3   OH227219   1.742   1.085   8.323 -0.6991 -0.1798 -0.0723
 1887TIP3    H127220   1.749   1.136   8.404 -0.8094  0.4092 -0.4292
 1887TIP3    H227221   1.831   1.088   8.286 -0.6515 -0.4397  0.0197
 1888TIP3   OH227222   5.324   0.093   0.439 -0.6099 -0.0581 -0.4111
 1888TIP3    H127223   5.287   0.082   0.351 -0.2770 -2.1015 -0.3555
 1888TIP3    H227224   5.419   0.098   0.425 -0.6802  2.5725 -0.3519
 1889TIP3   OH227225   5.975   3.181   0.059  0.2715 -0.0497 -0.5984
 1889TIP3    H127226   5.913   3.182   0.132 -0.9979  1.4814 -1.6156
 1889TIP3    H227227   6.004   3.090   0.052  0.1222 -0.3016  1.5244
 1890TIP3   OH227228   1.860   5.422   0.028 -0.2760  0.4507  0.0245
 1890TIP3    H127229   1.903   5.337   0.027 -0.2072  0.4886 -0.1579
 1890TIP3    H227230   1.849   5.442   0.121 -0.9487 -0.0928  0.0722
 1891TIP3   OH227231   6.073   4.614   1.681 -0.7909  0.2678 -0.1297
 1891TIP3    H127232   5.992   4.588   1.725 -0.4875 -1.0615 -0.3155
 1891TIP3    H227233   6.128   4.535   1.683  1.3212  1.6516  1.7525
 1892TIP3   OH227234   2.352   1.581   2.128 -0.1301  0.2795  0.0859
 1892TIP3    H127235   2.447   1.588   2.137 -0.0307 -0.9565  0.1260
 1892TIP3    H227236   2.323   1.671   2.114  1.1344  0.5896 -0.7591
 1893TIP3   OH227237   5.362   3.975   2.277 -0.1702  0.1879  0.0810
 1893TIP3    H127238   5.338   4.032   2.204 -2.0436 -0.3588  0.2345
 1893TIP3    H227239   5.293   3.987   2.342  0.3099 -0.9683  0.8456
 1894TIP3   OH227240   4.658   5.403   0.064  0.6667 -0.4837 -0.0279
 1894TIP3    H127241   4.651   5.322   0.013  1.5306  0.1460 -1.1890
 1894TIP3    H227242   4.745   5.400   0.103  0.0868 -0.8674  1.3006
 1895TIP3   OH227243   5.118   1.044   1.211 -0.1178  0.2149  0.7916
 1895TIP3    H127244   5.167   1.122   1.237 -0.0634  0.3330  0.3424
 1895TIP3    H227245   5.041   1.078   1.165  1.4262  0.0169 -2.1784
 1896TIP3   OH227246   3.827   5.597   7.793 -0.4795  0.5019  0.8756
 1896TIP3    H127247   3.766   5.569   7.726 -1.0995  1.4546  1.0135
 1896TIP3    H227248   3.909   5.552   7.772 -1.2982 -1.0413  0.8737
 1897TIP3   OH227249   0.754   3.493   1.366 -0.0462 -0.2502 -1.1661
 1897TIP3    H127250   0.823   3.432   1.339 -0.8717 -0.6377 -2.4856
 1897TIP3    H227251   0.677   3.437   1.379 -0.5465  0.3858 -1.3843
 1898TIP3   OH227252   4.028   6.110   0.209  0.1433  0.5460  0.3503
 1898TIP3    H127253   4.010   6.168   0.134  0.2063  0.2484  0.1031
 1898TIP3    H227254   4.107   6.147   0.249  0.2872  0.5271  0.0855
 1899TIP3   OH227255   6.028   0.507   8.367 -0.2007  0.0968  0.0101
 1899TIP3    H127256   5.996   0.473   8.451  1.0966 -1.6437 -0.1405
 1899TIP3    H227257   6.123   0.505   8.374 -0.0669  1.4773 -0.9399
 1900TIP3   OH227258   0.332   0.514   2.176  0.4035 -0.0655  0.0953
 1900TIP3    H127259   0.415   0.527   2.131 -0.0722  1.2576 -0.4522
 1900TIP3    H227260   0.350   0.445   2.239  1.8555  0.0292 -0.1728
 1901TIP3   OH227261   5.227   1.876   1.580  0.0907  0.1606  0.1763
 1901TIP3    H127262   5.207   1.783   1.569 -1.2233  0.5459 -0.9710
 1901TIP3    H227263   5.150   1.922   1.547  1.0019  1.6773  0.0268
 1902TIP3   OH227264   6.483   5.850   0.110  0.2848  0.5037  0.0321
 1902TIP3    H127265   6.464   5.926   0.055  2.0686  0.5353 -0.6059
 1902TIP3    H227266   6.482   5.886   0.199 -1.5697  0.6703 -0.0186
 1903TIP3   OH227267   0.326   0.128   7.532 -0.1529  0.1565  0.2396
 1903TIP3    H127268   0.417   0.157   7.540  0.2946 -0.3015 -2.3332
 1903TIP3    H227269   0.332   0.043   7.489 -1.7949  1.5259 -3.1193
 1904TIP3   OH227270   2.428   1.204   7.451  0.1209  0.0662  0.1107
 1904TIP3    H127271   2.401   1.191   7.360 -1.9138  2.0771  0.3073
 1904TIP3    H227272   2.448   1.117   7.483  0.2752 -0.7711 -2.0814
 1905TIP3   OH227273   3.983   5.876   0.441  0.2032  0.4120  0.0710
 1905TIP3    H127274   4.058   5.820   0.463  0.1688 -1.2984 -3.4738
 1905TIP3    H227275   4.021   5.958   0.411  0.6376 -0.0472 -0.6603
 1906TIP3   OH227276   3.679   0.021   6.959 -0.6383  0.7976 -0.2327
 1906TIP3    H127277   3.756   0.023   6.901 -1.0126  0.1984 -0.7655
 1906TIP3    H227278   3.617   0.082   6.919 -0.0150  2.1846  0.8384
 1907TIP3   OH227279   6.582   5.495   8.281  0.3760 -0.2849  0.2051
 1907TIP3    H127280   6.510   5.449   8.237  0.9649 -1.3001  0.2826
 1907TIP3    H227281   6.644   5.515   8.211  0.3712 -0.0816  0.2587
 1908TIP3   OH227282   3.203   1.398   6.607 -0.0726 -0.1912 -0.0759
 1908TIP3    H127283   3.155   1.349   6.540  0.3825 -0.4137 -0.2423
 1908TIP3    H227284   3.149   1.392   6.685 -0.1648 -0.7051 -0.1790
 1909TIP3   OH227285   1.473   5.574   2.666  0.2963  0.7695  0.3790
 1909TIP3    H127286   1.512   5.505   2.720  0.6092  0.5006 -0.1787
 1909TIP3    H227287   1.419   5.624   2.726 -1.0675 -0.7958  0.5247
 1910TIP3   OH227288   2.122   4.120   8.580  0.0188 -0.2082 -0.3974
 1910TIP3    H127289   2.031   4.093   8.594  0.2484 -1.4869 -1.1946
 1910TIP3    H227290   2.172   4.068   8.643  0.1665  0.8823  0.4105
 1911TIP3   OH227291   4.872   3.590   1.289 -0.3047 -0.1293  0.2229
 1911TIP3    H127292   4.879   3.494   1.290 -1.6786 -0.2473  0.7876
 1911TIP3    H227293   4.957   3.619   1.256 -0.2716 -1.5730 -1.1106
 1912TIP3   OH227294   0.040   1.132   7.700 -0.1010  0.2326 -0.2362
 1912TIP3    H127295   0.087   1.052   7.676  0.9862  1.0714 -1.0146
 1912TIP3    H227296  -0.053   1.111   7.686  0.0806 -1.1935  0.5452
 1913TIP3   OH227297   6.750   3.722   7.546 -0.4026 -0.4246  0.2635
 1913TIP3    H127298   6.793   3.722   7.461 -1.6087 -1.0993 -0.3586
 1913TIP3    H227299   6.812   3.768   7.603  0.2433  0.4218 -1.0545
 1914TIP3   OH227300   0.646   3.349   2.078  0.0773  0.1957 -0.4718
 1914TIP3    H127301   0.664   3.437   2.046 -1.2923  0.7376  0.1769
 1914TIP3    H227302   0.566   3.322   2.033  0.5540 -0.7883 -0.7664
 1915TIP3   OH227303   6.529   4.329   0.385  0.0847  0.1452  0.2455
 1915TIP3    H127304   6.499   4.292   0.302  0.8498 -1.2170  0.5422
 1915TIP3    H227305   6.588   4.400   0.360 -0.2846  0.2480 -0.3560
 1916TIP3   OH227306   5.890   6.475   8.185 -0.0559  0.1233  0.2650
 1916TIP3    H127307   5.821   6.463   8.119 -0.0567  0.6330  0.1659
 1916TIP3    H227308   5.962   6.517   8.137  1.1272 -2.1642 -0.1096
 1917TIP3   OH227309   4.564   4.535   2.037  0.0418 -0.5843  0.1087
 1917TIP3    H127310   4.535   4.489   1.958  0.3471 -0.2701 -0.1925
 1917TIP3    H227311   4.558   4.470   2.106  3.0050 -1.9939 -0.7584
 1918TIP3   OH227312   1.250   0.383   0.609  0.1190 -0.4091 -0.2463
 1918TIP3    H127313   1.238   0.380   0.514  1.6650  0.9318 -0.5311
 1918TIP3    H227314   1.187   0.321   0.643 -0.1624 -1.2612 -2.1865
 1919TIP3   OH227315   4.441   3.563   2.055  0.1225 -0.1477  0.2787
 1919TIP3    H127316   4.392   3.500   2.108 -0.6996 -1.1896 -1.6227
 1919TIP3    H227317   4.377   3.628   2.028  0.6179  0.5985  0.8706
 1920TIP3   OH227318   5.556   0.975   7.276 -0.4354 -0.7680 -0.1507
 1920TIP3    H127319   5.492   0.906   7.295 -0.8324 -0.3158  0.1779
 1920TIP3    H227320   5.641   0.933   7.286 -0.6771 -1.2307 -0.0335
 1921TIP3   OH227321   3.557   4.778   1.213  0.9164 -0.6974  0.7190
 1921TIP3    H127322   3.616   4.807   1.143  1.5947 -0.5638  1.3313
 1921TIP3    H227323   3.520   4.696   1.179  1.5200 -0.8336  0.3485
 1922TIP3   OH227324   1.682   3.884   1.599  0.3824  0.5007  0.8507
 1922TIP3    H127325   1.678   3.827   1.523 -1.3984 -2.1777  2.7797
 1922TIP3    H227326   1.615   3.950   1.582  0.9425  0.7799 -0.4444
 1923TIP3   OH227327   6.337   6.238   0.488 -0.2405  0.6536 -0.2443
 1923TIP3    H127328   6.305   6.237   0.397  0.3398  1.6348 -0.4819
 1923TIP3    H227329   6.267   6.283   0.536 -1.0840 -0.8985  0.0373
 1924TIP3   OH227330   6.311   5.510   1.326 -0.1247 -0.0881  0.0843
 1924TIP3    H127331   6.336   5.539   1.414 -0.1180  0.4948 -0.1005
 1924TIP3    H227332   6.371   5.439   1.305  0.1635  0.0661  0.3807
 1925TIP3   OH227333   0.102   0.016   1.663 -0.1950 -0.3490  0.3841
 1925TIP3    H127334   0.019   0.011   1.616  0.0544 -0.9214 -0.0158
 1925TIP3    H227335   0.153  -0.058   1.629  0.4973  0.0307  0.5742
 1926TIP3   OH227336   6.860   2.518   2.529  0.6116 -0.0946  0.1868
 1926TIP3    H127337   6.893   2.566   2.453  2.4609 -0.8605  0.4520
 1926TIP3    H227338   6.897   2.563   2.604  1.4594 -1.2300  0.4782
 1927TIP3   OH227339   3.431   3.341   0.497  0.1841 -0.4331  0.0514
 1927TIP3    H127340   3.386   3.302   0.572  1.3435 -2.9925 -0.4602
 1927TIP3    H227341   3.499   3.277   0.475  0.5633  0.7420 -2.5148
 1928TIP3   OH227342   0.800   6.134   1.305  0.4422 -0.7895  0.2585
 1928TIP3    H127343   0.834   6.058   1.258  3.2710  1.4511 -1.6770
 1928TIP3    H227344   0.874   6.167   1.355 -0.7277  0.5991  1.1807
 1929TIP3   OH227345   6.551   1.342   7.817  0.1835 -0.6956  0.4863
 1929TIP3    H127346   6.540   1.341   7.722 -0.7639  0.3492  0.5597
 1929TIP3    H227347   6.638   1.304   7.832  1.1384  0.8100 -0.9211
 1930TIP3   OH227348   5.309   5.263   8.321  0.1173 -0.0582 -0.2382
 1930TIP3    H127349   5.371   5.287   8.390 -1.2485  0.1562  0.9618
 1930TIP3    H227350   5.328   5.324   8.250  1.0957  0.1724  0.2019
 1931TIP3   OH227351   0.889   1.588   2.499 -0.0931 -0.1646  0.2488
 1931TIP3    H127352   0.836   1.526   2.548  0.5845 -1.3171 -0.4418
 1931TIP3    H227353   0.979   1.572   2.530  0.2336 -0.3489 -0.7725
 1932TIP3   OH227354   0.265   2.411   0.626 -0.0268  0.3271  0.0981
 1932TIP3    H127355   0.171   2.422   0.641 -0.0766  0.1383 -0.0820
 1932TIP3    H227356   0.306   2.459   0.698 -0.2627 -1.8257  1.7319
 1933TIP3   OH227357   4.642   2.261   1.321 -0.1455 -0.0932 -0.0380
 1933TIP3    H127358   4.692   2.191   1.277 -0.4024  0.4513 -1.2240
 1933TIP3    H227359   4.564   2.273   1.267 -1.0537 -0.1782  1.2033
 1934TIP3   OH227360   0.870   5.798   7.267 -0.2782 -0.0281 -0.2522
 1934TIP3    H127361   0.931   5.858   7.309  0.7555 -0.7075 -0.7593
 1934TIP3    H227362   0.798   5.855   7.238 -0.0612  0.7327  0.6284
 1935TIP3   OH227363   1.593   2.535   0.721 -0.0704  0.0745  0.1141
 1935TIP3    H127364   1.605   2.570   0.633 -0.7972 -1.0774 -0.4647
 1935TIP3    H227365   1.578   2.612   0.776  2.5290  1.0164 -0.3431
 1936TIP3   OH227366   3.678   4.171   2.213  0.4431  0.5455  0.4234
 1936TIP3    H127367   3.728   4.131   2.283 -0.4380 -1.2569  0.0819
 1936TIP3    H227368   3.683   4.265   2.230  2.3321  0.3030  1.4382
 1937TIP3   OH227369   3.869   2.334   1.410 -0.0802 -0.1016  0.2388
 1937TIP3    H127370   3.953   2.290   1.421  0.9970  1.2632 -2.0004
 1937TIP3    H227371   3.870   2.404   1.475 -0.2473 -1.0720  1.3307
 1938TIP3   OH227372   1.451   3.408   2.498 -0.6229  0.0162  0.2164
 1938TIP3    H127373   1.458   3.363   2.582 -1.3794  0.5113  0.5596
 1938TIP3    H227374   1.516   3.366   2.442  1.9971  1.5882  1.8674
 1939TIP3   OH227375   0.800   0.473   0.415  0.1558  0.2429  0.4814
 1939TIP3    H127376   0.718   0.425   0.426 -0.2363  0.9201  0.6041
 1939TIP3    H227377   0.851   0.453   0.493  0.6552 -1.1942 -0.1728
 1940TIP3   OH227378   0.961   4.143   1.566  0.4588  0.6249  0.0240
 1940TIP3    H127379   0.889   4.173   1.510  0.9410  0.6545 -0.5976
 1940TIP3    H227380   0.919   4.111   1.645 -0.5764 -2.3120 -1.5494
 1941TIP3   OH227381   3.258   6.545   1.971  0.1778  0.7199  0.6353
 1941TIP3    H127382   3.223   6.545   1.881 -0.0802 -1.1343  0.6870
 1941TIP3    H227383   3.349   6.515   1.961  0.4719  1.5196  0.8964
 1942TIP3   OH227384   6.720   3.412   8.287 -0.2225 -0.3958  0.1428
 1942TIP3    H127385   6.634   3.408   8.327 -0.8290  0.1935 -1.0439
 1942TIP3    H227386   6.708   3.374   8.200  0.1365  1.8127 -0.9367
 1943TIP3   OH227387   0.302   1.036   2.463 -0.9612 -0.3596 -0.5465
 1943TIP3    H127388   0.366   1.013   2.530  1.4421  0.0893 -2.5264
 1943TIP3    H227389   0.267   1.121   2.491 -1.0394 -0.8180  0.7933
 1944TIP3   OH227390   0.077   2.641   2.103  0.0123 -0.2111 -0.4014
 1944TIP3    H127391   0.070   2.586   2.025 -0.1524 -1.0280  0.1704
 1944TIP3    H227392   0.004   2.702   2.096 -1.2330 -1.5843  0.0919
 1945TIP3   OH227393   4.276   5.579   0.659 -0.5740  0.2011  0.5032
 1945TIP3    H127394   4.320   5.561   0.576 -0.6042  0.3673  0.4511
 1945TIP3    H227395   4.306   5.510   0.718  0.2331  0.6735  0.6525
 1946TIP3   OH227396   5.502   3.778   0.500  0.3525 -0.1116 -0.1025
 1946TIP3    H127397   5.407   3.768   0.495  0.4256 -0.3138 -1.2361
 1946TIP3    H227398   5.535   3.689   0.510  0.4527 -0.0795 -0.1520
 1947TIP3   OH227399   1.550   0.476   7.223  0.6578 -0.8550 -0.4790
 1947TIP3    H127400   1.471   0.466   7.171  0.5461  1.1879 -0.7808
 1947TIP3    H227401   1.622   0.463   7.161  0.5758 -1.6899 -0.4151
 1948TIP3   OH227402   5.667   5.607   7.458  0.0748 -0.7204  0.2303
 1948TIP3    H127403   5.687   5.564   7.375  0.4197 -2.9760  1.4040
 1948TIP3    H227404   5.645   5.536   7.517 -1.2264  0.9128  1.8143
 1949TIP3   OH227405   2.961   4.506   7.127  0.1312  0.5953 -0.2450
 1949TIP3    H127406   2.967   4.579   7.190 -0.5889  0.1498  0.3576
 1949TIP3    H227407   3.034   4.521   7.067  1.9243  0.1171  1.6670
 1950TIP3   OH227408   1.579   3.075   7.652  0.0498  0.1091  0.4463
 1950TIP3    H127409   1.620   3.148   7.605  1.6152 -1.2615 -0.4429
 1950TIP3    H227410   1.618   3.078   7.739  0.7534 -0.1265  0.1531
 1951TIP3   OH227411   4.728   6.495   7.106  0.3728  0.2896  0.2779
 1951TIP3    H127412   4.651   6.471   7.159  0.9740 -0.7809  0.7064
 1951TIP3    H227413   4.723   6.437   7.030  0.2908  0.8293 -0.1320
 1952TIP3   OH227414   1.895   2.001   1.738  0.0665  0.0778  0.7940
 1952TIP3    H127415   1.897   2.079   1.793  0.8919  0.7346 -0.1373
 1952TIP3    H227416   1.918   1.929   1.798 -0.2217  0.6037  1.5530
 1953TIP3   OH227417   6.108   6.629   0.075 -0.2475 -0.6519  0.2147
 1953TIP3    H127418   6.134   6.662  -0.010 -0.1920 -0.3649  0.3427
 1953TIP3    H227419   6.146   6.691   0.138  1.2253 -1.8024  0.5304
 1954TIP3   OH227420   2.593   6.865   0.859 -0.3605  0.0718 -0.0014
 1954TIP3    H127421   2.567   6.950   0.825  1.4561  0.8199  0.3291
 1954TIP3    H227422   2.641   6.824   0.787  0.8841  0.3942  0.6116
 1955TIP3   OH227423   3.638   2.345   1.072 -0.1218  0.7610 -0.1539
 1955TIP3    H127424   3.609   2.394   1.148 -0.3314  0.0936  0.2061
 1955TIP3    H227425   3.572   2.362   1.005  0.2611  1.6504 -0.3209
 1956TIP3   OH227426   6.129   6.380   1.629 -0.2736 -0.0754 -0.5296
 1956TIP3    H127427   6.036   6.393   1.649  0.2030  2.2707  0.4945
 1956TIP3    H227428   6.155   6.458   1.580  1.8904  1.2204  2.3012
 1957TIP3   OH227429   2.890   5.063   7.297  0.1027  0.3610  0.0323
 1957TIP3    H127430   2.843   5.009   7.362  1.3313 -0.4658  0.2622
 1957TIP3    H227431   2.955   5.004   7.260 -0.9232  0.6326 -2.4079
 1958TIP3   OH227432   2.754   6.016   1.013  0.1504 -0.5091  0.0591
 1958TIP3    H127433   2.757   6.025   1.108 -0.4670  1.9076 -0.1022
 1958TIP3    H227434   2.816   5.945   0.994  0.0530 -1.2646  2.2497
 1959TIP3   OH227435   0.270   2.872   0.096  0.0203 -0.1050 -0.2336
 1959TIP3    H127436   0.201   2.806   0.090  0.6697 -0.9251  0.9308
 1959TIP3    H227437   0.224   2.955   0.099 -1.0797 -0.7006  2.3551
 1960TIP3   OH227438   5.306   0.936   7.035  0.2124 -0.6435  0.0174
 1960TIP3    H127439   5.236   0.889   6.989  0.8361  1.0332 -2.8372
 1960TIP3    H227440   5.365   0.867   7.065 -1.9802 -2.0265  1.5363
 1961TIP3   OH227441   3.960   0.056   2.048  0.0287  0.1309  0.5854
 1961TIP3    H127442   4.053   0.044   2.029 -0.4211 -0.2572 -1.6830
 1961TIP3    H227443   3.958   0.125   2.114  2.0148 -1.8987  2.9425
 1962TIP3   OH227444   0.398   2.304   7.581  0.3189  0.5358 -0.1153
 1962TIP3    H127445   0.355   2.298   7.496  1.7978 -0.9912 -0.8164
 1962TIP3    H227446   0.375   2.391   7.614 -2.9014 -0.0054 -0.5942
 1963TIP3   OH227447   6.871   5.855   0.963  0.2348 -0.3252 -0.4184
 1963TIP3    H127448   6.906   5.863   0.874  1.5509 -1.5192 -0.0431
 1963TIP3    H227449   6.776   5.859   0.952  0.4034  0.5891 -1.7512
 1964TIP3   OH227450   1.211   1.064   8.321 -0.0218  0.2885 -0.6340
 1964TIP3    H127451   1.256   1.095   8.242  0.3212  0.3621 -0.4122
 1964TIP3    H227452   1.278   1.015   8.369 -0.8562 -1.9208 -1.5880
 1965TIP3   OH227453   4.033   0.185   1.554  0.2001  0.3999 -0.9936
 1965TIP3    H127454   4.049   0.169   1.461  0.5903 -0.4412 -0.7933
 1965TIP3    H227455   4.079   0.114   1.599  1.2588  1.6255 -0.0823
 1966TIP3   OH227456   3.279   6.527   0.674 -0.0954  0.6324 -0.0106
 1966TIP3    H127457   3.305   6.442   0.639 -1.0077  0.1822  0.3665
 1966TIP3    H227458   3.360   6.578   0.676  0.7458 -0.6748  1.0468
 1967TIP3   OH227459   1.546   4.233   0.593 -0.3279 -0.7703  0.4276
 1967TIP3    H127460   1.607   4.211   0.523 -1.4199 -0.9451 -0.5177
 1967TIP3    H227461   1.490   4.155   0.601  0.5776 -1.2780  2.4333
 1968TIP3   OH227462   2.548   4.918   2.326 -0.5648  0.2104 -0.2875
 1968TIP3    H127463   2.468   4.886   2.284 -1.0603  0.4635  0.4363
 1968TIP3    H227464   2.539   5.014   2.325  0.3272  0.2934 -1.3316
 1969TIP3   OH227465   6.370   0.087   0.115  0.1632  0.5710 -0.1907
 1969TIP3    H127466   6.287   0.093   0.161  0.0936 -2.6101  0.2518
 1969TIP3    H227467   6.434   0.068   0.183  0.8670  0.6607 -0.8205
 1970TIP3   OH227468   3.622   6.125   6.782 -0.1637  0.3139  0.1292
 1970TIP3    H127469   3.591   6.101   6.694 -0.5981  2.8900 -0.5245
 1970TIP3    H227470   3.552   6.181   6.817  1.2380  1.6356  0.9352
 1971TIP3   OH227471   0.306   5.869   1.365 -0.4996 -0.1744  0.2617
 1971TIP3    H127472   0.398   5.874   1.392 -0.4693  1.7999 -0.0235
 1971TIP3    H227473   0.306   5.809   1.290  0.5115 -0.3875  0.4126
 1972TIP3   OH227474   3.127   4.908   2.293  0.2470 -0.7673 -0.4775
 1972TIP3    H127475   3.197   4.909   2.228  1.0756  1.7376  0.3579
 1972TIP3    H227476   3.165   4.950   2.370 -1.7842 -0.4963  0.4443
 1973TIP3   OH227477   5.393   2.066   6.726 -0.4038  0.6044  0.3252
 1973TIP3    H127478   5.449   2.123   6.674  1.1489 -1.9573 -1.0164
 1973TIP3    H227479   5.310   2.065   6.678 -0.5255  1.8236  0.4775
 1974TIP3   OH227480   2.418   5.307   2.191 -0.4767 -0.5779  0.7762
 1974TIP3    H127481   2.453   5.389   2.155  0.1878 -1.0303  0.3705
 1974TIP3    H227482   2.324   5.321   2.194 -0.3770  0.1896  0.6756
 1975TIP3   OH227483   0.484   6.624   7.875 -0.2099 -0.3991  0.0544
 1975TIP3    H127484   0.487   6.688   7.803  0.6588 -1.1840 -0.6287
 1975TIP3    H227485   0.557   6.649   7.932 -0.5772 -0.0937  0.3951
 1976TIP3   OH227486   2.688   2.338   0.716 -0.0568 -0.1322 -0.5724
 1976TIP3    H127487   2.669   2.337   0.622  0.2825  0.6045 -0.6505
 1976TIP3    H227488   2.646   2.259   0.749  0.2407 -0.6632 -1.4274
 1977TIP3   OH227489   1.829   0.836   1.037  0.5828  0.3793 -0.3394
 1977TIP3    H127490   1.841   0.875   1.124  0.3125 -0.9221  0.3058
 1977TIP3    H227491   1.893   0.765   1.034 -1.8458 -2.0083  0.3229
 1978TIP3   OH227492   6.716   6.121   7.190 -0.0562 -0.5499  0.2212
 1978TIP3    H127493   6.721   6.110   7.095 -1.4144 -1.4892  0.2316
 1978TIP3    H227494   6.624   6.106   7.211  0.3302 -0.9307  1.7679
 1979TIP3   OH227495   0.087   0.956   1.616 -0.3739 -0.1325  0.0353
 1979TIP3    H127496   0.056   1.034   1.570  0.1986 -0.3283 -0.7154
 1979TIP3    H227497   0.119   0.989   1.700 -0.0771  0.4660 -0.3008
 1980TIP3   OH227498   2.602   0.840   2.748  0.1362 -0.0188 -0.1633
 1980TIP3    H127499   2.566   0.890   2.675 -2.2085 -1.3554 -0.0302
 1980TIP3    H227500   2.619   0.906   2.816  1.0506  1.0627 -1.4033
 1981TIP3   OH227501   0.490   3.325   8.583  0.1191  0.3113 -0.4319
 1981TIP3    H127502   0.427   3.257   8.561  0.3121 -0.0277  0.0414
 1981TIP3    H227503   0.476   3.393   8.517  0.1794 -0.3467 -1.1402
 1982TIP3   OH227504   2.322   0.920   7.523 -0.2275 -0.2855  0.9970
 1982TIP3    H127505   2.340   0.930   7.616 -0.5134 -2.8487  1.4085
 1982TIP3    H227506   2.228   0.903   7.518 -0.5238  1.4414  0.0371
 1983TIP3   OH227507   2.481   3.370   1.994 -0.2954 -0.4456  0.4138
 1983TIP3    H127508   2.526   3.411   2.068  0.8132 -1.0769  0.1035
 1983TIP3    H227509   2.514   3.281   1.992  0.1530 -0.2711 -1.2087
 1984TIP3   OH227510   5.504   2.166   7.834 -0.5867 -0.5787 -0.1287
 1984TIP3    H127511   5.459   2.083   7.819 -1.4060 -0.1498 -0.1037
 1984TIP3    H227512   5.540   2.158   7.922 -0.8935 -0.8027 -0.0227
 1985TIP3   OH227513   6.109   0.666   7.591  0.0549  0.4843  0.0244
 1985TIP3    H127514   6.182   0.638   7.535 -0.4710  1.3749 -1.1531
 1985TIP3    H227515   6.031   0.648   7.539 -0.3472  3.5700 -0.6634
 1986TIP3   OH227516   1.972   1.018   7.984  0.1666  0.2776 -0.7163
 1986TIP3    H127517   1.894   1.075   7.983 -0.8949 -1.1137 -0.9535
 1986TIP3    H227518   1.953   0.953   8.052  0.8631 -0.4406 -1.1950
 1987TIP3   OH227519   2.783   3.843   1.260  0.0723  0.3931 -0.4891
 1987TIP3    H127520   2.709   3.851   1.199 -1.0629 -1.8015  0.4751
 1987TIP3    H227521   2.796   3.749   1.269  0.0101  0.5919  2.8372
 1988TIP3   OH227522   1.757   4.582   1.190  0.8404  0.0826  0.3014
 1988TIP3    H127523   1.701   4.546   1.121  1.4543 -0.2673 -0.0184
 1988TIP3    H227524   1.727   4.673   1.199 -0.5618 -0.4087  0.9593
 1989TIP3   OH227525   4.594   5.841   1.974  0.1866 -0.1313 -0.8346
 1989TIP3    H127526   4.598   5.933   1.951  4.1753  0.4858  1.3983
 1989TIP3    H227527   4.634   5.795   1.900  3.7823  0.7783  0.3145
 1990TIP3   OH227528   1.095   3.484   1.079 -0.2449 -0.3737  0.4829
 1990TIP3    H127529   1.157   3.473   1.151 -0.1466  0.4755  0.5346
 1990TIP3    H227530   1.066   3.395   1.059 -0.0071 -0.6540  1.3334
 1991TIP3   OH227531   3.609   6.881   1.166 -0.2970  0.1886  0.1282
 1991TIP3    H127532   3.562   6.882   1.249 -0.8355  0.5703 -0.1737
 1991TIP3    H227533   3.552   6.928   1.106 -0.5208 -1.1832 -0.7891
 1992TIP3   OH227534   4.667   6.830   2.487 -0.3278  0.2844 -0.7930
 1992TIP3    H127535   4.646   6.743   2.452 -0.7926  0.3176 -0.6050
 1992TIP3    H227536   4.748   6.817   2.535 -0.9797 -0.2931  0.1766
 1993TIP3   OH227537   3.096   6.403   7.479  0.1797 -0.2026  0.6564
 1993TIP3    H127538   3.037   6.340   7.438 -0.6461 -0.9454  2.8641
 1993TIP3    H227539   3.175   6.401   7.424 -0.5351 -1.7459 -0.3818
 1994TIP3   OH227540   5.099   3.571   2.090  0.0761 -0.3426 -0.4881
 1994TIP3    H127541   5.142   3.516   2.155 -0.0926  0.5925  0.4466
 1994TIP3    H227542   5.139   3.657   2.101 -1.5472  0.3915 -0.0421
 1995TIP3   OH227543   4.719   2.220   6.447  0.6368 -0.1613 -0.2299
 1995TIP3    H127544   4.673   2.237   6.365  2.9933 -0.1081 -1.6307
 1995TIP3    H227545   4.652   2.181   6.504 -1.6445  1.8645 -1.3422
 1996TIP3   OH227546   0.753   6.162   7.374  0.6478  0.3700  0.2530
 1996TIP3    H127547   0.826   6.212   7.335 -0.0452  0.6933 -0.6917
 1996TIP3    H227548   0.748   6.193   7.464  1.6312  0.3934  0.3121
 1997TIP3   OH227549   5.584   2.882   7.418 -0.1326 -0.6293 -0.3089
 1997TIP3    H127550   5.560   2.876   7.325 -1.5660  0.2645 -0.0298
 1997TIP3    H227551   5.587   2.976   7.435  0.1735 -0.7892  0.5464
 1998TIP3   OH227552   3.359   5.866   8.051  0.6824 -0.1418  0.5831
 1998TIP3    H127553   3.292   5.923   8.088  0.4869  0.2913 -0.4020
 1998TIP3    H227554   3.319   5.830   7.972  0.9503 -1.3459  0.9688
 1999TIP3   OH227555   6.642   2.599   8.137  0.5821  0.4868  0.6322
 1999TIP3    H127556   6.643   2.640   8.051 -0.4068 -1.3857 -0.3335
 1999TIP3    H227557   6.733   2.575   8.154  0.5135 -0.9042 -0.8150
 2000TIP3   OH227558   0.215   3.322   2.873 -0.3384  0.7404 -0.4287
 2000TIP3    H127559   0.151   3.256   2.847 -1.4425  1.7500 -0.3752
 2000TIP3    H227560   0.200   3.395   2.813  0.7685  1.0034 -0.4030
 2001TIP3   OH227561   2.421   0.732   1.103 -0.2130  0.4518 -0.3320
 2001TIP3    H127562   2.498   0.788   1.094 -0.6722  1.2925  0.7825
 2001TIP3    H227563   2.456   0.645   1.121  0.4992  0.3894 -1.8194
 2002TIP3   OH227564   6.331   1.045   7.397  0.0092 -0.0654 -0.1214
 2002TIP3    H127565   6.282   1.019   7.475  0.1687  2.8748  1.0930
 2002TIP3    H227566   6.375   0.965   7.368 -1.5070 -1.6507  1.6961
 2003TIP3   OH227567   3.534   5.170   0.177  0.5664 -0.0566  0.3083
 2003TIP3    H127568   3.480   5.229   0.230  0.5586 -0.1205  0.3700
 2003TIP3    H227569   3.623   5.184   0.209  0.1445 -3.3933  3.5227
 2004TIP3   OH227570   4.789   3.705   1.799  0.0017  0.0265  0.2943
 2004TIP3    H127571   4.878   3.741   1.801 -0.4889  1.3048  0.2896
 2004TIP3    H227572   4.754   3.721   1.886 -0.4947  0.2895  0.0556
 2005TIP3   OH227573   4.161   2.224   6.275 -0.2944 -0.4291 -0.2510
 2005TIP3    H127574   4.090   2.259   6.330 -0.6285 -3.5692  1.5221
 2005TIP3    H227575   4.235   2.214   6.334  1.0610  0.9076 -1.6391
 2006TIP3   OH227576   2.609   2.762   7.956  0.3075 -0.0509 -0.6894
 2006TIP3    H127577   2.618   2.855   7.977  0.4063 -0.0266 -0.8422
 2006TIP3    H227578   2.699   2.729   7.957  0.1656 -0.5288  1.1428
 2007TIP3   OH227579   3.797   0.539   6.943 -0.0513  0.3698 -0.0317
 2007TIP3    H127580   3.872   0.590   6.973  0.2714  0.5658 -1.1397
 2007TIP3    H227581   3.729   0.604   6.926 -0.8869  0.1130  2.0274
 2008TIP3   OH227582   2.413   0.801   2.439 -0.8006  0.0466  0.3108
 2008TIP3    H127583   2.327   0.816   2.479 -0.9910  0.2585 -0.1751
 2008TIP3    H227584   2.395   0.745   2.364 -0.2791 -1.4354  1.2448
 2009TIP3   OH227585   6.276   2.020   0.958  0.2924  0.1748 -0.2067
 2009TIP3    H127586   6.335   2.065   0.898  1.2083 -1.1116 -0.3164
 2009TIP3    H227587   6.293   2.058   1.044  2.0007 -0.8175 -0.0694
 2010TIP3   OH227588   2.741   1.864   7.251  0.0116  0.3241  0.3261
 2010TIP3    H127589   2.776   1.781   7.283  0.0596  0.4213  0.5311
 2010TIP3    H227590   2.660   1.877   7.301  1.2653  1.6213  2.1630
 2011TIP3   OH227591   4.534   3.961   8.535 -0.1007  0.0709  0.1325
 2011TIP3    H127592   4.515   4.035   8.593  0.4824  0.2766  0.0692
 2011TIP3    H227593   4.499   3.988   8.450  0.1224  0.2927  0.1051
 2012TIP3   OH227594   4.860   4.060   8.205  0.3195 -0.6319 -0.2334
 2012TIP3    H127595   4.905   3.976   8.212  1.3857  0.0162  0.9979
 2012TIP3    H227596   4.884   4.092   8.118  1.0340 -0.9848 -0.1772
 2013TIP3   OH227597   6.418   6.609   1.802  0.4174  0.3619 -0.5622
 2013TIP3    H127598   6.444   6.610   1.710 -1.7914  2.0794 -1.2696
 2013TIP3    H227599   6.405   6.701   1.824  1.5844  0.0506  1.7382
 2014TIP3   OH227600   3.545   5.225   1.392 -0.3134  0.3715 -0.2865
 2014TIP3    H127601   3.615   5.165   1.419 -0.4155 -0.6060 -2.0615
 2014TIP3    H227602   3.589   5.289   1.336 -0.3309  1.5854  1.0403
 2015TIP3   OH227603   2.091   2.678   7.615 -0.0258 -0.1093 -0.3338
 2015TIP3    H127604   2.085   2.665   7.709 -0.9248  0.7775 -0.2548
 2015TIP3    H227605   2.110   2.591   7.580 -1.7757 -0.8671  0.4977
 2016TIP3   OH227606   4.274   5.368   1.518  0.6856 -0.2127 -0.2582
 2016TIP3    H127607   4.198   5.315   1.537 -0.3265 -0.0676 -3.3413
 2016TIP3    H227608   4.348   5.307   1.519  0.1551 -0.8472  0.2709
 2017TIP3   OH227609   5.510   3.134   7.324  0.0675 -0.3683 -0.2196
 2017TIP3    H127610   5.552   3.210   7.284  0.1655 -0.6398 -0.6420
 2017TIP3    H227611   5.484   3.080   7.249 -1.3916 -0.0196  0.0046
 2018TIP3   OH227612   0.436   3.754   7.147  0.1941 -0.4304 -0.6423
 2018TIP3    H127613   0.380   3.732   7.222 -0.7817 -3.4837 -2.0871
 2018TIP3    H227614   0.375   3.763   7.074  1.3319 -0.7413 -1.6609
 2019TIP3   OH227615   4.535   5.976   7.153 -0.2250 -0.0243 -0.4555
 2019TIP3    H127616   4.550   5.926   7.072  1.1178  0.3383 -0.4417
 2019TIP3    H227617   4.518   6.065   7.123  2.0113  0.4990 -0.2994
 2020TIP3   OH227618   4.029   0.838   1.104  0.2482  0.7205  0.5284
 2020TIP3    H127619   4.022   0.854   1.010 -0.5841  1.7638  0.7490
 2020TIP3    H227620   3.990   0.915   1.145 -0.5101 -0.2473  1.7245
 2021TIP3   OH227621   5.017   4.895   8.349 -0.6126  0.5424 -0.4140
 2021TIP3    H127622   5.098   4.940   8.373 -1.2358  1.8494 -0.6179
 2021TIP3    H227623   5.032   4.803   8.371  0.4681  0.9571  0.7158
 2022TIP3   OH227624   4.629   0.506   2.113  0.0326 -0.0851  0.4707
 2022TIP3    H127625   4.695   0.437   2.112 -0.1258 -0.3827  3.1302
 2022TIP3    H227626   4.678   0.587   2.106  0.4819 -0.3691  0.3188
 2023TIP3   OH227627   5.812   4.783   1.926 -0.5746  0.0493 -0.6251
 2023TIP3    H127628   5.751   4.812   1.994 -0.4241  3.1436 -1.6473
 2023TIP3    H227629   5.898   4.812   1.958 -0.0618 -1.2876 -0.7413
 2024TIP3   OH227630   5.595   4.825   0.657 -0.0571 -0.0471 -0.1072
 2024TIP3    H127631   5.641   4.757   0.706  1.1842  0.7104 -0.1786
 2024TIP3    H227632   5.531   4.777   0.605  0.3409 -1.1011  0.3417
 2025TIP3   OH227633   1.992   4.080   0.624  0.6164 -0.7556 -0.1795
 2025TIP3    H127634   2.033   4.001   0.659  1.0019  0.9003  3.5304
 2025TIP3    H227635   1.916   4.094   0.679  0.9330  1.7832 -0.2738
 2026TIP3   OH227636   2.919   5.876   8.260 -0.1338  0.3090  0.0456
 2026TIP3    H127637   2.847   5.923   8.219  0.2437  1.5003  0.7161
 2026TIP3    H227638   2.991   5.939   8.260  1.3351 -1.2266 -1.7513
 2027TIP3   OH227639   4.171   5.135   7.778  0.3190  1.3154 -0.1075
 2027TIP3    H127640   4.080   5.134   7.749  0.1317  2.3146  0.4043
 2027TIP3    H227641   4.189   5.045   7.806 -0.1053  0.8045 -1.4017
 2028TIP3   OH227642   1.461   0.090   0.051  0.0465  0.1848  0.2417
 2028TIP3    H127643   1.483   0.177   0.018 -1.3376  2.0996  3.8248
 2028TIP3    H227644   1.366   0.085   0.046 -0.0660 -0.1842  1.9558
 2029TIP3   OH227645   4.619   1.796   1.616  0.2211 -0.5464 -0.2054
 2029TIP3    H127646   4.578   1.771   1.533 -1.0789  0.5312  0.0843
 2029TIP3    H227647   4.663   1.878   1.597  0.3929 -0.5795  0.0400
 2030TIP3   OH227648   3.256   3.822   2.420  0.2044  0.0691 -0.7158
 2030TIP3    H127649   3.314   3.890   2.385  0.4646 -0.8798 -2.2376
 2030TIP3    H227650   3.266   3.749   2.359 -2.0849 -0.3779 -0.6485
 2031TIP3   OH227651   1.288   1.401   8.183 -0.2020 -0.4266  0.5943
 2031TIP3    H127652   1.363   1.342   8.175  0.5218  0.6637 -1.2733
 2031TIP3    H227653   1.322   1.478   8.228 -0.7061 -0.6653  1.4205
 2032TIP3   OH227654   2.757   0.281   0.364  0.4339 -0.4311  0.0501
 2032TIP3    H127655   2.701   0.301   0.439 -0.3047 -0.5072 -0.4711
 2032TIP3    H227656   2.828   0.228   0.400  0.7243  0.5066  0.8949
 2033TIP3   OH227657   1.407   2.397   2.566  0.3029 -0.0259 -0.1551
 2033TIP3    H127658   1.395   2.423   2.475  0.4792  0.7407  0.0358
 2033TIP3    H227659   1.348   2.323   2.577 -2.7319  2.2512  0.1495
 2034TIP3   OH227660   4.524   3.121   2.334  0.1675 -0.2533  0.0920
 2034TIP3    H127661   4.488   3.114   2.246  0.8673  0.0913 -0.2288
 2034TIP3    H227662   4.449   3.143   2.389 -0.0990  0.5419 -0.5707
 2035TIP3   OH227663   6.801   1.301   1.994  0.1893 -0.5149  0.4168
 2035TIP3    H127664   6.824   1.261   2.078 -0.7158  1.8471  1.8713
 2035TIP3    H227665   6.854   1.380   1.990 -0.5985 -0.0322 -0.7315
 2036TIP3   OH227666   1.470   2.837   7.145  0.0525  0.1318  0.1318
 2036TIP3    H127667   1.548   2.800   7.186  0.3834  0.1301 -0.4903
 2036TIP3    H227668   1.408   2.764   7.143  0.6220 -0.3549 -0.8733
 2037TIP3   OH227669   0.754   1.817   8.328  0.4188 -0.8381  0.8738
 2037TIP3    H127670   0.781   1.854   8.412 -1.1779  1.6173  0.4260
 2037TIP3    H227671   0.836   1.794   8.284  1.6297  2.2733  1.2397
 2038TIP3   OH227672   3.091   2.983   6.182 -0.0970 -0.0445  0.6777
 2038TIP3    H127673   3.076   3.001   6.274 -0.8143  0.9308  0.3911
 2038TIP3    H227674   3.129   2.896   6.180  0.9022  0.3287  1.9651
 2039TIP3   OH227675   1.649   2.496   7.027 -0.4137 -0.1161 -0.1529
 2039TIP3    H127676   1.589   2.508   6.954 -2.0406  0.2166  1.1701
 2039TIP3    H227677   1.689   2.410   7.013  0.4859  0.5800 -2.1998
 2040TIP3   OH227678   3.362   5.915   1.358 -0.4385 -0.1817 -0.1079
 2040TIP3    H127679   3.320   5.834   1.331  0.6443 -0.4778 -0.9708
 2040TIP3    H227680   3.356   5.972   1.281  0.9680 -0.3374 -0.3575
 2041TIP3   OH227681   0.328   3.072   1.468  0.2593 -1.0469 -0.2009
 2041TIP3    H127682   0.387   3.001   1.495 -0.0259 -1.6341 -1.0736
 2041TIP3    H227683   0.308   3.053   1.376 -3.1507 -2.2499  0.6231
 2042TIP3   OH227684   2.597   3.682   1.555  0.1201  0.3246  0.0876
 2042TIP3    H127685   2.542   3.615   1.516  0.3190 -0.9179  1.8594
 2042TIP3    H227686   2.679   3.678   1.505 -0.7221  1.0144 -1.4297
 2043TIP3   OH227687   4.203   6.561   1.107  0.0665 -0.5552  0.0117
 2043TIP3    H127688   4.216   6.487   1.049 -0.5229  0.0981 -0.9753
 2043TIP3    H227689   4.291   6.598   1.118  0.2274 -0.8805 -0.1791
 2044TIP3   OH227690   2.588   3.835   1.039  0.3637  0.5199  0.3070
 2044TIP3    H127691   2.580   3.740   1.036  0.2420  0.4318  2.3067
 2044TIP3    H227692   2.660   3.855   0.979  1.9525 -1.0657  1.5797
 2045TIP3   OH227693   4.666   4.780   2.117  0.2142  0.2326 -0.4935
 2045TIP3    H127694   4.641   4.745   2.202 -0.5445  0.7083 -0.5077
 2045TIP3    H227695   4.653   4.707   2.056 -3.9767  1.1234 -0.9706
 2046TIP3   OH227696   0.822   1.062   0.886 -0.2057 -0.1882  0.0286
 2046TIP3    H127697   0.775   1.003   0.827  0.3687  1.0561 -1.7892
 2046TIP3    H227698   0.907   1.075   0.844 -0.0152  1.2691  0.7866
 2047TIP3   OH227699   0.514   5.545   7.673 -0.1587  0.1968  0.1397
 2047TIP3    H127700   0.428   5.587   7.669 -0.3834 -0.3205 -1.0839
 2047TIP3    H227701   0.524   5.517   7.764 -1.8055 -0.7908  0.0542
 2048TIP3   OH227702   5.367   2.150   8.107 -0.2530 -0.7013  0.3680
 2048TIP3    H127703   5.335   2.122   8.192  0.3338 -1.5468  0.3219
 2048TIP3    H227704   5.462   2.155   8.117 -0.1888 -0.6760 -0.1873
 2049TIP3   OH227705   4.244   2.462   6.541 -0.3373  0.2485 -0.3763
 2049TIP3    H127706   4.269   2.376   6.576 -1.1170  0.7157  1.4375
 2049TIP3    H227707   4.327   2.500   6.511  0.2712 -0.4498  0.3669
 2050TIP3   OH227708   1.836   0.953   1.863 -0.3380  0.9754 -0.2513
 2050TIP3    H127709   1.873   0.872   1.827 -0.8354  0.5614  0.1638
 2050TIP3    H227710   1.898   0.979   1.931 -1.3618 -0.3666  1.2768
 2051TIP3   OH227711   4.790   1.738   0.981 -0.8450 -0.0589  0.7797
 2051TIP3    H127712   4.695   1.750   0.981 -1.1626 -2.1692  0.3135
 2051TIP3    H227713   4.820   1.778   1.063 -2.2636 -0.1779  1.3782
 2052TIP3   OH227714   2.353   4.721   0.441  0.5823  0.0077  0.0678
 2052TIP3    H127715   2.349   4.704   0.535 -0.1157 -0.9304 -0.1229
 2052TIP3    H227716   2.318   4.810   0.432  1.8911  0.6289  0.8138
 2053TIP3   OH227717   4.076   5.497   0.171  0.3444 -0.1611  0.2861
 2053TIP3    H127718   4.083   5.510   0.077 -1.3771 -0.9356  0.0244
 2053TIP3    H227719   4.158   5.534   0.206  1.2359 -0.2957 -1.5295
 2054TIP3   OH227720   3.567   2.873   7.620 -0.1227  0.3583 -0.2546
 2054TIP3    H127721   3.558   2.786   7.659  0.1210  0.1527 -0.6577
 2054TIP3    H227722   3.485   2.887   7.573  0.2683 -0.1020 -1.0841
 2055TIP3   OH227723   2.128   1.251   2.705  0.0995 -0.0849 -0.1202
 2055TIP3    H127724   2.102   1.249   2.613  1.0828  2.1524 -0.5216
 2055TIP3    H227725   2.201   1.189   2.710  1.0882  0.9307 -1.2581
 2056TIP3   OH227726   1.673   3.746   0.478  0.4129 -0.5795  0.5401
 2056TIP3    H127727   1.715   3.662   0.493 -1.3601 -2.4389 -3.5027
 2056TIP3    H227728   1.730   3.791   0.415 -0.9859 -0.9678 -1.0867
 2057TIP3   OH227729   6.301   2.652   7.113 -0.2863  0.3036  0.1553
 2057TIP3    H127730   6.360   2.621   7.045 -0.9979 -2.8809  0.8283
 2057TIP3    H227731   6.359   2.686   7.181  0.6425 -0.1714 -0.3816
 2058TIP3   OH227732   1.877   4.200   6.780 -0.4028  0.3830  0.3959
 2058TIP3    H127733   1.853   4.107   6.782 -0.4236  0.3841  0.1903
 2058TIP3    H227734   1.936   4.207   6.705 -1.2387  0.7437 -0.2366
 2059TIP3   OH227735   2.473   1.414   8.558 -0.6200  0.4022  0.6316
 2059TIP3    H127736   2.410   1.364   8.507 -0.3229 -1.6790  2.1740
 2059TIP3    H227737   2.433   1.500   8.568 -1.9641 -0.0314 -0.6584
 2060TIP3   OH227738   0.321   2.160   0.503 -0.2966  0.0358 -0.2283
 2060TIP3    H127739   0.249   2.114   0.460 -1.5419  0.8297  0.9103
 2060TIP3    H227740   0.294   2.252   0.503  0.9745  0.4299 -0.2420
 2061TIP3   OH227741   1.418   4.265   0.833 -0.1346  0.0876  0.3482
 2061TIP3    H127742   1.385   4.354   0.818  0.9496  1.0581  3.0601
 2061TIP3    H227743   1.471   4.246   0.756 -0.1774  1.9108 -0.1825
 2062TIP3   OH227744   1.878   5.919   1.533  0.4944 -0.2744  0.2205
 2062TIP3    H127745   1.969   5.910   1.503  0.3911  3.0940 -1.5757
 2062TIP3    H227746   1.877   6.002   1.580 -1.6396 -0.2505  0.2124
 2063TIP3   OH227747   0.143   2.939   1.282  0.0336 -0.4641 -0.3256
 2063TIP3    H127748   0.154   2.980   1.196  0.1429  0.0968 -0.0483
 2063TIP3    H227749   0.200   2.862   1.280 -0.1591 -0.5957 -0.8463
 2064TIP3   OH227750   4.277   4.622   7.850  0.0946  0.1291  0.7871
 2064TIP3    H127751   4.301   4.575   7.929  0.4677 -0.0753  0.5577
 2064TIP3    H227752   4.357   4.622   7.797  0.0182  0.7724  0.6598
 2065TIP3   OH227753   5.417   5.518   8.158 -0.4610 -0.0679  0.3380
 2065TIP3    H127754   5.367   5.539   8.078  0.4703 -0.6728 -0.4207
 2065TIP3    H227755   5.494   5.472   8.126  0.3673  0.4627  1.5360
 2066TIP3   OH227756   3.994   4.333   1.150 -0.5116  0.2364  0.6339
 2066TIP3    H127757   4.047   4.266   1.195  0.1801  2.1935  2.9126
 2066TIP3    H227758   3.971   4.395   1.218 -1.2723  2.2621 -1.3634
 2067TIP3   OH227759   6.470   5.901   1.496  0.0481 -0.4146  0.6751
 2067TIP3    H127760   6.484   5.993   1.521 -1.6280 -0.2380  1.0990
 2067TIP3    H227761   6.545   5.855   1.534  2.0850  1.0164 -1.3522
 2068TIP3   OH227762   6.133   3.393   8.447 -0.8617  0.7308  0.2093
 2068TIP3    H127763   6.140   3.418   8.539  0.2739  0.2559  0.2723
 2068TIP3    H227764   6.211   3.433   8.406 -1.2663  0.7958 -0.5138
 2069TIP3   OH227765   2.648   5.680   0.234 -0.1175  0.0031  0.5276
 2069TIP3    H127766   2.555   5.666   0.252  0.2987 -0.3771  2.7707
 2069TIP3    H227767   2.649   5.733   0.155 -2.1670 -1.4413 -0.5749
 2070TIP3   OH227768   5.988   6.578   7.662 -0.0707  0.2893 -0.4327
 2070TIP3    H127769   5.932   6.512   7.622  0.5619 -0.5613  0.0688
 2070TIP3    H227770   5.965   6.576   7.755 -1.3466  2.0695 -0.6615
 2071TIP3   OH227771   1.962   3.726   7.411 -0.0283  0.0528 -0.8701
 2071TIP3    H127772   1.952   3.760   7.500  2.1665  0.8199 -0.8688
 2071TIP3    H227773   1.938   3.633   7.418  1.7023 -0.3263  0.9054
 2072TIP3   OH227774   4.748   1.590   0.536 -0.0163  0.4409 -0.1235
 2072TIP3    H127775   4.812   1.539   0.585 -1.6039 -1.6464 -0.1235
 2072TIP3    H227776   4.758   1.679   0.570 -0.0606 -0.6279  3.0134
 2073TIP3   OH227777   5.924   1.267   7.178 -0.0321  0.0528  0.0044
 2073TIP3    H127778   5.865   1.277   7.253  0.8164  0.1241  0.6799
 2073TIP3    H227779   5.963   1.180   7.190  0.0856  0.0531 -0.3709
 2074TIP3   OH227780   5.342   6.391   0.571 -0.3365  0.6391  0.6032
 2074TIP3    H127781   5.313   6.477   0.600 -2.6186 -0.3681  1.5267
 2074TIP3    H227782   5.303   6.380   0.484  0.5146  0.7919  0.1936
 2075TIP3   OH227783   4.162   4.238   7.609 -0.6322 -0.3868 -0.7645
 2075TIP3    H127784   4.109   4.160   7.594 -1.6720  0.3545 -1.0681
 2075TIP3    H227785   4.100   4.304   7.639  0.1805  0.4083 -0.7752
 2076TIP3   OH227786   3.577   3.754   1.264 -0.0172 -0.4829 -0.2849
 2076TIP3    H127787   3.613   3.675   1.304  0.8734  0.3408  0.5829
 2076TIP3    H227788   3.641   3.779   1.197 -1.4083 -1.7500 -2.2123
 2077TIP3   OH227789   2.581   5.320   0.516 -0.1471  0.1157 -0.0338
 2077TIP3    H127790   2.640   5.322   0.441  1.3998  0.5340  1.1351
 2077TIP3    H227791   2.628   5.270   0.582 -1.0574  0.5537  0.9780
 2078TIP3   OH227792   3.626   0.676   0.638  0.5381 -0.3813 -0.8431
 2078TIP3    H127793   3.663   0.744   0.696  2.4547 -2.7300  0.8981
 2078TIP3    H227794   3.691   0.668   0.567  0.2890 -0.3599 -1.0736
 2079TIP3   OH227795   5.740   6.849   2.496 -0.1548 -0.6322  0.3968
 2079TIP3    H127796   5.697   6.843   2.581  0.6066  1.2932  0.9568
 2079TIP3    H227797   5.770   6.760   2.478 -1.1204 -1.2476  1.6966
 2080TIP3   OH227798   1.587   5.984   0.278 -0.1022  0.4139  0.0255
 2080TIP3    H127799   1.557   6.075   0.268 -0.3583  0.4499  0.9963
 2080TIP3    H227800   1.546   5.937   0.205  0.7166  1.2274 -0.9924
 2081TIP3   OH227801   5.661   2.280   7.175 -0.5374 -0.3406  0.2268
 2081TIP3    H127802   5.744   2.299   7.219 -0.5995 -0.3752  0.3584
 2081TIP3    H227803   5.638   2.192   7.205  0.6408 -1.3810 -1.7241
 2082TIP3   OH227804   4.881   3.434   7.406  0.2125 -0.1491  0.5066
 2082TIP3    H127805   4.793   3.446   7.441  0.6378  1.0812  1.2216
 2082TIP3    H227806   4.923   3.372   7.466  0.6067  1.1652  1.6327
 2083TIP3   OH227807   1.971   3.810   0.909 -0.1135 -0.4117 -0.2437
 2083TIP3    H127808   1.997   3.890   0.955  1.3335 -1.9615  1.7882
 2083TIP3    H227809   1.878   3.823   0.889  0.4161  2.3895 -1.4220
 2084TIP3   OH227810   3.953   6.166   8.063 -0.3145 -0.7522  0.2753
 2084TIP3    H127811   3.880   6.184   8.004 -1.4521  2.2197  2.3666
 2084TIP3    H227812   3.977   6.075   8.044 -3.2624 -1.2277 -1.8386
 2085TIP3   OH227813   1.266   0.610   0.269 -0.4381 -0.9207  0.5466
 2085TIP3    H127814   1.316   0.660   0.334 -0.2478 -1.0224  0.4804
 2085TIP3    H227815   1.177   0.643   0.276 -0.0941  0.2745 -0.3051
 2086TIP3   OH227816   5.402   2.525   0.210 -0.7463  0.2591 -0.3150
 2086TIP3    H127817   5.478   2.540   0.266  1.9982 -3.0010 -2.7315
 2086TIP3    H227818   5.402   2.598   0.149  0.3941  0.3645 -0.2100
 2087TIP3   OH227819   0.934   3.077   1.555  0.0017  0.1288 -0.0892
 2087TIP3    H127820   0.973   2.991   1.570 -0.2397  0.3911  2.4208
 2087TIP3    H227821   0.857   3.079   1.612 -0.2212  1.8755 -0.3821
 2088TIP3   OH227822   6.577   4.641   0.120  0.1843  0.3865  0.4524
 2088TIP3    H127823   6.644   4.654   0.053 -0.2348  1.1036  0.1658
 2088TIP3    H227824   6.621   4.590   0.188  0.7367  0.0138 -0.1719
 2089TIP3   OH227825   1.215   2.611   2.073  0.4456 -0.2794  0.5595
 2089TIP3    H127826   1.277   2.667   2.120  1.8507  1.2584 -2.7835
 2089TIP3    H227827   1.131   2.657   2.078  1.3758  1.7956 -1.3346
 2090TIP3   OH227828   4.278   5.713   7.379  0.0214  0.1431 -0.3042
 2090TIP3    H127829   4.248   5.789   7.330  1.3421  1.2500  0.5388
 2090TIP3    H227830   4.365   5.737   7.410  0.3256 -1.5772  0.2954
 2091TIP3   OH227831   0.067   4.633   2.032 -0.4869  0.0779  0.6082
 2091TIP3    H127832   0.098   4.558   2.083  0.6517  0.4835  0.5456
 2091TIP3    H227833   0.143   4.660   1.980 -1.1235  0.7562 -0.0048
 2092TIP3   OH227834   6.005   2.199   8.174  0.3204  0.2862 -0.0257
 2092TIP3    H127835   5.917   2.180   8.209  0.5630  1.0441  1.0672
 2092TIP3    H227836   6.000   2.289   8.143  0.5118  0.0829 -0.6578
 2093TIP3   OH227837   0.720   5.280   8.331  0.7380  0.4354 -0.2927
 2093TIP3    H127838   0.655   5.236   8.386 -0.9526  1.8694 -1.0565
 2093TIP3    H227839   0.680   5.364   8.308  2.2196  0.7265 -2.0765
 2094TIP3   OH227840   6.501   6.371   8.321  0.1681 -0.1184  0.2436
 2094TIP3    H127841   6.572   6.331   8.272  0.3474  1.1078 -0.5461
 2094TIP3    H227842   6.491   6.458   8.282  0.3102  0.9214  2.3850
 2095TIP3   OH227843   0.435   3.194   7.456  0.4312  1.0282 -1.0841
 2095TIP3    H127844   0.469   3.277   7.424  3.1926  0.3276 -0.2175
 2095TIP3    H227845   0.463   3.129   7.392 -1.5722  0.6837 -1.6782
 2096TIP3   OH227846   1.872   5.440   7.432 -0.0944 -0.1141  0.0419
 2096TIP3    H127847   1.797   5.482   7.390  0.4141  0.9171  0.1376
 2096TIP3    H227848   1.935   5.426   7.361 -0.3804 -1.0128 -0.0455
 2097TIP3   OH227849   2.852   0.658   7.300  0.1915 -0.3979  0.6579
 2097TIP3    H127850   2.864   0.683   7.208 -1.6133  1.8799  0.9433
 2097TIP3    H227851   2.770   0.607   7.300 -0.8318  1.1664  1.1616
 2098TIP3   OH227852   5.141   4.818   0.781 -0.7188 -0.4557  0.2688
 2098TIP3    H127853   5.053   4.791   0.756  0.0331 -2.7569 -0.1533
 2098TIP3    H227854   5.199   4.772   0.720  0.7646  2.4555 -0.7097
 2099TIP3   OH227855   5.016   0.757   7.484 -0.3111 -0.2628 -0.6609
 2099TIP3    H127856   5.078   0.684   7.476 -0.1048 -0.0132 -1.4224
 2099TIP3    H227857   5.034   0.812   7.408 -1.4824 -0.1920 -0.9066
 2100TIP3   OH227858   1.953   2.393   0.749  0.6679  0.1505  0.5982
 2100TIP3    H127859   2.006   2.378   0.671 -1.1534  0.3344 -0.7322
 2100TIP3    H227860   1.878   2.333   0.740  0.5951 -0.1084  2.4036
 2101TIP3   OH227861   1.977   2.835   1.805 -0.0469 -0.4550 -0.2279
 2101TIP3    H127862   2.055   2.864   1.757 -1.1569  0.0844 -1.7763
 2101TIP3    H227863   1.988   2.872   1.893  0.9336  0.5164 -0.7359
 2102TIP3   OH227864   6.747   2.573   7.410  0.8307 -0.4422 -0.1979
 2102TIP3    H127865   6.731   2.667   7.418  2.3097 -0.2800  1.2128
 2102TIP3    H227866   6.821   2.567   7.349 -0.3646 -0.8434 -1.6957
 2103TIP3   OH227867   6.752   1.182   1.227 -0.2969  0.3645  0.5223
 2103TIP3    H127868   6.708   1.209   1.308 -1.2742  2.0458 -0.5244
 2103TIP3    H227869   6.705   1.103   1.200 -0.7407  0.4651  0.9864
 2104TIP3   OH227870   0.337   3.467   0.528 -0.0770  0.1100 -0.0851
 2104TIP3    H127871   0.401   3.537   0.539  0.2491 -0.2440  0.3419
 2104TIP3    H227872   0.367   3.418   0.452  1.5962 -1.5282  1.5384
 2105TIP3   OH227873   2.340   1.085   0.847  0.4209 -0.4732  0.4383
 2105TIP3    H127874   2.426   1.095   0.887  0.4065 -1.6696  0.8272
 2105TIP3    H227875   2.290   1.160   0.878  1.1747 -0.0451  0.6248
 2106TIP3   OH227876   0.945   0.117   7.485  0.2687  0.1182 -0.8737
 2106TIP3    H127877   0.919   0.203   7.519  0.8648  0.2603 -0.7672
 2106TIP3    H227878   0.901   0.111   7.400  1.6674  1.3239 -1.7341
 2107TIP3   OH227879   4.219   3.399   7.560  0.4917 -0.0809  0.1278
 2107TIP3    H127880   4.281   3.432   7.624  1.1850  0.4431 -0.7935
 2107TIP3    H227881   4.133   3.411   7.601  0.7734  2.0938  0.1872
 2108TIP3   OH227882   6.464   4.836   0.795 -0.1764 -0.2256  0.2204
 2108TIP3    H127883   6.391   4.801   0.845 -0.1382  0.0632  0.4844
 2108TIP3    H227884   6.542   4.806   0.842 -0.1517  0.6668  0.7739
 2109TIP3   OH227885   0.961   5.190   0.110  0.3351 -0.3568  0.2581
 2109TIP3    H127886   0.971   5.120   0.046  1.8723 -0.3142  0.4272
 2109TIP3    H227887   0.946   5.145   0.193  0.4874 -0.4581  0.2292
 2110TIP3   OH227888   1.617   1.566   1.024 -0.1668 -0.1857  0.7976
 2110TIP3    H127889   1.523   1.551   1.020 -0.1396 -0.0875 -1.4278
 2110TIP3    H227890   1.628   1.658   1.001  0.4947 -0.3282  0.5121
 2111TIP3   OH227891   3.076   0.640   8.478  0.0015  0.4363  0.1670
 2111TIP3    H127892   3.144   0.682   8.531  0.3736 -1.6742  1.5299
 2111TIP3    H227893   2.994   0.679   8.509  0.3230  0.1803  1.4232
 2112TIP3   OH227894   4.625   4.676   0.034 -0.0251  0.5953  0.3279
 2112TIP3    H127895   4.664   4.691  -0.052  3.1919  1.7470  1.8237
 2112TIP3    H227896   4.625   4.762   0.076  2.3246 -0.5015  2.8703
 2113TIP3   OH227897   0.224   5.528   1.458 -0.3701  0.3291  0.2810
 2113TIP3    H127898   0.285   5.555   1.527 -0.9964  1.7500  0.3179
 2113TIP3    H227899   0.138   5.546   1.495 -0.8336 -1.5496  0.1922
 2114TIP3   OH227900   2.692   3.427   3.087 -0.4065 -0.5511 -0.2135
 2114TIP3    H127901   2.673   3.436   2.994 -0.3440 -1.8181 -0.3672
 2114TIP3    H227902   2.607   3.439   3.130 -0.4701 -0.1622 -0.4462
 2115TIP3   OH227903   1.417   4.132   6.430  0.5757  0.8176  0.1538
 2115TIP3    H127904   1.345   4.117   6.491  0.3159  0.8929 -0.1257
 2115TIP3    H227905   1.472   4.197   6.473  0.9681  0.0981  0.7671
 2116TIP3   OH227906   2.895   4.753   6.864  0.1151  0.1189  0.1764
 2116TIP3    H127907   2.953   4.733   6.938  1.4561  0.0350 -0.8548
 2116TIP3    H227908   2.913   4.845   6.845  0.1787 -0.0120 -0.3930
 2117TIP3   OH227909   6.561   1.383   1.714 -0.1307 -0.7905  0.2832
 2117TIP3    H127910   6.599   1.435   1.785 -1.4182 -0.6723  0.9216
 2117TIP3    H227911   6.630   1.322   1.689  1.0399  0.5144  0.2478
 2118TIP3   OH227912   1.034   0.271   2.105 -0.2160  0.0498 -0.2061
 2118TIP3    H127913   0.984   0.328   2.047  1.0050  0.6618 -0.6972
 2118TIP3    H227914   1.126   0.292   2.086  0.2338  0.0517  1.7080
 2119TIP3   OH227915   6.574   5.567   0.889  0.0324 -0.2277 -0.3036
 2119TIP3    H127916   6.579   5.493   0.829 -1.8894  0.2148 -1.0809
 2119TIP3    H227917   6.606   5.642   0.839  2.0231 -0.4762  0.4972
 2120TIP3   OH227918   1.516   2.447   1.085  0.5837 -0.4056  0.4584
 2120TIP3    H127919   1.523   2.539   1.060  1.6682 -0.6109 -0.0367
 2120TIP3    H227920   1.490   2.403   1.004 -0.1759 -0.5137  0.7517
 2121TIP3   OH227921   6.010   0.509   1.313  0.5253  0.1978 -0.3425
 2121TIP3    H127922   6.003   0.604   1.312 -0.6762  0.1997  1.8609
 2121TIP3    H227923   6.101   0.491   1.335  1.0449  0.7704 -1.8900
 2122TIP3   OH227924   1.175   2.955   7.568  0.6627  0.3560  0.0026
 2122TIP3    H127925   1.202   2.914   7.485  1.1098 -1.0394  0.8129
 2122TIP3    H227926   1.227   2.911   7.635 -0.2780  0.8868  1.1246
 2123TIP3   OH227927   4.768   1.808   7.947 -0.2757  0.0790 -0.2425
 2123TIP3    H127928   4.768   1.720   7.984 -0.9970  0.4664  0.7396
 2123TIP3    H227929   4.681   1.817   7.908 -0.0199  0.1813 -0.8020
 2124TIP3   OH227930   4.318   2.730   1.954 -0.1103 -0.0664  0.2122
 2124TIP3    H127931   4.328   2.646   1.998 -1.9565 -0.4908 -0.1076
 2124TIP3    H227932   4.289   2.790   2.022  1.0841  0.3113  0.4133
 2125TIP3   OH227933   5.981   0.305   1.966 -0.0630 -0.0998  0.5472
 2125TIP3    H127934   5.991   0.210   1.979 -0.4480 -0.4556 -1.4390
 2125TIP3    H227935   5.992   0.317   1.872  2.4933  2.1886  1.0307
 2126TIP3   OH227936   1.464   1.614   8.205  0.2687  0.4360  0.0839
 2126TIP3    H127937   1.503   1.553   8.143 -0.5904 -2.6402  2.3618
 2126TIP3    H227938   1.523   1.612   8.281 -0.8921  0.7763  1.0197
 2127TIP3   OH227939   3.446   2.887   7.119 -0.1965  0.0904  0.4251
 2127TIP3    H127940   3.435   2.798   7.085  1.1647  0.7867 -2.1006
 2127TIP3    H227941   3.541   2.902   7.117 -0.4678  1.9414 -0.2640
 2128TIP3   OH227942   4.273   0.813   2.312 -0.5881  0.4902 -0.2043
 2128TIP3    H127943   4.285   0.875   2.239 -1.2301 -0.3355 -1.0457
 2128TIP3    H227944   4.303   0.729   2.277 -1.2027  0.0183  0.3659
 2129TIP3   OH227945   2.699   4.855   8.477  0.3634 -0.3619 -0.1910
 2129TIP3    H127946   2.765   4.795   8.443 -1.2296 -0.9073 -2.6119
 2129TIP3    H227947   2.720   4.939   8.437 -1.3325 -0.9346 -2.4940
 2130TIP3   OH227948   2.197   3.219   1.175  0.7987  1.0991  0.1697
 2130TIP3    H127949   2.178   3.137   1.129  1.7993  0.4758  0.8388
 2130TIP3    H227950   2.115   3.269   1.170 -0.2274 -0.4568  0.8077
 2131TIP3   OH227951   5.402   4.409   0.396  0.3391  0.0186  0.0403
 2131TIP3    H127952   5.375   4.321   0.426  1.1038 -0.4786 -0.7016
 2131TIP3    H227953   5.479   4.429   0.449 -0.9375  1.0919  1.5791
 2132TIP3   OH227954   3.049   5.190   8.489 -0.3866  0.3084 -0.1918
 2132TIP3    H127955   3.120   5.187   8.426 -0.8042  1.2049 -0.7267
 2132TIP3    H227956   3.090   5.170   8.573 -0.1166 -2.8084 -0.9286
 2133TIP3   OH227957   4.059   2.763   2.656 -0.2925  0.7560 -0.3212
 2133TIP3    H127958   4.088   2.845   2.696  0.1002  0.6148 -0.3152
 2133TIP3    H227959   4.111   2.756   2.576 -0.9236  0.9307 -0.7492
 2134TIP3   OH227960   0.182   6.749   0.637  0.1442 -0.6762 -0.1537
 2134TIP3    H127961   0.107   6.805   0.658 -0.0903 -0.7512 -0.7788
 2134TIP3    H227962   0.152   6.693   0.566  1.4228  0.7287 -1.9038
 2135TIP3   OH227963   1.270   4.392   1.975  0.2379 -0.0438 -0.2629
 2135TIP3    H127964   1.303   4.360   2.059 -1.0583  0.7190  0.5600
 2135TIP3    H227965   1.208   4.326   1.946  0.2545 -0.0257 -0.3415
 2136TIP3   OH227966   6.211   1.421   7.352  0.3957 -0.2853  0.4313
 2136TIP3    H127967   6.253   1.478   7.416  0.4725 -0.1999  0.3038
 2136TIP3    H227968   6.150   1.479   7.305 -0.4424 -0.5641  1.1376
 2137TIP3   OH227969   5.209   4.157   1.022 -0.3680 -1.0415  0.5321
 2137TIP3    H127970   5.156   4.092   0.975 -0.6905 -1.4060  1.3766
 2137TIP3    H227971   5.147   4.200   1.081 -0.6635  1.5431 -1.4462
 2138TIP3   OH227972   4.774   5.345   2.434 -0.4754  0.2224  0.8953
 2138TIP3    H127973   4.727   5.423   2.405 -0.5234 -0.1527 -0.0691
 2138TIP3    H227974   4.755   5.339   2.528 -1.6227  0.5885  0.7066
 2139TIP3   OH227975   0.236   3.169   0.485  0.3701 -0.0086 -0.6878
 2139TIP3    H127976   0.199   3.089   0.522 -2.3489 -0.0063 -3.0572
 2139TIP3    H227977   0.256   3.146   0.394  1.4963  1.4813 -0.8525
 2140TIP3   OH227978   0.931   3.282   1.374  0.3534  0.5529  0.0987
 2140TIP3    H127979   0.923   3.198   1.418  0.8431  0.8969  0.8752
 2140TIP3    H227980   1.019   3.313   1.397 -0.3382  1.9366  1.0554
 2141TIP3   OH227981   6.615   3.273   1.896 -0.3858 -0.0234 -0.0809
 2141TIP3    H127982   6.569   3.191   1.878 -0.5984  0.0426  0.1584
 2141TIP3    H227983   6.699   3.263   1.851  0.0873 -0.8696  0.9377
 2142TIP3   OH227984   0.719   2.768   7.888 -0.1516  0.3509  0.0003
 2142TIP3    H127985   0.814   2.776   7.875  0.0524  0.5531  1.3702
 2142TIP3    H227986   0.681   2.836   7.833  0.4865  0.1419 -0.7126
 2143TIP3   OH227987   1.658   5.340   8.441 -0.2778  0.8232 -0.7932
 2143TIP3    H127988   1.731   5.356   8.501 -0.2028 -0.2632 -0.5675
 2143TIP3    H227989   1.631   5.250   8.460  0.2648  0.1711 -2.9329
 2144TIP3   OH227990   0.118   4.470   1.080 -0.7109 -0.7210  0.6198
 2144TIP3    H127991   0.102   4.563   1.097  0.0431 -0.8158  2.0333
 2144TIP3    H227992   0.137   4.433   1.166 -1.5574 -2.3190  0.1736
 2145TIP3   OH227993   1.259   3.675   0.059 -0.7160  0.0404 -0.2383
 2145TIP3    H127994   1.317   3.629   0.119 -0.7321  1.0972  0.6134
 2145TIP3    H227995   1.174   3.676   0.104 -1.0985 -0.4172 -0.9302
 2146TIP3   OH227996   2.215   3.418   6.809 -0.3698  0.1772  0.5497
 2146TIP3    H127997   2.184   3.508   6.820 -1.3900 -0.1883  0.7283
 2146TIP3    H227998   2.270   3.422   6.731 -0.6502  0.8985  0.3752
 2147TIP3   OH227999   6.787   6.735   8.143 -0.0449 -0.0031 -0.3926
 2147TIP3    H128000   6.877   6.751   8.171  0.6861 -1.5235 -1.6940
 2147TIP3    H228001   6.793   6.718   8.049 -1.5983 -0.8024 -0.3950
 2148TIP3   OH228002   1.533   4.355   8.033  0.2670  0.1694  0.0843
 2148TIP3    H128003   1.497   4.298   7.965  0.7045  0.4809 -0.4093
 2148TIP3    H228004   1.456   4.383   8.083  0.0302 -0.7223  0.2385
 2149TIP3   OH228005   3.711   0.961   8.266 -0.1460 -0.4201 -0.4458
 2149TIP3    H128006   3.783   0.898   8.254 -1.1553 -1.9692  1.0663
 2149TIP3    H228007   3.632   0.907   8.263 -1.1467  0.9883 -0.2914
 2150TIP3   OH228008   6.245   3.028   1.940 -0.0696  0.0442  0.4961
 2150TIP3    H128009   6.215   2.979   2.016  0.1017  0.9458  1.1593
 2150TIP3    H228010   6.225   2.971   1.866  0.2563 -1.0864  1.2450
 2151TIP3   OH228011   6.634   5.015   2.023 -0.4336 -0.2445  0.1671
 2151TIP3    H128012   6.662   4.994   2.112 -2.4608 -2.8343  0.3229
 2151TIP3    H228013   6.697   4.970   1.966  0.8914  1.4522  0.2019
 2152TIP3   OH228014   5.434   1.483   1.160 -0.5903  0.2306  0.5347
 2152TIP3    H128015   5.505   1.537   1.125 -0.5549  1.0811  1.8244
 2152TIP3    H228016   5.371   1.547   1.195 -1.8804 -0.5145 -0.3408
 2153TIP3   OH228017   0.387   1.397   1.412 -1.0324 -0.1092 -0.4470
 2153TIP3    H128018   0.323   1.326   1.409 -1.3432  0.1341  0.2827
 2153TIP3    H228019   0.406   1.416   1.320 -0.8025 -1.2529 -0.6576
 2154TIP3   OH228020   0.368   3.272   3.103  0.2878  0.4600 -0.4437
 2154TIP3    H128021   0.296   3.278   3.040  2.6922 -0.6880 -3.5427
 2154TIP3    H228022   0.398   3.181   3.096 -0.1999 -0.2185  3.6042
 2155TIP3   OH228023   2.952   2.840   1.901 -0.2666 -0.0764 -0.3725
 2155TIP3    H128024   2.910   2.769   1.853 -0.3664  0.8472 -1.7014
 2155TIP3    H228025   2.884   2.874   1.958 -0.6823 -0.0398 -0.8807
 2156TIP3   OH228026   4.926   1.433   8.508 -0.0377 -0.1071 -0.2402
 2156TIP3    H128027   4.915   1.356   8.453  0.3750  0.5670 -1.2969
 2156TIP3    H228028   4.843   1.440   8.555 -0.1949 -1.0105 -0.3604
 2157TIP3   OH228029   5.227   0.835   1.369  0.6079  0.6381 -0.3523
 2157TIP3    H128030   5.165   0.889   1.319 -1.5686 -1.7204 -0.4033
 2157TIP3    H228031   5.274   0.785   1.302  1.2696  1.0811 -0.2254
 2158TIP3   OH228032   6.188   2.214   2.156  0.8634 -0.6926 -0.0788
 2158TIP3    H128033   6.101   2.175   2.162  0.5033 -0.3807 -2.3296
 2158TIP3    H228034   6.178   2.303   2.190  0.3365 -0.7092 -0.1873
 2159TIP3   OH228035   5.776   4.386   1.511  0.3974 -0.1524 -0.0539
 2159TIP3    H128036   5.680   4.393   1.511  0.1718 -1.8091 -2.5548
 2159TIP3    H228037   5.801   4.397   1.419  2.5912 -0.0640  0.5015
 2160TIP3   OH228038   0.414   6.205   6.811 -0.3827 -0.1400  0.3141
 2160TIP3    H128039   0.441   6.295   6.795 -0.7191 -0.0980 -0.0232
 2160TIP3    H228040   0.491   6.152   6.787 -0.3790  0.0196 -0.0300
 2161TIP3   OH228041   4.137   2.523   0.722 -0.2829  0.1581 -0.0151
 2161TIP3    H128042   4.113   2.611   0.750 -0.4720 -0.0151  0.3771
 2161TIP3    H228043   4.164   2.479   0.803  1.4304  0.3691 -0.4308
 2162TIP3   OH228044   4.828   2.772   2.237  0.1663 -0.2191  0.6699
 2162TIP3    H128045   4.758   2.812   2.289  0.3337  0.0985  0.6512
 2162TIP3    H228046   4.860   2.700   2.292  1.1798  0.8698  1.5642
 2163TIP3   OH228047   2.075   5.588   0.550 -0.0562  0.0463  0.1113
 2163TIP3    H128048   1.995   5.639   0.568 -0.7214 -1.5288  1.9777
 2163TIP3    H228049   2.146   5.645   0.580 -0.5965  0.7741  0.0543
 2164TIP3   OH228050   0.835   4.951   8.555  0.5348 -0.6809 -0.5204
 2164TIP3    H128051   0.744   4.966   8.529  0.7440  1.1799 -0.3640
 2164TIP3    H228052   0.830   4.926   8.647  0.1786 -0.1192 -0.3777
 2165TIP3   OH228053   2.075   2.375   0.040 -0.1009 -0.5350 -0.2579
 2165TIP3    H128054   2.000   2.326   0.073  0.4372 -0.6362  0.8460
 2165TIP3    H228055   2.065   2.373  -0.055 -1.4598 -0.5907 -0.1287
 2166TIP3   OH228056   4.747   3.950   7.753 -0.4638  1.0767 -0.6433
 2166TIP3    H128057   4.690   3.958   7.676 -2.3440 -2.9616  0.0892
 2166TIP3    H228058   4.836   3.953   7.717 -1.2163  1.6969 -2.6253
 2167TIP3   OH228059   3.952   0.545   2.194 -0.0646  0.8244  0.3797
 2167TIP3    H128060   3.988   0.514   2.111  0.6453  0.3403  0.8596
 2167TIP3    H228061   4.021   0.527   2.258 -1.0880  0.0612  1.2878
 2168TIP3   OH228062   3.924   2.470   1.916  0.7059  0.0490 -0.3415
 2168TIP3    H128063   3.968   2.385   1.905 -0.0910 -0.1343 -2.4710
 2168TIP3    H228064   3.832   2.447   1.928  0.4701  0.6276 -1.0509
 2169TIP3   OH228065   6.397   1.285   1.188 -0.1860  0.8629  0.2305
 2169TIP3    H128066   6.304   1.279   1.169 -0.2279  4.0282 -1.2766
 2169TIP3    H228067   6.438   1.295   1.103  1.2243  1.9189  0.9809
 2170TIP3   OH228068   4.247   4.199   1.264 -0.0485  0.0024 -0.0690
 2170TIP3    H128069   4.240   4.106   1.286 -1.7802  0.1942  0.3477
 2170TIP3    H228070   4.239   4.244   1.348  3.8436  0.5372  0.2046
 2171TIP3   OH228071   3.362   4.705   2.216  0.0717 -0.1954  0.4948
 2171TIP3    H128072   3.402   4.790   2.197  0.5805 -0.7365 -0.9511
 2171TIP3    H228073   3.302   4.723   2.289 -1.1613  1.7814 -0.9095
 2172TIP3   OH228074   5.033   4.856   1.392 -0.9383 -0.1187  0.0208
 2172TIP3    H128075   5.112   4.838   1.340  0.0208 -2.5728  2.0677
 2172TIP3    H228076   4.988   4.772   1.398 -2.8861  0.8795  0.2593
 2173TIP3   OH228077   5.128   2.184   8.524  0.3564  0.4902 -0.3746
 2173TIP3    H128078   5.129   2.124   8.599 -0.4605 -0.7489 -1.3226
 2173TIP3    H228079   5.189   2.254   8.549 -0.0979  0.2534  1.5500
 2174TIP3   OH228080   6.334   0.860   0.954  0.5392 -0.7141 -0.2256
 2174TIP3    H128081   6.305   0.876   1.043  1.5889  0.4161 -0.0703
 2174TIP3    H228082   6.295   0.931   0.902 -1.8900 -2.5522 -1.1203
 2175TIP3   OH228083   4.431   6.151   1.175 -0.0372  0.2612  0.8103
 2175TIP3    H128084   4.403   6.239   1.151 -0.3338 -0.2482 -0.8126
 2175TIP3    H228085   4.519   6.143   1.138  0.2152  0.0543  1.4339
 2176TIP3   OH228086   4.673   1.721   8.275 -0.3074  0.3703  0.4474
 2176TIP3    H128087   4.699   1.633   8.248 -1.0862  0.5098 -0.7984
 2176TIP3    H228088   4.619   1.707   8.353  0.0142 -0.2005  0.5731
 2177TIP3   OH228089   2.300   5.149   1.451 -0.2596  0.2789  0.6272
 2177TIP3    H128090   2.280   5.243   1.450 -1.0438  0.1163  0.7320
 2177TIP3    H228091   2.395   5.145   1.436 -0.5181  0.9871 -1.5279
 2178TIP3   OH228092   1.262   2.775   8.249  0.1880  0.2996  0.0565
 2178TIP3    H128093   1.311   2.772   8.332 -2.3167  1.7496  1.7209
 2178TIP3    H228094   1.175   2.743   8.272 -0.8809  1.7303 -1.7518
 2179TIP3   OH228095   0.429   5.040   1.335  0.1846 -0.1201 -0.0489
 2179TIP3    H128096   0.364   4.999   1.278  0.8239  1.2446 -1.8898
 2179TIP3    H228097   0.379   5.075   1.408 -1.5488  2.3779 -2.2165
 2180TIP3   OH228098   3.375   4.288   1.411 -0.0685  0.2864  0.1591
 2180TIP3    H128099   3.338   4.219   1.467 -0.4610  1.3552  1.2640
 2180TIP3    H228100   3.299   4.340   1.384  0.4059  1.5164  1.0731
 2181TIP3   OH228101   3.427   1.106   1.759 -0.6673 -0.3371 -0.4803
 2181TIP3    H128102   3.360   1.168   1.730 -1.6331 -0.8639  0.5372
 2181TIP3    H228103   3.413   1.029   1.703  0.3247  0.2146 -1.5270
 2182TIP3   OH228104   3.427   2.627   1.645 -0.4545 -0.2784 -0.6597
 2182TIP3    H128105   3.472   2.693   1.698 -1.2662 -0.7385  0.6398
 2182TIP3    H228106   3.396   2.675   1.568  0.6485  0.4273 -0.6873
 2183TIP3   OH228107   3.711   5.171   6.818  0.2204 -0.6257 -0.4858
 2183TIP3    H128108   3.762   5.247   6.844  0.1272 -0.0656 -1.8716
 2183TIP3    H228109   3.774   5.113   6.775  0.2475 -1.2649  0.3731
 2184TIP3   OH228110   3.622   4.700   1.805 -0.1040 -0.4890  0.0839
 2184TIP3    H128111   3.680   4.629   1.778 -1.2270 -1.3660 -0.0925
 2184TIP3    H228112   3.680   4.775   1.816  0.8980 -1.0109 -1.2802
 2185TIP3   OH228113   1.754   3.854   7.903  0.3514  0.1148 -0.1893
 2185TIP3    H128114   1.775   3.865   7.810  2.4931 -0.2462  0.1984
 2185TIP3    H228115   1.809   3.780   7.931 -1.1063 -0.5226  1.1169
 2186TIP3   OH228116   4.701   3.478   2.116  0.0751  0.5409  0.1959
 2186TIP3    H128117   4.747   3.430   2.047 -1.6399 -3.8904  1.7949
 2186TIP3    H228118   4.612   3.489   2.082  0.0448  1.2597  0.4903
 2187TIP3   OH228119   5.341   4.181   0.527 -0.0999  0.2116 -0.0895
 2187TIP3    H128120   5.396   4.136   0.592  0.3913  1.8118  0.6676
 2187TIP3    H228121   5.252   4.149   0.544  0.0210  0.6089  1.4013
 2188TIP3   OH228122   5.358   1.501   8.171  0.0228 -0.6916 -0.1332
 2188TIP3    H128123   5.349   1.546   8.087  1.6142  1.2249  0.6348
 2188TIP3    H228124   5.269   1.499   8.206 -0.6351 -1.3317 -1.7323
 2189TIP3   OH228125   6.464   1.017   6.460 -0.4405 -0.0634 -0.1777
 2189TIP3    H128126   6.413   0.956   6.514  1.0833 -1.1632  0.0745
 2189TIP3    H228127   6.406   1.037   6.387 -1.3165 -1.1307  0.1870
 2190TIP3   OH228128   5.355   1.907   2.070  0.2140  0.1729  0.4194
 2190TIP3    H128129   5.387   1.882   1.984 -1.4045 -1.3220  0.2030
 2190TIP3    H228130   5.274   1.955   2.053  0.0322  0.1259  1.1038
 2191TIP3   OH228131   4.236   4.718   1.525 -0.0440 -0.0469  0.5215
 2191TIP3    H128132   4.163   4.780   1.525 -1.7831 -1.8411 -2.1009
 2191TIP3    H228133   4.304   4.760   1.472 -1.1431 -0.2226 -1.1065
 2192TIP3   OH228134   6.125   3.683   7.756 -0.3269  0.1284 -0.2887
 2192TIP3    H128135   6.218   3.704   7.753 -0.0200 -1.2431 -1.6182
 2192TIP3    H228136   6.101   3.694   7.848  1.1231  0.5616  0.0647
 2193TIP3   OH228137   2.981   5.329   1.487 -0.3232 -0.5018 -0.3772
 2193TIP3    H128138   3.008   5.410   1.530 -1.8516 -0.7706  1.1770
 2193TIP3    H228139   3.058   5.272   1.493 -0.0166 -0.0076  0.7141
 2194TIP3   OH228140   1.541   2.036   0.917  0.0762 -0.3133 -0.0829
 2194TIP3    H128141   1.540   2.122   0.874 -1.3395 -0.5522 -0.5475
 2194TIP3    H228142   1.514   2.054   1.007  0.5970 -0.1757  0.0550
 2195TIP3   OH228143   2.646   3.090   0.411  0.8034 -0.1259 -0.1454
 2195TIP3    H128144   2.595   3.166   0.440  0.9991  0.1537 -0.5318
 2195TIP3    H228145   2.615   3.019   0.466 -0.8080 -0.2136 -1.1007
 2196TIP3   OH228146   0.641   4.748   0.879 -0.4394 -0.4923 -0.2877
 2196TIP3    H128147   0.607   4.826   0.835 -0.8582  0.2574  1.2935
 2196TIP3    H228148   0.614   4.758   0.970 -1.4484 -3.0386 -0.2367
 2197TIP3   OH228149   3.592   5.807   6.794  0.6261 -0.2259 -0.9791
 2197TIP3    H128150   3.566   5.873   6.730 -0.3596  1.5467  1.1390
 2197TIP3    H228151   3.665   5.846   6.841  0.8266 -1.1692 -0.4838
 2198TIP3   OH228152   2.603   0.050   6.864  0.8325  0.0138  0.1814
 2198TIP3    H128153   2.656   0.099   6.926  2.7844 -0.2322 -1.1967
 2198TIP3    H228154   2.633  -0.041   6.873 -0.5630 -0.4420  0.5314
 2199TIP3   OH228155   4.273   1.069   8.582  0.3735 -0.1125 -0.8156
 2199TIP3    H128156   4.237   1.130   8.647  1.3678  1.4413 -1.6616
 2199TIP3    H228157   4.310   0.999   8.635 -0.0540  0.4223  0.2439
 2200TIP3   OH228158   1.791   4.586   8.343  0.0394  0.0595 -0.1594
 2200TIP3    H128159   1.790   4.516   8.278 -0.8068 -1.9082  1.8444
 2200TIP3    H228160   1.859   4.561   8.406  0.3465  1.5265  0.1508
 2201TIP3   OH228161   4.686   3.373   1.400 -0.8026  0.1133 -0.2426
 2201TIP3    H128162   4.730   3.363   1.316  1.5097 -0.1304  0.9193
 2201TIP3    H228163   4.665   3.467   1.405  3.8154  1.3843  0.9332
 2202TIP3   OH228164   6.190   3.751   8.034 -0.2551  0.4270  0.0333
 2202TIP3    H128165   6.178   3.845   8.047  1.6194  0.8205 -0.8170
 2202TIP3    H228166   6.251   3.725   8.103 -2.4677 -0.6900  1.7064
 2203TIP3   OH228167   4.123   3.221   2.015  0.0557  0.5572  0.0613
 2203TIP3    H128168   4.029   3.224   1.994  0.3129  1.7041 -1.1172
 2203TIP3    H228169   4.134   3.286   2.084  0.0327  0.7456 -0.1086
 2204TIP3   OH228170   2.116   5.566   0.901 -0.5742  0.4520  0.3421
 2204TIP3    H128171   2.159   5.624   0.965  0.2107  1.3980 -0.9992
 2204TIP3    H228172   2.115   5.617   0.820  1.2320 -1.8300 -1.2338
 2205TIP3   OH228173   3.709   4.449   1.052  0.2757 -0.2293 -0.2233
 2205TIP3    H128174   3.652   4.397   0.995  1.8519 -1.4104 -0.7824
 2205TIP3    H228175   3.677   4.430   1.140 -0.0366 -1.0803 -0.5089
 2206TIP3   OH228176   3.537   0.272   7.879  0.1775 -0.0321 -0.3661
 2206TIP3    H128177   3.543   0.367   7.865 -1.5629  0.3072  0.8600
 2206TIP3    H228178   3.531   0.263   7.974  0.6274 -1.4230 -0.4487
 2207TIP3   OH228179   2.973   1.615   0.137 -0.0859 -0.3242 -0.5900
 2207TIP3    H128180   2.902   1.551   0.147 -0.5095  0.1756 -0.3338
 2207TIP3    H228181   2.958   1.656   0.052 -0.4919  0.2365 -0.2564
 2208TIP3   OH228182   4.126   0.616   7.770 -0.2004 -0.1744  0.1245
 2208TIP3    H128183   4.133   0.711   7.774  1.9287 -0.2769  0.4161
 2208TIP3    H228184   4.091   0.590   7.855  2.2366  0.2400  1.3586
 2209TIP3   OH228185   1.469   6.302   8.377  0.0155  0.2428 -0.1342
 2209TIP3    H128186   1.537   6.345   8.325  0.2908  0.4510  0.3849
 2209TIP3    H228187   1.453   6.363   8.449 -1.5159  0.7119 -0.8519
 2210TIP3   OH228188   1.688   0.695   8.210  0.2082  0.1498 -0.1571
 2210TIP3    H128189   1.778   0.720   8.189 -0.1645  0.9500 -0.8987
 2210TIP3    H228190   1.648   0.776   8.242  0.4384 -0.7755  2.7462
 2211TIP3   OH228191   3.406   3.987   2.717  0.3251  0.0169 -0.0637
 2211TIP3    H128192   3.470   3.981   2.646 -1.3320 -0.2948 -1.5881
 2211TIP3    H228193   3.357   4.067   2.699 -0.3111 -0.2191  0.5732
 2212TIP3   OH228194   6.243   6.833   2.417 -0.2114  0.3250  0.5709
 2212TIP3    H128195   6.168   6.815   2.473  0.8537 -2.1152  1.3593
 2212TIP3    H228196   6.315   6.781   2.455  0.8161 -0.6594 -2.4273
 2213TIP3   OH228197   1.262   4.983   2.023  0.1562  0.2184 -0.0914
 2213TIP3    H128198   1.321   4.908   2.012  0.0565  0.0274  0.6020
 2213TIP3    H228199   1.177   4.952   1.990  0.1803  0.1090 -0.0516
 2214TIP3   OH228200   1.183   4.927   8.425 -0.3351 -0.5683 -0.2132
 2214TIP3    H128201   1.223   4.923   8.338  0.6180 -0.4463  0.2026
 2214TIP3    H228202   1.136   4.845   8.434  0.3210 -0.9841 -0.4908
 2215TIP3   OH228203   6.889   3.720   0.872  0.6442  0.2146  0.9973
 2215TIP3    H128204   6.840   3.644   0.903  1.9853  0.1539  3.1611
 2215TIP3    H228205   6.980   3.690   0.867  0.8059  0.8504 -1.1163
 2216TIP3   OH228206   2.168   6.797   2.182 -0.1362 -0.5389  0.2539
 2216TIP3    H128207   2.099   6.734   2.206  0.4928 -0.4392  2.5474
 2216TIP3    H228208   2.249   6.747   2.190  0.4705  0.6978  3.1516
 2217TIP3   OH228209   4.930   2.702   0.800  0.2599  0.5964  0.0744
 2217TIP3    H128210   4.995   2.754   0.846 -0.2619  0.3559  1.1198
 2217TIP3    H228211   4.973   2.618   0.782  0.1740  0.3681  0.9330
 2218TIP3   OH228212   2.044   6.012   0.406  0.3470 -0.1923  0.8453
 2218TIP3    H128213   2.010   5.971   0.485  1.5578  0.2269  1.6118
 2218TIP3    H228214   2.136   6.027   0.424  0.5289  0.4168 -0.4462
 2219TIP3   OH228215   0.145   1.990   0.372  0.3428  0.4271  0.1191
 2219TIP3    H128216   0.053   1.981   0.397  0.4405 -0.4675  0.1829
 2219TIP3    H228217   0.144   1.993   0.276  0.3193 -0.6145  0.0766
 2220TIP3   OH228218   3.405   5.489   7.818 -0.2229  0.2099 -0.2432
 2220TIP3    H128219   3.390   5.476   7.724 -2.8124 -2.1424  0.3425
 2220TIP3    H228220   3.489   5.446   7.835 -0.4482 -0.7068 -1.2787
 2221TIP3   OH228221   2.616   5.486   0.872  0.3546  0.5379  0.9086
 2221TIP3    H128222   2.548   5.481   0.939 -1.4579  0.2576 -0.8208
 2221TIP3    H228223   2.602   5.408   0.818  2.3495  0.2663  0.7213
 2222TIP3   OH228224   1.344   0.140   1.726  0.0082  0.5316 -0.2012
 2222TIP3    H128225   1.317   0.231   1.738  0.2974  0.4976  0.8440
 2222TIP3    H228226   1.269   0.098   1.684 -0.3814  1.1179 -0.1021
 2223TIP3   OH228227   2.948   5.663   1.888  0.1989  0.1650  0.0822
 2223TIP3    H128228   2.866   5.713   1.880 -1.1791 -1.9301  0.3827
 2223TIP3    H228229   2.968   5.665   1.981  0.8760  1.2129 -0.0709
 2224TIP3   OH228230   2.897   5.903   2.035 -1.3421  0.2743  0.0984
 2224TIP3    H128231   2.976   5.851   2.053 -0.4401  1.1842 -1.0449
 2224TIP3    H228232   2.859   5.919   2.121  1.1572  1.9563  1.0270
 2225TIP3   OH228233   6.793   1.325   8.437  0.1960 -0.4875 -0.3398
 2225TIP3    H128234   6.703   1.350   8.415 -0.3411 -0.6295  1.5178
 2225TIP3    H228235   6.810   1.367   8.521  2.4284  0.7602 -1.3033
 2226TIP3   OH228236   3.705   6.467   8.202  0.0958  0.1033  0.5570
 2226TIP3    H128237   3.783   6.495   8.249 -0.5971  0.5339  1.4804
 2226TIP3    H228238   3.701   6.373   8.216  1.0570 -0.1162 -0.4597
 2227TIP3   OH228239   2.947   2.276   7.123 -0.4149  0.4373  0.0960
 2227TIP3    H128240   3.020   2.235   7.170  0.8098  1.5528 -0.7448
 2227TIP3    H228241   2.893   2.202   7.093  0.4893 -0.4362  0.5541
 2228TIP3   OH228242   1.692   4.896   0.187  0.2357  0.3805  0.0523
 2228TIP3    H128243   1.786   4.891   0.205 -0.1323  0.5212  2.3027
 2228TIP3    H228244   1.653   4.834   0.248 -1.0416 -1.0867 -2.1324
 2229TIP3   OH228245   3.018   3.936   0.527  0.3113  0.1301  0.2415
 2229TIP3    H128246   2.987   4.019   0.490 -1.8895  0.3938  2.3824
 2229TIP3    H228247   3.051   3.959   0.614  1.9948 -0.9452 -0.0615
 2230TIP3   OH228248   3.388   4.579   1.035  0.1766 -0.1630 -0.0997
 2230TIP3    H128249   3.435   4.514   0.983 -1.0957 -1.2623  0.0834
 2230TIP3    H228250   3.319   4.611   0.976  1.4887  1.9343 -0.6020
 2231TIP3   OH228251   6.499   4.088   2.356 -0.4749 -0.1181  0.0123
 2231TIP3    H128252   6.549   4.018   2.395 -1.5293 -0.3981  0.8992
 2231TIP3    H228253   6.488   4.153   2.426  1.8451  1.7478 -1.1993
 2232TIP3   OH228254   4.253   2.476   8.143  0.1357 -0.0679 -0.3364
 2232TIP3    H128255   4.166   2.515   8.138 -0.2129 -0.6530  0.7715
 2232TIP3    H228256   4.250   2.403   8.081 -0.2812 -0.3009 -0.0415
 2233TIP3   OH228257   2.685   6.471   7.423 -0.4617 -0.1381 -0.2035
 2233TIP3    H128258   2.635   6.481   7.504 -1.4889 -0.9814 -0.7224
 2233TIP3    H228259   2.743   6.396   7.440 -1.6936 -1.2423 -0.7257
 2234TIP3   OH228260   4.911   0.128   1.545 -0.1588 -0.3562  0.4069
 2234TIP3    H128261   4.935   0.126   1.452 -0.3413  1.2295  0.2977
 2234TIP3    H228262   4.872   0.214   1.558 -2.5380 -1.4796  1.3776
 2235TIP3   OH228263   0.028   2.279   1.015  0.3167 -0.3006  0.2094
 2235TIP3    H128264   0.033   2.218   0.941  1.7616 -1.0688  0.9079
 2235TIP3    H228265   0.031   2.222   1.092 -3.2539  0.2855  0.9726
 2236TIP3   OH228266   2.177   2.076   0.656 -0.5807  0.0408 -1.2143
 2236TIP3    H128267   2.205   2.104   0.743 -0.7741 -0.7803 -0.8791
 2236TIP3    H228268   2.193   2.153   0.600 -1.4114  0.9201 -0.2792
 2237TIP3   OH228269   3.094   6.141   0.012 -0.4233 -0.4868  0.4641
 2237TIP3    H128270   3.183   6.143   0.047 -0.6657 -2.3081  1.2977
 2237TIP3    H228271   3.103   6.169  -0.079  1.1275 -1.3566  0.3199
 2238TIP3   OH228272   4.261   1.546   6.988  0.1597 -0.0410  0.1321
 2238TIP3    H128273   4.320   1.621   6.986 -0.2911  0.3234  0.3173
 2238TIP3    H228274   4.261   1.513   6.898 -2.0832  2.1181 -0.7653
 2239TIP3   OH228275   1.995   6.391   8.238  0.1454 -0.8173 -0.5255
 2239TIP3    H128276   1.958   6.325   8.179  3.1547 -0.6890 -2.7689
 2239TIP3    H228277   2.001   6.470   8.185  2.0675 -0.4230  0.2161
 2240TIP3   OH228278   0.868   0.509   1.920 -0.2629  0.1205 -0.2423
 2240TIP3    H128279   0.933   0.550   1.977 -0.8070 -0.2509  0.6524
 2240TIP3    H228280   0.828   0.583   1.874 -1.7339  0.7356  1.8731
 2241TIP3   OH228281   3.716   2.416   8.403 -0.4949 -0.5918  0.6971
 2241TIP3    H128282   3.636   2.427   8.353  0.6245 -1.5880 -1.4774
 2241TIP3    H228283   3.725   2.497   8.453 -2.2152  0.0201  0.0759
 2242TIP3   OH228284   0.914   3.709   1.051  0.6286  0.6433  0.1753
 2242TIP3    H128285   0.969   3.631   1.046  1.8490  1.3074  2.2606
 2242TIP3    H228286   0.973   3.780   1.076 -1.1940  1.1680  3.7642
 2243TIP3   OH228287   4.292   0.507   1.810 -0.4067 -0.4025 -0.0823
 2243TIP3    H128288   4.367   0.448   1.808  0.5917  0.8402 -0.0821
 2243TIP3    H228289   4.249   0.495   1.725 -0.3149 -1.2280 -0.0226
 2244TIP3   OH228290   3.585   5.719   1.434 -0.1192  0.1578 -0.2731
 2244TIP3    H128291   3.653   5.778   1.469 -0.4992 -0.3279  1.3560
 2244TIP3    H228292   3.515   5.778   1.406  0.1031  0.5603 -0.0020
 2245TIP3   OH228293   6.723   4.714   8.438 -0.0003 -0.0585 -0.0305
 2245TIP3    H128294   6.739   4.675   8.352 -2.4201 -2.4856  0.4754
 2245TIP3    H228295   6.801   4.692   8.489  0.4454 -0.6429 -0.9351
 2246TIP3   OH228296   1.144   0.218   8.399 -0.7677  1.0596  0.2406
 2246TIP3    H128297   1.094   0.155   8.451  0.4484  0.6565  0.9739
 2246TIP3    H228298   1.143   0.298   8.450 -0.3664  0.9383  0.4482
 2247TIP3   OH228299   4.764   0.978   1.316 -0.6994  0.5095  0.0245
 2247TIP3    H128300   4.753   0.894   1.361 -1.6841 -0.5988 -2.1803
 2247TIP3    H228301   4.810   0.956   1.235 -0.6548  2.1793 -0.4369
 2248TIP3   OH228302   6.415   0.630   1.976 -0.1324 -0.0155 -0.2841
 2248TIP3    H128303   6.455   0.690   1.913  0.3486  1.8259  1.6752
 2248TIP3    H228304   6.367   0.687   2.036 -1.0312 -1.7549  0.7182
 2249TIP3   OH228305   3.687   5.752   8.076 -0.2896  0.3671  0.0909
 2249TIP3    H128306   3.635   5.812   8.024  0.2944  0.7887 -0.0168
 2249TIP3    H228307   3.637   5.670   8.076 -1.2676  0.9431  0.5303
 2250TIP3   OH228308   1.343   1.490   0.335  0.3897 -0.1345  0.3656
 2250TIP3    H128309   1.383   1.419   0.285  0.3867  0.7773 -0.9648
 2250TIP3    H228310   1.344   1.459   0.426 -0.4334 -2.2294 -0.2745
 2251TIP3   OH228311   1.336   3.791   2.488 -0.5070  0.2003 -0.1002
 2251TIP3    H128312   1.424   3.766   2.514 -0.9558 -2.3371 -0.8247
 2251TIP3    H228313   1.321   3.874   2.534  2.5472  1.2265 -0.6873
 2252TIP3   OH228314   2.650   2.548   0.870 -0.2513  0.4272 -0.0183
 2252TIP3    H128315   2.670   2.476   0.809 -0.1241  0.6859 -0.2862
 2252TIP3    H228316   2.562   2.576   0.846 -0.4073  0.1844  0.2647
 2253TIP3   OH228317   1.929   6.219   8.041  0.8148 -0.5794 -0.2108
 2253TIP3    H128318   1.935   6.127   8.017  1.5864 -0.5031 -0.3531
 2253TIP3    H228319   1.977   6.265   7.971 -1.2439  0.1330 -1.2413
 2254TIP3   OH228320   3.916   3.026   1.556 -0.2324 -0.1777  0.3813
 2254TIP3    H128321   3.917   2.985   1.470  0.6311 -1.2038  0.8637
 2254TIP3    H228322   3.920   2.954   1.618 -0.1799  0.5695  1.2774
 2255TIP3   OH228323   1.339   5.450   8.473  0.0391 -0.2645  0.4443
 2255TIP3    H128324   1.258   5.477   8.517 -0.7316 -2.4456  0.4916
 2255TIP3    H228325   1.409   5.495   8.521 -1.0573  0.6387  1.2456
 2256TIP3   OH228326   3.092   1.864   7.118 -0.1405  0.5110  0.3373
 2256TIP3    H128327   3.021   1.927   7.106  0.6990  1.4909  0.4101
 2256TIP3    H228328   3.055   1.781   7.087 -1.5432  0.8500  1.0064
 2257TIP3   OH228329   5.489   4.365   2.224  0.0391 -0.0800  0.4746
 2257TIP3    H128330   5.557   4.300   2.240  2.2825  2.3588  1.6919
 2257TIP3    H228331   5.477   4.364   2.129  1.0180 -1.3069  0.3347
 2258TIP3   OH228332   0.834   3.326   6.938  0.5312 -0.1026 -0.2532
 2258TIP3    H128333   0.742   3.326   6.911 -0.2688 -0.7392  2.1858
 2258TIP3    H228334   0.872   3.251   6.891 -1.1018 -1.9765  1.1993
 2259TIP3   OH228335   4.338   4.703   2.144  0.1672  0.5223  0.1566
 2259TIP3    H128336   4.269   4.637   2.144 -0.8258  1.5296  0.2681
 2259TIP3    H228337   4.419   4.653   2.142 -0.5079 -0.7026 -3.4851
 2260TIP3   OH228338   5.852   1.829   0.614  0.3985 -0.2645  0.1183
 2260TIP3    H128339   5.886   1.876   0.689 -0.0323 -0.2909  0.3334
 2260TIP3    H228340   5.759   1.818   0.632  0.4483 -1.0178 -0.0197
 2261TIP3   OH228341   0.233   1.446   1.653 -0.3384  0.4971  0.7396
 2261TIP3    H128342   0.169   1.516   1.645  0.7753  1.4137 -0.6591
 2261TIP3    H228343   0.275   1.442   1.567 -0.7134 -2.2580  0.6093
 2262TIP3   OH228344   4.297   3.910   6.640 -0.7156 -0.7372  0.1046
 2262TIP3    H128345   4.204   3.931   6.649 -1.1446 -2.0258 -0.9886
 2262TIP3    H228346   4.343   3.983   6.682 -2.2470 -0.8425  2.1046
 2263TIP3   OH228347   5.334   6.004   8.334 -0.4136  0.4009  0.7742
 2263TIP3    H128348   5.287   6.060   8.272 -2.4435 -1.8923  0.0720
 2263TIP3    H228349   5.405   5.966   8.283  0.2720  1.4229  0.9458
 2264TIP3   OH228350   5.407   1.547   0.087 -0.5367  0.0293  0.0991
 2264TIP3    H128351   5.337   1.485   0.067 -0.6011  0.0855  0.1465
 2264TIP3    H228352   5.368   1.606   0.152 -0.2106 -0.3848  0.6753
 2265TIP3   OH228353   3.342   4.803   8.363  0.0318 -0.6361  0.1258
 2265TIP3    H128354   3.301   4.749   8.431 -1.0916  1.4496  1.2028
 2265TIP3    H228355   3.269   4.833   8.310  0.4780  0.7083  0.2337
 2266TIP3   OH228356   1.772   6.832   8.228 -0.4795  0.1597  0.1022
 2266TIP3    H128357   1.750   6.923   8.207  0.9895  0.3760 -0.6111
 2266TIP3    H228358   1.745   6.783   8.151  0.9691  0.3618 -0.5737
 2267TIP3   OH228359   2.656   4.698   8.166 -0.5986  0.1501  0.7302
 2267TIP3    H128360   2.638   4.645   8.089  1.2336  0.1833  0.2196
 2267TIP3    H228361   2.678   4.633   8.234 -1.0098  0.1613  0.8730
 2268TIP3   OH228362   4.365   4.907   1.353  0.2478  0.1258 -0.1858
 2268TIP3    H128363   4.416   4.966   1.298  0.3859  1.6568  1.4726
 2268TIP3    H228364   4.370   4.823   1.309  1.7799  0.8833 -1.5833
 2269TIP3   OH228365   6.091   1.539   0.989 -0.4614 -0.2493 -0.3651
 2269TIP3    H128366   6.169   1.594   0.990  0.2094 -1.1676 -0.8622
 2269TIP3    H228367   6.020   1.599   0.964 -0.8692  1.7131  4.4120
 2270TIP3   OH228368   3.685   4.651   2.088  0.0709 -0.0225  0.0462
 2270TIP3    H128369   3.672   4.574   2.145  0.4238  0.0937  0.2826
 2270TIP3    H228370   3.690   4.614   2.000 -3.3730 -0.0073 -0.3118
 2271TIP3   OH228371   2.781   4.166   1.024 -0.1621 -0.8589 -0.4806
 2271TIP3    H128372   2.691   4.141   1.043  0.2380 -0.4805  2.4174
 2271TIP3    H228373   2.777   4.261   1.014  0.1303 -0.5631  1.7291
 2272TIP3   OH228374   1.044   3.676   1.371  0.0458 -0.7254  0.2915
 2272TIP3    H128375   1.072   3.585   1.383  0.1629 -0.4802  2.2808
 2272TIP3    H228376   0.951   3.676   1.391  0.1649 -0.3281  0.8883
 2273TIP3   OH228377   5.131   2.597   8.462 -0.0292  0.8521 -0.2708
 2273TIP3    H128378   5.126   2.688   8.493  0.4548  1.1829 -1.1205
 2273TIP3    H228379   5.041   2.565   8.466 -0.0240  0.9671  1.1910
 2274TIP3   OH228380   3.383   5.611   1.033  0.0145 -0.1928 -0.1601
 2274TIP3    H128381   3.291   5.621   1.058  0.1930 -1.1223  0.9770
 2274TIP3    H228382   3.384   5.544   0.965 -0.1604 -0.0948 -0.2576
 2275TIP3   OH228383   2.936   2.784   0.096 -0.2237  0.0573  0.2147
 2275TIP3    H128384   2.987   2.864   0.084  1.6916 -0.9890  0.8923
 2275TIP3    H228385   2.902   2.790   0.185  0.5492 -0.1706  0.5430
 2276TIP3   OH228386   6.837   4.324   2.408  0.0262  0.0852  0.7626
 2276TIP3    H128387   6.790   4.307   2.326  0.0060  1.5391  0.4423
 2276TIP3    H228388   6.788   4.277   2.475 -0.5865 -0.2371  0.0925
 2277TIP3   OH228389   3.787   5.210   1.666 -0.1216  0.0501 -0.6004
 2277TIP3    H128390   3.793   5.169   1.580  2.5781  2.5339 -1.7976
 2277TIP3    H228391   3.736   5.289   1.651  0.4173  0.5324  0.0183
 2278TIP3   OH228392   3.187   3.314   7.874  0.1050 -0.0560 -0.0001
 2278TIP3    H128393   3.214   3.391   7.825  1.1536  0.6284  1.5385
 2278TIP3    H228394   3.114   3.277   7.825  1.0348  0.6158 -1.9700
 2279TIP3   OH228395   1.904   2.578   7.395 -0.6467  0.5422 -0.1867
 2279TIP3    H128396   1.931   2.507   7.336  1.4606  1.3027 -0.2183
 2279TIP3    H228397   1.982   2.598   7.446 -1.5214  2.0837  0.6283
 2280TIP3   OH228398   6.107   5.122   1.067  0.8362  0.0382  0.3821
 2280TIP3    H128399   6.129   5.214   1.051  0.4175  0.3051  1.2463
 2280TIP3    H228400   6.191   5.080   1.083  0.9859  0.4018  0.5805
 2281TIP3   OH228401   2.859   2.423   0.223  0.4184 -0.1972 -0.0542
 2281TIP3    H128402   2.916   2.500   0.219 -0.5338  0.4794 -1.8643
 2281TIP3    H228403   2.772   2.458   0.239 -0.0852 -0.8260 -1.2665
 2282TIP3   OH228404   5.332   6.509   7.279  0.2840 -0.5229 -0.4068
 2282TIP3    H128405   5.420   6.473   7.291 -0.4939 -1.9610  1.3194
 2282TIP3    H228406   5.316   6.500   7.185  1.4664 -1.4558 -0.5501
 2283TIP3   OH228407   0.563   2.162   6.713  0.0445 -0.5026  0.3121
 2283TIP3    H128408   0.612   2.164   6.632  0.5362 -1.1558  0.5803
 2283TIP3    H228409   0.581   2.246   6.756 -1.3152  0.4426 -0.8593
 2284TIP3   OH228410   5.447   3.827   0.009 -0.5331  0.2328 -0.0141
 2284TIP3    H128411   5.532   3.816   0.053  0.5690  1.3982 -1.7465
 2284TIP3    H228412   5.392   3.870   0.074 -0.5174 -2.3442  1.8739
 2285TIP3   OH228413   2.244   2.936   8.121 -0.3704  0.6623  0.0153
 2285TIP3    H128414   2.200   2.861   8.161  2.9906  0.0025  2.9312
 2285TIP3    H228415   2.195   3.012   8.154 -1.7685 -0.0939 -0.2281
 2286TIP3   OH228416   1.534   1.737   0.121  0.1974 -0.1765  0.3980
 2286TIP3    H128417   1.555   1.708   0.210 -0.7367 -0.6450  0.4772
 2286TIP3    H228418   1.587   1.816   0.109 -0.1454  0.2589  1.6107
 2287TIP3   OH228419   1.441   2.440   7.505 -0.1342 -0.4335  0.4448
 2287TIP3    H128420   1.523   2.470   7.544 -0.6151  0.2968  0.9438
 2287TIP3    H228421   1.462   2.423   7.414  0.7689 -1.1116  0.7707
 2288TIP3   OH228422   5.851   1.103   2.424 -0.2276  0.0790  0.5925
 2288TIP3    H128423   5.804   1.026   2.393 -0.3390 -0.1304  1.2706
 2288TIP3    H228424   5.820   1.174   2.368 -1.1273 -0.1134  0.8219
 2289TIP3   OH228425   4.354   0.786   1.350 -0.2738 -0.0125  0.0783
 2289TIP3    H128426   4.387   0.727   1.418  0.5324  0.5395  0.1717
 2289TIP3    H228427   4.288   0.840   1.395  0.1084  0.2101  0.3742
 2290TIP3   OH228428   0.204   4.306   1.779  0.2623  0.2785 -0.4077
 2290TIP3    H128429   0.250   4.316   1.862 -0.8417 -0.9801  0.4039
 2290TIP3    H228430   0.138   4.376   1.780 -0.4137 -0.3437  0.2768
 2291TIP3   OH228431   6.082   3.665   0.639 -0.0609 -0.0028 -0.0368
 2291TIP3    H128432   6.157   3.635   0.589  0.0129  0.1431 -0.0132
 2291TIP3    H228433   6.031   3.717   0.577 -0.8418 -1.1924 -0.4460
 2292TIP3   OH228434   4.994   5.581   8.061 -0.1033 -0.7977 -0.2989
 2292TIP3    H128435   4.915   5.529   8.076  0.7791 -1.7433  1.3015
 2292TIP3    H228436   4.963   5.658   8.013 -2.0070 -1.1206  0.3232
 2293TIP3   OH228437   3.298   5.491   7.046  0.2748  0.9533 -0.1128
 2293TIP3    H128438   3.256   5.436   6.979  0.1462 -0.6685  1.2249
 2293TIP3    H228439   3.391   5.472   7.036  0.1634 -0.2531  0.9316
 2294TIP3   OH228440   3.840   1.724   6.126 -0.0245 -0.2480 -0.0053
 2294TIP3    H128441   3.915   1.691   6.076 -0.5440  0.5919 -1.3938
 2294TIP3    H228442   3.864   1.814   6.149 -0.0989 -0.3876  0.6387
 2295TIP3   OH228443   1.850   4.351   1.972 -0.0378 -0.5650 -0.1376
 2295TIP3    H128444   1.783   4.393   2.025  0.4717  1.4372 -1.0037
 2295TIP3    H228445   1.926   4.344   2.029 -0.3285 -0.9718  0.2121
 2296TIP3   OH228446   0.115   5.686   8.181  0.4413 -0.2554  0.2501
 2296TIP3    H128447   0.094   5.660   8.270  0.8384  0.4580  0.5658
 2296TIP3    H228448   0.056   5.759   8.163 -1.8466 -2.3222 -1.2289
 2297TIP3   OH228449   4.687   1.898   0.391 -0.5301  0.6372 -0.4975
 2297TIP3    H128450   4.783   1.907   0.396 -0.6816  2.2181  0.2690
 2297TIP3    H228451   4.660   1.972   0.337 -1.3690  0.5675 -0.1778
 2298TIP3   OH228452   2.342   6.175   0.622 -0.8414  0.2786 -0.2713
 2298TIP3    H128453   2.366   6.246   0.563  0.6031  0.1826  0.1644
 2298TIP3    H228454   2.255   6.198   0.653 -1.3296  0.6947 -1.8553
 2299TIP3   OH228455   3.625   5.425   1.627  0.4329 -0.3518 -0.3897
 2299TIP3    H128456   3.542   5.464   1.655 -0.6752 -2.3736 -0.6520
 2299TIP3    H228457   3.630   5.445   1.533  0.0404 -0.5663 -0.4575
 2300TIP3   OH228458   0.384   0.059   1.496 -0.3040 -0.3084 -0.5301
 2300TIP3    H128459   0.470   0.100   1.503  0.3015 -1.8301  2.0262
 2300TIP3    H228460   0.325   0.120   1.539 -0.4017  0.3730 -1.5964
 2301TIP3   OH228461   6.014   4.259   8.193 -0.0474  0.2999  0.7606
 2301TIP3    H128462   5.980   4.327   8.135  0.5728 -1.1872 -1.4493
 2301TIP3    H228463   5.936   4.220   8.232 -0.6910 -0.3881 -1.1079
 2302TIP3   OH228464   4.192   1.035   1.727  0.3750  0.3535 -0.4544
 2302TIP3    H128465   4.259   1.082   1.777 -2.3273  1.8109  2.0920
 2302TIP3    H228466   4.134   1.104   1.694 -0.7459 -0.9188 -1.2631
 2303TIP3   OH228467   2.611   4.270   1.457 -0.0091 -0.0617 -0.4473
 2303TIP3    H128468   2.586   4.348   1.407  0.3758 -0.4921 -1.3527
 2303TIP3    H228469   2.533   4.215   1.455  0.1459 -0.2745 -0.9962
 2304TIP3   OH228470   5.218   4.536   2.568  0.0866  0.2268  0.4040
 2304TIP3    H128471   5.191   4.626   2.582  0.6518  0.3478  0.7293
 2304TIP3    H228472   5.294   4.524   2.625 -0.1791 -0.5488  0.6028
 2305TIP3   OH228473   0.308   6.759   1.238 -0.1086  0.1062 -0.0987
 2305TIP3    H128474   0.391   6.712   1.247  0.2584  1.0141  1.9921
 2305TIP3    H228475   0.317   6.834   1.297 -2.2018  0.5699 -0.2900
 2306TIP3   OH228476   2.208   1.421   8.028  0.6003  0.4942  0.2742
 2306TIP3    H128477   2.201   1.442   7.934 -1.3039 -0.4431  0.1505
 2306TIP3    H228478   2.233   1.503   8.069 -2.1650  1.9621 -0.6899
 2307TIP3   OH228479   6.045   1.260   7.515  0.0118  0.7183 -0.3937
 2307TIP3    H128480   6.031   1.167   7.497  1.8478  0.2470  0.3852
 2307TIP3    H228481   6.105   1.288   7.445  0.3718  1.0083  0.0270
 2308TIP3   OH228482   4.516   5.260   1.913  0.4128  0.6581  1.2249
 2308TIP3    H128483   4.563   5.301   1.986  0.3369  1.5793  0.7692
 2308TIP3    H228484   4.430   5.303   1.913  0.4572  0.7604  0.5215
 2309TIP3   OH228485   5.132   4.469   0.775  0.2956  0.2005  0.4206
 2309TIP3    H128486   5.080   4.534   0.822  0.0431 -0.4267  1.0188
 2309TIP3    H228487   5.081   4.389   0.780  0.0347  0.2095 -1.3307
 2310TIP3   OH228488   2.736   3.949   1.820 -0.0881 -0.0709 -0.4276
 2310TIP3    H128489   2.671   3.879   1.814 -0.0750  0.0113 -1.9625
 2310TIP3    H228490   2.687   4.028   1.798  0.4380  0.0355 -1.2658
 2311TIP3   OH228491   2.908   6.371   2.077  0.2899  0.2883  0.5584
 2311TIP3    H128492   2.830   6.348   2.128 -0.8663  0.0959 -1.1871
 2311TIP3    H228493   2.875   6.426   2.007  1.5104 -0.7750 -0.9259
 2312TIP3   OH228494   2.597   2.495   0.251  0.0853  0.3659  0.4237
 2312TIP3    H128495   2.563   2.583   0.237 -0.6221 -0.3622 -3.2703
 2312TIP3    H228496   2.519   2.440   0.259  0.3636 -0.4716 -1.9137
 2313TIP3   OH228497   0.665   3.626   7.674  0.5312  0.3698  0.6557
 2313TIP3    H128498   0.743   3.650   7.725  2.1040 -1.1417 -0.8567
 2313TIP3    H228499   0.688   3.541   7.636 -1.3759  0.4893 -0.8941
 2314TIP3   OH228500   0.687   5.094   0.462 -0.5359  0.0492  0.3371
 2314TIP3    H128501   0.592   5.090   0.469 -0.5409  1.1916  1.2515
 2314TIP3    H228502   0.704   5.162   0.397 -0.3789  2.2791  2.5509
 2315TIP3   OH228503   2.264   5.433   1.803 -0.3218 -0.3585  0.4960
 2315TIP3    H128504   2.193   5.469   1.749  1.4429  0.8954 -1.1197
 2315TIP3    H228505   2.239   5.454   1.893 -1.8819  0.2427 -0.0442
 2316TIP3   OH228506   3.300   4.179   6.690 -0.4212 -0.1900 -0.2022
 2316TIP3    H128507   3.287   4.106   6.629 -0.3330 -1.5946  1.3799
 2316TIP3    H228508   3.214   4.221   6.696 -0.4719 -0.1413 -1.1299
 2317TIP3   OH228509   3.895   1.786   7.267 -0.0697 -0.2219  0.4316
 2317TIP3    H128510   3.909   1.725   7.195  1.5095 -0.5171  0.9667
 2317TIP3    H228511   3.809   1.824   7.248  0.8573  0.7457 -2.3722
 2318TIP3   OH228512   4.839   3.563   0.027 -0.3941  0.5378  0.0425
 2318TIP3    H128513   4.857   3.656   0.013 -0.4637  0.4500 -0.6358
 2318TIP3    H228514   4.822   3.528  -0.060  1.4594 -0.5012  0.0415
 2319TIP3   OH228515   0.467   4.509   1.348  0.0951 -0.1203 -0.4012
 2319TIP3    H128516   0.378   4.544   1.355  0.7735  1.9407 -1.2071
 2319TIP3    H228517   0.486   4.475   1.435 -1.8298 -1.5843 -0.4873
 2320TIP3   OH228518   0.481   5.921   7.951 -0.1692  0.2165 -0.2367
 2320TIP3    H128519   0.423   5.986   7.990  0.1456  0.9498 -0.9739
 2320TIP3    H228520   0.424   5.845   7.936 -0.5945  0.4000  0.3829
 2321TIP3   OH228521   5.402   0.674   2.127  0.4840 -0.0346  0.1391
 2321TIP3    H128522   5.477   0.732   2.139  0.1054  0.9006 -1.6811
 2321TIP3    H228523   5.390   0.632   2.212  1.4240  1.7648  1.2112
 2322TIP3   OH228524   1.008   4.312   7.356 -0.2236  0.3519  0.0919
 2322TIP3    H128525   0.974   4.327   7.268  0.0183 -2.3071 -0.5358
 2322TIP3    H228526   1.074   4.244   7.345  1.0201  1.1295  2.1376
 2323TIP3   OH228527   3.082   5.896   0.521  0.0045  0.0081 -0.3200
 2323TIP3    H128528   3.054   5.857   0.604  1.7939 -0.3728  0.1365
 2323TIP3    H228529   3.002   5.900   0.468 -0.7569 -1.7031  0.6361
 2324TIP3   OH228530   5.238   0.918   7.591 -0.3245 -0.0137  0.1711
 2324TIP3    H128531   5.244   0.967   7.509 -1.8100  0.2129  0.1622
 2324TIP3    H228532   5.155   0.870   7.584 -0.8736  0.5938  1.8242
 2325TIP3   OH228533   6.018   0.014   6.974 -0.0722 -0.7406 -0.4190
 2325TIP3    H128534   5.998   0.094   7.024  1.6270  0.1974 -1.1592
 2325TIP3    H228535   5.937  -0.037   6.977 -0.7268  0.3080  1.3654
 2326TIP3   OH228536   0.029   4.166   0.907  0.0761  0.1397 -0.0779
 2326TIP3    H128537  -0.061   4.133   0.912 -0.2826  0.7675 -1.7162
 2326TIP3    H228538   0.084   4.087   0.913 -0.5333 -0.2066  1.3895
 2327TIP3   OH228539   3.350   4.990   2.129  0.5091  0.0915  0.1172
 2327TIP3    H128540   3.433   4.989   2.082 -0.4825  2.2320 -1.9028
 2327TIP3    H228541   3.359   5.062   2.192  0.0139  0.7453 -0.5397
 2328TIP3   OH228542   6.710   4.079   7.631 -0.2715  0.3065  0.6505
 2328TIP3    H128543   6.756   4.073   7.547  1.1782 -2.7144  1.5342
 2328TIP3    H228544   6.620   4.056   7.610  0.6212 -3.4032  0.1880
 2329TIP3   OH228545   5.860   1.579   2.556 -0.2576 -0.3143 -0.0957
 2329TIP3    H128546   5.940   1.601   2.510  0.4028 -1.8984  0.2212
 2329TIP3    H228547   5.795   1.640   2.522  0.9544  0.6793 -0.7176
 2330TIP3   OH228548   2.001   4.225   7.796 -0.1559 -0.0728 -0.1914
 2330TIP3    H128549   2.012   4.260   7.707  0.4954 -0.0034 -0.0909
 2330TIP3    H228550   2.021   4.299   7.853 -0.1474 -0.2342  0.0135
 2331TIP3   OH228551   5.145   0.730   6.935  0.0683 -0.0647  0.4142
 2331TIP3    H128552   5.059   0.690   6.951  0.0638 -0.5964 -0.8173
 2331TIP3    H228553   5.199   0.658   6.903  0.7221  0.4514  0.3428
 2332TIP3   OH228554   4.536   2.743   7.465 -0.6897 -0.3907 -0.7618
 2332TIP3    H128555   4.442   2.732   7.455 -0.7366 -1.2118  0.4790
 2332TIP3    H228556   4.552   2.734   7.559  0.7316 -1.1761 -1.0501
 2333TIP3   OH228557   3.158   1.588   6.419 -0.3214  0.5891 -0.3313
 2333TIP3    H128558   3.195   1.521   6.476 -0.7215  0.9378  0.3476
 2333TIP3    H228559   3.066   1.594   6.445 -1.0124 -0.5743 -2.2814
 2334TIP3   OH228560   1.654   3.442   1.272 -0.2645 -0.1817  0.4192
 2334TIP3    H128561   1.724   3.426   1.208 -0.0811  0.5555  0.4252
 2334TIP3    H228562   1.582   3.478   1.220 -0.7472 -1.1575  0.3752
 2335TIP3   OH228563   4.368   4.583   1.727 -0.8434 -0.0131  0.0690
 2335TIP3    H128564   4.431   4.534   1.673 -0.5976 -0.5247  0.7987
 2335TIP3    H228565   4.322   4.640   1.665  0.6852  0.7439 -0.4113
 2336TIP3   OH228566   1.265   6.824   7.549 -0.0766 -0.1297 -0.2549
 2336TIP3    H128567   1.357   6.822   7.578 -0.0219  0.0080 -0.4166
 2336TIP3    H228568   1.249   6.916   7.528  0.0340 -0.3026 -1.1214
 2337TIP3   OH228569   6.447   2.093   2.109  0.1464 -0.4464 -0.3687
 2337TIP3    H128570   6.375   2.119   2.165 -0.2953 -1.9003 -0.2293
 2337TIP3    H228571   6.518   2.071   2.169  1.0694  1.8731 -0.5255
 2338TIP3   OH228572   1.581   4.309   6.524  0.7819  0.6586  0.2284
 2338TIP3    H128573   1.675   4.308   6.505  0.3654  1.0062 -2.1707
 2338TIP3    H228574   1.551   4.395   6.493 -0.2690  0.7611  1.4387
 2339TIP3   OH228575   5.693   1.326   1.154 -0.8379  0.3856 -0.6240
 2339TIP3    H128576   5.621   1.378   1.189 -0.0858  1.9322 -1.2484
 2339TIP3    H228577   5.713   1.369   1.070  0.7595 -0.0452 -0.4779
 2340TIP3   OH228578   4.167   5.628   8.152 -0.3469 -0.3514 -0.1184
 2340TIP3    H128579   4.081   5.635   8.110  0.1913  1.8127 -0.9997
 2340TIP3    H228580   4.173   5.707   8.207  0.7780 -0.8713  0.5291
 2341TIP3   OH228581   2.323   4.383   1.133 -0.0048 -0.1020  0.2547
 2341TIP3    H128582   2.360   4.468   1.108 -0.5539 -0.2399 -1.1016
 2341TIP3    H228583   2.229   4.398   1.135 -0.1216 -0.7296 -0.2258
 2342TIP3   OH228584   0.728   3.383   6.276  0.3078 -0.3840  0.0931
 2342TIP3    H128585   0.756   3.397   6.186  0.0204  1.7707  0.2992
 2342TIP3    H228586   0.633   3.386   6.273  0.2778 -0.9616  0.3744
 2343TIP3   OH228587   3.075   5.929   1.240 -0.3473  0.1950 -0.2202
 2343TIP3    H128588   3.132   5.910   1.165  1.3118 -2.7251  1.5921
 2343TIP3    H228589   3.026   5.848   1.254 -0.0435  0.3684  2.2921
 2344TIP3   OH228590   1.100   1.439   2.033 -0.0842  0.3250  0.2864
 2344TIP3    H128591   1.066   1.483   2.111  1.3735  2.6672 -0.2748
 2344TIP3    H228592   1.056   1.483   1.960  2.3089  1.8837 -0.3416
 2345TIP3   OH228593   5.837   4.160   1.977 -0.6149 -0.0541 -0.1752
 2345TIP3    H128594   5.884   4.101   1.918  2.0193  1.4382  0.2749
 2345TIP3    H228595   5.906   4.211   2.020 -2.5086  0.4218  2.6092
 2346TIP3   OH228596   1.675   0.800   7.880 -0.1528  0.0381  0.3346
 2346TIP3    H128597   1.711   0.712   7.887  1.2119  0.6297  1.2840
 2346TIP3    H228598   1.653   0.809   7.787  1.6648 -0.5968 -0.2122
 2347TIP3   OH228599   4.329   2.493   2.078  0.4332  0.0385  0.1528
 2347TIP3    H128600   4.406   2.449   2.042  0.7347  0.4430  0.2892
 2347TIP3    H228601   4.261   2.425   2.082  0.4637 -0.0684 -0.9482
 2348TIP3   OH228602   1.959   2.560   1.884 -0.2748  0.3639  0.0820
 2348TIP3    H128603   1.936   2.517   1.802  2.4975 -0.6352 -0.2788
 2348TIP3    H228604   1.973   2.652   1.860 -0.4818  0.2773 -0.3758
 2349TIP3   OH228605   4.770   3.193   8.065 -0.0837 -0.1048  0.0159
 2349TIP3    H128606   4.712   3.122   8.093  0.0204 -0.6174 -1.0293
 2349TIP3    H228607   4.858   3.157   8.075  0.0189  0.2683  0.5032
 2350TIP3   OH228608   3.897   6.227   8.509  0.0282  0.0641 -0.0806
 2350TIP3    H128609   3.957   6.181   8.451  1.6192  2.4590 -0.5170
 2350TIP3    H228610   3.814   6.232   8.461  0.8030  0.4801 -1.4291
 2351TIP3   OH228611   0.542   3.600   2.406  0.3787 -0.4485  0.4630
 2351TIP3    H128612   0.476   3.633   2.468  1.1086  0.7540  0.6299
 2351TIP3    H228613   0.513   3.632   2.321 -0.0740 -1.2383  0.3110
 2352TIP3   OH228614   0.996   5.683   1.286 -0.2211 -0.6010  0.0455
 2352TIP3    H128615   0.947   5.611   1.247 -1.7739 -1.0562  2.6170
 2352TIP3    H228616   1.085   5.649   1.297 -1.0635 -2.4316  1.7643
 2353TIP3   OH228617   5.341   1.706   1.326  0.2425  0.1965  0.5786
 2353TIP3    H128618   5.298   1.750   1.252  0.4106 -2.1901 -1.0359
 2353TIP3    H228619   5.434   1.711   1.306  0.3898  0.7038  1.3505
 2354TIP3   OH228620   6.293   6.226   0.203  0.1667  0.8145  0.7078
 2354TIP3    H128621   6.387   6.225   0.184 -0.0298 -1.1298 -0.3841
 2354TIP3    H228622   6.254   6.263   0.124 -0.0520  1.0380  0.9175
 2355TIP3   OH228623   4.715   2.533   0.947  0.4727 -0.1561 -0.1092
 2355TIP3    H128624   4.767   2.607   0.918 -0.5701 -0.2155 -2.3313
 2355TIP3    H228625   4.772   2.457   0.935  0.8987  0.0736  0.4103
 2356TIP3   OH228626   0.705   3.186   7.713  0.1789 -0.3862  0.2600
 2356TIP3    H128627   0.719   3.257   7.650 -0.2344  0.2825  0.9060
 2356TIP3    H228628   0.768   3.204   7.783  0.5093 -1.0227  0.1278
 2357TIP3   OH228629   3.455   0.369   1.322 -0.2169  0.2317 -0.5930
 2357TIP3    H128630   3.528   0.309   1.335  0.3475  1.1937  0.8902
 2357TIP3    H228631   3.465   0.400   1.232  0.9492  0.0101 -0.5556
 2358TIP3   OH228632   4.361   6.737   7.926  0.3392 -0.5395  0.0314
 2358TIP3    H128633   4.391   6.705   8.012 -0.1821  0.6291  0.6844
 2358TIP3    H228634   4.342   6.830   7.941  1.1121 -0.0844 -1.5874
 2359TIP3   OH228635   5.772   1.115   8.010  0.6865 -0.0791 -0.1851
 2359TIP3    H128636   5.838   1.085   8.072  2.3521  1.7797 -0.9664
 2359TIP3    H228637   5.762   1.208   8.029 -3.0844 -0.5574  1.0648
 2360TIP3   OH228638   4.700   4.738   6.796  0.2109  0.4022  0.4888
 2360TIP3    H128639   4.685   4.778   6.881  0.0880  0.0947  0.6128
 2360TIP3    H228640   4.770   4.791   6.757 -1.4931  2.1653 -0.3117
 2361TIP3   OH228641   4.751   0.523   1.268  0.0095 -0.7546 -0.3199
 2361TIP3    H128642   4.719   0.433   1.263 -0.2421 -0.6160 -1.6741
 2361TIP3    H228643   4.684   0.575   1.223 -0.2106  0.2257  1.0717
 2362TIP3   OH228644   2.671   1.069   7.010  0.2316  0.1827 -0.1437
 2362TIP3    H128645   2.614   1.043   6.938 -0.5429  0.3125  0.4064
 2362TIP3    H228646   2.727   1.138   6.973 -2.4693  2.7739  0.2247
 2363TIP3   OH228647   0.074   3.717   7.343 -0.0459  0.5801 -0.4909
 2363TIP3    H128648   0.124   3.789   7.380 -0.1087  1.0126 -1.2248
 2363TIP3    H228649   0.116   3.638   7.377 -0.7918  0.9429  1.3879
 2364TIP3   OH228650   0.857   4.732   8.253  0.0086  0.4059 -0.1983
 2364TIP3    H128651   0.815   4.647   8.242  0.9320 -0.0292 -0.4141
 2364TIP3    H228652   0.896   4.751   8.167 -0.8746  1.4345 -0.4061
 2365TIP3   OH228653   5.500   2.750   0.073  0.3435 -0.2993  0.3008
 2365TIP3    H128654   5.407   2.771   0.079 -0.2009 -1.9828 -1.3124
 2365TIP3    H228655   5.544   2.835   0.077 -1.1258  0.4518  2.3516
 2366TIP3   OH228656   3.372   4.340   1.830 -0.0774 -0.2656 -0.7776
 2366TIP3    H128657   3.386   4.374   1.918  1.7482 -1.7882 -0.3865
 2366TIP3    H228658   3.458   4.346   1.788 -1.5073  3.5947 -3.7930
 2367TIP3   OH228659   1.895   5.848   0.231 -0.0622 -0.1823 -0.2303
 2367TIP3    H128660   1.938   5.914   0.285 -3.7415  0.8493  1.8134
 2367TIP3    H228661   1.917   5.873   0.141  2.7922  0.6432  0.5928
 2368TIP3   OH228662   3.761   2.150   1.643  0.3544  0.0873  0.1477
 2368TIP3    H128663   3.733   2.120   1.730  0.7694 -0.2879  0.1554
 2368TIP3    H228664   3.846   2.192   1.659 -0.3281  1.5244  0.1839
 2369TIP3   OH228665   5.716   6.845   7.281 -0.1073  0.7207  0.1073
 2369TIP3    H128666   5.778   6.839   7.353 -3.8021 -0.8984  3.5372
 2369TIP3    H228667   5.693   6.938   7.277  1.4483  1.1180 -0.3167
 2370TIP3   OH228668   5.477   2.374   6.583 -0.7118  0.1292  0.0225
 2370TIP3    H128669   5.569   2.365   6.608 -1.1976 -0.5146  1.6796
 2370TIP3    H228670   5.461   2.301   6.523  0.1314  0.9012 -1.1690
 2371TIP3   OH228671   1.722   4.671   7.317  0.3779 -0.4828 -0.3683
 2371TIP3    H128672   1.724   4.635   7.228  0.8032 -0.7564 -0.2479
 2371TIP3    H228673   1.805   4.716   7.327  0.5095 -0.8097  0.0395
 2372TIP3   OH228674   4.487   2.276   8.369  0.6974  0.6272 -0.5583
 2372TIP3    H128675   4.409   2.310   8.413 -1.3704 -2.6070 -1.3774
 2372TIP3    H228676   4.454   2.234   8.290  3.1051 -1.8080 -0.4340
 2373TIP3   OH228677   2.583   5.027   7.840 -0.3304  0.3631  0.2458
 2373TIP3    H128678   2.507   5.052   7.787 -0.2577  0.3789  0.1492
 2373TIP3    H228679   2.546   5.002   7.924 -0.6093 -1.2372 -0.3289
 2374TIP3   OH228680   0.820   0.424   1.504 -0.0633  0.2376 -0.5100
 2374TIP3    H128681   0.866   0.376   1.435  0.3925 -0.3292  0.1660
 2374TIP3    H228682   0.846   0.380   1.585  2.1859  2.9918  0.4049
 2375TIP3   OH228683   1.095   1.841   2.395  0.2439  0.7338 -0.5438
 2375TIP3    H128684   1.021   1.899   2.413  0.2347  0.7193 -0.5354
 2375TIP3    H228685   1.147   1.843   2.475 -0.2146  0.0425 -0.2143
 2376TIP3   OH228686   3.400   3.519   0.280  0.5356 -0.4175  0.1437
 2376TIP3    H128687   3.422   3.460   0.352 -0.4501 -0.0872  0.7349
 2376TIP3    H228688   3.307   3.537   0.291  1.1052  2.6834  1.1201
 2377TIP3   OH228689   4.968   2.419   6.885 -0.1526  0.0341  0.4320
 2377TIP3    H128690   4.975   2.405   6.791  2.8172  0.4313  0.5039
 2377TIP3    H228691   4.980   2.332   6.923 -0.9597 -0.0635  0.4878
 2378TIP3   OH228692   5.603   6.802   0.564  0.5079  0.5288 -0.3496
 2378TIP3    H128693   5.687   6.815   0.519  0.5867  0.8297 -0.1221
 2378TIP3    H228694   5.594   6.880   0.620  0.4539  0.1217  0.2205
 2379TIP3   OH228695   3.446   3.957   7.306  0.6111  0.0039  0.3946
 2379TIP3    H128696   3.360   3.977   7.343 -1.6738 -0.4637 -4.0391
 2379TIP3    H228697   3.452   3.862   7.309  1.3162  0.0635  1.2576
 2380TIP3   OH228698   6.450   2.079   1.592  0.3298 -0.5474 -0.2059
 2380TIP3    H128699   6.495   2.068   1.676  1.0671  1.9588 -0.2001
 2380TIP3    H228700   6.369   2.125   1.615 -0.7156 -2.0723 -0.6341
 2381TIP3   OH228701   6.402   6.534   7.957  0.0500 -0.3796  0.0531
 2381TIP3    H128702   6.447   6.482   7.891  1.8131  1.0969  0.0219
 2381TIP3    H228703   6.458   6.529   8.035 -1.8890 -1.9363  1.4553
 2382TIP3   OH228704   0.114   5.040   0.114  0.0056  0.4210  0.1022
 2382TIP3    H128705   0.028   4.999   0.127  0.6923 -1.7148 -1.5960
 2382TIP3    H228706   0.157   5.033   0.198 -1.1105  0.6368  0.7161
 2383TIP3   OH228707   5.626   4.826   7.315 -0.5371  0.6558 -0.8262
 2383TIP3    H128708   5.595   4.778   7.392  0.0122  0.6583 -0.6048
 2383TIP3    H228709   5.586   4.913   7.323 -1.2397  0.3607 -1.0395
 2384TIP3   OH228710   4.927   3.089   1.736  0.5857 -0.3862 -0.2446
 2384TIP3    H128711   4.884   3.016   1.782 -2.9348  1.8320  0.3390
 2384TIP3    H228712   4.874   3.102   1.658  0.5035  2.1036  0.1555
 2385TIP3   OH228713   0.394   1.971   8.321 -0.2695  0.4453 -0.4338
 2385TIP3    H128714   0.374   2.028   8.247  0.2863 -0.0796 -1.0000
 2385TIP3    H228715   0.477   2.006   8.356 -0.3334  0.4575 -0.2917
 2386TIP3   OH228716   6.464   2.360   0.050  0.0276  0.4716  0.3460
 2386TIP3    H128717   6.450   2.266   0.055  0.8818  0.4069  2.1845
 2386TIP3    H228718   6.517   2.372  -0.029  0.0473 -0.6052  0.1823
 2387TIP3   OH228719   5.290   2.605   1.017  0.1703 -0.0615 -0.6938
 2387TIP3    H128720   5.371   2.629   1.062 -1.2558  1.9678  0.9453
 2387TIP3    H228721   5.261   2.685   0.975 -0.2469 -1.1366 -2.5667
 2388TIP3   OH228722   2.959   1.121   2.198  0.0897 -0.0527  0.3693
 2388TIP3    H128723   2.925   1.167   2.275  0.2496 -0.7675  0.8700
 2388TIP3    H228724   2.896   1.051   2.181 -0.3182  0.5156 -0.5852
 2389TIP3   OH228725   0.562   3.596   0.841  0.3542 -0.2441 -0.3637
 2389TIP3    H128726   0.572   3.673   0.897 -0.7185 -0.9325  0.8143
 2389TIP3    H228727   0.574   3.630   0.752 -1.0381  1.4962  0.0584
 2390TIP3   OH228728   6.021   6.060   1.486 -0.4182 -0.2067  0.4437
 2390TIP3    H128729   6.023   6.153   1.466 -0.7062 -0.1326  0.7596
 2390TIP3    H228730   6.096   6.023   1.438  0.7843  0.4604  1.7577
 2391TIP3   OH228731   5.671   1.275   0.307  0.1972 -0.0183  0.6505
 2391TIP3    H128732   5.727   1.348   0.333  1.2858 -1.2259  1.9025
 2391TIP3    H228733   5.723   1.197   0.328 -1.1343 -1.1627 -0.1440
 2392TIP3   OH228734   2.716   6.779   0.613  0.4792 -0.4983 -0.1729
 2392TIP3    H128735   2.621   6.780   0.616  0.4403 -2.0786  0.1973
 2392TIP3    H228736   2.740   6.690   0.641  2.1282  0.4358  1.6362
 2393TIP3   OH228737   6.487   4.279   1.164 -0.2060 -0.4774 -0.3678
 2393TIP3    H128738   6.467   4.372   1.148  0.7666 -0.0891  0.5642
 2393TIP3    H228739   6.583   4.275   1.163 -0.0824 -0.7813  3.0989
 2394TIP3   OH228740   6.277   3.127   0.569  0.0402 -0.8784  0.5787
 2394TIP3    H128741   6.348   3.165   0.518 -1.0315  0.8857  0.3054
 2394TIP3    H228742   6.232   3.068   0.509  0.6461 -1.2049  0.4460
 2395TIP3   OH228743   5.097   3.923   0.287  0.5064 -0.5355 -0.0940
 2395TIP3    H128744   5.082   3.847   0.343 -0.2942  0.7159  1.4547
 2395TIP3    H228745   5.014   3.936   0.241  0.8527 -0.9704 -0.8609
 2396TIP3   OH228746   4.666   0.565   0.281  0.2064 -0.0447  0.3575
 2396TIP3    H128747   4.665   0.538   0.190  0.6006  0.5526  0.1680
 2396TIP3    H228748   4.698   0.656   0.279 -2.2324  0.8936  0.8396
 2397TIP3   OH228749   4.778   0.199   1.939  0.3615  0.6841 -0.1563
 2397TIP3    H128750   4.819   0.208   1.852 -0.9493  0.0587 -0.8632
 2397TIP3    H228751   4.826   0.261   1.994  2.6785 -0.4361 -0.7659
 2398TIP3   OH228752   0.075   4.946   2.099 -0.0234 -0.4760 -0.7575
 2398TIP3    H128753   0.024   4.865   2.108  1.0759 -0.9795  1.4534
 2398TIP3    H228754   0.166   4.918   2.101  0.3880  0.8361  0.3790
 2399TIP3   OH228755   0.363   5.281   0.898  0.1703  0.4135 -0.5042
 2399TIP3    H128756   0.368   5.372   0.929 -1.4026  1.0241 -1.8473
 2399TIP3    H228757   0.277   5.251   0.924  0.0883 -0.1686 -1.3828
 2400TIP3   OH228758   3.627   2.440   1.647  0.2246 -0.1434  0.0779
 2400TIP3    H128759   3.553   2.501   1.650  0.6905  0.4870 -0.7024
 2400TIP3    H228760   3.704   2.496   1.653  0.6849 -0.9216  2.8474
 2401TIP3   OH228761   6.703   3.649   1.230 -0.0247  0.3762  0.2034
 2401TIP3    H128762   6.731   3.573   1.281  0.6647 -0.4726 -1.3805
 2401TIP3    H228763   6.744   3.724   1.274  1.3402 -0.4310  0.3676
 2402TIP3   OH228764   5.800   5.099   7.814  0.3989 -0.1514 -0.0327
 2402TIP3    H128765   5.713   5.083   7.776  1.0191 -0.9038 -1.1584
 2402TIP3    H228766   5.862   5.071   7.747  1.5352  0.9550  0.5017
 2403TIP3   OH228767   0.571   2.242   0.636  0.1645  0.0367  0.0450
 2403TIP3    H128768   0.540   2.289   0.714  0.5675 -0.7566  0.6903
 2403TIP3    H228769   0.492   2.201   0.600 -0.0323  0.4518 -0.0084
 2404TIP3   OH228770   5.766   2.194   6.924 -0.4666  0.5873  0.1671
 2404TIP3    H128771   5.725   2.268   6.879  0.9126  0.6275 -1.1110
 2404TIP3    H228772   5.722   2.189   7.009 -3.4670  0.2767 -1.2762
 2405TIP3   OH228773   1.608   3.350   7.902  0.1934 -0.2738 -0.2796
 2405TIP3    H128774   1.598   3.256   7.886 -0.1513  0.0263 -2.0855
 2405TIP3    H228775   1.527   3.375   7.947  0.2199 -0.8197  0.0757
 2406TIP3   OH228776   3.956   0.127   7.427  0.5916 -0.1871 -0.4553
 2406TIP3    H128777   3.904   0.067   7.480 -2.4785  1.2874 -1.5309
 2406TIP3    H228778   3.937   0.102   7.337  2.1935  0.1137 -0.9041
 2407TIP3   OH228779   3.859   6.426   7.819 -0.1574 -0.0589 -0.5074
 2407TIP3    H128780   3.781   6.459   7.864  0.3102  0.5082 -0.0848
 2407TIP3    H228781   3.839   6.335   7.799 -1.5664  0.5059 -1.8550
 2408TIP3   OH228782   0.647   6.384   8.476  0.1426 -0.0764 -0.1366
 2408TIP3    H128783   0.632   6.354   8.386 -0.2072 -0.9711  0.2098
 2408TIP3    H228784   0.560   6.391   8.514  0.3365 -1.0830  0.5536
 2409TIP3   OH228785   5.542   1.564   7.682  0.2871  0.5807  0.5655
 2409TIP3    H128786   5.554   1.481   7.727  1.8996  1.1834  1.3271
 2409TIP3    H228787   5.631   1.594   7.662 -0.3104  1.4372 -1.0066
 2410TIP3   OH228788   1.870   5.820   2.267  0.1794  0.1145 -0.5290
 2410TIP3    H128789   1.889   5.764   2.342  0.7470  0.7820 -0.1587
 2410TIP3    H228790   1.852   5.906   2.305  2.5024  0.9855 -1.2307
 2411TIP3   OH228791   1.936   2.991   0.207  0.2247  0.0060 -0.0475
 2411TIP3    H128792   2.019   2.957   0.241  0.4348  0.5775  0.0340
 2411TIP3    H228793   1.887   3.016   0.285 -0.6398 -1.6891 -0.0249
 2412TIP3   OH228794   3.796   6.846   7.918  0.9682 -0.0616 -0.0414
 2412TIP3    H128795   3.851   6.842   7.840  0.2379 -1.8087 -0.5001
 2412TIP3    H228796   3.857   6.871   7.988  2.3512 -1.8259 -0.5464
 2413TIP3   OH228797   5.344   6.387   1.685 -0.0320 -0.7963 -0.2610
 2413TIP3    H128798   5.250   6.373   1.679  0.1545 -1.3984 -3.1984
 2413TIP3    H228799   5.368   6.354   1.772 -2.7129  0.9704  1.2828
 2414TIP3   OH228800   5.075   2.685   7.047 -0.5995  0.2626 -0.6096
 2414TIP3    H128801   5.026   2.617   7.002  1.0348 -0.4282 -1.4198
 2414TIP3    H228802   5.159   2.645   7.068 -0.9689  0.8076  2.3804
 2415TIP3   OH228803   3.321   5.580   8.446 -0.1912 -0.0177  0.2036
 2415TIP3    H128804   3.250   5.544   8.393 -1.4316  0.2732  1.5990
 2415TIP3    H228805   3.278   5.646   8.501  1.3326  0.7955  0.4498
 2416TIP3   OH228806   4.153   3.723   8.368  0.5412  0.5942 -0.0690
 2416TIP3    H128807   4.180   3.632   8.361  1.5114  0.7676  1.0709
 2416TIP3    H228808   4.061   3.724   8.340  0.3034 -0.8539  0.6085
 2417TIP3   OH228809   2.020   1.083   1.352  0.3420  0.2066 -0.3057
 2417TIP3    H128810   1.965   1.151   1.314 -0.2712  0.1356  0.4343
 2417TIP3    H228811   1.960   1.029   1.402  0.3573 -2.3877 -2.8257
 2418TIP3   OH228812   3.255   5.419   7.332 -0.3810 -0.0803  0.5613
 2418TIP3    H128813   3.303   5.464   7.263  1.6079  2.3033  3.2564
 2418TIP3    H228814   3.249   5.328   7.301 -0.0437  0.9190 -2.8452
 2419TIP3   OH228815   4.831   5.393   1.621  0.2634 -0.2463 -0.1677
 2419TIP3    H128816   4.769   5.321   1.610  0.7299 -0.8538  1.0273
 2419TIP3    H228817   4.898   5.359   1.680 -0.5938  1.8344  2.1648
 2420TIP3   OH228818   4.240   2.214   1.242 -0.5109 -0.2847 -0.2193
 2420TIP3    H128819   4.299   2.149   1.203 -1.3088  0.2300 -2.4582
 2420TIP3    H228820   4.179   2.162   1.294  1.0930 -0.9387  1.0780
 2421TIP3   OH228821   2.345   3.889   2.260  0.1540 -0.0457 -0.3228
 2421TIP3    H128822   2.397   3.852   2.189 -0.2302 -0.7829 -0.2312
 2421TIP3    H228823   2.257   3.897   2.224  0.1312  0.3348 -0.1859
 2422TIP3   OH228824   5.475   6.641   6.926 -0.0457 -0.2498 -0.5021
 2422TIP3    H128825   5.414   6.659   6.855 -0.0372 -2.5755 -1.1771
 2422TIP3    H228826   5.433   6.572   6.978 -0.7318  2.3196  2.7255
 2423TIP3   OH228827   2.196   5.374   8.365 -0.2787  0.3908  0.5909
 2423TIP3    H128828   2.140   5.367   8.288  2.4307  3.0733 -1.9307
 2423TIP3    H228829   2.149   5.433   8.424 -1.0649  0.8582 -0.4658
 2424TIP3   OH228830   4.426   5.959   0.346 -0.0064 -0.1515 -0.1449
 2424TIP3    H128831   4.355   6.021   0.330 -0.5119 -1.0476 -1.5905
 2424TIP3    H228832   4.391   5.899   0.412  0.8606  1.6342  2.0411
 2425TIP3   OH228833   5.040   2.177   7.224 -0.4792  0.4195 -0.1698
 2425TIP3    H128834   4.991   2.175   7.142 -0.7232 -1.1395 -0.0046
 2425TIP3    H228835   4.979   2.218   7.286 -1.4541 -1.1074 -0.0691
 2426TIP3   OH228836   6.615   0.316   2.204  0.3452 -0.4132 -0.3960
 2426TIP3    H128837   6.596   0.244   2.264 -1.2476  0.2579 -0.0582
 2426TIP3    H228838   6.549   0.382   2.224  1.0302  0.6478 -1.5321
 2427TIP3   OH228839   4.697   5.120   0.517 -0.1593 -0.2741 -0.4334
 2427TIP3    H128840   4.610   5.151   0.544 -0.7309 -1.7067 -0.5540
 2427TIP3    H228841   4.711   5.040   0.568  0.7101 -0.5457 -1.0735
 2428TIP3   OH228842   3.602   0.523   7.771 -0.0467  0.4461 -0.7957
 2428TIP3    H128843   3.623   0.512   7.679  0.8750 -1.5061 -0.4113
 2428TIP3    H228844   3.670   0.582   7.804  0.2130  0.3612 -1.1683
 2429TIP3   OH228845   5.711   1.035   7.003 -0.0638  0.0466 -0.0616
 2429TIP3    H128846   5.715   1.116   7.054  0.8720 -0.8374  1.3301
 2429TIP3    H228847   5.657   1.057   6.927 -0.4452  1.7604  0.6668
 2430TIP3   OH228848   0.761   2.311   1.485  0.0162  0.2117  0.2957
 2430TIP3    H128849   0.800   2.370   1.421 -1.7324 -0.1721 -1.2285
 2430TIP3    H228850   0.827   2.243   1.498  0.5980  0.5501 -0.7569
 2431TIP3   OH228851   5.166   6.824   2.539 -0.0714 -0.2487  0.1192
 2431TIP3    H128852   5.187   6.747   2.591  2.2756  1.4537  1.9339
 2431TIP3    H228853   5.236   6.829   2.473 -0.9581 -0.3628 -0.8654
 2432TIP3   OH228854   2.087   0.717   1.943 -0.1116 -0.2968  0.3177
 2432TIP3    H128855   2.167   0.757   1.908  0.4593 -0.2148  1.6770
 2432TIP3    H228856   2.081   0.750   2.032 -1.4953 -0.5731  0.3393
 2433TIP3   OH228857   2.049   5.645   0.248  0.6951 -0.5431 -0.0087
 2433TIP3    H128858   1.995   5.721   0.269  0.1096 -1.1378  0.6739
 2433TIP3    H228859   1.997   5.570   0.275  1.3295 -1.1917 -0.5381
 2434TIP3   OH228860   6.439   6.113   7.208 -0.1656  0.2332  0.2539
 2434TIP3    H128861   6.447   6.068   7.124  0.7414 -2.9855  1.9242
 2434TIP3    H228862   6.351   6.152   7.206 -1.3358 -2.2524 -1.0806
 2435TIP3   OH228863   3.337   6.798   6.757 -0.5739  0.1683  0.1810
 2435TIP3    H128864   3.403   6.853   6.800 -1.9562  1.6223  0.5524
 2435TIP3    H228865   3.375   6.711   6.756  1.4627  1.0095  0.1301
 2436TIP3   OH228866   6.873   2.757   7.630  0.1801  0.2123 -0.5803
 2436TIP3    H128867   6.926   2.778   7.553  0.2933  0.5130 -0.4221
 2436TIP3    H228868   6.903   2.670   7.657 -1.6279 -1.0675 -2.3909
 2437TIP3   OH228869   2.950   6.564   2.370  0.5785 -0.0545  0.2195
 2437TIP3    H128870   3.038   6.535   2.346  1.8530  2.9966  0.6974
 2437TIP3    H228871   2.964   6.625   2.443 -2.0178  0.1095  0.6929
 2438TIP3   OH228872   3.308   5.052   0.741  0.7465  0.1365 -0.3966
 2438TIP3    H128873   3.373   5.038   0.811 -1.1685 -1.8020  1.1430
 2438TIP3    H228874   3.344   5.005   0.666  1.5089 -0.2730  0.2055
 2439TIP3   OH228875   2.012   1.661   0.167  0.0662  0.3137  0.1268
 2439TIP3    H128876   1.997   1.617   0.250  0.9804 -1.1555 -0.4356
 2439TIP3    H228877   2.038   1.750   0.190  1.5032 -0.4145  1.4965
 2440TIP3   OH228878   1.293   3.081   1.242  0.5897 -0.5314  0.1722
 2440TIP3    H128879   1.262   3.125   1.321 -0.5538 -1.7565  0.4606
 2440TIP3    H228880   1.214   3.071   1.188  1.0749 -0.9812 -0.4699
 2441TIP3   OH228881   6.340   3.594   7.606 -0.2589 -0.1004 -0.7029
 2441TIP3    H128882   6.249   3.583   7.633 -0.0018 -0.8915 -0.1201
 2441TIP3    H228883   6.349   3.539   7.528  0.4190 -2.3405  0.8609
 2442TIP3   OH228884   2.100   4.483   1.506 -0.6043  0.4588  0.1083
 2442TIP3    H128885   2.167   4.423   1.540 -1.2994  0.0563  0.7935
 2442TIP3    H228886   2.140   4.570   1.514 -0.8487  0.4241  2.3171
 2443TIP3   OH228887   2.336   1.417   0.799 -0.5104 -0.7393  0.0516
 2443TIP3    H128888   2.430   1.407   0.781 -0.4260  0.8790 -0.6204
 2443TIP3    H228889   2.294   1.400   0.715 -0.6019  0.8367 -0.2602
 2444TIP3   OH228890   4.415   1.132   0.271  0.2840 -0.3025 -0.3696
 2444TIP3    H128891   4.433   1.217   0.230  0.0809 -0.0644  0.0202
 2444TIP3    H228892   4.499   1.102   0.304  0.0104  0.8652  1.5670
 2445TIP3   OH228893   4.729   0.716   1.461 -0.1995  0.1524 -0.1935
 2445TIP3    H128894   4.650   0.666   1.479  0.6043 -0.9751  0.3154
 2445TIP3    H228895   4.785   0.656   1.411  0.4607  0.8133 -0.2713
 2446TIP3   OH228896   2.925   1.481   1.321  0.0959 -0.4992 -0.4156
 2446TIP3    H128897   2.887   1.542   1.258  0.4130  0.5691  0.4172
 2446TIP3    H228898   3.019   1.483   1.303  0.1739 -0.2855  0.0038
 2447TIP3   OH228899   1.953   1.822   1.071  0.3316  0.0971  0.2181
 2447TIP3    H128900   1.884   1.799   1.009  0.4981  0.3355 -0.0600
 2447TIP3    H228901   1.937   1.915   1.091  0.8513  0.2893 -0.2207
 2448TIP3   OH228902   2.550   4.573   0.313  0.6300 -0.5000  0.4045
 2448TIP3    H128903   2.488   4.635   0.352  1.1941  0.8451 -0.7445
 2448TIP3    H228904   2.604   4.545   0.387 -1.1192 -1.4843  1.3713
 2449TIP3   OH228905   3.078   2.179   6.894 -0.3618 -0.1404 -0.0885
 2449TIP3    H128906   3.010   2.197   6.829 -0.8661 -1.2041  0.1301
 2449TIP3    H228907   3.031   2.143   6.969  0.4765 -1.3054 -0.1039
 2450TIP3   OH228908   5.999   0.010   8.449 -0.1992  0.1392  0.2013
 2450TIP3    H128909   5.944   0.088   8.455  0.5110  0.6493  0.1862
 2450TIP3    H228910   5.938  -0.062   8.434 -0.8552  0.6996  0.1711
 2451TIP3   OH228911   4.756   4.055   0.198 -0.1400 -0.5065  0.0188
 2451TIP3    H128912   4.680   4.112   0.180 -1.0928 -1.8814 -0.4755
 2451TIP3    H228913   4.823   4.115   0.232 -1.2294  0.8482 -0.1129
 2452TIP3   OH228914   2.294   3.877   0.760 -0.2410  0.7065  0.0047
 2452TIP3    H128915   2.385   3.907   0.770 -0.2017  1.3731 -1.9097
 2452TIP3    H228916   2.294   3.789   0.796  1.0999  0.8247  0.3507
 2453TIP3   OH228917   5.498   5.888   0.164  0.8586 -0.3646  0.0336
 2453TIP3    H128918   5.492   5.958   0.228 -0.1745 -0.8665  0.5036
 2453TIP3    H228919   5.409   5.879   0.129  1.1903 -0.7808 -0.7398
 2454TIP3   OH228920   0.718   2.389   0.456  0.2199 -0.0346  0.0103
 2454TIP3    H128921   0.656   2.458   0.433  0.2660 -0.4579 -1.4794
 2454TIP3    H228922   0.678   2.344   0.530  0.1727  1.5382  0.9822
 2455TIP3   OH228923   2.811   5.445   2.788  0.4306  0.5126 -0.3318
 2455TIP3    H128924   2.742   5.430   2.724 -1.4309  1.2726  1.3896
 2455TIP3    H228925   2.867   5.367   2.782 -1.1104 -0.5760 -1.1436
 2456TIP3   OH228926   6.552   0.097   2.399  0.3887 -0.0153  0.0766
 2456TIP3    H128927   6.632   0.044   2.401 -0.6005 -1.6484 -0.7877
 2456TIP3    H228928   6.496   0.052   2.335 -1.1042  1.2474  0.4450
 2457TIP3   OH228929   2.280   3.278   8.545 -0.2851 -0.2572  0.5721
 2457TIP3    H128930   2.231   3.321   8.475  0.4495  0.4872  0.4991
 2457TIP3    H228931   2.321   3.202   8.502  0.0531  0.1203  0.2147
 2458TIP3   OH228932   6.776   4.788   7.557  0.2331  0.1218 -0.6169
 2458TIP3    H128933   6.859   4.815   7.597  0.3191  0.0721 -0.7623
 2458TIP3    H228934   6.720   4.865   7.564  0.5358  0.4001 -1.1999
 2459TIP3   OH228935   3.759   4.407   6.839  0.4747 -0.0450  0.0362
 2459TIP3    H128936   3.733   4.427   6.749  1.4258  1.0719 -0.0063
 2459TIP3    H228937   3.727   4.481   6.891  3.1734  1.2657  0.0266
 2460TIP3   OH228938   2.204   3.180   2.652 -0.5045  0.2516  0.1222
 2460TIP3    H128939   2.249   3.252   2.607 -0.4414 -0.3881 -0.8568
 2460TIP3    H228940   2.257   3.103   2.634 -1.7073 -0.4256 -0.6288
 2461TIP3   OH228941   4.325   1.677   8.117  0.3675 -0.1760 -0.6493
 2461TIP3    H128942   4.230   1.663   8.111  0.3308 -0.1931 -0.0937
 2461TIP3    H228943   4.359   1.598   8.159  0.3864  0.5508  0.8054
 2462TIP3   OH228944   0.113   0.243   7.891 -0.8176  0.3049 -0.1901
 2462TIP3    H128945   0.024   0.260   7.859 -1.0573 -1.2651 -0.4342
 2462TIP3    H228946   0.128   0.150   7.871  1.2570  0.7728 -1.0714
 2463TIP3   OH228947   1.868   1.567   7.956 -0.0563 -0.2944 -0.6050
 2463TIP3    H128948   1.956   1.534   7.971  0.0117 -0.0629 -0.4908
 2463TIP3    H228949   1.873   1.661   7.976 -0.3087 -0.2651 -0.6711
 2464TIP3   OH228950   1.176   4.834   1.753  0.2294 -0.1039  0.5510
 2464TIP3    H128951   1.118   4.791   1.691  1.1866  0.9678 -1.2012
 2464TIP3    H228952   1.259   4.787   1.744 -0.0891 -1.1239  2.4503
 2465TIP3   OH228953   6.771   3.742   7.965 -0.0023 -0.1122  0.1785
 2465TIP3    H128954   6.847   3.759   7.909 -0.2857  0.3974 -0.0566
 2465TIP3    H228955   6.708   3.698   7.908 -1.0309  2.0380 -0.4584
 2466TIP3   OH228956   0.101   2.716   2.371  0.2735  0.3352  0.2120
 2466TIP3    H128957   0.172   2.765   2.412 -0.8818  2.7424 -0.4983
 2466TIP3    H228958   0.134   2.694   2.284  0.5160  0.5567  0.2483
 2467TIP3   OH228959   1.453   5.297   0.623  0.6157  0.0794  0.5434
 2467TIP3    H128960   1.420   5.222   0.573 -1.8683 -0.6510  3.0327
 2467TIP3    H228961   1.515   5.260   0.685  2.3775  0.7356 -0.7487
 2468TIP3   OH228962   1.481   6.812   2.411  0.1156 -0.1111 -0.0318
 2468TIP3    H128963   1.410   6.820   2.474  0.3967 -2.8795  0.7723
 2468TIP3    H228964   1.437   6.815   2.326 -1.1916 -2.5195  0.4459
 2469TIP3   OH228965   2.955   4.448   1.890  0.6649  0.1543  0.1428
 2469TIP3    H128966   2.887   4.384   1.912 -1.5655  2.0776 -0.7231
 2469TIP3    H228967   3.022   4.436   1.958 -0.3485 -2.0565  0.8385
 2470TIP3   OH228968   6.176   2.634   6.570 -0.6637 -0.5084  0.6388
 2470TIP3    H128969   6.225   2.552   6.558  0.7990  0.7140 -3.0088
 2470TIP3    H228970   6.241   2.697   6.600 -1.1497 -0.0288  0.6985
 2471TIP3   OH228971   4.322   2.225   0.602  0.1035  0.2674  0.2636
 2471TIP3    H128972   4.278   2.297   0.557 -0.3990 -0.4093 -0.3490
 2471TIP3    H228973   4.314   2.246   0.695 -2.2450 -0.2324  0.2192
 2472TIP3   OH228974   2.278   1.761   2.377  0.1303  0.1980  0.2605
 2472TIP3    H128975   2.232   1.770   2.293 -1.9203  0.3243  1.3432
 2472TIP3    H228976   2.224   1.702   2.428  2.7490 -2.0684  0.6222
 2473TIP3   OH228977   4.534   4.028   0.759 -0.7658  0.3540  0.2399
 2473TIP3    H128978   4.556   3.955   0.702  2.2718  2.1388 -1.1227
 2473TIP3    H228979   4.475   4.083   0.707 -0.9760  0.1586  0.2704
 2474TIP3   OH228980   0.948   2.830   6.610  0.7193  0.5001 -0.2494
 2474TIP3    H128981   0.900   2.913   6.604  1.1178  0.6597 -1.4021
 2474TIP3    H228982   0.891   2.765   6.571  1.1688  0.5752 -1.0447
 2475TIP3   OH228983   0.694   0.116   8.387  0.3239 -0.3268 -0.1786
 2475TIP3    H128984   0.632   0.119   8.459  1.3165 -0.2553  0.6978
 2475TIP3    H228985   0.703   0.207   8.358  0.9830 -0.1493  0.5527
 2476TIP3   OH228986   6.480   0.835   7.318 -0.1622 -0.5998  0.0072
 2476TIP3    H128987   6.550   0.852   7.381 -0.2924 -2.5456  0.7622
 2476TIP3    H228988   6.524   0.789   7.247 -0.5839 -1.4663  0.2960
 2477TIP3   OH228989   2.286   4.689   1.614 -0.1557  0.1988 -0.3411
 2477TIP3    H128990   2.381   4.702   1.603 -0.4271  3.2931  0.3340
 2477TIP3    H228991   2.278   4.644   1.698  0.7179 -0.9056 -0.8174
 2478TIP3   OH228992   3.193   6.520   2.239  0.0139  0.1187  0.4705
 2478TIP3    H128993   3.261   6.485   2.296 -1.4486 -1.4212  1.3854
 2478TIP3    H228994   3.227   6.510   2.150  1.5992  0.8769  0.9628
 2479TIP3   OH228995   1.291   6.685   0.930  0.1080  0.2824  0.5225
 2479TIP3    H128996   1.248   6.768   0.949 -1.9488 -0.5314 -0.3188
 2479TIP3    H228997   1.347   6.703   0.855 -1.4168  0.6186 -0.5728
 2480TIP3   OH228998   6.456   1.073   7.821  0.2829 -0.3000 -0.1742
 2480TIP3    H128999   6.456   1.162   7.856  0.0806 -0.4055  0.0918
 2480TIP3    H229000   6.364   1.052   7.808  0.3576 -0.2122 -0.9005
 2481TIP3   OH229001   1.601   5.920   1.460  0.3548  0.5105 -0.5390
 2481TIP3    H129002   1.610   5.860   1.385 -0.6178 -0.4997  0.1143
 2481TIP3    H229003   1.690   5.928   1.494  0.7219  0.5467 -1.4743
 2482TIP3   OH229004   2.810   3.444   8.184 -0.0839 -1.0072 -0.6397
 2482TIP3    H129005   2.854   3.472   8.103 -0.9850  0.0307 -0.7836
 2482TIP3    H229006   2.723   3.418   8.156  0.0963 -2.1059 -0.2049
 2483TIP3   OH229007   2.556   4.219   2.594  0.2720 -0.3662 -0.0659
 2483TIP3    H129008   2.621   4.283   2.564 -0.4221 -0.4564 -1.9146
 2483TIP3    H229009   2.510   4.263   2.666  2.0419 -0.1360  0.9758
 2484TIP3   OH229010   0.053   3.163   7.906  1.1420  0.1697 -0.5907
 2484TIP3    H129011   0.112   3.226   7.947  2.3140 -1.1023 -0.2212
 2484TIP3    H229012  -0.005   3.136   7.977 -0.2096  1.7100 -1.0455
 2485TIP3   OH229013   4.638   5.284   7.753 -0.0888  0.1465  0.1575
 2485TIP3    H129014   4.570   5.284   7.821 -3.2235 -2.1002 -2.6308
 2485TIP3    H229015   4.713   5.242   7.794 -1.5586 -0.4244  2.4643
 2486TIP3   OH229016   5.710   5.058   1.209  0.2172 -0.2381 -0.1059
 2486TIP3    H129017   5.763   5.136   1.198  0.2906 -0.4345 -1.2705
 2486TIP3    H229018   5.648   5.080   1.279  0.0437  0.9700 -0.6218
 2487TIP3   OH229019   3.597   2.707   0.698  0.3147 -0.4768 -0.3926
 2487TIP3    H129020   3.605   2.760   0.777  1.4326 -0.4699 -0.4941
 2487TIP3    H229021   3.503   2.694   0.687 -0.0744  2.2145 -0.8506
 2488TIP3   OH229022   1.260   1.817   2.624 -0.3368 -0.1187 -0.1503
 2488TIP3    H129023   1.249   1.723   2.636 -0.0042 -0.0341  0.8690
 2488TIP3    H229024   1.317   1.845   2.696 -1.3876  1.0559  0.2670
 2489TIP3   OH229025   4.437   6.026   2.200  0.3768  0.4096  0.3379
 2489TIP3    H129026   4.437   6.048   2.107  0.6165  0.7113  0.4084
 2489TIP3    H229027   4.346   6.040   2.228 -0.0048 -0.9541 -0.1422
 2490TIP3   OH229028   1.701   5.125   1.795  0.4818  0.4561  0.2851
 2490TIP3    H129029   1.614   5.114   1.757 -0.5647  1.4545  2.2115
 2490TIP3    H229030   1.713   5.047   1.850  0.1560  0.9789  1.1233
 2491TIP3   OH229031   3.919   4.171   7.403  0.7462 -0.2488  0.1841
 2491TIP3    H129032   3.831   4.139   7.384  0.6044 -1.0969  2.0129
 2491TIP3    H229033   3.943   4.126   7.484  2.8820 -0.0477 -0.2950
 2492TIP3   OH229034   4.054   6.239   0.614 -0.4117  0.1481 -0.2240
 2492TIP3    H129035   4.051   6.236   0.710  1.1995  0.8076 -0.1151
 2492TIP3    H229036   3.985   6.301   0.590 -0.8370 -0.0314  0.5081
 2493TIP3   OH229037   4.985   4.355   2.267  0.4217  0.3718 -0.1431
 2493TIP3    H129038   5.078   4.369   2.285  0.5785  0.4435 -0.9893
 2493TIP3    H229039   4.942   4.375   2.350  1.2032 -0.1712  0.4091
 2494TIP3   OH229040   2.632   1.745   8.287  0.0443  0.4892  0.2882
 2494TIP3    H129041   2.704   1.738   8.349 -1.3973  1.7065  2.2285
 2494TIP3    H229042   2.606   1.654   8.271  0.6968  0.1249  1.1973
 2495TIP3   OH229043   0.788   0.418   2.219  0.7677  0.2824  0.6793
 2495TIP3    H129044   0.847   0.493   2.225 -1.1997  2.1373 -1.3719
 2495TIP3    H229045   0.725   0.430   2.290  0.8263  0.2119  0.7434
 2496TIP3   OH229046   6.047   4.873   1.504  0.6462 -0.0605 -0.3131
 2496TIP3    H129047   6.063   4.822   1.584  4.2477  0.6000 -0.4103
 2496TIP3    H229048   6.003   4.952   1.534  1.5872 -0.0021  1.0203
 2497TIP3   OH229049   2.914   5.427   0.267  0.0695  0.2915 -0.3137
 2497TIP3    H129050   2.915   5.424   0.172  1.2548 -1.1442 -0.2852
 2497TIP3    H229051   2.984   5.489   0.290 -0.1275  0.5355 -0.3658
 2498TIP3   OH229052   6.067   4.895   8.169  0.6549 -0.4991  0.2926
 2498TIP3    H129053   6.129   4.821   8.164  2.3047  0.9224 -3.3081
 2498TIP3    H229054   5.994   4.868   8.114  0.0479 -0.4136  1.0399
 2499TIP3   OH229055   6.152   4.524   1.226  0.6117  0.7088  0.2695
 2499TIP3    H129056   6.141   4.618   1.215 -0.7659  0.5673  0.2196
 2499TIP3    H229057   6.194   4.514   1.312 -0.5047  1.3437  0.9254
 2500TIP3   OH229058   3.071   6.435   0.401  0.0504  0.1407 -0.2680
 2500TIP3    H129059   3.081   6.391   0.485 -0.8372  0.1633 -0.1361
 2500TIP3    H229060   3.149   6.411   0.351 -0.2915 -1.3888 -0.1139
 2501TIP3   OH229061   4.264   2.948   7.316 -0.0514  0.3080  0.6124
 2501TIP3    H129062   4.349   2.964   7.275 -0.5475  0.5122 -0.3802
 2501TIP3    H229063   4.257   2.853   7.322  0.4564  0.3019  1.1683
 2502TIP3   OH229064   4.427   4.400   0.805 -0.2613  0.2052  0.5851
 2502TIP3    H129065   4.399   4.323   0.755  0.2237  0.4017 -0.0063
 2502TIP3    H229066   4.375   4.397   0.886  0.2389 -1.1063  0.8680
 2503TIP3   OH229067   0.345   3.552   1.551 -0.0890  0.1305 -0.0839
 2503TIP3    H129068   0.417   3.576   1.609  0.2824  2.3342 -1.3245
 2503TIP3    H229069   0.387   3.517   1.473 -0.3863  0.5028 -0.4203
 2504TIP3   OH229070   1.666   4.254   0.110 -0.4820  0.2875  0.1243
 2504TIP3    H129071   1.756   4.229   0.132 -0.6238 -0.5681 -0.2049
 2504TIP3    H229072   1.675   4.330   0.053 -0.0538  1.6001  1.8352
 2505TIP3   OH229073   2.142   1.497   0.977  0.0772  0.2026  0.2494
 2505TIP3    H129074   2.121   1.434   1.046 -2.1317 -1.2242 -1.5635
 2505TIP3    H229075   2.190   1.446   0.911  2.1775  1.5362  0.6584
 2506TIP3   OH229076   6.210   1.108   8.346 -0.4784 -0.3311 -0.7710
 2506TIP3    H129077   6.183   1.096   8.437 -1.8587  2.3894 -0.7278
 2506TIP3    H229078   6.302   1.081   8.344 -0.7789 -1.6879  1.0835
 2507TIP3   OH229079   2.284   1.932   1.302 -0.1588  0.3879  0.3500
 2507TIP3    H129080   2.220   1.958   1.235 -0.1767  1.1809  0.6617
 2507TIP3    H229081   2.310   1.844   1.277  0.1105  0.8061 -0.9249
 2508TIP3   OH229082   5.651   3.702   2.809  0.4452 -0.2983  0.1265
 2508TIP3    H129083   5.566   3.737   2.783  0.9232  0.0078 -1.1233
 2508TIP3    H229084   5.631   3.639   2.878 -0.9345 -1.1855 -1.0260
 2509TIP3   OH229085   2.704   6.648   7.151 -0.4540  0.3538  0.4407
 2509TIP3    H129086   2.787   6.617   7.187 -0.5451  0.5737  0.8472
 2509TIP3    H229087   2.723   6.664   7.059 -0.6236 -1.7279  0.0005
 2510TIP3   OH229088   5.671   1.278   0.023  0.2624  0.6338  0.0196
 2510TIP3    H129089   5.682   1.372   0.009  0.9042  0.6739  0.7281
 2510TIP3    H229090   5.639   1.270   0.113 -0.0638  0.1886 -0.1294
 2511TIP3   OH229091   0.583   3.434   7.872  0.4514 -0.3255  0.1439
 2511TIP3    H129092   0.602   3.528   7.873 -1.2383  0.0951 -1.4898
 2511TIP3    H229093   0.622   3.403   7.790 -0.4089 -0.7137 -0.1273
 2512TIP3   OH229094   4.905   4.908   1.688  0.2525  0.0585 -0.4835
 2512TIP3    H129095   4.962   4.936   1.616  0.6279  0.3372 -0.0824
 2512TIP3    H229096   4.843   4.848   1.647  0.8188 -0.2310 -0.9317
 2513TIP3   OH229097   3.935   4.041   7.638  0.6250  0.0857 -0.1197
 2513TIP3    H129098   3.986   4.046   7.720  1.5567  1.6471 -0.7380
 2513TIP3    H229099   3.847   4.016   7.666  1.2367 -0.6930  1.2178
 2514TIP3   OH229100   0.041   1.644   0.455 -0.0503  0.2158  0.2862
 2514TIP3    H129101   0.116   1.597   0.420 -0.6062 -0.9958  0.6782
 2514TIP3    H229102  -0.022   1.646   0.383 -0.0396  0.3585  0.2794
 2515TIP3   OH229103   2.901   0.007   1.503 -0.2115  0.4545  0.1641
 2515TIP3    H129104   2.809  -0.013   1.522  0.4098 -0.7537  2.2088
 2515TIP3    H229105   2.944  -0.079   1.503  1.2919  1.1687  1.6045
 2516TIP3   OH229106   1.101   2.797   1.192  0.4560  0.3189 -0.0625
 2516TIP3    H129107   1.017   2.824   1.229 -0.7563 -1.0243 -1.6929
 2516TIP3    H229108   1.133   2.875   1.146 -0.1134  0.6982  0.1712
 2517TIP3   OH229109   4.325   4.288   7.261 -0.0147  0.2902 -0.3850
 2517TIP3    H129110   4.296   4.201   7.287  1.8625 -0.4062 -0.5068
 2517TIP3    H229111   4.249   4.344   7.277 -0.4449 -0.8809  2.2429
 2518TIP3   OH229112   5.653   3.575   2.472 -0.0399 -0.1474 -0.3443
 2518TIP3    H129113   5.605   3.546   2.550  0.6784 -0.8429 -0.1493
 2518TIP3    H229114   5.735   3.527   2.475  1.3331  2.0723  0.1214
 2519TIP3   OH229115   2.589   0.704   1.967 -0.0611  0.0134  0.3902
 2519TIP3    H129116   2.616   0.714   1.875  0.0308  0.2904  0.4461
 2519TIP3    H229117   2.559   0.791   1.992  0.8847  0.1964  0.9323
 2520TIP3   OH229118   3.804   3.692   8.506  0.2566  0.0516  0.4222
 2520TIP3    H129119   3.819   3.769   8.560  1.0889  0.2855 -0.1240
 2520TIP3    H229120   3.783   3.622   8.568  1.1517  0.3284  1.0485
 2521TIP3   OH229121   3.128   1.663   0.507  0.1709  0.4461 -0.4887
 2521TIP3    H129122   3.105   1.687   0.417 -0.2226 -0.3914 -0.6198
 2521TIP3    H229123   3.087   1.731   0.560 -0.7064  0.2359 -0.8672
 2522TIP3   OH229124   4.896   0.361   8.529 -0.9407  0.3919  0.2771
 2522TIP3    H129125   4.938   0.444   8.507 -1.5060  0.3247 -1.1834
 2522TIP3    H229126   4.937   0.334   8.610  1.1182  0.8172 -0.5682
 2523TIP3   OH229127   2.365   4.364   7.875  0.5914  0.0513  0.1667
 2523TIP3    H129128   2.427   4.342   7.805  0.0575 -1.4317  0.1440
 2523TIP3    H229129   2.292   4.407   7.830  0.5601 -0.2822 -0.1002
 2524TIP3   OH229130   0.740   4.846   0.558  0.0818  0.2765 -0.0142
 2524TIP3    H129131   0.725   4.939   0.540  1.6361  0.5753  0.1534
 2524TIP3    H229132   0.768   4.809   0.475 -0.2983 -0.0135 -0.0215
 2525TIP3   OH229133   5.310   0.908   1.829  0.1668  0.1279 -0.1233
 2525TIP3    H129134   5.240   0.855   1.792 -0.6471  0.3941  0.9776
 2525TIP3    H229135   5.273   0.943   1.911  2.6107 -2.4104  2.2905
 2526TIP3   OH229136   3.378   0.951   8.546 -0.2389  0.3416  0.0256
 2526TIP3    H129137   3.423   0.875   8.510 -1.1615  0.7153 -2.0881
 2526TIP3    H229138   3.431   1.026   8.520  0.0812  0.5217  1.1395
 2527TIP3   OH229139   5.081   1.459   1.876  0.3553  0.3676 -0.3200
 2527TIP3    H129140   5.115   1.425   1.794  0.7064  1.7239 -0.7599
 2527TIP3    H229141   5.080   1.383   1.935 -0.2365 -0.7066 -1.6470
 2528TIP3   OH229142   4.537   4.986   8.215  0.1625 -0.0569  0.3757
 2528TIP3    H129143   4.580   4.903   8.235 -0.2461 -0.5865 -0.7853
 2528TIP3    H229144   4.574   5.012   8.131  0.8106  1.3289  1.0670
 2529TIP3   OH229145   6.689   0.590   1.166 -0.2832 -0.0162 -0.1454
 2529TIP3    H129146   6.677   0.497   1.146 -1.9902  0.0687  0.3719
 2529TIP3    H229147   6.712   0.630   1.083  1.0186 -0.9653 -0.2782
 2530TIP3   OH229148   6.175   0.932   7.593  0.0770 -0.5278  0.2007
 2530TIP3    H129149   6.140   0.843   7.601 -1.2871 -0.1336 -1.1436
 2530TIP3    H229150   6.174   0.966   7.683 -1.9789 -0.9182  0.3646
 2531TIP3   OH229151   6.221   5.764   1.073 -0.4835 -0.4283 -0.4080
 2531TIP3    H129152   6.177   5.815   1.006 -0.7044 -0.0189  0.0467
 2531TIP3    H229153   6.312   5.793   1.070 -0.3243 -0.9566 -1.0426
 2532TIP3   OH229154   5.007   2.758   1.094  0.3543  0.0911 -0.4770
 2532TIP3    H129155   5.090   2.796   1.122  0.5824 -0.2097 -0.7363
 2532TIP3    H229156   5.017   2.664   1.108  0.5148 -0.0840 -1.6254
 2533TIP3   OH229157   1.634   4.853   1.185  0.9006 -0.5354  0.0340
 2533TIP3    H129158   1.721   4.876   1.151  0.1962  1.4839 -0.5481
 2533TIP3    H229159   1.629   4.896   1.269  0.0763  0.2722 -0.4169
 2534TIP3   OH229160   1.522   1.896   8.454  0.0130 -0.5094  0.3822
 2534TIP3    H129161   1.599   1.866   8.405  2.7129  0.9431  3.3589
 2534TIP3    H229162   1.515   1.835   8.527 -0.9594  0.0810  0.8044
 2535TIP3   OH229163   4.109   1.766   2.499  0.5014 -0.0581  0.2524
 2535TIP3    H129164   4.158   1.721   2.567 -0.0740  1.4807  1.7445
 2535TIP3    H229165   4.020   1.770   2.532  0.2905  1.0603 -0.4064
 2536TIP3   OH229166   3.768   0.747   8.064  0.0113 -0.1327 -0.2601
 2536TIP3    H129167   3.758   0.804   7.988 -0.7462  0.2666  0.1322
 2536TIP3    H229168   3.862   0.747   8.081  0.1129  0.2996 -0.7941
 2537TIP3   OH229169   1.276   2.208   7.511 -0.6508 -0.7485  0.2583
 2537TIP3    H129170   1.320   2.293   7.518 -3.0974  0.5700  0.9306
 2537TIP3    H229171   1.342   2.150   7.474  0.9656  1.5625 -0.7579
 2538TIP3   OH229172   2.241   5.968   7.011 -0.0500 -0.0610  1.0236
 2538TIP3    H129173   2.281   5.888   6.978  0.5471  0.7450 -0.3308
 2538TIP3    H229174   2.296   5.993   7.086  1.6437  0.6488 -0.3738
 2539TIP3   OH229175   1.340   2.218   1.560  0.3787 -0.1373 -0.0136
 2539TIP3    H129176   1.350   2.280   1.488 -0.6235 -0.2699 -0.2833
 2539TIP3    H229177   1.292   2.144   1.522 -0.4011 -0.0967  0.8375
 2540TIP3   OH229178   5.695   3.827   0.844  0.0485  0.1489 -0.3661
 2540TIP3    H129179   5.771   3.778   0.875  0.9119  0.2998 -2.1583
 2540TIP3    H229180   5.727   3.917   0.835 -0.3867  0.2507 -0.9617
 2541TIP3   OH229181   0.592   4.807   1.485 -0.0964 -0.0240  0.0278
 2541TIP3    H129182   0.505   4.793   1.446 -1.2301  4.1867  0.5912
 2541TIP3    H229183   0.649   4.821   1.410  0.3909 -3.3773 -0.3777
 2542TIP3   OH229184   1.981   3.242   7.387  0.3063 -0.0785  0.5837
 2542TIP3    H129185   2.041   3.206   7.321 -0.2220 -1.3401  0.7654
 2542TIP3    H229186   2.031   3.237   7.468  1.5575  2.9502  0.1049
 2543TIP3   OH229187   6.460   3.381   8.420  0.1578 -0.4916  0.2827
 2543TIP3    H129188   6.427   3.293   8.435 -1.6152  0.1915  0.6880
 2543TIP3    H229189   6.450   3.426   8.504  1.3901  0.0092  0.1870
 2544TIP3   OH229190   1.372   6.139   2.662  0.0494 -0.0011  0.8415
 2544TIP3    H129191   1.282   6.110   2.656 -0.3444  1.3834 -0.8280
 2544TIP3    H229192   1.367   6.226   2.703  0.6023  0.1542  0.5964
 2545TIP3   OH229193   1.560   0.785   7.633 -1.0335  0.1786 -0.4477
 2545TIP3    H129194   1.474   0.757   7.601 -0.7143  0.6231 -1.7867
 2545TIP3    H229195   1.620   0.756   7.565  0.0321 -1.0979  0.9883
 2546TIP3   OH229196   4.013   3.101   8.418 -0.2481  0.2365  1.0350
 2546TIP3    H129197   4.108   3.111   8.411 -0.1019 -0.7037  1.4385
 2546TIP3    H229198   4.000   3.006   8.424 -1.2237  0.3522  0.8779
 2547TIP3   OH229199   5.629   0.202   0.602 -0.0664 -0.5837 -0.1380
 2547TIP3    H129200   5.698   0.268   0.596 -1.3514  1.0771  2.0457
 2547TIP3    H229201   5.610   0.179   0.510  1.6109  0.7698 -0.8717
 2548TIP3   OH229202   3.528   0.428   6.767 -0.2543 -0.1742 -0.0259
 2548TIP3    H129203   3.577   0.424   6.685 -0.8773  1.3145 -0.5061
 2548TIP3    H229204   3.574   0.494   6.819 -1.1259  0.4883 -0.0719
 2549TIP3   OH229205   2.592   2.260   0.455  0.2025 -0.2698 -0.0731
 2549TIP3    H129206   2.541   2.181   0.473  0.0827 -0.2913 -0.4873
 2549TIP3    H229207   2.622   2.249   0.364 -2.8870  1.7945 -1.5344
 2550TIP3   OH229208   2.532   4.099   0.542 -0.5580 -0.3409  0.2980
 2550TIP3    H129209   2.531   4.006   0.561  0.2592 -0.7036 -1.2528
 2550TIP3    H229210   2.573   4.139   0.619  1.7113 -1.6112 -0.1436
 2551TIP3   OH229211   4.848   5.470   0.779 -0.4199 -0.3134 -0.4535
 2551TIP3    H129212   4.873   5.377   0.775  1.3024 -0.0837  2.3675
 2551TIP3    H229213   4.758   5.472   0.745  0.4031 -2.5319 -3.1594
 2552TIP3   OH229214   5.718   5.907   0.375  0.0747 -0.3497  0.5816
 2552TIP3    H129215   5.720   6.001   0.353  0.2243 -0.6655 -0.8957
 2552TIP3    H229216   5.725   5.904   0.470  2.4002  1.0893  0.5423
 2553TIP3   OH229217   6.164   2.879   7.476  0.0454  0.0328  0.0017
 2553TIP3    H129218   6.204   2.793   7.488  1.2158  0.4329 -0.8152
 2553TIP3    H229219   6.107   2.869   7.400 -0.1278 -0.1298  0.1554
 2554TIP3   OH229220   2.812   3.689   7.088  0.0277 -0.2995  0.6289
 2554TIP3    H129221   2.759   3.617   7.054  0.5748  0.2902 -1.6169
 2554TIP3    H229222   2.785   3.765   7.037  1.4890  0.4766  0.9434
 2555TIP3   OH229223   4.187   4.285   2.523 -0.9233  0.7881  0.0249
 2555TIP3    H129224   4.173   4.370   2.563  0.7528  0.8934  0.4730
 2555TIP3    H229225   4.109   4.269   2.470 -1.5898  2.2474  0.5435
 2556TIP3   OH229226   5.400   0.852   0.226 -0.1698 -0.0354  0.4584
 2556TIP3    H129227   5.412   0.947   0.224  0.7050 -0.0853 -2.8934
 2556TIP3    H229228   5.314   0.839   0.185  0.7195 -0.6848 -1.3164
 2557TIP3   OH229229   2.823   5.678   8.420 -0.2319  0.5663  0.2646
 2557TIP3    H129230   2.802   5.742   8.487  0.7107  0.2047  0.9266
 2557TIP3    H229231   2.865   5.729   8.351 -0.4024  0.8086  0.3396
 2558TIP3   OH229232   3.680   1.614   7.084  0.2271 -0.6131  0.3437
 2558TIP3    H129233   3.618   1.555   7.041  1.4036 -1.6703  0.0168
 2558TIP3    H229234   3.658   1.608   7.177  0.6407 -1.9956  0.3755
 2559TIP3   OH229235   1.734   1.849   0.931 -0.4329 -0.0297 -0.1020
 2559TIP3    H129236   1.718   1.828   0.839 -0.2055 -0.0551 -0.1360
 2559TIP3    H229237   1.698   1.937   0.942  1.1057  0.7004 -0.6550
 2560TIP3   OH229238   5.689   2.950   0.050 -0.4282 -0.4858 -0.1322
 2560TIP3    H129239   5.632   3.022   0.078  0.0579 -0.1782  0.0821
 2560TIP3    H229240   5.709   2.969  -0.041 -0.2990 -0.3476 -0.0753
 2561TIP3   OH229241   2.850   5.403   6.835  0.2212  0.7252  0.2385
 2561TIP3    H129242   2.800   5.462   6.778 -1.9247  0.0916  1.3530
 2561TIP3    H229243   2.866   5.455   6.914  1.9034  1.1083 -0.3113
 2562TIP3   OH229244   6.029   4.089   2.386  0.2478 -0.3788  0.1417
 2562TIP3    H129245   6.025   4.184   2.395 -0.4208 -0.3366 -0.4910
 2562TIP3    H229246   5.964   4.056   2.448  0.6617 -0.4432  0.5482
 2563TIP3   OH229247   5.642   1.999   0.727 -0.1445 -0.6116 -0.1993
 2563TIP3    H129248   5.645   2.095   0.736 -0.5319 -0.5374 -0.7939
 2563TIP3    H229249   5.562   1.982   0.677 -0.1282 -1.2564 -0.0151
 2564TIP3   OH229250   5.979   5.143   1.428 -0.0316 -0.0325  0.3229
 2564TIP3    H129251   6.009   5.060   1.389 -0.7544 -0.0582 -0.1852
 2564TIP3    H229252   5.933   5.188   1.357 -0.5782  0.3291  0.8987
 2565TIP3   OH229253   0.946   2.958   8.534 -0.2545  0.2642 -0.0946
 2565TIP3    H129254   0.884   2.894   8.498  0.1484 -0.2222  0.0687
 2565TIP3    H229255   1.010   2.971   8.465 -0.7162  1.0292 -0.3963
 2566TIP3   OH229256   1.649   2.689   7.813  0.3280  0.3752 -0.3692
 2566TIP3    H129257   1.692   2.640   7.743 -0.1382 -0.5040 -0.0492
 2566TIP3    H229258   1.564   2.713   7.777  0.0221 -0.2207 -0.0502
 2567TIP3   OH229259   4.444   0.822   0.138  0.5522  0.4702  0.0391
 2567TIP3    H129260   4.519   0.876   0.165  0.5212  0.0347  1.0423
 2567TIP3    H229261   4.426   0.767   0.214 -1.5169  1.3531  0.2444
 2568TIP3   OH229262   4.994   0.286   7.003 -0.4775  0.0706 -0.1769
 2568TIP3    H129263   4.974   0.208   7.055  2.0295 -1.0158 -0.6902
 2568TIP3    H229264   5.089   0.284   6.993 -0.4955  2.4115 -1.4800
 2569TIP3   OH229265   4.928   3.851   7.192  0.3410  0.1752  0.0804
 2569TIP3    H129266   4.964   3.910   7.125  1.3958  0.6588  1.0232
 2569TIP3    H229267   5.005   3.821   7.240 -0.2468 -1.5514 -0.0187
 2570TIP3   OH229268   0.247   4.123   0.704  0.3362 -0.1569 -0.9808
 2570TIP3    H129269   0.327   4.092   0.746 -1.1007 -0.5472  1.6772
 2570TIP3    H229270   0.245   4.079   0.619  2.1731 -1.2678 -0.4962
 2571TIP3   OH229271   2.022   6.072   7.095  0.4986  0.5904 -0.1054
 2571TIP3    H129272   2.024   6.011   7.168  0.1236  0.3778 -0.2727
 2571TIP3    H229273   2.101   6.051   7.045  1.9532  2.1729  1.3848
 2572TIP3   OH229274   3.055   3.429   7.640  0.1062  0.1605  0.1703
 2572TIP3    H129275   3.120   3.497   7.622  1.2256 -1.1967 -1.1041
 2572TIP3    H229276   3.035   3.390   7.555 -2.6054  0.6554  0.4636
 2573TIP3   OH229277   5.601   1.808   8.065 -0.0764 -0.0369  0.3167
 2573TIP3    H129278   5.547   1.886   8.055  0.7570  0.8518  2.2676
 2573TIP3    H229279   5.686   1.841   8.093  0.2523 -1.6500  1.3255
 2574TIP3   OH229280   0.896   2.967   7.332  0.7420 -0.2712 -0.3323
 2574TIP3    H129281   0.878   2.944   7.423 -0.9758 -0.8916 -0.7768
 2574TIP3    H229282   0.966   2.908   7.305  0.0516 -1.3237  0.1036
 2575TIP3   OH229283   0.296   3.444   7.851 -0.0316 -0.5563 -0.3133
 2575TIP3    H129284   0.253   3.435   7.936  1.6432  2.6746  1.0387
 2575TIP3    H229285   0.383   3.407   7.864  0.8417  1.4954  0.0095
 2576TIP3   OH229286   4.130   1.684   1.411  0.0109  0.2132 -0.2258
 2576TIP3    H129287   4.070   1.746   1.452  0.7397  0.8758 -0.1350
 2576TIP3    H229288   4.125   1.703   1.318  0.4864  0.6457 -0.1666
 2577TIP3   OH229289   2.235   6.133   8.364 -0.2236  0.2130 -0.3617
 2577TIP3    H129290   2.260   6.057   8.416 -1.5213 -0.5287 -0.7574
 2577TIP3    H229291   2.169   6.099   8.304 -0.3824  1.5341 -0.9601
 2578TIP3   OH229292   5.610   2.092   1.397 -0.2000  0.1801 -0.7087
 2578TIP3    H129293   5.664   2.016   1.420  0.0661  0.8346  0.9867
 2578TIP3    H229294   5.603   2.142   1.478 -0.6850  1.7837 -1.6793
 2579TIP3   OH229295   3.790   1.257   0.828  0.0680 -0.4268 -0.3255
 2579TIP3    H129296   3.751   1.265   0.742  0.5150 -2.7945 -0.8119
 2579TIP3    H229297   3.725   1.294   0.888 -1.1822 -0.6787 -1.4904
 2580TIP3   OH229298   4.064   2.637   7.671  0.3740  0.0463 -0.4041
 2580TIP3    H129299   4.068   2.541   7.674 -0.3965 -0.0045  2.7706
 2580TIP3    H229300   4.150   2.666   7.699  0.0495  0.2113  0.4591
 2581TIP3   OH229301   4.641   1.643   7.520  0.0522  0.3410  0.1853
 2581TIP3    H129302   4.697   1.663   7.445 -0.3355  0.9855  0.0675
 2581TIP3    H229303   4.558   1.685   7.500 -0.8245 -1.4241 -0.1043
 2582TIP3   OH229304   6.528   6.762   1.529 -0.0658 -0.3362 -0.0597
 2582TIP3    H129305   6.553   6.812   1.451 -0.3942 -1.0679 -0.6525
 2582TIP3    H229306   6.527   6.826   1.600  1.4470  0.0977 -0.4106
 2583TIP3   OH229307   5.214   4.817   7.478 -0.0360 -0.1739 -0.3762
 2583TIP3    H129308   5.238   4.838   7.388  1.6078  0.4849  0.1602
 2583TIP3    H229309   5.177   4.729   7.474 -0.1481 -0.0734 -1.7170
 2584TIP3   OH229310   0.051   3.841   0.087  0.1823  0.5390 -0.5183
 2584TIP3    H129311   0.013   3.767   0.135  1.2959  1.7266  2.4769
 2584TIP3    H229312   0.118   3.801   0.031 -0.1086 -0.8432  0.0576
 2585TIP3   OH229313   6.013   4.347   2.420 -0.0300  0.2624  0.7453
 2585TIP3    H129314   5.920   4.370   2.424  0.4227  3.0080 -1.3710
 2585TIP3    H229315   6.056   4.416   2.471  1.0251  0.7193 -0.7168
 2586TIP3   OH229316   2.513   1.153   0.574 -0.2848  0.0979  0.1123
 2586TIP3    H129317   2.505   1.188   0.662 -3.4838 -0.0773  0.0112
 2586TIP3    H229318   2.500   1.228   0.516 -2.4354 -0.3797 -0.1161
 2587TIP3   OH229319   4.442   1.862   1.845 -0.1482  0.1137 -0.2300
 2587TIP3    H129320   4.520   1.891   1.893  0.2553 -0.8435 -0.2861
 2587TIP3    H229321   4.477   1.817   1.768 -0.7648 -0.0866 -0.3969
 2588TIP3   OH229322   1.516   2.652   2.649  0.3232  0.4079  0.1517
 2588TIP3    H129323   1.463   2.687   2.720  0.1962 -2.0054  1.3508
 2588TIP3    H229324   1.494   2.559   2.646  2.5672 -0.1635 -1.0411
 2589TIP3   OH229325   2.343   4.857   0.953 -0.1048 -0.0245 -0.0642
 2589TIP3    H129326   2.391   4.886   1.030  0.5953 -1.5742  0.1033
 2589TIP3    H229327   2.258   4.901   0.960 -0.2318 -0.4962  1.8417
 2590TIP3   OH229328   6.165   1.379   8.022  0.6606 -0.4057  0.5344
 2590TIP3    H129329   6.146   1.457   7.971 -0.2321 -0.6039  0.5548
 2590TIP3    H229330   6.139   1.306   7.966  1.8703 -0.7249  0.3468
 2591TIP3   OH229331   4.519   3.056   1.903 -0.9463 -0.4056 -1.0023
 2591TIP3    H129332   4.528   3.125   1.837  0.7489  2.1663  1.6152
 2591TIP3    H229333   4.450   3.088   1.962  0.9833  0.0483  1.1787
 2592TIP3   OH229334   5.954   3.300   0.684  0.7059  0.1733  0.2510
 2592TIP3    H129335   6.001   3.227   0.724 -0.4587 -0.5802  0.3272
 2592TIP3    H229336   6.021   3.365   0.665  1.3055  0.9559  4.1212
 2593TIP3   OH229337   5.625   1.217   0.712  0.2459 -0.4271  0.2144
 2593TIP3    H129338   5.609   1.220   0.806  0.3460  0.3309  0.2176
 2593TIP3    H229339   5.720   1.223   0.704  0.1792  0.8270  0.0455
 2594TIP3   OH229340   0.815   0.627   7.669 -0.3359  0.2576  0.0357
 2594TIP3    H129341   0.871   0.612   7.745  0.8262  0.5456 -0.7295
 2594TIP3    H229342   0.728   0.600   7.697 -0.4489  2.6385  2.2540
 2595TIP3   OH229343   2.268   5.134   8.514  0.5520 -0.2849 -0.0062
 2595TIP3    H129344   2.248   5.215   8.468 -1.5830 -0.7854 -0.0788
 2595TIP3    H229345   2.203   5.131   8.585  0.7044 -1.8415  0.0888
 2596TIP3   OH229346   3.463   2.667   8.344  0.2212  0.5722  0.1292
 2596TIP3    H129347   3.406   2.720   8.288 -1.4123 -0.6628  0.5450
 2596TIP3    H229348   3.405   2.633   8.412  1.3788 -1.0564  0.3539
 2597TIP3   OH229349   1.081   6.186   7.702 -0.3993  0.3320 -0.5968
 2597TIP3    H129350   1.084   6.092   7.722 -0.2287  0.6876  1.2464
 2597TIP3    H229351   1.014   6.194   7.635 -1.3556 -0.9672  0.1577
 2598TIP3   OH229352   1.989   0.771   7.696 -0.3037  0.3168 -0.1503
 2598TIP3    H129353   1.992   0.849   7.640 -0.2696  1.2953  1.1577
 2598TIP3    H229354   1.949   0.802   7.777 -1.1520 -1.2724  0.0614
 2599TIP3   OH229355   2.659   5.751   2.716 -0.4165 -0.0959 -0.5606
 2599TIP3    H129356   2.609   5.672   2.739  0.5276 -0.5570 -0.0430
 2599TIP3    H229357   2.655   5.806   2.794  0.5523 -0.4895 -0.2257
 2600TIP3   OH229358   6.463   1.276   7.554 -0.0675 -0.4581 -0.1977
 2600TIP3    H129359   6.426   1.199   7.510 -1.8821  0.1444  0.1844
 2600TIP3    H229360   6.509   1.323   7.486 -1.8630 -0.1328 -1.2530
 2601TIP3   OH229361   3.410   0.173   1.086  0.1644  0.2922  0.6359
 2601TIP3    H129362   3.327   0.135   1.058  1.2199 -0.4043 -1.8427
 2601TIP3    H229363   3.405   0.265   1.060  0.2553  0.1732  0.1750
 2602TIP3   OH229364   6.681   0.049   8.297 -0.3113 -0.2434 -0.5509
 2602TIP3    H129365   6.725   0.132   8.314  0.2886 -0.7244  0.3639
 2602TIP3    H229366   6.747  -0.004   8.252  0.1718 -1.0446  1.0255
 2603TIP3   OH229367   1.107   3.569   7.319  0.0396  0.3591  0.6463
 2603TIP3    H129368   1.060   3.588   7.400  1.1173  0.8171  1.1754
 2603TIP3    H229369   1.101   3.474   7.309 -2.1817  0.5017 -0.0491
 2604TIP3   OH229370   2.658   0.754   7.770  0.0897  0.2156  0.3020
 2604TIP3    H129371   2.712   0.793   7.838  0.1127  1.1311 -0.2173
 2604TIP3    H229372   2.718   0.735   7.698 -0.0455 -0.0686  0.2632
 2605TIP3   OH229373   4.071   3.782   7.672  0.0636  0.2323  0.3458
 2605TIP3    H129374   4.011   3.856   7.658  0.1507  0.1218 -0.7149
 2605TIP3    H229375   4.065   3.731   7.591  2.4141  0.8109 -0.2707
 2606TIP3   OH229376   2.108   3.970   1.675 -0.1824  0.5587 -0.5464
 2606TIP3    H129377   2.054   3.891   1.673 -1.0957  1.0593  1.5519
 2606TIP3    H229378   2.047   4.042   1.661 -0.1737  1.1294  1.8135
 2607TIP3   OH229379   6.558   2.054   8.248 -0.3852  0.0325  0.4818
 2607TIP3    H129380   6.484   2.020   8.197  1.3406 -2.4178 -0.5770
 2607TIP3    H229381   6.520   2.073   8.334 -2.1645 -1.6617  0.1595
 2608TIP3   OH229382   0.353   2.113   1.429  0.0071 -0.6015 -0.6227
 2608TIP3    H129383   0.277   2.162   1.459 -1.0591 -3.6354  2.2485
 2608TIP3    H229384   0.425   2.142   1.484 -0.4134 -1.5141  0.4451
 2609TIP3   OH229385   5.104   2.897   2.528  0.2890  0.3316 -0.0470
 2609TIP3    H129386   5.147   2.922   2.610  0.1323  0.1938  0.0775
 2609TIP3    H229387   5.014   2.926   2.539  0.0613 -0.4349  0.1643
 2610TIP3   OH229388   3.149   4.902   1.186 -0.0300  0.2642  0.2603
 2610TIP3    H129389   3.229   4.925   1.234  0.1053 -0.4494  0.3857
 2610TIP3    H229390   3.093   4.860   1.252  0.2771 -1.0012 -0.2653
 2611TIP3   OH229391   6.375   3.041   1.105 -0.3167  0.0289 -0.2753
 2611TIP3    H129392   6.399   3.133   1.112 -0.0784  0.1826 -2.5440
 2611TIP3    H229393   6.345   3.030   1.015 -0.7732 -2.0243  0.0646
 2612TIP3   OH229394   3.128   3.063   8.048 -0.7103 -0.3892  0.1885
 2612TIP3    H129395   3.176   3.137   8.010 -1.3796 -0.5820 -1.0944
 2612TIP3    H229396   3.056   3.104   8.098  0.1507 -0.1349  1.2591
 2613TIP3   OH229397   3.615   6.089   1.450  0.5474 -0.3725  0.1612
 2613TIP3    H129398   3.542   6.146   1.425  0.2554 -0.7340  0.1707
 2613TIP3    H229399   3.629   6.033   1.374 -0.9443 -2.0890  1.0828
 2614TIP3   OH229400   4.206   5.742   1.544 -0.5277 -0.5365  0.4811
 2614TIP3    H129401   4.189   5.790   1.625  0.0160  0.1435  0.1996
 2614TIP3    H229402   4.302   5.734   1.541 -0.3760  1.2934 -1.1353
 2615TIP3   OH229403   6.579   2.308   0.511  0.4870 -0.2608 -0.2058
 2615TIP3    H129404   6.581   2.393   0.468  1.8304  0.2151  0.7325
 2615TIP3    H229405   6.510   2.260   0.465 -0.5213  1.4240 -0.5354
 2616TIP3   OH229406   3.291   2.027   6.802  0.4121 -0.0629  0.2824
 2616TIP3    H129407   3.215   1.994   6.850  0.3401 -1.1191 -0.5132
 2616TIP3    H229408   3.255   2.094   6.743  0.2020 -0.1122  0.3542
 2617TIP3   OH229409   1.006   2.758   7.890 -0.1188  0.4723 -0.0956
 2617TIP3    H129410   1.094   2.740   7.856 -0.9537 -0.9273 -1.6821
 2617TIP3    H229411   0.995   2.695   7.962 -0.4422 -0.6373 -1.0754
 2618TIP3   OH229412   5.469   4.680   7.526 -0.5565 -0.5438  0.3021
 2618TIP3    H129413   5.455   4.588   7.548  1.4841 -0.4902  2.2245
 2618TIP3    H229414   5.384   4.711   7.496 -1.2011 -3.1290 -0.8318
 2619TIP3   OH229415   0.472   0.687   0.010  0.3768 -0.6046  0.1294
 2619TIP3    H129416   0.458   0.595  -0.011  0.4667 -0.1419 -2.1372
 2619TIP3    H229417   0.519   0.723  -0.065  1.6534  0.9864  1.5955
 2620TIP3   OH229418   6.555   6.452   1.222  0.0393 -0.5906 -0.3421
 2620TIP3    H129419   6.648   6.438   1.205  0.3403  1.3053 -0.3986
 2620TIP3    H229420   6.539   6.542   1.196 -1.3603 -0.2299  1.5520
 2621TIP3   OH229421   4.649   5.140   7.436 -0.2291 -0.3464  0.7253
 2621TIP3    H129422   4.692   5.218   7.471 -1.2034  0.2133  0.7042
 2621TIP3    H229423   4.579   5.121   7.498 -1.2487 -0.0228 -0.2815
 2622TIP3   OH229424   3.636   1.557   0.477 -0.6061 -0.1382 -0.6662
 2622TIP3    H129425   3.575   1.562   0.403  0.6967 -0.8081 -1.8345
 2622TIP3    H229426   3.714   1.604   0.447 -0.0852 -0.3479  0.3177
 2623TIP3   OH229427   6.012   6.818   2.555  0.4604 -0.9282  0.1579
 2623TIP3    H129428   5.938   6.858   2.509  0.3673 -1.7159 -0.3939
 2623TIP3    H229429   5.976   6.738   2.593  0.4458 -0.1234  1.9327
 2624TIP3   OH229430   0.854   2.273   8.550 -0.0138 -0.6970  0.2912
 2624TIP3    H129431   0.831   2.342   8.612  1.1278 -0.4467  0.4634
 2624TIP3    H229432   0.770   2.244   8.514 -0.5280  0.7913  0.1957
 2625TIP3   OH229433   0.641   0.323   2.435  0.0617 -0.1739 -0.0293
 2625TIP3    H129434   0.546   0.329   2.426  0.2529  0.8520 -1.7044
 2625TIP3    H229435   0.656   0.331   2.529 -1.4693  0.1533  0.2188
 2626TIP3   OH229436   2.752   4.690   0.132 -0.2142 -0.1993 -0.1076
 2626TIP3    H129437   2.659   4.679   0.152 -0.2757 -0.0845 -0.3225
 2626TIP3    H229438   2.753   4.742   0.051 -0.0354 -2.4002 -1.6011
 2627TIP3   OH229439   5.984   0.780   6.948  0.5338  0.3200 -0.5324
 2627TIP3    H129440   6.023   0.855   6.902 -1.0560  0.9652 -0.8780
 2627TIP3    H229441   6.026   0.704   6.909 -1.1370  0.8097 -3.5301
 2628TIP3   OH229442   4.340   0.714   8.467 -0.2543 -0.0224 -0.2456
 2628TIP3    H129443   4.394   0.767   8.527  0.7357 -0.3587 -0.8136
 2628TIP3    H229444   4.260   0.765   8.456  0.0494  0.6283  0.4136
 2629TIP3   OH229445   6.502   0.399   0.934  0.1044 -0.8702 -0.1881
 2629TIP3    H129446   6.421   0.358   0.964 -0.6088 -1.2341 -2.4172
 2629TIP3    H229447   6.474   0.481   0.893  1.0073 -0.4141  0.0734
 2630TIP3   OH229448   0.938   4.202   0.792 -0.0020 -0.3081  0.1028
 2630TIP3    H129449   0.926   4.109   0.811  0.8479 -0.0188  2.3321
 2630TIP3    H229450   1.028   4.208   0.759 -0.3553 -0.3808 -0.8847
 2631TIP3   OH229451   5.935   1.901   8.447 -0.9212 -0.3751 -0.1268
 2631TIP3    H129452   5.953   1.808   8.454 -0.2394 -0.2008  0.5708
 2631TIP3    H229453   6.020   1.943   8.460 -1.4614  0.3955  1.1986
 2632TIP3   OH229454   2.977   0.347   8.128  0.3249  0.5924 -0.3156
 2632TIP3    H129455   2.890   0.308   8.117  0.7409 -0.0366 -1.4717
 2632TIP3    H229456   3.003   0.322   8.217 -0.7079  0.8827  0.0882
 2633TIP3   OH229457   3.875   4.241   6.570  0.9073  0.0783  0.2697
 2633TIP3    H129458   3.949   4.268   6.625 -0.3114  1.0957  1.4571
 2633TIP3    H229459   3.827   4.321   6.552  0.2647 -0.5206 -0.7789
 2634TIP3   OH229460   2.804   4.808   7.434  0.7940 -0.5402  0.1023
 2634TIP3    H129461   2.821   4.723   7.474  1.5796 -0.4712 -0.0686
 2634TIP3    H229462   2.791   4.789   7.341  0.2689 -0.5462  0.1700
 2635TIP3   OH229463   1.288   1.632   0.728 -0.6085 -0.4755 -0.0659
 2635TIP3    H129464   1.280   1.700   0.662  3.3897  1.3222  0.9934
 2635TIP3    H229465   1.302   1.551   0.679 -2.3779 -0.0613 -1.3282
 2636TIP3   OH229466   3.340   5.122   2.776 -0.3551  0.1834 -0.1479
 2636TIP3    H129467   3.357   5.035   2.811 -1.0978  0.2220  0.3137
 2636TIP3    H229468   3.283   5.164   2.840  0.1462  1.0821 -0.2741
 2637TIP3   OH229469   6.246   2.019   7.489 -0.4381  0.3702 -0.1969
 2637TIP3    H129470   6.173   1.981   7.538  0.0389 -1.4764 -0.8448
 2637TIP3    H229471   6.324   1.974   7.523 -0.0156 -0.3831 -2.0228
 2638TIP3   OH229472   6.482   0.188   1.491 -1.0440  0.5878 -0.2385
 2638TIP3    H129473   6.576   0.184   1.505 -0.8305 -0.7361 -1.7070
 2638TIP3    H229474   6.472   0.238   1.410 -1.6556  1.2577  0.2396
 2639TIP3   OH229475   4.141   2.107   8.501 -0.1287 -0.1032 -0.3103
 2639TIP3    H129476   4.186   2.153   8.572  1.3857  1.1466 -1.9907
 2639TIP3    H229477   4.057   2.153   8.492 -0.4414 -0.4231  0.7734
 2640TIP3   OH229478   4.316   2.181   8.105 -0.0797  0.0895 -0.2735
 2640TIP3    H129479   4.280   2.105   8.151 -2.0388  0.9593 -0.2389
 2640TIP3    H229480   4.338   2.148   8.018 -4.1150  0.0427 -1.4756
 2641TIP3   OH229481   4.444   3.396   0.162 -0.3548 -0.5077  0.3757
 2641TIP3    H129482   4.404   3.460   0.103  1.3574  1.4250  1.1810
 2641TIP3    H229483   4.449   3.316   0.111  0.8874  1.0320 -2.1021
 2642TIP3   OH229484   0.705   3.861   1.660 -0.2967 -0.3062 -0.4352
 2642TIP3    H129485   0.709   3.950   1.626 -2.0434  0.1133  0.3318
 2642TIP3    H229486   0.627   3.861   1.716  0.6863 -1.8172  1.0240
 2643TIP3   OH229487   2.011   5.376   8.139  0.5289 -0.0455 -0.5951
 2643TIP3    H129488   1.947   5.447   8.145 -0.1827 -0.7668  1.1135
 2643TIP3    H229489   2.016   5.356   8.046 -2.7838 -0.8241 -0.7588
 2644TIP3   OH229490   5.906   1.373   0.804  0.0058  0.0635  0.1665
 2644TIP3    H129491   5.998   1.392   0.824  0.3771 -1.5591  0.1022
 2644TIP3    H229492   5.858   1.442   0.849  1.2497  1.0118  0.1208
 2645TIP3   OH229493   2.173   2.695   0.656 -0.0989 -0.3584 -0.1827
 2645TIP3    H129494   2.149   2.619   0.601  0.0891  0.0993 -0.9083
 2645TIP3    H229495   2.096   2.752   0.652 -1.4956 -1.8137  2.8039
 2646TIP3   OH229496   1.869   4.322   7.263 -0.9794  0.2593 -0.4796
 2646TIP3    H129497   1.936   4.359   7.206  0.7999 -2.4308 -0.2795
 2646TIP3    H229498   1.789   4.325   7.211  0.0102  0.4162 -2.0693
 2647TIP3   OH229499   4.996   0.904   1.902 -0.2055  0.1924 -0.4545
 2647TIP3    H129500   5.028   0.926   1.814 -0.0387  2.5105  0.1426
 2647TIP3    H229501   4.931   0.971   1.922 -0.4296 -0.4451  1.1118
 2648TIP3   OH229502   0.680   6.085   0.929  0.3805 -0.3119  0.4011
 2648TIP3    H129503   0.707   6.004   0.974  1.9416 -0.4780 -0.7684
 2648TIP3    H229504   0.750   6.102   0.866 -1.3002  0.4143 -1.3502
 2649TIP3   OH229505   1.782   4.125   1.823 -0.2892  0.2034 -0.4759
 2649TIP3    H129506   1.811   4.211   1.853  0.7326  0.5482 -2.2658
 2649TIP3    H229507   1.700   4.142   1.777 -0.0129  0.2633 -0.9560
 2650TIP3   OH229508   5.586   3.769   1.934  0.0336 -0.0364  0.3142
 2650TIP3    H129509   5.574   3.697   1.996 -1.0167  0.1891  0.3921
 2650TIP3    H229510   5.672   3.754   1.896 -0.4207 -1.6779 -0.1203
 2651TIP3   OH229511   5.144   2.011   0.147 -0.2022  0.0500  0.1651
 2651TIP3    H129512   5.110   2.082   0.202  1.5778 -0.1173  1.5917
 2651TIP3    H229513   5.094   1.934   0.174  0.2147  0.1024  1.1420
 2652TIP3   OH229514   2.267   0.121   0.100  0.2861 -0.8244 -0.1457
 2652TIP3    H129515   2.201   0.150   0.164  0.6659  2.3206 -1.0081
 2652TIP3    H229516   2.344   0.102   0.153 -0.9570 -3.8519  0.8007
 2653TIP3   OH229517   3.963   6.627   6.348 -0.3479  0.3607 -0.4112
 2653TIP3    H129518   3.932   6.562   6.285  1.0779  0.4659 -1.2850
 2653TIP3    H229519   4.058   6.630   6.334 -0.2184  1.6393  0.5536
 2654TIP3   OH229520   3.050   3.733   7.554  0.4635  0.1737 -0.2494
 2654TIP3    H129521   3.000   3.814   7.552  0.5634  0.2276 -0.5299
 2654TIP3    H229522   2.986   3.664   7.532 -0.0984 -0.0734  1.9114
 2655TIP3   OH229523   2.055   4.589   0.913 -0.3407  0.0480  0.0286
 2655TIP3    H129524   2.068   4.531   0.837 -2.0147 -1.0590  0.5246
 2655TIP3    H229525   2.087   4.537   0.987 -2.5483 -0.6113  0.5765
 2656TIP3   OH229526   1.261   2.559   7.681  0.3634  0.3523 -0.2526
 2656TIP3    H129527   1.333   2.609   7.719  0.6034 -0.6855  0.6903
 2656TIP3    H229528   1.303   2.490   7.630  0.0755 -0.8020  1.0183
 2657TIP3   OH229529   5.400   4.387   1.321  0.6407 -0.1683  0.4007
 2657TIP3    H129530   5.440   4.449   1.262  3.3574 -0.9741  1.2562
 2657TIP3    H229531   5.314   4.425   1.341  0.6646  1.3567 -1.9919
 2658TIP3   OH229532   4.893   4.881   1.026 -0.2498  0.5436 -0.4715
 2658TIP3    H129533   4.851   4.916   1.104 -0.6146 -0.2819 -0.2866
 2658TIP3    H229534   4.973   4.933   1.016 -0.4795  1.0231  0.1263
 2659TIP3   OH229535   3.687   3.974   7.740 -0.8565  0.4295  0.2910
 2659TIP3    H129536   3.681   3.888   7.697 -0.3988 -0.4838  1.9530
 2659TIP3    H229537   3.625   3.969   7.812 -1.7427  1.9915 -0.3219
 2660TIP3   OH229538   2.805   5.126   8.150 -0.4726  0.6682  0.3010
 2660TIP3    H129539   2.799   5.136   8.245 -0.7760  1.2872  0.2198
 2660TIP3    H229540   2.831   5.035   8.138  2.0092  1.1962  1.0655
 2661TIP3   OH229541   3.891   6.049   6.364  0.5836  0.4695 -0.3966
 2661TIP3    H129542   3.961   5.999   6.404  0.1299  0.5138  0.4677
 2661TIP3    H229543   3.814   5.992   6.369 -0.1722  1.5687  1.4705
 2662TIP3   OH229544   1.175   3.914   1.514  0.6979 -0.3353  0.0848
 2662TIP3    H129545   1.103   3.973   1.533  0.5869 -0.6759  0.7677
 2662TIP3    H229546   1.135   3.839   1.470  0.3408 -1.2727  1.8781
 2663TIP3   OH229547   2.154   3.353   8.312 -0.1760 -0.4317 -0.1377
 2663TIP3    H129548   2.166   3.327   8.221  0.2501  0.3036 -0.2981
 2663TIP3    H229549   2.061   3.376   8.318 -0.1314 -0.1541 -0.4759
 2664TIP3   OH229550   3.723   1.612   1.411  0.4198 -0.1885 -0.6964
 2664TIP3    H129551   3.740   1.640   1.501  1.7875 -0.6842 -0.7791
 2664TIP3    H229552   3.659   1.675   1.378  0.8513  0.7561  0.2182
 2665TIP3   OH229553   5.295   3.920   7.883 -0.7970  0.1417 -0.9606
 2665TIP3    H129554   5.225   3.984   7.882  0.5435  1.6782 -0.6439
 2665TIP3    H229555   5.331   3.925   7.971  1.6352  1.6424 -1.9382
 2666TIP3   OH229556   3.175   1.484   1.231 -0.0194  0.0215 -0.4405
 2666TIP3    H129557   3.266   1.502   1.258  0.3437  0.7901 -2.0536
 2666TIP3    H229558   3.175   1.500   1.137 -1.5117 -1.3880 -0.7107
 2667TIP3   OH229559   5.459   5.817   7.706 -0.2088 -0.3585 -0.3590
 2667TIP3    H129560   5.414   5.745   7.660 -0.3012 -1.3852  1.2386
 2667TIP3    H229561   5.529   5.773   7.755 -0.7651  0.5053  1.2815
 2668TIP3   OH229562   4.364   5.401   2.393  0.1894 -0.2381  0.0240
 2668TIP3    H129563   4.285   5.348   2.403 -0.0643  0.1720  0.2165
 2668TIP3    H229564   4.332   5.491   2.395  0.5383 -0.0827 -0.9081
 2669TIP3   OH229565   3.002   1.902   0.471  0.3167 -0.1933  0.0629
 2669TIP3    H129566   3.003   1.891   0.566  0.3041 -1.2073 -0.0467
 2669TIP3    H229567   2.963   1.989   0.457 -1.2065 -0.6961  0.9386
 2670TIP3   OH229568   2.737   6.271   0.890 -0.8426  0.1094  0.3213
 2670TIP3    H129569   2.767   6.196   0.942 -1.7744  0.2184  1.0484
 2670TIP3    H229570   2.773   6.256   0.803  3.1030  1.2916  1.5567
 2671TIP3   OH229571   5.360   5.799   7.981  0.5234 -0.1590  0.0082
 2671TIP3    H129572   5.354   5.704   7.973  1.7872 -0.1866 -1.0559
 2671TIP3    H229573   5.367   5.830   7.891 -0.3254  0.9899  0.3216
 2672TIP3   OH229574   1.214   6.363   8.338 -0.6132  0.8128  0.0835
 2672TIP3    H129575   1.295   6.311   8.339  0.6955  2.6257 -2.0880
 2672TIP3    H229576   1.214   6.409   8.422  0.0150 -0.0530  0.5787
 2673TIP3   OH229577   3.151   6.319   8.249  0.2125 -0.2866 -0.2788
 2673TIP3    H129578   3.216   6.369   8.199 -1.4035 -0.9686 -3.2514
 2673TIP3    H229579   3.076   6.378   8.255  1.6438  1.6277  5.5219
 2674TIP3   OH229580   4.106   5.960   6.984 -0.0455  0.3636  0.5402
 2674TIP3    H129581   4.164   5.944   6.909 -2.1134  0.5376 -1.2009
 2674TIP3    H229582   4.079   6.052   6.973 -1.9048 -0.1787  0.3165
 2675TIP3   OH229583   2.316   4.386   0.844  0.2020  0.1341  0.8533
 2675TIP3    H129584   2.294   4.335   0.922 -0.7534  0.8903  1.1020
 2675TIP3    H229585   2.346   4.471   0.878 -0.6713  0.6407  0.4109
 2676TIP3   OH229586   6.252   4.377   7.475 -0.3431 -0.1908 -0.0577
 2676TIP3    H129587   6.169   4.421   7.495  0.3836  0.9122  0.6827
 2676TIP3    H229588   6.239   4.287   7.504 -1.5078 -0.2162 -0.5930
 2677TIP3   OH229589   2.960   6.792   2.193  0.1221  0.0728 -0.6628
 2677TIP3    H129590   2.958   6.863   2.257 -0.7425 -0.0553 -0.5298
 2677TIP3    H229591   2.983   6.715   2.244  3.5854  0.6118 -1.2130
 2678TIP3   OH229592   1.980   1.467   0.378  0.5940 -0.0372  0.2930
 2678TIP3    H129593   1.945   1.379   0.390 -4.2838  1.4837 -0.4275
 2678TIP3    H229594   1.947   1.516   0.454 -1.2783  2.1246 -1.7512
 2679TIP3   OH229595   2.863   0.756   2.114 -0.3188  0.3728 -0.4070
 2679TIP3    H129596   2.793   0.706   2.072 -0.6290 -0.0767  0.5946
 2679TIP3    H229597   2.817   0.827   2.159 -0.0705  0.4176 -0.2250
 2680TIP3   OH229598   3.045   4.240   6.708 -0.3353 -0.1008 -1.1692
 2680TIP3    H129599   3.035   4.319   6.654  0.1102  0.1643 -0.8714
 2680TIP3    H229600   2.976   4.248   6.775  0.5076  0.6906 -0.3638
 2681TIP3   OH229601   2.991   2.328   2.341 -0.0697 -0.1883  0.3315
 2681TIP3    H129602   3.075   2.369   2.322  0.4748 -1.7793 -0.9116
 2681TIP3    H229603   2.999   2.297   2.431  0.7589 -0.4823  0.1664
 2682TIP3   OH229604   3.087   6.006   7.962  0.0363  0.0557  0.1579
 2682TIP3    H129605   3.101   6.100   7.947 -0.9040  0.6132  2.3223
 2682TIP3    H229606   3.101   5.995   8.056 -1.1553 -1.7340  0.1656
 2683TIP3   OH229607   2.714   3.027   0.953  0.7864  0.2143 -0.0459
 2683TIP3    H129608   2.805   3.021   0.981  0.6467 -0.2916  0.3156
 2683TIP3    H229609   2.674   3.091   1.012  0.6715 -0.3039  0.4514
 2684TIP3   OH229610   6.607   2.309   2.034 -0.0746  0.2953  0.0013
 2684TIP3    H129611   6.682   2.262   1.998  1.0174  1.0070  1.2729
 2684TIP3    H229612   6.551   2.240   2.070  0.3566 -0.1843 -0.2327
 2685TIP3   OH229613   2.813   6.432   1.814  0.1023  0.2031 -0.3826
 2685TIP3    H129614   2.778   6.520   1.799 -1.9224 -0.0827  1.8945
 2685TIP3    H229615   2.771   6.378   1.747 -1.3900  0.4402  0.3133
 2686TIP3   OH229616   2.637   3.965   7.953 -0.0822  0.2934 -0.5649
 2686TIP3    H129617   2.579   3.912   7.899 -0.7145 -0.6399  0.9614
 2686TIP3    H229618   2.589   3.977   8.035  0.4168  2.5050 -0.5128
 2687TIP3   OH229619   0.663   3.621   1.992  0.3105 -0.1973  1.2091
 2687TIP3    H129620   0.609   3.682   2.042  0.1620  0.7171 -0.0428
 2687TIP3    H229621   0.752   3.656   2.000  0.2066  0.2795  0.3788
 2688TIP3   OH229622   6.204   2.598   7.544  0.1684 -0.3336  0.4334
 2688TIP3    H129623   6.200   2.615   7.638  2.0924 -0.7511  0.6223
 2688TIP3    H229624   6.151   2.519   7.532  0.2209 -0.4974  1.2137
 2689TIP3   OH229625   3.309   1.352   2.116  0.2191 -0.2727 -0.2541
 2689TIP3    H129626   3.346   1.439   2.127 -0.4828  0.4358 -2.7394
 2689TIP3    H229627   3.376   1.303   2.070 -0.9617  0.4209 -2.9605
 2690TIP3   OH229628   4.158   0.977   6.748  0.1863 -0.2853 -0.3237
 2690TIP3    H129629   4.240   1.002   6.704  0.9274 -0.4405  0.9129
 2690TIP3    H229630   4.093   1.038   6.714  0.8738  0.0049 -1.1478
 2691TIP3   OH229631   6.758   2.239   6.765 -0.3182  0.5369  0.6525
 2691TIP3    H129632   6.679   2.293   6.766 -0.6688  0.0886 -0.7059
 2691TIP3    H229633   6.770   2.212   6.856 -0.3363  2.5896  1.3159
 2692TIP3   OH229634   0.193   6.054   7.793 -0.4371 -0.0207  0.0081
 2692TIP3    H129635   0.169   5.964   7.816 -0.2257 -0.0121  0.2560
 2692TIP3    H229636   0.178   6.105   7.872 -2.7455  0.5928 -0.7551
 2693TIP3   OH229637   1.257   1.775   7.708 -0.3398  0.6124  0.0191
 2693TIP3    H129638   1.327   1.738   7.762  2.0431  3.4220 -0.9060
 2693TIP3    H229639   1.203   1.825   7.769  0.2290  0.8524  0.3285
 2694TIP3   OH229640   0.867   6.577   0.852  0.3677  0.2608 -0.3216
 2694TIP3    H129641   0.921   6.594   0.775  2.4832 -2.0088  0.5256
 2694TIP3    H229642   0.855   6.663   0.893  0.6448  1.2526 -2.2374
 2695TIP3   OH229643   5.848   2.890   6.993 -0.2591 -0.5195 -0.3563
 2695TIP3    H129644   5.896   2.871   6.912 -0.0553 -2.3170  0.1396
 2695TIP3    H229645   5.792   2.813   7.006 -1.4388  0.4434  0.3880
 2696TIP3   OH229646   1.385   3.380   0.802 -0.2350 -0.2999 -0.0217
 2696TIP3    H129647   1.365   3.319   0.873 -1.4774 -0.0128 -0.1183
 2696TIP3    H229648   1.325   3.453   0.815 -0.0698  0.0281 -1.0316
 2697TIP3   OH229649   5.059   1.081   7.092  0.0911 -0.1840 -0.3081
 2697TIP3    H129650   5.084   1.156   7.145 -0.2176 -0.0542 -0.3441
 2697TIP3    H229651   5.142   1.040   7.067  0.2154 -0.6793  0.8840
 2698TIP3   OH229652   0.545   1.033   0.736  0.1638 -0.0131  0.0404
 2698TIP3    H129653   0.578   0.949   0.704 -0.5833  0.0629 -0.9763
 2698TIP3    H229654   0.542   1.022   0.831 -1.2626 -1.6723 -0.1378
 2699TIP3   OH229655   6.672   1.706   7.642  0.1129 -0.1499  0.3479
 2699TIP3    H129656   6.689   1.623   7.598 -0.3922 -0.3957  0.6030
 2699TIP3    H229657   6.639   1.681   7.729 -1.0386  0.2928  0.0616
 2700TIP3   OH229658   1.050   4.854   6.805 -0.4211  0.0290 -0.3654
 2700TIP3    H129659   0.975   4.837   6.748 -1.0049 -3.7258  1.2050
 2700TIP3    H229660   1.014   4.851   6.893  1.1918  0.9016  0.3669
 2701TIP3   OH229661   0.873   4.001   8.259  0.6818 -1.2162 -0.9000
 2701TIP3    H129662   0.882   3.995   8.354 -1.0182 -0.2509 -0.6322
 2701TIP3    H229663   0.882   4.094   8.239 -0.0105 -1.2776 -1.5435
 2702TIP3   OH229664   1.297   3.118   7.724 -0.1097 -0.5708  0.3383
 2702TIP3    H129665   1.233   3.087   7.659 -1.2169  0.4734  0.8909
 2702TIP3    H229666   1.379   3.124   7.675 -0.5069 -1.5387 -0.4954
 2703TIP3   OH229667   2.538   5.213   8.106  0.2953  0.1229 -0.1378
 2703TIP3    H129668   2.609   5.154   8.132 -0.9216 -1.8231 -0.9652
 2703TIP3    H229669   2.529   5.274   8.179  3.3468  1.0174 -0.3834
 2704TIP3   OH229670   5.916   3.858   6.559 -0.1721 -0.4916 -0.0194
 2704TIP3    H129671   5.986   3.916   6.531 -0.7369  0.0030 -0.4277
 2704TIP3    H229672   5.856   3.914   6.608 -0.6262 -0.7663 -0.2542
 2705TIP3   OH229673   2.314   1.796   7.697  0.4684  0.3180 -0.0752
 2705TIP3    H129674   2.269   1.814   7.614  0.1946 -0.5362 -0.1245
 2705TIP3    H229675   2.299   1.874   7.749  2.2289  1.6858 -1.4691
 2706TIP3   OH229676   5.866   5.220   0.592  0.1487 -0.1560  0.5138
 2706TIP3    H129677   5.940   5.196   0.648  1.2184  1.1812 -0.2617
 2706TIP3    H229678   5.860   5.149   0.527  0.9127 -0.1505  0.4344
 2707TIP3   OH229679   4.888   1.175   1.050 -0.7218 -0.5598  0.2188
 2707TIP3    H129680   4.882   1.216   1.136 -1.6946  0.9449 -0.5330
 2707TIP3    H229681   4.810   1.119   1.046 -1.0571 -0.0857  0.0504
 2708TIP3   OH229682   0.544   0.159   2.117  0.1581  0.2612  0.1839
 2708TIP3    H129683   0.578   0.087   2.169  0.6967  0.2361 -0.2011
 2708TIP3    H229684   0.457   0.175   2.153 -0.6569 -1.6675 -0.7911
 2709TIP3   OH229685   5.128   2.372   7.395 -0.6343 -0.2368  0.3218
 2709TIP3    H129686   5.131   2.322   7.313  0.9658  0.7920 -0.2768
 2709TIP3    H229687   5.190   2.327   7.453 -0.4200  0.0854  0.3451
 2710TIP3   OH229688   2.201   6.737   6.537 -0.2475 -0.0528  0.3010
 2710TIP3    H129689   2.200   6.804   6.605 -2.5767 -0.7344  1.0170
 2710TIP3    H229690   2.221   6.784   6.456  1.2404  0.9699  1.2145
 2711TIP3   OH229691   0.017   1.590   1.544 -0.4660 -0.2286  0.7377
 2711TIP3    H129692  -0.020   1.654   1.484  1.0582  0.9299  0.9752
 2711TIP3    H229693  -0.010   1.505   1.509 -1.0207  0.4808 -0.6067
 2712TIP3   OH229694   6.863   0.829   8.011 -0.2877 -0.3179 -0.0970
 2712TIP3    H129695   6.784   0.883   8.011  0.6911  1.1746  0.1549
 2712TIP3    H229696   6.917   0.865   8.082  0.9530 -0.7578 -0.7816
 2713TIP3   OH229697   0.471   0.640   1.438  0.3558 -0.1594  0.3774
 2713TIP3    H129698   0.377   0.623   1.443  0.2336 -1.3230 -2.9627
 2713TIP3    H229699   0.500   0.588   1.363  2.8403  3.2113 -1.2737
 2714TIP3   OH229700   3.542   3.673   7.220  0.4333 -0.1691  0.0305
 2714TIP3    H129701   3.579   3.586   7.235  1.0653  0.2036  0.7137
 2714TIP3    H229702   3.463   3.657   7.168  1.6270 -0.9598 -1.6131
 2715TIP3   OH229703   4.206   2.238   0.148  0.3885 -0.6093 -0.2640
 2715TIP3    H129704   4.270   2.306   0.166  0.0099 -0.1001 -0.7702
 2715TIP3    H229705   4.242   2.159   0.187  1.4758 -0.4050 -0.8092
 2716TIP3   OH229706   3.626   5.921   1.691  0.0396 -0.5874  0.0140
 2716TIP3    H129707   3.536   5.909   1.719  0.3268 -3.1247  0.0979
 2716TIP3    H229708   3.621   5.976   1.613 -1.1478  2.8343  2.2605
 2717TIP3   OH229709   6.589   0.652   8.574  0.0890  0.4276 -0.0792
 2717TIP3    H129710   6.617   0.641   8.483  1.7389  0.6698  0.3622
 2717TIP3    H229711   6.539   0.573   8.594 -0.4370  0.4495 -1.2274
 2718TIP3   OH229712   4.036   0.442   1.956  0.1390 -0.5619 -0.3715
 2718TIP3    H129713   4.017   0.365   1.903  0.2963 -1.8204  1.3291
 2718TIP3    H229714   4.130   0.457   1.944  0.1814 -0.8612 -0.4192
 2719TIP3   OH229715   0.175   3.740   1.402  0.4990 -0.4162 -0.4154
 2719TIP3    H129716   0.244   3.801   1.425  0.0319 -0.4918  1.3192
 2719TIP3    H229717   0.213   3.653   1.417  0.3971 -0.4892 -0.5702
 2720TIP3   OH229718   0.377   3.105   2.022 -0.6163 -0.2288 -0.2386
 2720TIP3    H129719   0.353   3.028   2.073 -0.6843  0.2965  0.5323
 2720TIP3    H229720   0.357   3.080   1.931 -1.1312 -0.9297  0.0552
 2721TIP3   OH229721   0.912   4.953   7.779  0.2930  0.6486  0.0097
 2721TIP3    H129722   0.849   4.895   7.737 -0.5012  1.5514 -0.0851
 2721TIP3    H229723   0.990   4.948   7.724  1.2539 -2.3399  1.4088
 2722TIP3   OH229724   4.568   4.056   8.091  0.4093 -0.1228 -0.2966
 2722TIP3    H129725   4.664   4.053   8.100  0.2804 -1.4773  0.9435
 2722TIP3    H229726   4.542   4.134   8.139  0.7046 -1.2593  1.8514
 2723TIP3   OH229727   4.034   6.219   6.931 -0.6414 -0.5704 -0.3437
 2723TIP3    H129728   4.066   6.261   6.851  1.2076 -1.5141 -0.1339
 2723TIP3    H229729   3.986   6.289   6.976  0.1145  0.5770 -1.2484
 2724TIP3   OH229730   4.511   3.065   0.399  0.0534  0.1021  0.2795
 2724TIP3    H129731   4.439   3.127   0.391 -0.5000 -0.4247  1.0409
 2724TIP3    H229732   4.468   2.981   0.414  0.7887 -0.4767 -0.7647
 2725TIP3   OH229733   4.025   1.586   0.844 -0.1615  0.0755 -0.7370
 2725TIP3    H129734   4.060   1.550   0.762 -1.1073 -0.8871 -0.7406
 2725TIP3    H229735   4.048   1.679   0.841  3.9095 -0.6951  0.0442
 2726TIP3   OH229736   5.940   2.771   1.086  0.2016  0.0674  0.2289
 2726TIP3    H129737   5.981   2.777   0.999  0.5217  0.4172  0.3993
 2726TIP3    H229738   5.942   2.678   1.107 -0.9172 -0.1626 -0.6314
 2727TIP3   OH229739   4.990   5.652   0.042 -0.3731 -0.0150  0.2525
 2727TIP3    H129740   5.025   5.586  -0.019  0.1173  0.0083  0.5083
 2727TIP3    H229741   4.896   5.652   0.024 -0.1887  0.2734 -0.7840
 2728TIP3   OH229742   4.076   5.855   0.085  0.2582  0.6602 -0.6258
 2728TIP3    H129743   4.008   5.802   0.126  0.1564  0.1911 -1.3679
 2728TIP3    H229744   4.058   5.945   0.114 -0.5188  0.5036 -0.6012
 2729TIP3   OH229745   3.648   0.316   7.208  0.0920 -0.5405  0.3523
 2729TIP3    H129746   3.631   0.299   7.301 -1.8601 -0.0336  0.1276
 2729TIP3    H229747   3.568   0.288   7.163  0.4792  0.4729 -1.0426
 2730TIP3   OH229748   4.950   4.262   0.769  0.3005  0.0076  0.1864
 2730TIP3    H129749   4.857   4.288   0.771  0.6973  2.2360 -2.5290
 2730TIP3    H229750   4.950   4.170   0.793 -2.7666 -0.3019 -0.5669
 2731TIP3   OH229751   3.729   2.961   8.050  0.4413  0.4902 -0.0607
 2731TIP3    H129752   3.666   3.029   8.074  0.1734 -0.6492  2.8911
 2731TIP3    H229753   3.677   2.880   8.049  1.3980 -0.1373 -0.0544
 2732TIP3   OH229754   1.195   2.291   8.250 -0.1955  0.6157 -0.0062
 2732TIP3    H129755   1.134   2.258   8.184 -0.1969 -0.3448  0.4517
 2732TIP3    H229756   1.170   2.245   8.331  0.9694  0.3812  0.2418
 2733TIP3   OH229757   4.254   1.526   6.715  0.5699  0.0187 -0.2416
 2733TIP3    H129758   4.298   1.570   6.642 -1.5062  0.1029 -1.5278
 2733TIP3    H229759   4.279   1.434   6.707  3.5285  0.5435  1.4113
 2734TIP3   OH229760   3.044   5.610   7.323 -0.0769 -0.3923  0.2781
 2734TIP3    H129761   3.051   5.515   7.312 -0.5237 -0.4933  0.8025
 2734TIP3    H229762   3.123   5.645   7.282 -0.3823 -0.9197 -0.7863
 2735TIP3   OH229763   6.139   5.390   0.364  0.2505 -0.4420 -0.0525
 2735TIP3    H129764   6.186   5.473   0.369  0.9207 -0.8102 -0.0834
 2735TIP3    H229765   6.093   5.392   0.280  0.7999 -0.3787 -0.3532
 2736TIP3   OH229766   0.098   2.663   0.520 -0.5163  0.6415 -0.5998
 2736TIP3    H129767   0.097   2.631   0.610  1.6369 -2.2471 -1.4623
 2736TIP3    H229768   0.036   2.607   0.474 -0.0515  0.6940 -1.3097
 2737TIP3   OH229769   4.958   2.933   2.042  0.1846  0.0409 -0.3141
 2737TIP3    H129770   4.933   2.873   2.111 -1.0412  0.8263 -0.0530
 2737TIP3    H229771   4.890   2.923   1.975 -0.6010  1.8001  0.1592
 2738TIP3   OH229772   5.164   4.497   1.456 -0.2452 -0.2882 -0.2952
 2738TIP3    H129773   5.147   4.427   1.519 -0.5981  0.8386  0.8990
 2738TIP3    H229774   5.081   4.544   1.449  0.2208  0.5537 -0.3657
 2739TIP3   OH229775   6.664   3.692   0.681 -0.8367 -0.0017 -0.4220
 2739TIP3    H129776   6.597   3.672   0.746 -0.5998 -2.6979 -0.8893
 2739TIP3    H229777   6.747   3.688   0.728 -0.7655 -0.3768 -0.5774
 2740TIP3   OH229778   5.047   6.606   1.698  0.2662 -0.4402  0.3637
 2740TIP3    H129779   4.998   6.689   1.693  2.0267  0.6693  0.6231
 2740TIP3    H229780   5.102   6.606   1.620  1.4826 -0.5540  1.1993
 2741TIP3   OH229781   4.044   3.451   1.034  0.0294  0.3336  0.2942
 2741TIP3    H129782   4.129   3.490   1.053 -0.0005  0.8396 -0.5574
 2741TIP3    H229783   3.984   3.495   1.093 -0.1672  2.3246 -1.2812
 2742TIP3   OH229784   1.700   1.344   1.959  0.4989 -0.0696  0.3884
 2742TIP3    H129785   1.636   1.293   1.909  0.4475  0.7786 -0.4306
 2742TIP3    H229786   1.663   1.432   1.964  2.7606  1.1777 -2.4333
 2743TIP3   OH229787   2.483   3.806   7.305  0.2210  0.4205 -0.0965
 2743TIP3    H129788   2.524   3.725   7.334 -0.5096  1.0815  3.1016
 2743TIP3    H229789   2.391   3.784   7.291  0.1895  0.5132 -0.0413
 2744TIP3   OH229790   4.978   5.849   1.537 -0.6783 -0.4122  0.2928
 2744TIP3    H129791   5.034   5.786   1.492  0.3893 -0.7033  1.9343
 2744TIP3    H229792   4.941   5.903   1.467 -0.7228 -2.1136 -1.0645
 2745TIP3   OH229793   0.625   5.629   1.821  0.0068  0.4189 -0.3279
 2745TIP3    H129794   0.561   5.562   1.846  0.3617 -0.3958 -1.5300
 2745TIP3    H229795   0.605   5.649   1.730  1.3188  0.2979 -0.6693
 2746TIP3   OH229796   0.479   1.924   2.610  0.0852 -0.1250  0.4608
 2746TIP3    H129797   0.557   1.897   2.561  0.1642 -2.1880  1.6403
 2746TIP3    H229798   0.419   1.956   2.543  0.0253 -3.1992 -1.1210
 2747TIP3   OH229799   6.308   1.597   8.411  0.0721  0.0252  0.1853
 2747TIP3    H129800   6.241   1.529   8.405  0.2268 -0.1543  0.4728
 2747TIP3    H229801   6.286   1.646   8.491  3.1314 -3.1581  3.3482
 2748TIP3   OH229802   2.268   6.824   1.552 -0.1904  0.1379  0.3814
 2748TIP3    H129803   2.173   6.830   1.565  0.0219  3.7786  1.4554
 2748TIP3    H229804   2.302   6.791   1.635 -0.4005  1.0496  0.8410
 2749TIP3   OH229805   6.616   1.014   8.088  0.0840  0.0111  0.0573
 2749TIP3    H129806   6.564   1.026   8.009 -0.5247  0.1898  0.4782
 2749TIP3    H229807   6.552   0.995   8.156  0.5994 -0.1122  0.5168
 2750TIP3   OH229808   4.797   5.771   6.949 -0.1606  0.4635  0.2255
 2750TIP3    H129809   4.719   5.820   6.923 -0.4915  0.6373  1.5013
 2750TIP3    H229810   4.763   5.686   6.976  0.2061  0.2002 -0.1354
 2751TIP3   OH229811   0.389   0.349   0.420  0.1818 -0.2218  0.1240
 2751TIP3    H129812   0.298   0.356   0.448 -0.1604 -0.8293 -0.8011
 2751TIP3    H229813   0.439   0.339   0.501 -0.3216  2.3081  0.8086
 2752TIP3   OH229814   2.623   4.645   1.385  0.1301  0.1128  0.2604
 2752TIP3    H129815   2.579   4.677   1.463  0.9732 -2.4593  1.9290
 2752TIP3    H229816   2.557   4.593   1.339  0.1744  0.0208  0.3014
 2753TIP3   OH229817   4.410   6.360   1.574  0.2305  0.3769  0.5388
 2753TIP3    H129818   4.387   6.332   1.662  0.9865 -3.5527 -0.3146
 2753TIP3    H229819   4.503   6.380   1.579  0.0502  1.1876  0.8097
 2754TIP3   OH229820   2.678   3.594   0.613 -0.5550  0.3068  0.1987
 2754TIP3    H129821   2.634   3.565   0.533  0.2963  1.9869 -0.9334
 2754TIP3    H229822   2.759   3.634   0.582 -0.3324  1.2272  1.8712
 2755TIP3   OH229823   3.291   0.174   0.223 -0.1494  0.8596  0.1301
 2755TIP3    H129824   3.382   0.149   0.212  0.5220  2.1229  2.1483
 2755TIP3    H229825   3.253   0.106   0.278 -0.1461  0.8427  0.1113
 2756TIP3   OH229826   2.396   5.239   7.710 -0.0708  0.1061  0.3550
 2756TIP3    H129827   2.340   5.215   7.636 -2.8229  2.1169  1.6016
 2756TIP3    H229828   2.472   5.282   7.671 -1.3485  0.9435 -1.3137
 2757TIP3   OH229829   5.914   2.852   7.572 -0.2015  0.5928  0.3141
 2757TIP3    H129830   5.899   2.837   7.666  0.9250  0.5783  0.5080
 2757TIP3    H229831   6.002   2.888   7.568 -0.3987  0.9762 -0.7198
 2758TIP3   OH229832   4.359   0.717   6.282  0.3363  0.1310  0.0780
 2758TIP3    H129833   4.447   0.753   6.272  0.2441  0.1789 -0.6312
 2758TIP3    H229834   4.360   0.637   6.230 -0.5743  1.0732 -1.4752
 2759TIP3   OH229835   3.325   2.567   1.069  0.0621 -0.0727 -0.2228
 2759TIP3    H129836   3.360   2.479   1.081  2.6586  0.8710 -0.2149
 2759TIP3    H229837   3.274   2.561   0.988 -1.0592 -1.8644  0.5402
 2760TIP3   OH229838   1.643   6.418   7.949  0.6766 -0.0078  0.0196
 2760TIP3    H129839   1.642   6.456   8.037  0.5255  0.8548 -0.3350
 2760TIP3    H229840   1.716   6.463   7.906 -0.0511  0.5342 -0.6805
 2761TIP3   OH229841   1.983   1.760   7.693  0.8552  0.1581 -0.1476
 2761TIP3    H129842   2.052   1.754   7.626 -0.3466 -0.6238 -1.3554
 2761TIP3    H229843   1.961   1.853   7.695  1.1322  0.2390 -0.6046
 2762TIP3   OH229844   3.897   1.355   8.581 -0.3032 -0.3609 -0.1270
 2762TIP3    H129845   3.816   1.303   8.582  0.2428 -1.2892 -1.4694
 2762TIP3    H229846   3.961   1.300   8.627 -0.5570  0.6626  1.5403
 2763TIP3   OH229847   6.329   0.285   2.113 -0.1361 -0.2274 -0.4023
 2763TIP3    H129848   6.286   0.368   2.096 -1.3957 -1.1114 -1.7735
 2763TIP3    H229849   6.268   0.238   2.170  0.7524 -0.0755  0.6971
 2764TIP3   OH229850   4.015   4.836   2.462 -0.0166 -0.4759 -0.5134
 2764TIP3    H129851   3.945   4.829   2.527 -0.5373 -0.5507 -1.0714
 2764TIP3    H229852   3.982   4.789   2.386 -0.2992  1.3068 -1.5681
 2765TIP3   OH229853   1.199   2.469   1.179 -0.1639  0.3199  0.2878
 2765TIP3    H129854   1.282   2.519   1.180 -0.0769  0.3769 -2.2570
 2765TIP3    H229855   1.160   2.486   1.264  1.5123  1.9344  0.8092
 2766TIP3   OH229856   6.283   2.777   1.436  0.3776 -0.5617  0.2443
 2766TIP3    H129857   6.303   2.720   1.362 -1.1813  0.2940 -0.8937
 2766TIP3    H229858   6.248   2.717   1.502  0.9256 -1.2175 -0.0437
 2767TIP3   OH229859   0.684   3.190   1.065  0.3944  0.0617 -0.5837
 2767TIP3    H129860   0.601   3.193   1.018  0.6361 -1.5173 -1.1805
 2767TIP3    H229861   0.697   3.279   1.097 -1.7617  0.2344 -0.0521
 2768TIP3   OH229862   3.251   4.514   8.129 -0.6182  0.0783 -0.8272
 2768TIP3    H129863   3.241   4.555   8.215 -2.6789 -2.4988  0.2967
 2768TIP3    H229864   3.313   4.442   8.144 -3.2595 -2.3189 -0.5901
 2769TIP3   OH229865   3.753   4.124   1.236 -0.0048  0.1209 -0.5725
 2769TIP3    H129866   3.672   4.105   1.189 -0.1763  2.2029 -1.2130
 2769TIP3    H229867   3.784   4.207   1.199  0.8356  0.8951  1.6940
 2770TIP3   OH229868   1.250   1.737   8.302 -0.4098 -0.5767  0.2674
 2770TIP3    H129869   1.338   1.715   8.271 -0.0765 -0.1169  0.8600
 2770TIP3    H229870   1.248   1.705   8.393 -0.3762  0.5939  0.7037
 2771TIP3   OH229871   5.429   6.087   0.359 -0.2460  0.0962 -0.2942
 2771TIP3    H129872   5.344   6.082   0.314 -1.4355  1.5230  1.6481
 2771TIP3    H229873   5.475   6.159   0.316 -0.3096 -0.1966 -0.8646
 2772TIP3   OH229874   3.104   5.606   0.351  0.7138 -0.3819 -0.3286
 2772TIP3    H129875   3.040   5.673   0.326  0.5822 -0.5850 -0.5474
 2772TIP3    H229876   3.189   5.649   0.343  0.5884 -0.0347  0.2086
 2773TIP3   OH229877   0.997   3.281   0.245 -0.3273  0.4653 -0.4921
 2773TIP3    H129878   0.905   3.263   0.225 -0.1096 -1.4118  0.0231
 2773TIP3    H229879   1.042   3.198   0.229  1.4940  1.6271 -1.8238
 2774TIP3   OH229880   0.812   1.568   0.909 -0.0644  1.1088 -0.1187
 2774TIP3    H129881   0.768   1.503   0.854  0.1303 -0.5057  1.5180
 2774TIP3    H229882   0.862   1.622   0.847 -0.4494 -0.1308 -1.5787
 2775TIP3   OH229883   0.617   4.763   7.382 -0.0101 -1.0893 -0.4545
 2775TIP3    H129884   0.709   4.758   7.357  1.2550  2.9110  2.2818
 2775TIP3    H229885   0.578   4.822   7.317  0.2225 -0.3178  0.0837
 2776TIP3   OH229886   2.872   5.430   2.062 -0.3372  0.0693  0.3982
 2776TIP3    H129887   2.831   5.367   2.121  0.1605 -0.2977  0.3639
 2776TIP3    H229888   2.965   5.410   2.067 -0.1314  1.0986  0.7114
 2777TIP3   OH229889   4.923   6.130   7.325  0.2372 -0.2913  0.1267
 2777TIP3    H129890   4.949   6.209   7.374  0.8909 -0.9616  0.9108
 2777TIP3    H229891   4.881   6.074   7.391 -0.6993 -0.3823 -0.5394
 2778TIP3   OH229892   3.279   2.605   8.542  0.0756 -0.0369  0.2798
 2778TIP3    H129893   3.303   2.672   8.606 -0.4330  0.3023  0.1237
 2778TIP3    H229894   3.237   2.536   8.594 -1.2269  0.6773  0.2086
 2779TIP3   OH229895   2.176   5.117   6.805 -0.2979  0.1767  0.5283
 2779TIP3    H129896   2.231   5.126   6.727 -0.4360  1.2423  0.5399
 2779TIP3    H229897   2.177   5.024   6.824  1.2506  0.1327  0.3380
 2780TIP3   OH229898   4.532   0.832   7.292  0.0759  0.1033  0.0303
 2780TIP3    H129899   4.604   0.889   7.320  0.6121 -1.2982  1.7098
 2780TIP3    H229900   4.575   0.752   7.264 -0.7766 -0.4194  0.1981
 2781TIP3   OH229901   3.348   2.615   7.068  0.3972 -0.3850 -0.6993
 2781TIP3    H129902   3.349   2.531   7.023 -1.4220 -0.3854 -0.8409
 2781TIP3    H229903   3.350   2.593   7.161 -1.0407 -0.6876 -0.7048
 2782TIP3   OH229904   4.091   3.974   0.267 -0.1393 -0.2025 -0.0532
 2782TIP3    H129905   4.174   3.961   0.312 -0.9381 -0.9793  1.2688
 2782TIP3    H229906   4.078   4.069   0.265  1.8441  0.1113 -2.3735
 2783TIP3   OH229907   5.198   2.944   0.395  0.2372 -0.4709  0.3786
 2783TIP3    H129908   5.110   2.973   0.369  0.1934  1.5517  2.4428
 2783TIP3    H229909   5.253   3.021   0.381  1.4198 -1.3088  0.3535
 2784TIP3   OH229910   0.649   2.723   0.113 -0.0152  1.1619  0.1572
 2784TIP3    H129911   0.563   2.706   0.075 -0.1305 -0.0618  0.9182
 2784TIP3    H229912   0.711   2.699   0.044 -0.2516  0.3327  0.2218
 2785TIP3   OH229913   1.427   6.449   7.771 -0.2078  0.0959  0.2786
 2785TIP3    H129914   1.492   6.417   7.833 -1.4097  0.7028  1.9155
 2785TIP3    H229915   1.475   6.511   7.716  0.7019  0.2222  1.1838
 2786TIP3   OH229916   1.162   2.188   1.150 -0.0687 -0.5893 -0.0272
 2786TIP3    H129917   1.151   2.283   1.139  2.6421 -0.0863  0.8096
 2786TIP3    H229918   1.117   2.168   1.233  2.1342  0.6850  1.5911
 2787TIP3   OH229919   2.434   6.729   1.936  0.5803 -0.0642 -0.3070
 2787TIP3    H129920   2.471   6.772   2.013  0.8026  0.3786 -0.6587
 2787TIP3    H229921   2.509   6.688   1.894  0.5674  0.2749 -0.6618
 2788TIP3   OH229922   6.207   6.783   0.291  0.3447 -0.5455 -0.2614
 2788TIP3    H129923   6.300   6.778   0.270  0.2651 -1.2934 -0.4401
 2788TIP3    H229924   6.178   6.865   0.250  1.0466  0.0037  0.3042
 2789TIP3   OH229925   6.267   0.618   1.164  0.0348  0.9875  0.3652
 2789TIP3    H129926   6.348   0.625   1.114  0.8128  1.2146  1.6084
 2789TIP3    H229927   6.253   0.706   1.199  1.0249  0.2624  2.7766
 2790TIP3   OH229928   4.980   2.961   8.405  0.0800 -0.3849 -0.6126
 2790TIP3    H129929   4.996   2.972   8.311 -0.4930 -0.2956 -0.7041
 2790TIP3    H229930   5.021   3.037   8.445  0.5160 -0.5341 -0.7689
 2791TIP3   OH229931   2.433   1.170   7.174  0.0489 -0.0153  0.2825
 2791TIP3    H129932   2.525   1.154   7.153  0.3758  1.1078  0.7689
 2791TIP3    H229933   2.387   1.091   7.145  1.1882 -0.6676  0.2092
 2792TIP3   OH229934   3.230   4.493   0.138 -0.2497  0.0950  0.0583
 2792TIP3    H129935   3.247   4.425   0.203  0.5484  1.0950  0.9347
 2792TIP3    H229936   3.314   4.507   0.095 -0.1613  1.1624  0.5364
 2793TIP3   OH229937   4.706   1.033   7.980  0.7080  1.3926 -0.5400
 2793TIP3    H129938   4.653   1.108   7.952 -0.8528  0.3342 -0.5401
 2793TIP3    H229939   4.686   1.022   8.073  2.8558  2.4586  0.1248
 2794TIP3   OH229940   2.346   1.282   8.340 -0.0078 -0.8026  0.0529
 2794TIP3    H129941   2.298   1.226   8.279  0.5626 -0.1576 -1.0094
 2794TIP3    H229942   2.393   1.344   8.284 -1.4860  1.4862  1.2035
 2795TIP3   OH229943   1.365   2.501   1.520  0.4491 -0.2296  0.2607
 2795TIP3    H129944   1.373   2.556   1.597  2.0199  0.6438 -0.4771
 2795TIP3    H229945   1.335   2.560   1.451 -1.7941 -1.1756  0.3441
 2796TIP3   OH229946   1.266   5.389   1.635  0.0036  0.1913 -0.7786
 2796TIP3    H129947   1.362   5.393   1.631  0.1869 -1.1940  0.9649
 2796TIP3    H229948   1.246   5.298   1.654 -1.6939  0.4174 -1.3197
 2797TIP3   OH229949   3.996   6.678   7.201 -0.6848  0.0669 -0.5429
 2797TIP3    H129950   3.995   6.582   7.207  1.3374  0.0751  2.9965
 2797TIP3    H229951   3.908   6.705   7.228 -0.2596 -0.8532  2.0689
 2798TIP3   OH229952   3.652   4.793   0.591 -0.1768 -0.6776 -0.1963
 2798TIP3    H129953   3.738   4.809   0.554  0.1071 -1.0356  0.3054
 2798TIP3    H229954   3.652   4.700   0.614 -0.6247 -0.6366 -0.0115
 2799TIP3   OH229955   5.458   4.660   8.519  0.2161  0.1681  0.0891
 2799TIP3    H129956   5.544   4.702   8.516  0.0433  0.5613  0.5408
 2799TIP3    H229957   5.397   4.731   8.537 -0.2616 -0.0421 -0.6297
 2800TIP3   OH229958   4.609   0.119   7.383  0.4882 -0.2726 -0.4009
 2800TIP3    H129959   4.600   0.148   7.474  2.3729 -0.2020 -0.1969
 2800TIP3    H229960   4.674   0.049   7.386 -0.2920 -1.0913 -1.5620
 2801TIP3   OH229961   0.070   0.104   7.624  0.1642 -0.0331  0.2073
 2801TIP3    H129962   0.050   0.011   7.629 -0.5850 -0.0877 -2.3327
 2801TIP3    H229963   0.145   0.110   7.564 -0.1347  0.9974 -0.1001
 2802TIP3   OH229964   0.507   1.148   0.088 -0.8371  0.0210 -0.6026
 2802TIP3    H129965   0.461   1.065   0.079 -0.8307 -0.3012  1.6983
 2802TIP3    H229966   0.445   1.213   0.056 -2.2364 -0.5816  0.7244
 2803TIP3   OH229967   5.687   4.036   8.568  0.0563  0.0792 -0.4018
 2803TIP3    H129968   5.618   3.980   8.533  0.4546 -1.1420  0.6941
 2803TIP3    H229969   5.640   4.103   8.618 -0.3636 -1.0457  0.7756
 2804TIP3   OH229970   0.873   4.207   0.062 -0.4345  0.5074  0.2118
 2804TIP3    H129971   0.966   4.227   0.077 -0.4750  1.3014 -0.5573
 2804TIP3    H229972   0.826   4.274   0.111 -0.5690  2.4273 -2.3537
 2805TIP3   OH229973   1.103   1.542   7.164 -0.1038  0.0686  0.4736
 2805TIP3    H129974   1.098   1.510   7.074  1.5400 -4.1828  1.6437
 2805TIP3    H229975   1.194   1.569   7.175  0.0533 -0.7161  1.1925
 2806TIP3   OH229976   2.881   2.028   7.064  0.1122 -0.3739 -0.4261
 2806TIP3    H129977   2.843   2.005   6.979  1.5028  1.9208 -1.7682
 2806TIP3    H229978   2.814   2.003   7.128 -2.2086  0.4379 -2.4022
 2807TIP3   OH229979   1.184   1.064   1.898 -0.2105  0.0127 -0.1820
 2807TIP3    H129980   1.277   1.056   1.877 -0.5468 -0.0064 -1.7790
 2807TIP3    H229981   1.146   0.981   1.871 -1.1444  1.0625 -2.3346
 2808TIP3   OH229982   1.555   6.015   7.701  0.4074 -1.0254  0.2865
 2808TIP3    H129983   1.480   5.989   7.755  0.4028  0.5429  1.0874
 2808TIP3    H229984   1.618   6.050   7.764  0.0590  1.6639 -0.7442
 2809TIP3   OH229985   5.471   1.485   7.404 -0.7851 -0.3519  0.4066
 2809TIP3    H129986   5.551   1.435   7.391 -0.4210  0.6011 -1.4562
 2809TIP3    H229987   5.492   1.548   7.473  0.4837  0.5832 -0.7608
 2810TIP3   OH229988   5.760   4.983   0.475  0.2409 -0.2009 -0.5397
 2810TIP3    H129989   5.714   4.967   0.393  0.8908 -2.2431 -0.5522
 2810TIP3    H229990   5.710   4.933   0.540 -0.0110  1.0400  0.2561
 2811TIP3   OH229991   5.937   6.545   0.890 -0.3025 -0.0023 -0.4354
 2811TIP3    H129992   5.963   6.637   0.880 -1.4436  0.2779 -0.9492
 2811TIP3    H229993   5.974   6.519   0.974  0.6131  0.7233 -0.5927
 2812TIP3   OH229994   6.683   2.697   0.902 -0.1629  0.1833 -0.1898
 2812TIP3    H129995   6.638   2.671   0.982  1.9285 -1.7271  0.4879
 2812TIP3    H229996   6.766   2.735   0.932  0.5320 -0.2901 -1.4079
 2813TIP3   OH229997   5.522   0.042   6.995 -0.1870 -0.1010 -0.4104
 2813TIP3    H129998   5.565  -0.033   6.954 -0.9209 -0.5801 -0.3356
 2813TIP3    H229999   5.593   0.102   7.018  0.3446 -0.4171 -1.1948
 2814TIP3   OH230000   3.940   4.453   8.331 -0.4258 -0.0824 -0.1367
 2814TIP3    H130001   3.881   4.527   8.320  0.2726  1.2553  3.7425
 2814TIP3    H230002   4.019   4.477   8.283 -0.7960  0.9254 -0.2517
 2815TIP3   OH230003   4.986   5.741   0.303  0.1281  0.4660 -0.0359
 2815TIP3    H130004   5.014   5.712   0.216 -2.3936  0.8745 -1.0735
 2815TIP3    H230005   4.965   5.660   0.349 -3.6858  0.2576 -1.7748
 2816TIP3   OH230006   3.906   4.697   2.234  0.4991 -0.3121 -0.5504
 2816TIP3    H130007   3.863   4.633   2.291 -1.0794  1.3594  0.2579
 2816TIP3    H230008   3.846   4.707   2.161  0.9451 -0.0726 -0.8848
 2817TIP3   OH230009   6.776   6.264   6.783  0.4566 -0.3889 -0.1585
 2817TIP3    H130010   6.746   6.190   6.836  0.2341  0.3672  0.7961
 2817TIP3    H230011   6.867   6.277   6.810 -0.1308  1.0624  1.3513
 2818TIP3   OH230012   3.505   4.032   1.809 -0.1948 -0.1151  0.1751
 2818TIP3    H130013   3.509   4.025   1.905  0.2510  1.0776  0.2642
 2818TIP3    H230014   3.418   4.068   1.791 -0.3891 -0.6098  0.1003
 2819TIP3   OH230015   2.586   6.386   0.548  0.3535 -0.0553  0.2215
 2819TIP3    H130016   2.579   6.308   0.493 -1.1541 -0.3971  0.8350
 2819TIP3    H230017   2.533   6.451   0.502 -0.1117 -0.0450  0.7626
 2820TIP3   OH230018   3.417   4.228   7.686 -0.5755 -0.3037 -0.4504
 2820TIP3    H130019   3.499   4.250   7.730 -1.1087  1.6500 -0.3502
 2820TIP3    H230020   3.442   4.165   7.618  1.5392  2.3547 -2.3212
 2821TIP3   OH230021   3.951   5.441   8.356 -0.7768  0.3518 -0.3967
 2821TIP3    H130022   3.937   5.496   8.279 -0.5513 -0.2930 -0.9058
 2821TIP3    H230023   3.986   5.359   8.322 -0.1256  0.2578  0.4471
 2822TIP3   OH230024   3.077   1.840   2.775  0.1161  0.3610  0.4984
 2822TIP3    H130025   3.122   1.767   2.731  0.1992  0.3254  0.6406
 2822TIP3    H230026   2.984   1.825   2.757  0.2637  1.6947 -1.7625
 2823TIP3   OH230027   1.438   0.720   1.980  1.2336 -0.1876 -0.2995
 2823TIP3    H130028   1.385   0.694   2.056 -0.3933 -2.0571 -1.9685
 2823TIP3    H230029   1.443   0.816   1.986 -0.9210 -0.0855  0.8737
 2824TIP3   OH230030   6.750   0.088   1.436 -0.1393  0.6984 -0.2001
 2824TIP3    H130031   6.776   0.043   1.355 -1.7734 -0.9933  0.1246
 2824TIP3    H230032   6.830   0.129   1.468  0.7766  0.5342 -2.1164
 2825TIP3   OH230033   1.231   6.600   1.548  0.1612 -0.1185 -0.0459
 2825TIP3    H130034   1.298   6.668   1.555  1.5201 -1.2010 -1.7558
 2825TIP3    H230035   1.263   6.528   1.602 -0.3111 -0.1342  0.2186
 2826TIP3   OH230036   1.540   5.568   0.003 -0.0288 -0.2999 -0.1801
 2826TIP3    H130037   1.585   5.485  -0.016  0.0542 -0.6853  1.5665
 2826TIP3    H230038   1.607   5.635  -0.013  0.3413 -0.6669 -0.1997
 2827TIP3   OH230039   0.111   6.872   8.246  0.2630  0.3299  0.3120
 2827TIP3    H130040   0.172   6.897   8.315  1.5081  1.7817 -1.2147
 2827TIP3    H230041   0.067   6.953   8.221  0.4324  0.0277 -1.1141
 2828TIP3   OH230042   2.517   5.344   6.481 -0.7433 -0.1386  0.5520
 2828TIP3    H130043   2.584   5.311   6.541  0.6908  2.0328  0.2954
 2828TIP3    H230044   2.510   5.277   6.413 -0.3520 -1.3507  1.6776
 2829TIP3   OH230045   2.545   5.180   8.528  0.1242 -0.5301  0.6729
 2829TIP3    H130046   2.575   5.270   8.540  0.8091 -0.6302 -0.1585
 2829TIP3    H230047   2.450   5.184   8.540 -0.3085  0.9097 -2.2931
 2830TIP3   OH230048   0.540   6.273   7.184  0.0820  0.5390 -0.2210
 2830TIP3    H130049   0.553   6.203   7.121  0.2105 -0.2852  0.7003
 2830TIP3    H230050   0.576   6.239   7.266 -1.8179  0.8177  0.7770
 2831TIP3   OH230051   3.978   1.414   7.684 -0.3629  0.2423 -0.3904
 2831TIP3    H130052   4.040   1.434   7.614  0.0938  0.1548 -0.0167
 2831TIP3    H230053   3.893   1.438   7.648 -0.0110  1.2784 -0.5666
 2832TIP3   OH230054   5.765   5.886   7.857 -0.0146 -0.0118 -0.4436
 2832TIP3    H130055   5.801   5.917   7.940  0.4383  0.2881 -0.7493
 2832TIP3    H230056   5.750   5.793   7.871  0.2862 -0.0113 -0.1080
 2833TIP3   OH230057   4.687   1.455   8.219  0.2557  0.8244  0.3663
 2833TIP3    H130058   4.714   1.365   8.234 -0.0770  0.5405 -0.7117
 2833TIP3    H230059   4.592   1.454   8.231  0.5913  1.9871  5.0113
 2834TIP3   OH230060   0.008   4.431   0.789  0.4734 -0.6144 -0.5239
 2834TIP3    H130061  -0.039   4.510   0.763  2.7229  1.2466  0.6844
 2834TIP3    H230062  -0.061   4.371   0.817 -1.2747  1.5791  0.2181
 2835TIP3   OH230063   5.120   3.402   1.067  0.0084 -0.6744  0.2101
 2835TIP3    H130064   5.151   3.482   1.024  2.2317 -1.5978 -0.0730
 2835TIP3    H230065   5.039   3.427   1.110  0.4004  1.5995 -0.2627
 2836TIP3   OH230066   6.783   4.033   8.578 -0.2108 -0.0697 -1.1960
 2836TIP3    H130067   6.731   3.966   8.533 -0.3899 -0.9177  0.2173
 2836TIP3    H230068   6.857   3.985   8.616 -0.5537  0.4419  0.1796
 2837TIP3   OH230069   2.806   3.932   0.845  0.8155  0.9306 -0.2820
 2837TIP3    H130070   2.785   4.005   0.904 -1.7165 -1.0517  1.5175
 2837TIP3    H230071   2.894   3.905   0.870  1.0133  2.1081  0.3777
 2838TIP3   OH230072   2.888   4.855   8.148 -0.3155  0.6546 -0.0926
 2838TIP3    H130073   2.895   4.858   8.052  0.6251 -1.1989 -0.1398
 2838TIP3    H230074   2.805   4.809   8.164  0.9211 -1.7954 -0.1595
 2839TIP3   OH230075   6.700   2.764   2.376 -0.7483  0.6657 -0.1529
 2839TIP3    H130076   6.652   2.753   2.458 -1.4886 -2.1804 -0.8753
 2839TIP3    H230077   6.792   2.770   2.403 -1.0705  0.9464  0.9406
 2840TIP3   OH230078   6.656   1.402   2.707 -0.2220 -0.7066  0.1270
 2840TIP3    H130079   6.620   1.325   2.751 -0.4327  0.4134  2.0208
 2840TIP3    H230080   6.654   1.470   2.773  0.3638  0.8336 -1.3752
 2841TIP3   OH230081   2.951   4.669   7.786 -0.1339 -0.3945 -0.0655
 2841TIP3    H130082   2.885   4.599   7.784 -0.0607 -0.4525 -0.4725
 2841TIP3    H230083   2.918   4.730   7.853 -0.3176 -0.6974  0.1259
 2842TIP3   OH230084   5.107   4.018   7.046  0.0948 -0.1218 -0.5548
 2842TIP3    H130085   5.201   4.002   7.045 -0.1397 -1.8460  0.6639
 2842TIP3    H230086   5.079   3.999   6.956  1.2841  3.6019 -1.8901
 2843TIP3   OH230087   6.491   3.184   0.412 -0.3997  0.2529  0.7476
 2843TIP3    H130088   6.504   3.269   0.452 -0.6983  0.1386  1.0873
 2843TIP3    H230089   6.545   3.186   0.332 -1.0905  1.0690  0.2929
 2844TIP3   OH230090   1.506   0.091   7.813  0.2175  0.0715  0.0819
 2844TIP3    H130091   1.488   0.094   7.719  0.5178  1.5747  0.0501
 2844TIP3    H230092   1.570   0.161   7.827 -1.2936  1.1948  1.7077
 2845TIP3   OH230093   6.774   4.815   1.899 -0.0988 -0.3293 -0.3021
 2845TIP3    H130094   6.847   4.760   1.926  0.7414  0.7768 -0.2724
 2845TIP3    H230095   6.793   4.837   1.808  0.1541  0.7961  0.0076
 2846TIP3   OH230096   2.065   4.462   1.159 -0.0348 -0.3282  0.2297
 2846TIP3    H130097   2.021   4.534   1.203 -0.2930 -1.6830  2.3197
 2846TIP3    H230098   2.006   4.387   1.171  0.9234 -1.2310 -0.5392
 2847TIP3   OH230099   2.995   2.726   0.674  0.3275 -0.8837 -0.9142
 2847TIP3    H130100   2.948   2.747   0.754 -0.6770 -0.8033 -1.5099
 2847TIP3    H230101   3.083   2.762   0.687 -0.5508  1.3976 -0.8404
 2848TIP3   OH230102   6.481   1.295   0.869 -0.2192  0.1188 -0.6362
 2848TIP3    H130103   6.436   1.373   0.837  1.5009  1.1609 -0.6252
 2848TIP3    H230104   6.572   1.307   0.843  0.2830 -1.4166  0.2580
 2849TIP3   OH230105   3.743   1.310   2.084 -0.0616 -0.4539 -0.0299
 2849TIP3    H130106   3.755   1.317   2.178 -0.2790 -1.5568  0.0860
 2849TIP3    H230107   3.649   1.299   2.072 -0.1657  0.6900 -0.4576
 2850TIP3   OH230108   2.839   4.025   2.647  0.2394  0.0859 -0.5978
 2850TIP3    H130109   2.772   3.997   2.585 -2.2461  1.6911  1.1724
 2850TIP3    H230110   2.815   3.983   2.730  1.9193  0.0574 -0.0742
 2851TIP3   OH230111   6.672   3.066   1.397 -0.1290  0.0065  0.3217
 2851TIP3    H130112   6.763   3.088   1.417 -0.0169 -1.3629  1.5140
 2851TIP3    H230113   6.678   3.010   1.320 -0.1175  1.1836 -0.5541
 2852TIP3   OH230114   1.797   4.054   7.687 -0.0012 -0.8976  0.3579
 2852TIP3    H130115   1.751   4.119   7.634 -0.6293 -1.7635 -0.1784
 2852TIP3    H230116   1.841   4.106   7.755  0.6196  0.1953 -0.8486
 2853TIP3   OH230117   4.759   3.091   0.142  0.3311  0.7027 -0.5874
 2853TIP3    H130118   4.712   3.015   0.176  0.2090  0.0737 -2.0713
 2853TIP3    H230119   4.726   3.101   0.052 -1.5145  4.0230  0.2764
 2854TIP3   OH230120   5.427   4.120   0.071 -0.3104  0.3237  0.1733
 2854TIP3    H130121   5.340   4.161   0.077 -0.7940 -0.8527  2.0189
 2854TIP3    H230122   5.430   4.059   0.145  1.6731 -0.4947 -0.5155
 2855TIP3   OH230123   3.979   0.011   6.480  0.0714  0.2923  0.1195
 2855TIP3    H130124   3.934  -0.056   6.429 -1.0314  2.1435 -1.5045
 2855TIP3    H230125   4.057   0.031   6.429  0.0447  0.6976  0.2332
 2856TIP3   OH230126   3.365   5.390   2.555 -0.1312 -0.0857 -0.1235
 2856TIP3    H130127   3.435   5.445   2.521  0.8320 -0.0250  1.8220
 2856TIP3    H230128   3.410   5.316   2.595 -1.1306  0.1127  1.4478
 2857TIP3   OH230129   6.350   4.400   6.599 -0.8622  0.0346 -0.3764
 2857TIP3    H130130   6.417   4.361   6.544  1.0005  0.7815  1.2524
 2857TIP3    H230131   6.394   4.472   6.644 -2.5507  0.1218  1.2813
 2858TIP3   OH230132   0.025   0.072   0.697  0.0209 -0.0142 -0.3701
 2858TIP3    H130133  -0.070   0.080   0.684  0.2631  0.1256 -2.3138
 2858TIP3    H230134   0.063   0.134   0.635  1.4054 -0.0860  0.3685
 2859TIP3   OH230135   6.865   5.021   7.917 -0.2767 -0.1741  0.2956
 2859TIP3    H130136   6.819   5.070   7.985 -0.2860 -1.3652  1.1999
 2859TIP3    H230137   6.958   5.041   7.932 -0.3474  0.3618  0.0096
 2860TIP3   OH230138   4.862   0.724   7.150 -0.1236 -0.0676  0.2223
 2860TIP3    H130139   4.886   0.644   7.104  1.6010  0.5692 -0.0390
 2860TIP3    H230140   4.801   0.695   7.218 -0.9861 -1.3218 -1.0286
 2861TIP3   OH230141   4.312   1.389   1.783 -0.4314  0.6743  0.4128
 2861TIP3    H130142   4.358   1.433   1.712 -0.8400 -0.1218 -0.3652
 2861TIP3    H230143   4.222   1.382   1.752 -0.5530  0.0744  0.8934
 2862TIP3   OH230144   2.803   2.632   1.766 -0.2802  0.1313 -0.2318
 2862TIP3    H130145   2.729   2.679   1.728 -0.3677  0.9800  0.9450
 2862TIP3    H230146   2.764   2.573   1.830  0.0139  0.0959 -0.0836
 2863TIP3   OH230147   6.536   6.797   7.477 -0.0083 -0.0435 -0.2808
 2863TIP3    H130148   6.448   6.767   7.451  0.8387 -1.7578 -1.3599
 2863TIP3    H230149   6.587   6.794   7.396  0.9595  1.3308  0.2491
 2864TIP3   OH230150   0.838   1.562   7.090  0.5461  0.4434 -0.5768
 2864TIP3    H130151   0.817   1.634   7.030  0.3658 -0.2955 -1.4259
 2864TIP3    H230152   0.928   1.577   7.116  0.1150  1.6877  0.2895
 2865TIP3   OH230153   2.741   1.800   1.732  0.4119  0.0207 -0.0934
 2865TIP3    H130154   2.759   1.741   1.659 -0.9304 -0.7886  0.1990
 2865TIP3    H230155   2.774   1.755   1.809  0.5236  0.2192 -0.0247
 2866TIP3   OH230156   1.104   5.063   0.949 -0.6860  0.4548 -0.0377
 2866TIP3    H130157   1.126   5.124   1.019  0.3095  0.8885 -0.7048
 2866TIP3    H230158   1.111   5.114   0.869  1.3096 -0.7575 -0.7179
 2867TIP3   OH230159   3.667   6.207   8.353 -0.7887  0.1737 -0.7569
 2867TIP3    H130160   3.597   6.240   8.409 -0.5781  0.7856 -0.8475
 2867TIP3    H230161   3.641   6.118   8.332 -1.6705  0.4832 -1.0010
 2868TIP3   OH230162   0.379   2.035   1.728 -0.2012  0.7047 -0.3258
 2868TIP3    H130163   0.348   1.960   1.676 -1.7860 -0.2616  1.8702
 2868TIP3    H230164   0.319   2.106   1.706 -0.7280  0.3639 -0.0194
 2869TIP3   OH230165   6.439   6.759   0.982 -0.2853 -0.0014 -0.2378
 2869TIP3    H130166   6.372   6.782   1.046  0.0515  1.4209 -0.3527
 2869TIP3    H230167   6.520   6.756   1.032 -0.0594  0.8776 -0.5198
 2870TIP3   OH230168   4.958   4.322   0.497 -0.1753 -0.2452  0.6338
 2870TIP3    H130169   5.026   4.385   0.475 -0.0768 -0.1932  1.0819
 2870TIP3    H230170   4.965   4.311   0.592 -0.5594 -0.5053  0.6347
 2871TIP3   OH230171   3.790   5.306   1.228  0.2240 -0.0606  0.1530
 2871TIP3    H130172   3.753   5.329   1.142  0.2696 -2.1131 -0.4646
 2871TIP3    H230173   3.801   5.390   1.272 -1.0392  0.9543 -1.3406
 2872TIP3   OH230174   4.752   6.113   2.141  0.2735  0.1741  0.2059
 2872TIP3    H130175   4.678   6.138   2.087  0.8447  0.3674 -0.5012
 2872TIP3    H230176   4.804   6.193   2.149  0.3214  0.0869  0.8418
 2873TIP3   OH230177   2.956   5.890   2.662  0.7807 -0.2646 -0.5100
 2873TIP3    H130178   2.957   5.848   2.748 -0.0886  1.4906  0.4104
 2873TIP3    H230179   2.894   5.838   2.610  1.3298 -1.3470 -0.1098
 2874TIP3   OH230180   4.238   3.609   7.084 -0.1655  0.3814  0.1473
 2874TIP3    H130181   4.260   3.641   6.997 -1.3193  0.8599  0.0095
 2874TIP3    H230182   4.223   3.515   7.072  0.1610  0.3562 -0.0713
 2875TIP3   OH230183   5.743   0.579   8.589  0.3249  0.3615 -0.2560
 2875TIP3    H130184   5.817   0.523   8.612 -0.1764 -1.1509 -2.0439
 2875TIP3    H230185   5.784   0.660   8.557  1.0645  1.0493  2.2368
 2876TIP3   OH230186   1.016   1.684   0.731  0.2929  0.2214 -0.1815
 2876TIP3    H130187   1.105   1.672   0.764  0.3207 -0.6893 -0.5583
 2876TIP3    H230188   1.000   1.778   0.740  1.0680  0.3091  0.4461
 2877TIP3   OH230189   6.057   2.378   1.776  0.3438  0.2807 -0.2394
 2877TIP3    H130190   5.982   2.404   1.723  1.0688  1.6628 -0.6366
 2877TIP3    H230191   6.028   2.387   1.867 -0.2950 -0.2353 -0.3879
 2878TIP3   OH230192   5.411   6.859   7.772  0.0362 -0.4131  0.7111
 2878TIP3    H130193   5.454   6.856   7.687 -0.3521 -2.7886  0.5166
 2878TIP3    H230194   5.376   6.948   7.779  3.6592  1.1929  0.2964
 2879TIP3   OH230195   3.382   3.755   1.937  0.1836 -0.2680 -0.0163
 2879TIP3    H130196   3.358   3.711   2.019  0.5139  1.8965  1.2935
 2879TIP3    H230197   3.402   3.845   1.962  0.4069  0.4411 -2.4756
 2880TIP3   OH230198   0.927   3.978   7.555  0.5356  0.2123 -0.0553
 2880TIP3    H130199   0.992   3.928   7.603  0.8736  1.0946  0.4246
 2880TIP3    H230200   0.964   3.990   7.468  0.6526  0.0268 -0.0304
 2881TIP3   OH230201   6.785   6.021   1.823 -0.1185 -0.0155 -0.2781
 2881TIP3    H130202   6.816   5.997   1.910  0.2922 -1.0975 -0.6980
 2881TIP3    H230203   6.690   6.033   1.833  0.0596  0.7930  0.4975
 2882TIP3   OH230204   2.437   2.421   2.107  0.2086 -0.4288 -0.0032
 2882TIP3    H130205   2.475   2.335   2.122 -2.0514 -1.8300 -1.7753
 2882TIP3    H230206   2.374   2.432   2.178 -0.3044 -0.7326 -0.4120
 2883TIP3   OH230207   3.173   4.539   8.406  0.3935  0.4743  0.0258
 2883TIP3    H130208   3.253   4.490   8.427  0.7645  0.7885 -0.6427
 2883TIP3    H230209   3.108   4.472   8.387 -0.3539  0.0702  3.3185
 2884TIP3   OH230210   1.870   2.115   8.431 -0.4165 -0.2819  0.3998
 2884TIP3    H130211   1.898   2.059   8.503  1.6203 -0.3598 -0.3715
 2884TIP3    H230212   1.783   2.145   8.455 -0.9112 -2.4913  1.5934
 2885TIP3   OH230213   0.927   2.739   0.770 -0.1256 -0.5239  0.2640
 2885TIP3    H130214   0.930   2.680   0.846 -0.2081  0.4405  1.0322
 2885TIP3    H230215   1.019   2.752   0.747 -0.0988 -0.7942  0.2052
 2886TIP3   OH230216   3.523   1.138   2.795 -0.1412 -0.3497 -0.2853
 2886TIP3    H130217   3.532   1.071   2.862  0.9264 -0.2917 -0.3543
 2886TIP3    H230218   3.462   1.202   2.833 -0.2961 -0.8000  0.2300
 2887TIP3   OH230219   4.983   5.792   6.747 -0.5790 -0.0955  0.0860
 2887TIP3    H130220   4.905   5.795   6.802  0.0382  0.4645  0.9653
 2887TIP3    H230221   5.053   5.826   6.803  0.3655 -0.9069 -0.5620
 2888TIP3   OH230222   3.578   2.453   1.318 -0.0674 -0.2421 -0.8399
 2888TIP3    H130223   3.500   2.501   1.345  1.1679  0.1461  2.5714
 2888TIP3    H230224   3.643   2.521   1.298  1.2699 -0.2376  2.7207
 2889TIP3   OH230225   5.831   1.232   2.085 -0.1689 -0.1404  0.2962
 2889TIP3    H130226   5.857   1.302   2.145 -0.3910  0.2819 -0.0964
 2889TIP3    H230227   5.889   1.159   2.107 -0.0929  0.0852  0.8684
 2890TIP3   OH230228   5.570   1.880   0.994  0.0848  0.2522 -0.3268
 2890TIP3    H130229   5.595   1.871   0.902  0.2307  0.9016 -0.3546
 2890TIP3    H230230   5.612   1.806   1.038  1.3446  0.8331 -0.5132
 2891TIP3   OH230231   2.057   4.022   1.332  0.3820 -0.0149  0.0569
 2891TIP3    H130232   2.021   4.057   1.413 -0.2179 -0.0627 -0.1883
 2891TIP3    H230233   2.152   4.031   1.342  0.3310 -0.4851  0.9642
 2892TIP3   OH230234   2.202   3.859   1.929  0.0097  0.2899 -0.5192
 2892TIP3    H130235   2.175   3.769   1.944 -0.5260  0.3863 -0.8748
 2892TIP3    H230236   2.163   3.882   1.844  2.4211 -0.0508 -1.8095
 2893TIP3   OH230237   3.950   3.342   1.779  0.1580 -0.0889  0.0008
 2893TIP3    H130238   3.992   3.409   1.727  2.5135  0.5496  2.5098
 2893TIP3    H230239   3.871   3.384   1.814 -0.7111 -0.1102 -1.8026
 2894TIP3   OH230240   5.307   3.059   0.077  0.2141  0.2133 -0.0237
 2894TIP3    H130241   5.379   3.113   0.110  0.2493  0.4288 -0.4388
 2894TIP3    H230242   5.257   3.119   0.022 -0.3231  0.0804  0.3218
 2895TIP3   OH230243   2.717   2.344   6.941 -0.6063  0.5162 -0.1822
 2895TIP3    H130244   2.726   2.421   6.885  1.2949  0.9520  0.6266
 2895TIP3    H230245   2.753   2.272   6.888  0.4635  0.7851  0.1459
 2896TIP3   OH230246   6.580   5.429   7.347  0.3138 -0.2400  0.7309
 2896TIP3    H130247   6.574   5.524   7.356 -0.7274 -0.2166  0.0339
 2896TIP3    H230248   6.673   5.411   7.335  0.6442  0.5838  1.8486
 2897TIP3   OH230249   2.420   5.257   0.884  0.2618 -0.1965  0.4709
 2897TIP3    H130250   2.479   5.186   0.857 -0.1055 -0.3592  0.1032
 2897TIP3    H230251   2.417   5.250   0.980  3.3220  1.7411  0.8740
 2898TIP3   OH230252   0.987   2.320   0.427  0.4894  0.1077 -0.2064
 2898TIP3    H130253   0.903   2.363   0.442  0.2212 -0.2670 -0.6542
 2898TIP3    H230254   1.051   2.380   0.466 -0.0301  0.1104  0.6653
 2899TIP3   OH230255   4.741   1.830   8.565 -0.2547 -0.2083  0.1666
 2899TIP3    H130256   4.688   1.884   8.505  0.8437 -1.3619 -1.9557
 2899TIP3    H230257   4.681   1.761   8.592  0.0365 -1.4985 -2.2112
 2900TIP3   OH230258   5.852   1.581   1.823  0.0787 -0.0940  0.1584
 2900TIP3    H130259   5.823   1.670   1.845  3.2973  1.2341 -0.4048
 2900TIP3    H230260   5.927   1.566   1.880  2.6380 -0.4083 -3.0305
 2901TIP3   OH230261   1.074   3.965   1.066 -0.2060 -0.2778 -0.3613
 2901TIP3    H130262   1.139   3.897   1.083  0.6752  0.2263 -1.5429
 2901TIP3    H230263   1.120   4.048   1.081 -1.0990  0.0899  0.4994
 2902TIP3   OH230264   6.744   6.509   7.208 -0.2180 -0.6295 -0.6338
 2902TIP3    H130265   6.833   6.480   7.191  0.7307  0.9315  1.2854
 2902TIP3    H230266   6.703   6.434   7.253  0.2762 -1.1486 -1.0325
 2903TIP3   OH230267   4.300   5.336   1.097  0.0018 -0.2159  0.0115
 2903TIP3    H130268   4.334   5.387   1.171 -3.0185 -0.1332  1.4826
 2903TIP3    H230269   4.341   5.375   1.020  0.5692  2.0613  1.3685
 2904TIP3   OH230270   4.304   4.564   2.419 -0.2513  0.1959 -0.5636
 2904TIP3    H130271   4.352   4.487   2.389  0.1390  0.0404  0.4147
 2904TIP3    H230272   4.212   4.536   2.419  0.0333 -0.9694  1.6349
 2905TIP3   OH230273   2.591   0.934   1.036  0.4008 -0.2063 -0.4659
 2905TIP3    H130274   2.682   0.914   1.059 -0.5325 -1.0309  3.0152
 2905TIP3    H230275   2.579   0.891   0.951  3.3215  0.2907 -1.2688
 2906TIP3   OH230276   3.234   6.657   1.310  0.3392  0.8731  0.0815
 2906TIP3    H130277   3.205   6.748   1.302 -0.1699  0.6391 -0.7958
 2906TIP3    H230278   3.317   6.654   1.262  0.1124  0.7643 -0.3046
 2907TIP3   OH230279   3.510   2.194   7.490  0.7972 -0.1343  0.1496
 2907TIP3    H130280   3.440   2.159   7.545  1.2596 -0.7575  0.3538
 2907TIP3    H230281   3.574   2.227   7.552  0.9461 -0.0946 -0.0273
 2908TIP3   OH230282   2.498   3.942   8.237  0.2872  0.1451  0.5644
 2908TIP3    H130283   2.425   3.982   8.285 -0.2154 -0.5922  0.4214
 2908TIP3    H230284   2.463   3.860   8.204  1.6371 -1.0017  1.8499
 2909TIP3   OH230285   4.204   1.231   1.098 -0.8605 -0.3545  0.6960
 2909TIP3    H130286   4.203   1.184   1.181 -0.8200  1.0399  1.5055
 2909TIP3    H230287   4.117   1.269   1.091 -0.7132 -0.0777  0.3376
 2910TIP3   OH230288   5.188   1.372   0.012 -0.3065  0.3533  0.3732
 2910TIP3    H130289   5.098   1.404   0.005 -0.2610  0.2640 -0.8742
 2910TIP3    H230290   5.204   1.327  -0.071  0.5857 -0.4303  0.9469
 2911TIP3   OH230291   1.334   4.849   6.993  0.0863  0.3082  0.4858
 2911TIP3    H130292   1.421   4.871   7.025 -0.2659  0.2952  1.4940
 2911TIP3    H230293   1.301   4.930   6.955  1.4551 -0.2673 -2.1879
 2912TIP3   OH230294   3.244   3.377   7.333 -0.0468  0.0452  0.0573
 2912TIP3    H130295   3.266   3.380   7.240 -0.6208  0.9976 -0.0682
 2912TIP3    H230296   3.149   3.388   7.334 -0.1164 -0.6031  0.7294
 2913TIP3   OH230297   1.347   3.898   2.241 -0.5347  0.4194  0.4331
 2913TIP3    H130298   1.348   3.847   2.321  0.5541  1.5857  1.2171
 2913TIP3    H230299   1.437   3.892   2.208 -0.7300  0.7239 -0.1721
 2914TIP3   OH230300   0.229   2.456   0.338 -0.3998  0.4736  0.0300
 2914TIP3    H130301   0.277   2.456   0.421 -0.7573 -2.7907  0.3604
 2914TIP3    H230302   0.141   2.426   0.361 -0.9728  1.0404 -1.3226
 2915TIP3   OH230303   0.106   3.991   8.025 -0.3208 -0.2440 -0.4731
 2915TIP3    H130304   0.086   4.005   8.117 -2.6908 -1.3946 -0.7373
 2915TIP3    H230305   0.155   3.908   8.023 -1.7570 -1.1283 -0.3388
 2916TIP3   OH230306   3.214   5.237   1.195  0.1326 -0.2328  0.3333
 2916TIP3    H130307   3.210   5.273   1.284 -0.6218  0.6183 -0.0245
 2916TIP3    H230308   3.124   5.211   1.176 -0.1892  1.5860 -0.9403
 2917TIP3   OH230309   0.295   4.542   8.122 -0.3471 -0.5874  0.0218
 2917TIP3    H130310   0.364   4.499   8.071 -0.8335 -1.0002 -0.3028
 2917TIP3    H230311   0.215   4.495   8.097 -0.7117 -0.2492  0.5485
 2918TIP3   OH230312   2.940   2.223   1.284  0.3779 -0.6809  0.4880
 2918TIP3    H130313   2.931   2.311   1.320  1.7715  0.2081 -1.1681
 2918TIP3    H230314   2.967   2.237   1.194  1.7265 -2.8065  0.4915
 2919TIP3   OH230315   3.684   1.897   0.741 -0.3698  0.5042  0.1351
 2919TIP3    H130316   3.645   1.854   0.665 -0.9926 -0.1781  0.8306
 2919TIP3    H230317   3.633   1.977   0.752 -2.4048 -0.9160  1.7183
 2920TIP3   OH230318   6.840   3.481   1.021 -0.1388 -0.1016  0.7360
 2920TIP3    H130319   6.778   3.427   0.972 -0.1803  1.8100 -1.5033
 2920TIP3    H230320   6.788   3.517   1.094 -2.1894  2.3497 -1.6985
 2921TIP3   OH230321   2.546   4.374   7.655  0.5233 -0.0922 -0.4225
 2921TIP3    H130322   2.540   4.297   7.598  2.4658  0.8810 -2.0654
 2921TIP3    H230323   2.520   4.447   7.599 -0.0898  0.6166  0.7538
 2922TIP3   OH230324   0.467   6.605   2.879 -0.0076  0.4533 -0.0373
 2922TIP3    H130325   0.427   6.692   2.873 -1.1111  0.1221  1.8301
 2922TIP3    H230326   0.434   6.558   2.803 -1.2023  0.9747  0.1409
 2923TIP3   OH230327   6.017   4.837   0.441  0.2434 -0.2515  0.4434
 2923TIP3    H130328   5.943   4.824   0.383  1.0416 -1.5218 -0.3395
 2923TIP3    H230329   5.994   4.914   0.493 -0.3992  1.1045 -1.7278
 2924TIP3   OH230330   6.852   0.880   0.345  0.1017 -0.2430 -0.9226
 2924TIP3    H130331   6.777   0.827   0.375 -0.8727  2.3642  1.7667
 2924TIP3    H230332   6.923   0.857   0.405  0.1317  0.3232 -0.7333
 2925TIP3   OH230333   5.220   5.446   0.832 -0.2103 -0.3307 -0.2186
 2925TIP3    H130334   5.207   5.352   0.843 -3.8970 -0.0770 -1.0039
 2925TIP3    H230335   5.240   5.457   0.739  2.7627 -0.4241  0.3281
 2926TIP3   OH230336   3.869   5.927   6.834 -0.6113  0.0443 -0.3736
 2926TIP3    H130337   3.917   5.911   6.915 -1.5755 -0.3044  0.1416
 2926TIP3    H230338   3.859   6.022   6.832 -0.2652  0.0876 -0.2821
 2927TIP3   OH230339   4.755   1.580   0.234 -0.0214  0.8078  0.2923
 2927TIP3    H130340   4.781   1.592   0.325  1.3374  1.0609 -0.1050
 2927TIP3    H230341   4.665   1.613   0.230 -0.8516 -1.0992  1.9468
 2928TIP3   OH230342   0.129   0.458   1.998 -0.6697  0.1054 -0.1973
 2928TIP3    H130343   0.127   0.529   1.934  1.6311  0.6460  0.2261
 2928TIP3    H230344   0.192   0.487   2.064 -0.2641 -1.9859  0.4198
 2929TIP3   OH230345   5.736   4.899   1.683  0.0675 -0.0530  0.3765
 2929TIP3    H130346   5.752   4.857   1.767 -2.0502  1.8331  1.8117
 2929TIP3    H230347   5.769   4.988   1.693 -1.1842  0.5277 -0.3818
 2930TIP3   OH230348   6.237   5.715   0.347 -0.5261 -0.4673  0.1296
 2930TIP3    H130349   6.195   5.800   0.332  0.2990 -0.1405 -0.4223
 2930TIP3    H230350   6.277   5.723   0.433  0.6335  0.1781 -0.4511
 2931TIP3   OH230351   3.716   0.399   2.456 -0.1629 -0.0160 -0.0443
 2931TIP3    H130352   3.806   0.407   2.485 -0.8686  1.3296  1.9985
 2931TIP3    H230353   3.696   0.306   2.464  0.5287 -0.0754  1.2834
 2932TIP3   OH230354   6.775   5.697   8.373  0.6355  0.3416  0.1048
 2932TIP3    H130355   6.703   5.637   8.392  0.9105  0.2922  1.0678
 2932TIP3    H230356   6.733   5.779   8.349  0.2628  0.0000 -0.4438
 2933TIP3   OH230357   4.989   5.873   0.896 -0.2170  0.0901 -0.1221
 2933TIP3    H130358   4.936   5.804   0.937 -0.7217 -0.9400 -2.3808
 2933TIP3    H230359   5.023   5.923   0.970 -1.5944 -1.2654  1.5278
 2934TIP3   OH230360   2.753   4.900   2.878 -0.8100 -0.3376  0.1931
 2934TIP3    H130361   2.780   4.855   2.798  0.7009 -2.0284  1.5772
 2934TIP3    H230362   2.724   4.831   2.937  0.1402  0.6012  1.8600
 2935TIP3   OH230363   6.853   1.334   0.436  0.1105 -0.4853  0.7073
 2935TIP3    H130364   6.848   1.265   0.503  1.0087 -1.8782 -0.5867
 2935TIP3    H230365   6.765   1.336   0.398 -0.5129  0.5730  2.1205
 2936TIP3   OH230366   5.674   3.646   1.548  0.1159  0.4810  0.0588
 2936TIP3    H130367   5.608   3.705   1.584 -1.3761 -1.0759 -0.0357
 2936TIP3    H230368   5.656   3.562   1.589  0.1555 -0.6844 -2.1889
 2937TIP3   OH230369   2.462   0.599   8.055 -0.4700 -0.0228  0.0547
 2937TIP3    H130370   2.460   0.547   8.136 -1.6499  0.2025  0.1859
 2937TIP3    H230371   2.455   0.690   8.086  0.6457  0.1707 -0.2254
 2938TIP3   OH230372   1.021   5.210   7.681  0.0225 -0.9805  0.0700
 2938TIP3    H130373   1.092   5.263   7.645 -0.6697 -0.6692 -0.8905
 2938TIP3    H230374   1.034   5.124   7.641 -0.3056 -0.8403 -0.3492
 2939TIP3   OH230375   1.619   6.241   6.956 -0.0617 -0.0853  0.3016
 2939TIP3    H130376   1.598   6.147   6.957  0.5592 -0.2370 -0.2655
 2939TIP3    H230377   1.607   6.267   6.865 -1.4455  0.6855  0.6776
 2940TIP3   OH230378   2.094   5.389   7.804  0.0842  1.0943  0.3567
 2940TIP3    H130379   2.121   5.297   7.797  1.1058  1.1592  2.4246
 2940TIP3    H230380   2.003   5.389   7.776 -0.7319 -1.0675  2.5912
 2941TIP3   OH230381   2.697   5.956   1.813 -0.4934  0.5514 -0.8785
 2941TIP3    H130382   2.766   5.959   1.879 -2.7062  0.5284  1.5946
 2941TIP3    H230383   2.640   6.030   1.834 -1.4497  0.3560 -2.5983
 2942TIP3   OH230384   6.074   3.830   1.579  0.2453  0.5597 -0.1744
 2942TIP3    H130385   6.056   3.908   1.527  0.7682 -0.1476 -1.4579
 2942TIP3    H230386   6.022   3.761   1.537  2.8336 -0.6679 -1.5886
 2943TIP3   OH230387   4.147   2.793   1.755  0.1942  0.3229  0.3979
 2943TIP3    H130388   4.186   2.752   1.832 -1.2184 -0.3959  0.7546
 2943TIP3    H230389   4.189   2.750   1.681  2.8124  2.1738  0.6599
 2944TIP3   OH230390   2.102   6.672   0.130 -0.1327 -0.0128 -0.2081
 2944TIP3    H130391   2.074   6.699   0.042  1.5927  0.8227 -0.5472
 2944TIP3    H230392   2.123   6.754   0.174  0.9596 -0.5488  0.2880
 2945TIP3   OH230393   4.552   4.018   0.407 -0.0206  0.3919  0.7081
 2945TIP3    H130394   4.579   4.035   0.317 -0.6353 -0.4723  0.3431
 2945TIP3    H230395   4.597   4.084   0.459 -0.0226  1.1974 -0.2886
 2946TIP3   OH230396   2.705   4.540   8.382  0.0635  0.6339 -0.0139
 2946TIP3    H130397   2.791   4.551   8.422 -0.3744  1.6105  0.7193
 2946TIP3    H230398   2.649   4.509   8.454  0.1514 -1.7459 -0.8858
 2947TIP3   OH230399   3.008   5.645   2.782  0.6072  0.7585  0.1498
 2947TIP3    H130400   2.949   5.575   2.809  3.0073 -1.5857 -0.2952
 2947TIP3    H230401   3.050   5.612   2.703  3.2895  1.7828  1.0396
 2948TIP3   OH230402   0.026   3.890   7.146 -0.6058  0.1260 -0.2662
 2948TIP3    H130403   0.036   3.829   7.219  0.0318  1.3342  0.7049
 2948TIP3    H230404  -0.068   3.892   7.129 -0.5193 -2.3289 -1.4226
 2949TIP3   OH230405   5.146   6.321   7.778 -0.3121 -0.1940 -0.1634
 2949TIP3    H130406   5.071   6.302   7.834  0.4960 -1.7891  0.4381
 2949TIP3    H230407   5.161   6.415   7.788  0.0637 -0.4688  2.6982
 2950TIP3   OH230408   4.769   4.258   6.643  0.4725 -0.2758  0.1507
 2950TIP3    H130409   4.731   4.319   6.706 -0.0341 -1.5707  1.1493
 2950TIP3    H230410   4.864   4.269   6.653  0.4079  1.1334 -0.5122
 2951TIP3   OH230411   0.902   4.966   0.287  0.2968  0.0321 -1.1218
 2951TIP3    H130412   0.962   4.893   0.302  0.0136 -0.1191 -0.7301
 2951TIP3    H230413   0.815   4.931   0.307  0.2753  0.8092  0.2872
 2952TIP3   OH230414   6.132   1.997   0.192  0.3106  0.7466  0.5060
 2952TIP3    H130415   6.042   2.020   0.213  0.0922 -0.1017  0.5519
 2952TIP3    H230416   6.146   2.031   0.104  0.2592  1.7159  0.8661
 2953TIP3   OH230417   3.785   0.202   8.146  0.1752 -0.1799  0.3127
 2953TIP3    H130418   3.717   0.268   8.133  0.0729 -0.0911  1.2612
 2953TIP3    H230419   3.738   0.118   8.145  0.2581 -0.2269 -0.5217
 2954TIP3   OH230420   6.548   1.096   3.020  0.0811  0.0310 -0.1544
 2954TIP3    H130421   6.564   1.036   3.092  1.3073  0.9123  0.3539
 2954TIP3    H230422   6.564   1.044   2.941  0.0338 -0.5969  0.2467
 2955TIP3   OH230423   4.699   4.238   0.483 -0.1234 -0.7332  0.0819
 2955TIP3    H130424   4.658   4.298   0.420  0.0539  1.0221  1.5704
 2955TIP3    H230425   4.789   4.271   0.491 -0.5567  0.0358  2.3364
 2956TIP3   OH230426   0.489   6.540   0.997  0.3432  0.1541 -0.3676
 2956TIP3    H130427   0.436   6.544   0.918  0.5661  0.1679 -0.5160
 2956TIP3    H230428   0.482   6.450   1.027  0.5377  0.0632 -0.5937
 2957TIP3   OH230429   2.775   1.233   8.488 -0.0201  0.5733 -0.1277
 2957TIP3    H130430   2.728   1.225   8.405  0.1437 -0.3879 -0.1414
 2957TIP3    H230431   2.836   1.160   8.488 -0.3600  0.2620  1.0598
 2958TIP3   OH230432   0.273   1.858   1.540  0.0335 -0.5020 -0.6145
 2958TIP3    H130433   0.256   1.926   1.476 -0.0160 -0.3030 -0.3902
 2958TIP3    H230434   0.260   1.776   1.492  0.6264 -0.3573 -1.0285
 2959TIP3   OH230435   0.890   4.203   0.471 -0.3526 -0.0330  0.2763
 2959TIP3    H130436   0.856   4.195   0.560  0.0972 -0.0643  0.4489
 2959TIP3    H230437   0.919   4.115   0.448 -0.7501 -0.0883 -0.0188
 2960TIP3   OH230438   5.311   5.447   1.645 -0.0608  0.0153 -0.2269
 2960TIP3    H130439   5.400   5.437   1.679 -0.5072 -0.3008  0.8847
 2960TIP3    H230440   5.282   5.532   1.678 -0.1254  0.1754 -0.6941
 2961TIP3   OH230441   4.147   3.650   0.278 -0.4103 -0.3485  0.0290
 2961TIP3    H130442   4.100   3.635   0.360  0.2187  0.5909  0.5846
 2961TIP3    H230443   4.168   3.744   0.280  0.2143 -0.4634 -0.8839
 2962TIP3   OH230444   3.039   3.715   7.248  0.7416 -0.1384  0.2503
 2962TIP3    H130445   2.997   3.755   7.324  0.3252 -1.7953  0.9337
 2962TIP3    H230446   2.969   3.707   7.184  0.4190 -1.2780  0.7334
 2963TIP3   OH230447   2.876   5.176   2.541  0.4604  0.0920  0.2970
 2963TIP3    H130448   2.802   5.169   2.602 -1.6184 -0.0963 -2.0685
 2963TIP3    H230449   2.874   5.094   2.492  1.4894  0.5889 -0.6053
 2964TIP3   OH230450   4.524   2.483   6.457 -0.8822  0.3033 -0.3634
 2964TIP3    H130451   4.551   2.434   6.379 -0.6927  0.1206 -0.1861
 2964TIP3    H230452   4.558   2.571   6.443  1.2715 -0.3156  0.5877
 2965TIP3   OH230453   0.160   6.296   6.849  0.4522 -0.2359  0.4937
 2965TIP3    H130454   0.246   6.256   6.840  0.2744 -0.8372  1.3217
 2965TIP3    H230455   0.176   6.390   6.843  1.2875 -0.3027  1.4972
 2966TIP3   OH230456   0.840   2.939   2.337  0.0833 -0.1211 -0.3585
 2966TIP3    H130457   0.867   2.958   2.427  1.4322 -0.8421 -0.5874
 2966TIP3    H230458   0.921   2.939   2.287 -0.7715  1.6917 -1.8803
 2967TIP3   OH230459   2.883   0.844   6.946  0.5337 -0.3005 -0.1169
 2967TIP3    H130460   2.847   0.931   6.958 -0.2793  0.1351 -4.1460
 2967TIP3    H230461   2.819   0.785   6.988 -0.5737  0.8906 -0.0758
 2968TIP3   OH230462   4.933   2.149   7.965  0.5016  0.2891  0.1910
 2968TIP3    H130463   4.908   2.199   7.888  0.9900 -0.1368 -0.2519
 2968TIP3    H230464   5.021   2.116   7.945  0.5072 -0.0876  0.7991
 2969TIP3   OH230465   3.134   2.624   1.272 -0.5997 -0.3759  0.3302
 2969TIP3    H130466   3.055   2.648   1.224 -0.2048 -0.7648 -0.5404
 2969TIP3    H230467   3.198   2.604   1.204  0.0462 -0.7227  1.0266
 2970TIP3   OH230468   2.583   1.229   0.845  0.3612 -0.1095 -0.1749
 2970TIP3    H130469   2.609   1.321   0.837 -0.7218  0.3172  0.8847
 2970TIP3    H230470   2.610   1.204   0.933 -0.7635 -0.3077  0.1325
 2971TIP3   OH230471   3.522   5.118   7.001 -0.2883  0.3616 -0.3883
 2971TIP3    H130472   3.564   5.039   7.034  1.0163  1.5259  0.8606
 2971TIP3    H230473   3.577   5.145   6.928  1.1656  1.8226  1.1748
 2972TIP3   OH230474   1.658   0.775   1.716  0.5600  0.3577 -0.2274
 2972TIP3    H130475   1.564   0.769   1.732  0.8779 -1.4295  1.2462
 2972TIP3    H230476   1.691   0.834   1.784  0.4422  1.5661 -1.1854
 2973TIP3   OH230477   2.461   5.732   7.761 -0.5553  0.3623  0.1454
 2973TIP3    H130478   2.442   5.675   7.686  1.9974  0.7396 -0.8888
 2973TIP3    H230479   2.470   5.673   7.835  0.4941 -0.4664 -0.6101
 2974TIP3   OH230480   2.183   5.405   1.470 -0.2668 -0.3564  0.8415
 2974TIP3    H130481   2.142   5.463   1.534 -0.5830 -1.3612  1.5651
 2974TIP3    H230482   2.125   5.408   1.394  1.5593  3.1039 -0.6259
 2975TIP3   OH230483   0.744   2.352   8.050 -0.2819 -0.5929 -0.0515
 2975TIP3    H130484   0.801   2.334   8.125  0.2739 -1.1839 -0.5914
 2975TIP3    H230485   0.805   2.382   7.982 -0.7674 -0.1659 -0.3016
 2976TIP3   OH230486   4.657   3.748   7.184  0.3589  0.0793 -0.1976
 2976TIP3    H130487   4.744   3.788   7.175 -0.2562  1.4072 -0.5914
 2976TIP3    H230488   4.627   3.737   7.094  1.1531 -2.8998 -0.2097
 2977TIP3   OH230489   6.862   0.241   8.404 -0.0917 -0.6340  0.2711
 2977TIP3    H130490   6.793   0.249   8.470 -1.3950  1.5381 -1.2589
 2977TIP3    H230491   6.914   0.321   8.413  1.2625 -1.4729  0.2689
 2978TIP3   OH230492   4.510   3.428   8.446 -0.0389 -0.3396  0.4013
 2978TIP3    H130493   4.603   3.449   8.435  0.1320 -1.4814 -0.5200
 2978TIP3    H230494   4.509   3.348   8.498 -0.6208  0.8705  2.3689
 2979TIP3   OH230495   2.017   3.644   1.400  0.2475 -0.3255  0.0121
 2979TIP3    H130496   2.039   3.555   1.428 -0.9952 -0.7076 -0.1601
 2979TIP3    H230497   2.101   3.690   1.399  1.0596 -1.7403 -0.8239
 2980TIP3   OH230498   2.787   4.416   7.782  0.0383 -0.0698 -0.0530
 2980TIP3    H130499   2.723   4.412   7.711  0.0507  1.1391 -0.1439
 2980TIP3    H230500   2.829   4.330   7.781 -0.2606 -0.2188 -1.2307
 2981TIP3   OH230501   1.974   0.938   7.308  0.3888  0.0181  0.4417
 2981TIP3    H130502   1.999   0.955   7.217  0.9515 -1.4287  0.2883
 2981TIP3    H230503   1.951   0.845   7.309  1.1051 -0.1741  1.9260
 2982TIP3   OH230504   5.144   3.527   0.257  0.3107  0.3319  0.4596
 2982TIP3    H130505   5.172   3.595   0.196 -2.1750  0.6243 -0.4864
 2982TIP3    H230506   5.073   3.568   0.307  2.3438  0.1598  3.7729
 2983TIP3   OH230507   4.385   0.614   2.149  0.1583  0.2690  0.3300
 2983TIP3    H130508   4.462   0.564   2.122  0.1693  0.6492 -0.3739
 2983TIP3    H230509   4.365   0.670   2.074 -0.1868  0.9216  0.8899
 2984TIP3   OH230510   1.882   2.861   7.166  0.4538 -0.5810  0.0112
 2984TIP3    H130511   1.820   2.789   7.178 -0.1442  0.2954  3.1915
 2984TIP3    H230512   1.933   2.862   7.247  0.9053  2.1177 -0.2296
 2985TIP3   OH230513   0.211   0.975   7.421  0.6881  0.0139 -0.2250
 2985TIP3    H130514   0.281   0.966   7.357 -0.1182 -0.1228 -1.1080
 2985TIP3    H230515   0.137   0.926   7.384 -0.1879  0.9582  0.2189
 2986TIP3   OH230516   2.215   1.553   7.275 -0.0709  0.9220 -0.2836
 2986TIP3    H130517   2.191   1.464   7.300  4.3826 -0.1161  1.2860
 2986TIP3    H230518   2.178   1.564   7.187  0.5229 -3.1697 -1.2565
 2987TIP3   OH230519   1.691   0.373   0.012  0.0924  0.3802  0.0718
 2987TIP3    H130520   1.753   0.446   0.019  0.9971 -0.0999 -1.9655
 2987TIP3    H230521   1.747   0.295   0.009 -0.7910 -0.3021  0.9232
 2988TIP3   OH230522   1.348   1.342   0.054  0.2274  0.0390 -0.5452
 2988TIP3    H130523   1.306   1.327   0.138  1.1370 -1.2475 -0.2839
 2988TIP3    H230524   1.441   1.334   0.072  0.5568  1.7306 -1.3212
 2989TIP3   OH230525   6.289   3.596   0.976 -0.2564  0.2025 -0.0651
 2989TIP3    H130526   6.349   3.544   0.921  0.8737  1.2105  0.1596
 2989TIP3    H230527   6.278   3.678   0.927 -0.4974  0.4912  0.4712
 2990TIP3   OH230528   3.244   5.626   2.509 -0.0883 -0.5969 -0.0033
 2990TIP3    H130529   3.164   5.627   2.458  0.0146 -0.2989 -0.1597
 2990TIP3    H230530   3.286   5.542   2.488  1.6916  0.9182 -3.1261
 2991TIP3   OH230531   6.119   3.627   7.411  0.9147 -0.0453 -0.0753
 2991TIP3    H130532   6.085   3.633   7.321 -0.2434 -0.1544  0.3406
 2991TIP3    H230533   6.200   3.575   7.402  0.8234 -0.0450 -1.0495
 2992TIP3   OH230534   6.258   6.766   2.131  0.0001 -0.3210 -0.2965
 2992TIP3    H130535   6.334   6.824   2.120 -1.0341  1.0544 -0.4164
 2992TIP3    H230536   6.230   6.780   2.222 -2.6723  2.5240 -1.3972
 2993TIP3   OH230537   3.464   5.714   6.327 -0.3173 -0.4750 -0.1983
 2993TIP3    H130538   3.477   5.799   6.286 -1.0409 -1.3715 -2.4384
 2993TIP3    H230539   3.369   5.704   6.332 -0.2437 -1.0854  0.2056
 2994TIP3   OH230540   4.713   5.265   0.952  0.2573 -0.4029  0.2877
 2994TIP3    H130541   4.767   5.239   1.026  1.3114 -0.6158 -0.5375
 2994TIP3    H230542   4.768   5.251   0.875  0.1553  2.3049 -0.3737
 2995TIP3   OH230543   4.179   1.731   0.040 -0.3896 -0.0069  0.0796
 2995TIP3    H130544   4.238   1.782   0.096 -3.1887  1.4392  1.9301
 2995TIP3    H230545   4.119   1.688   0.101 -0.6747 -2.2896 -1.6675
 2996TIP3   OH230546   4.510   5.235   2.583 -0.1700 -0.2708 -0.3398
 2996TIP3    H130547   4.461   5.285   2.517 -1.2417  3.0544  2.6739
 2996TIP3    H230548   4.453   5.161   2.604 -1.7715  0.9238 -0.2834
 2997TIP3   OH230549   2.936   5.823   0.976 -0.6034 -0.0200 -0.0297
 2997TIP3    H130550   2.916   5.730   0.962 -2.0740 -0.0435  1.8285
 2997TIP3    H230551   3.026   5.823   1.008 -0.6364 -0.8301  0.0918
 2998TIP3   OH230552   5.591   6.228   0.008  0.1398 -0.6252 -0.2456
 2998TIP3    H130553   5.645   6.263  -0.063  0.7458 -2.3829 -0.6867
 2998TIP3    H230554   5.645   6.238   0.086  0.3068 -0.5948 -0.3636
 2999TIP3   OH230555   1.689   2.683   7.211  0.3134  0.0274 -0.3428
 2999TIP3    H130556   1.680   2.610   7.149 -1.5291  0.1618 -0.2795
 2999TIP3    H230557   1.714   2.641   7.294 -1.2577 -0.6220 -0.1700
 3000TIP3   OH230558   2.774   3.026   8.056 -0.6328  0.2050 -0.0546
 3000TIP3    H130559   2.838   3.016   7.985  0.5471 -0.0354  1.0109
 3000TIP3    H230560   2.823   3.067   8.127 -1.0543 -1.8909  1.5535
 3001TIP3   OH230561   1.888   0.866   0.492 -0.0745  0.1820 -0.4773
 3001TIP3    H130562   1.938   0.927   0.546  0.9145 -0.2891 -0.8317
 3001TIP3    H230563   1.918   0.883   0.403  0.5848 -1.1283 -0.5400
 3002TIP3   OH230564   0.864   0.343   0.645  0.3403 -0.0650 -0.0722
 3002TIP3    H130565   0.941   0.286   0.653  0.3710 -0.2075 -1.2588
 3002TIP3    H230566   0.791   0.289   0.674  0.3980 -0.6525 -0.9744
 3003TIP3   OH230567   4.699   1.816   7.193 -0.3052  0.4754  0.1392
 3003TIP3    H130568   4.717   1.752   7.124 -1.0221  0.0503  0.3331
 3003TIP3    H230569   4.785   1.848   7.219  0.1146 -0.7838  0.3900
 3004TIP3   OH230570   2.007   4.328   7.520 -0.2399 -0.2715 -0.5532
 3004TIP3    H130571   2.063   4.405   7.516 -2.2973  1.3448 -0.2450
 3004TIP3    H230572   1.972   4.319   7.432 -0.1360 -0.7795 -0.5468
 3005TIP3   OH230573   5.670   0.942   1.868 -0.1580  0.1309 -0.0789
 3005TIP3    H130574   5.757   0.915   1.898 -0.0173  0.9203  0.2292
 3005TIP3    H230575   5.614   0.934   1.946 -0.2202  0.2684 -0.1096
 3006TIP3   OH230576   0.288   5.890   0.528  0.1523 -0.2331  0.3141
 3006TIP3    H130577   0.269   5.889   0.434  1.1590 -1.8022  0.0948
 3006TIP3    H230578   0.206   5.917   0.569 -1.1022 -1.9987 -0.8745
 3007TIP3   OH230579   1.689   4.535   1.800 -0.0105 -0.8315  0.2435
 3007TIP3    H130580   1.749   4.578   1.861  3.1566 -1.2349 -2.3341
 3007TIP3    H230581   1.740   4.466   1.760 -2.1752 -1.1364 -2.2686
 3008TIP3   OH230582   4.878   4.532   2.455  0.0455 -0.5439  0.1530
 3008TIP3    H130583   4.911   4.582   2.529  1.0036 -1.3467  0.2863
 3008TIP3    H230584   4.785   4.519   2.474 -0.0564  0.5733  0.4514
 3009TIP3   OH230585   5.328   4.272   1.910  0.4901  0.3667  0.3601
 3009TIP3    H130586   5.400   4.220   1.874  0.3939 -0.1702  0.9154
 3009TIP3    H230587   5.350   4.362   1.888  1.0642  0.1626  0.0663
 3010TIP3   OH230588   4.060   3.252   1.464 -0.0898 -0.4964 -0.9151
 3010TIP3    H130589   4.075   3.315   1.535  0.7631 -0.9815 -0.6494
 3010TIP3    H230590   4.024   3.175   1.508 -0.5806 -0.4139 -1.1633
 3011TIP3   OH230591   4.600   3.782   6.926 -0.2119 -0.3912 -0.2600
 3011TIP3    H130592   4.508   3.796   6.903  0.1057  0.8715 -0.9001
 3011TIP3    H230593   4.646   3.858   6.888  1.5913 -2.5960 -2.9460
 3012TIP3   OH230594   3.557   1.407   7.899 -0.0946 -0.1034  0.2082
 3012TIP3    H130595   3.552   1.312   7.907  2.5462 -0.2103  1.4717
 3012TIP3    H230596   3.489   1.439   7.958 -2.5623 -1.1090 -1.8833
 3013TIP3   OH230597   5.590   3.258   7.551  0.3238 -0.0524  0.0796
 3013TIP3    H130598   5.561   3.205   7.478 -1.2345 -1.0738  1.3751
 3013TIP3    H230599   5.676   3.291   7.525 -0.0746 -0.5947 -2.0597
 3014TIP3   OH230600   4.986   3.701   8.351 -0.4392 -0.0145 -0.2657
 3014TIP3    H130601   5.045   3.674   8.280  0.9967  0.8779  0.5317
 3014TIP3    H230602   4.921   3.757   8.308 -0.8113 -1.1252 -1.1889
 3015TIP3   OH230603   3.624   5.191   8.168  0.0100  0.0063 -0.1549
 3015TIP3    H130604   3.594   5.275   8.204 -0.5397  0.1290 -0.8730
 3015TIP3    H230605   3.544   5.141   8.153  0.2288 -0.1174 -0.9985
 3016TIP3   OH230606   3.665   3.081   1.330 -0.2213  0.4909 -0.1223
 3016TIP3    H130607   3.727   3.012   1.348  1.0195  1.3367 -0.9840
 3016TIP3    H230608   3.581   3.046   1.359  0.3700 -1.3455 -0.4740
 3017TIP3   OH230609   6.807   6.545   0.055 -0.0843 -0.2560  0.0440
 3017TIP3    H130610   6.901   6.538   0.068  0.5031  0.9542 -2.8967
 3017TIP3    H230611   6.778   6.608   0.122  0.9019 -1.5051  1.7329
 3018TIP3   OH230612   0.315   1.982   0.715 -0.0430  0.3469  0.2721
 3018TIP3    H130613   0.334   1.896   0.680 -1.8782 -0.4451  1.0776
 3018TIP3    H230614   0.325   2.042   0.641  1.9417 -0.4198 -0.1276
 3019TIP3   OH230615   1.393   0.019   6.984 -0.0138  0.2300 -0.2918
 3019TIP3    H130616   1.345  -0.050   6.937  1.8393 -0.7659 -0.8134
 3019TIP3    H230617   1.419  -0.022   7.067 -2.2454  1.6076  1.2192
 3020TIP3   OH230618   3.558   0.623   1.507  0.0621 -0.2933  0.4986
 3020TIP3    H130619   3.601   0.644   1.425  0.3828 -1.4546  0.3445
 3020TIP3    H230620   3.555   0.705   1.555  0.6091  0.2247 -0.3320
 3021TIP3   OH230621   1.462   2.312   7.988  0.2887  0.1068  0.4965
 3021TIP3    H130622   1.480   2.226   7.949  1.3974  1.0019 -1.0789
 3021TIP3    H230623   1.391   2.348   7.936 -0.6546 -0.1025  1.5976
 3022TIP3   OH230624   0.596   1.802   0.932 -0.1216  0.1736 -0.1256
 3022TIP3    H130625   0.627   1.757   0.853  0.6271 -0.1613  0.3458
 3022TIP3    H230626   0.589   1.733   0.998  0.6676  0.6787  0.4971
 3023TIP3   OH230627   1.691   2.535   7.581  0.6822 -0.1267 -0.1236
 3023TIP3    H130628   1.761   2.487   7.625  1.0925  1.0082  0.4884
 3023TIP3    H230629   1.726   2.554   7.494  0.0537 -1.9495 -0.8374
 3024TIP3   OH230630   0.515   1.079   2.093  0.5730  0.0218  0.1815
 3024TIP3    H130631   0.564   1.113   2.168  0.5188  0.3771  0.0594
 3024TIP3    H230632   0.522   1.148   2.027  1.1920 -0.5818 -0.3865
 3025TIP3   OH230633   4.683   5.695   8.239 -0.0646 -0.1472  0.2082
 3025TIP3    H130634   4.601   5.689   8.190  0.9489 -3.6035 -1.4172
 3025TIP3    H230635   4.727   5.773   8.204 -2.9442  2.5081  1.9542
 3026TIP3   OH230636   0.499   1.978   7.885 -0.4020  0.5321 -0.3599
 3026TIP3    H130637   0.564   1.919   7.923 -0.9720 -0.0561 -0.2845
 3026TIP3    H230638   0.550   2.054   7.854  0.0767  1.0673  1.6147
 3027TIP3   OH230639   3.813   2.279   0.867 -0.3166  0.3134 -0.4244
 3027TIP3    H130640   3.751   2.307   0.800 -2.0601 -3.4397 -0.6410
 3027TIP3    H230641   3.767   2.293   0.950  0.2933  1.3725 -0.2447
 3028TIP3   OH230642   2.166   5.757   2.518  0.2652 -0.0736  0.2354
 3028TIP3    H130643   2.161   5.831   2.579 -0.1837 -0.8096  1.1047
 3028TIP3    H230644   2.075   5.729   2.507  0.4350 -0.4928 -0.0947
 3029TIP3   OH230645   3.838   0.722   8.401 -0.1865 -0.1939 -0.0753
 3029TIP3    H130646   3.761   0.701   8.453  0.1287 -1.2473 -0.0209
 3029TIP3    H230647   3.895   0.770   8.461  0.5640 -2.1578  0.8720
 3030TIP3   OH230648   6.769   4.830   6.820 -0.3704 -0.6246 -0.2628
 3030TIP3    H130649   6.717   4.876   6.886 -1.1655 -1.0137 -0.6103
 3030TIP3    H230650   6.829   4.776   6.871  0.4552  0.6469  0.1485
 3031TIP3   OH230651   4.016   3.008   0.571  0.5007  0.2663 -0.2102
 3031TIP3    H130652   4.048   3.051   0.650  0.2477 -0.9172  0.5606
 3031TIP3    H230653   3.934   2.967   0.597  0.7444 -0.7101 -0.8983
 3032TIP3   OH230654   4.899   1.786   1.242 -0.1892 -0.5717  0.1676
 3032TIP3    H130655   4.874   1.695   1.227 -1.1019 -0.4388  0.8090
 3032TIP3    H230656   4.995   1.783   1.251 -0.2898 -1.6173  1.1506
 3033TIP3   OH230657   6.119   5.298   7.416  0.3234  0.2997 -0.4602
 3033TIP3    H130658   6.112   5.209   7.383  1.9887 -0.5021  1.1568
 3033TIP3    H230659   6.197   5.334   7.374  0.2063  0.6421 -0.3867
 3034TIP3   OH230660   0.186   1.521   7.403 -0.1050  1.0917 -0.0274
 3034TIP3    H130661   0.174   1.426   7.412  2.6443  0.6549  0.0411
 3034TIP3    H230662   0.164   1.556   7.489 -0.4935  0.4197  0.1563
 3035TIP3   OH230663   5.902   0.769   0.185  0.4239 -0.0552 -0.8229
 3035TIP3    H130664   5.855   0.746   0.265 -1.3770  2.3083 -1.0929
 3035TIP3    H230665   5.952   0.690   0.163 -1.1635 -1.7023  1.0991
 3036TIP3   OH230666   0.243   3.967   2.535 -1.0867 -0.2153  0.2183
 3036TIP3    H130667   0.314   3.976   2.598 -1.1004  1.3914  0.0389
 3036TIP3    H230668   0.216   3.875   2.542  1.1685 -0.9415  0.1001
 3037TIP3   OH230669   5.003   1.529   2.507 -0.1395 -0.1234  0.1758
 3037TIP3    H130670   4.943   1.480   2.451 -0.8807  0.5608  0.3467
 3037TIP3    H230671   5.084   1.478   2.507 -0.2162 -0.2727 -1.2934
 3038TIP3   OH230672   3.737   6.025   1.209 -0.4937 -0.6674  0.0455
 3038TIP3    H130673   3.814   5.992   1.255 -0.5170  0.1139  0.6594
 3038TIP3    H230674   3.717   5.957   1.144 -0.6467 -1.9626  1.3814
 3039TIP3   OH230675   5.145   1.093   7.826 -0.6710  0.0470  0.3906
 3039TIP3    H130676   5.205   1.104   7.900 -0.9323 -1.0197  0.7865
 3039TIP3    H230677   5.187   1.028   7.770 -0.3592  1.0279 -0.5477
 3040TIP3   OH230678   5.440   6.290   1.907 -0.2343  0.4496 -0.0909
 3040TIP3    H130679   5.382   6.271   1.980  0.0184  0.2169  0.0518
 3040TIP3    H230680   5.485   6.207   1.890  1.5443  1.1198  1.1208
 3041TIP3   OH230681   2.941   3.191   8.216 -0.0789 -0.2745 -0.1124
 3041TIP3    H130682   2.941   3.167   8.309  1.1728 -1.0844 -0.2889
 3041TIP3    H230683   2.896   3.275   8.212 -2.5490 -1.4696  0.8647
 3042TIP3   OH230684   4.421   4.059   2.071 -0.2108 -0.7567  0.0883
 3042TIP3    H130685   4.424   4.008   1.990  0.9190 -2.4326  1.1283
 3042TIP3    H230686   4.505   4.105   2.074 -0.4869 -0.2452  0.0359
 3043TIP3   OH230687   2.823   2.772   0.887  0.5125 -0.5860 -0.0727
 3043TIP3    H130688   2.769   2.695   0.867 -0.0103 -0.5990  1.3103
 3043TIP3    H230689   2.771   2.845   0.855 -0.7513 -0.5334  1.9157
 3044TIP3   OH230690   4.060   0.445   1.248 -0.0832 -0.1780  0.2043
 3044TIP3    H130691   4.098   0.531   1.267  2.7737 -1.1417 -0.6431
 3044TIP3    H230692   4.072   0.434   1.153  2.5793 -2.6643  0.6635
 3045TIP3   OH230693   1.948   6.482   6.976  0.2559 -0.2857 -0.0941
 3045TIP3    H130694   2.000   6.555   6.941  0.9365 -0.2895  0.8858
 3045TIP3    H230695   1.883   6.464   6.907  1.4396 -0.1828 -1.2730
 3046TIP3   OH230696   4.016   6.081   8.310 -0.4896  0.4253  0.1909
 3046TIP3    H130697   3.991   6.130   8.232 -0.1380  0.0200 -0.1846
 3046TIP3    H230698   4.090   6.027   8.282 -1.1796 -0.7002  0.4476
 3047TIP3   OH230699   1.312   2.126   0.479  0.4450  0.3399  0.1550
 3047TIP3    H130700   1.271   2.072   0.412  0.8130 -0.2218  0.3787
 3047TIP3    H230701   1.389   2.164   0.436  1.2161 -0.7695  0.5181
 3048TIP3   OH230702   0.202   5.300   7.263 -0.4477 -0.5034 -0.3750
 3048TIP3    H130703   0.260   5.236   7.305 -1.2833 -0.7883  0.3707
 3048TIP3    H230704   0.256   5.340   7.196  0.6573 -0.6695  0.3889
 3049TIP3   OH230705   3.540   5.111   8.496  0.4410  0.8878 -0.3934
 3049TIP3    H130706   3.582   5.195   8.474 -0.2831  1.5084  0.5181
 3049TIP3    H230707   3.534   5.112   8.591  0.2074 -0.1096 -0.3894
 3050TIP3   OH230708   4.574   4.706   2.392  0.1940 -0.0707  0.4143
 3050TIP3    H130709   4.596   4.770   2.459  0.7860  0.9456 -0.7122
 3050TIP3    H230710   4.485   4.677   2.414  0.1674  0.6398  1.3059
 3051TIP3   OH230711   2.917   2.959   0.582  0.4258  0.5427  0.0287
 3051TIP3    H130712   2.946   2.876   0.619 -0.0026  1.0483  1.6285
 3051TIP3    H230713   2.822   2.950   0.576  0.5280  0.2816 -1.5258
 3052TIP3   OH230714   6.116   6.379   0.629  0.0025 -0.2587  0.3686
 3052TIP3    H130715   6.096   6.430   0.550  3.4704 -0.4077 -0.7921
 3052TIP3    H230716   6.178   6.433   0.677 -0.2626 -1.1931  1.8046
 3053TIP3   OH230717   2.981   4.032   1.922  0.3670  0.0033  0.3505
 3053TIP3    H130718   2.959   4.119   1.955  1.4335  0.8911 -1.1119
 3053TIP3    H230719   2.901   4.002   1.878 -0.1708  0.0062  1.3140
 3054TIP3   OH230720   5.488   0.567   7.594  0.5697 -0.4779 -0.0698
 3054TIP3    H130721   5.496   0.514   7.514  1.1800 -0.3635 -0.0939
 3054TIP3    H230722   5.578   0.575   7.626  0.6555  1.4110 -0.6322
 3055TIP3   OH230723   5.513   0.235   8.114 -0.8005 -0.0934 -0.6127
 3055TIP3    H130724   5.545   0.323   8.134  0.3414 -0.1997 -1.8624
 3055TIP3    H230725   5.583   0.194   8.064 -1.5861 -1.4962 -0.6221
 3056TIP3   OH230726   5.767   0.392   6.951  0.0789 -0.2883  0.5333
 3056TIP3    H130727   5.688   0.387   6.898  0.7273 -0.5617 -0.4464
 3056TIP3    H230728   5.755   0.470   7.005 -0.6520 -0.0598  0.0552
 3057TIP3   OH230729   4.667   3.529   6.829  0.4018 -0.4011  0.4845
 3057TIP3    H130730   4.587   3.499   6.786  1.1581 -1.3721 -0.3141
 3057TIP3    H230731   4.655   3.623   6.840 -0.7780 -0.5063  0.2390
 3058TIP3   OH230732   1.752   4.173   0.427 -0.2598 -0.3075  0.5617
 3058TIP3    H130733   1.823   4.189   0.365  0.1470  2.5111  1.6010
 3058TIP3    H230734   1.793   4.180   0.513 -1.6145  0.6527  1.1733
 3059TIP3   OH230735   5.547   0.008   7.516  0.1488 -0.1390  0.5023
 3059TIP3    H130736   5.533   0.101   7.496 -0.3023  0.3192  2.6868
 3059TIP3    H230737   5.642  -0.000   7.525  0.2219  0.0028 -0.0546
 3060TIP3   OH230738   0.708   6.276   2.492  0.4301  0.5645  0.0256
 3060TIP3    H130739   0.773   6.331   2.536 -0.2867  3.1666 -1.9448
 3060TIP3    H230740   0.758   6.198   2.465  2.8961  2.5343 -1.5882
 3061TIP3   OH230741   0.076   6.620   8.422 -0.6888  0.3344 -0.4518
 3061TIP3    H130742  -0.003   6.624   8.476  0.1342 -0.6703  0.8914
 3061TIP3    H230743   0.129   6.694   8.451 -0.3403 -0.0795 -0.0154
 3062TIP3   OH230744   4.413   3.108   1.165 -0.1557 -0.8891  0.1918
 3062TIP3    H130745   4.402   3.089   1.072  0.7473  0.4768 -0.2264
 3062TIP3    H230746   4.327   3.138   1.193 -0.1212 -0.0844 -0.5224
 3063TIP3   OH230747   0.421   1.903   2.875 -0.7228 -0.4090  0.1422
 3063TIP3    H130748   0.424   1.920   2.781 -0.1486  1.3970  0.4542
 3063TIP3    H230749   0.496   1.847   2.892  0.3044  0.8361 -0.2000
 3064TIP3   OH230750   2.642   4.334   8.188  0.2903  0.3788 -0.5886
 3064TIP3    H130751   2.674   4.413   8.232 -1.0704  1.1185 -0.8826
 3064TIP3    H230752   2.662   4.350   8.095  0.0731  0.3502 -0.6396
 3065TIP3   OH230753   4.229   3.302   8.347 -0.2539  0.3837 -0.0336
 3065TIP3    H130754   4.180   3.381   8.324 -2.5237 -0.7049  0.7624
 3065TIP3    H230755   4.291   3.331   8.413 -0.9465  1.5301  0.1433
 3066TIP3   OH230756   1.753   6.755   0.084  0.7345 -0.0063  0.0784
 3066TIP3    H130757   1.829   6.775   0.029  0.0658 -1.1181 -1.3153
 3066TIP3    H230758   1.681   6.747   0.022 -0.3327  0.0179  1.2771
 3067TIP3   OH230759   3.123   0.169   8.313 -0.1837  0.4216  0.2875
 3067TIP3    H130760   3.214   0.180   8.338  0.0304 -1.2923  0.3885
 3067TIP3    H230761   3.124   0.098   8.248 -1.5719 -0.7800  1.4912
 3068TIP3   OH230762   5.108   0.700   0.959  0.6451 -0.4946  0.2079
 3068TIP3    H130763   5.180   0.720   1.020  1.1451  0.3049 -0.6084
 3068TIP3    H230764   5.152   0.686   0.875 -0.0992 -0.8063 -0.1371
 3069TIP3   OH230765   3.349   4.431   0.422  0.2480 -0.1473 -0.4051
 3069TIP3    H130766   3.317   4.485   0.493  1.0528 -1.0479  0.6833
 3069TIP3    H230767   3.402   4.490   0.369  0.3128  0.3535  0.2074
 3070TIP3   OH230768   4.036   5.338   7.484  0.1074  0.6783 -0.1507
 3070TIP3    H130769   4.048   5.346   7.578 -0.0974  2.4437 -0.2374
 3070TIP3    H230770   4.116   5.375   7.446  0.2696 -0.1892 -0.6840
 3071TIP3   OH230771   1.811   2.851   2.240 -0.2377  0.3751  0.7244
 3071TIP3    H130772   1.843   2.932   2.279 -0.6177  0.0969  1.6358
 3071TIP3    H230773   1.743   2.819   2.300  0.2905 -0.9087  0.6845
 3072TIP3   OH230774   1.923   0.249   7.069 -0.1337 -0.1633  0.4151
 3072TIP3    H130775   2.009   0.208   7.066 -0.4693 -1.2083  2.7791
 3072TIP3    H230776   1.895   0.252   6.977  1.7607 -1.1960 -0.2576
 3073TIP3   OH230777   5.980   1.918   7.562  0.0084 -0.1133 -0.3434
 3073TIP3    H130778   5.925   1.859   7.511  0.3765  1.1858 -2.3419
 3073TIP3    H230779   5.926   1.997   7.573  0.0258 -0.2764  1.1258
 3074TIP3   OH230780   1.623   3.056   7.950 -0.4456 -0.7150 -0.3522
 3074TIP3    H130781   1.571   3.019   8.022 -0.6657  0.1211 -0.0729
 3074TIP3    H230782   1.714   3.034   7.973 -0.6168 -1.6625 -0.5383
 3075TIP3   OH230783   3.819   5.705   7.340  0.3721  0.2251 -0.1511
 3075TIP3    H130784   3.828   5.616   7.376 -3.4972  0.4457  1.8121
 3075TIP3    H230785   3.845   5.762   7.412  0.9368  0.7420 -0.7488
 3076TIP3   OH230786   4.605   0.784   7.918 -0.3199 -0.6721 -0.9443
 3076TIP3    H130787   4.637   0.871   7.941 -0.6318 -0.4515 -1.3406
 3076TIP3    H230788   4.669   0.751   7.854 -0.3908 -0.5952 -1.0548
 3077TIP3   OH230789   3.200   1.728   1.888 -0.2112  0.2908  0.0930
 3077TIP3    H130790   3.195   1.818   1.920  3.1301  0.3636  0.8414
 3077TIP3    H230791   3.176   1.674   1.964  0.4546  0.5575  0.5032
 3078TIP3   OH230792   6.720   6.308   8.517 -0.0134  0.1964  0.4920
 3078TIP3    H130793   6.642   6.313   8.463 -0.1690 -2.8700  0.2490
 3078TIP3    H230794   6.725   6.394   8.560 -1.4735  1.7321 -2.1318
 3079TIP3   OH230795   2.297   4.927   7.866  0.1078  0.0986  0.0225
 3079TIP3    H130796   2.275   5.020   7.876 -1.9747 -0.2006 -1.0849
 3079TIP3    H230797   2.312   4.916   7.772  0.8818 -0.5922  0.2130
 3080TIP3   OH230798   2.350   4.997   0.689 -0.6803 -0.5197  0.0308
 3080TIP3    H130799   2.362   4.920   0.744  1.9206 -0.8866 -0.9377
 3080TIP3    H230800   2.323   5.066   0.750  0.8763 -1.2169  1.5771
 3081TIP3   OH230801   6.733   1.314   0.744 -0.6525 -0.3038 -1.0610
 3081TIP3    H130802   6.676   1.377   0.700 -0.9058  2.1052  2.2803
 3081TIP3    H230803   6.822   1.349   0.733 -0.9401  2.0889  2.4186
 3082TIP3   OH230804   3.733   0.404   0.027 -0.7397 -0.1745 -0.0001
 3082TIP3    H130805   3.709   0.481  -0.024 -2.4804 -0.5512  0.1962
 3082TIP3    H230806   3.824   0.386   0.002 -0.7855  1.0479 -1.1564
 3083TIP3   OH230807   4.637   3.567   0.251 -0.2699 -0.4500 -0.2764
 3083TIP3    H130808   4.716   3.564   0.197  0.2391 -1.5700  0.4999
 3083TIP3    H230809   4.592   3.485   0.233 -1.8151  0.6040 -1.4721
 3084TIP3   OH230810   2.598   3.331   8.017 -0.3845 -0.3081  0.1283
 3084TIP3    H130811   2.511   3.370   8.010 -0.4380 -0.3283  0.6984
 3084TIP3    H230812   2.582   3.238   8.028 -0.2526 -0.5502 -1.4179
 3085TIP3   OH230813   0.981   0.128   1.629  0.1587  0.4255 -0.5950
 3085TIP3    H130814   0.913   0.181   1.670  0.0758 -0.8882  1.0486
 3085TIP3    H230815   0.947   0.039   1.630  0.7404  0.1394 -2.3588
 3086TIP3   OH230816   0.168   6.584   0.969 -0.8708 -0.1952 -0.0089
 3086TIP3    H130817   0.228   6.585   0.894 -1.4136 -0.8874 -0.4556
 3086TIP3    H230818   0.216   6.539   1.038 -0.5014  0.1453 -0.0373
 3087TIP3   OH230819   0.345   1.439   1.893  0.1713 -0.2615 -0.0733
 3087TIP3    H130820   0.295   1.504   1.942  1.7148  0.1794  0.9894
 3087TIP3    H230821   0.301   1.433   1.808 -0.9536  0.9614  0.3965
 3088TIP3   OH230822   1.769   6.270   2.754 -0.7388  0.3808 -0.1326
 3088TIP3    H130823   1.714   6.298   2.681 -1.7476 -1.3267 -0.0871
 3088TIP3    H230824   1.759   6.175   2.756  2.2935 -0.0494 -0.1469
 3089TIP3   OH230825   5.921   2.362   0.688 -0.4687 -0.3321  0.1635
 3089TIP3    H130826   5.894   2.363   0.596  1.0488 -2.1053 -0.3594
 3089TIP3    H230827   6.001   2.415   0.689 -0.8829  0.2988  0.6300
 3090TIP3   OH230828   5.441   5.881   2.310  0.3128 -0.1047 -0.0149
 3090TIP3    H130829   5.364   5.824   2.310 -0.7577  1.2968  0.0043
 3090TIP3    H230830   5.460   5.895   2.402 -0.4832  0.9359  0.0002
 3091TIP3   OH230831   6.197   2.052   0.568 -0.6788  0.9081  0.6396
 3091TIP3    H130832   6.107   2.079   0.548 -1.0450  0.3423  1.4859
 3091TIP3    H230833   6.188   1.989   0.639  0.3820  0.7078  0.6104
 3092TIP3   OH230834   3.531   4.856   8.062  0.3886 -0.3687 -0.0999
 3092TIP3    H130835   3.607   4.800   8.049 -0.1844 -0.9673 -0.9167
 3092TIP3    H230836   3.457   4.797   8.062 -0.1508  0.2955 -0.0754
 3093TIP3   OH230837   2.245   1.881   8.208 -0.2130  0.0492 -0.2491
 3093TIP3    H130838   2.181   1.937   8.253  0.9924  1.4754 -0.2395
 3093TIP3    H230839   2.330   1.917   8.233  0.6493 -2.2282  0.2823
 3094TIP3   OH230840   0.430   3.174   8.356 -0.3361 -0.2189  0.2535
 3094TIP3    H130841   0.496   3.218   8.304 -1.7072  0.3376 -1.0793
 3094TIP3    H230842   0.458   3.082   8.357  0.3152 -0.0403 -0.5079
 3095TIP3   OH230843   4.498   1.720   0.974 -0.1640 -0.0773  0.2525
 3095TIP3    H130844   4.492   1.685   1.063  2.4945 -1.1241  0.1143
 3095TIP3    H230845   4.426   1.679   0.927 -2.8837  2.0198  2.2985
 3096TIP3   OH230846   4.369   6.865   2.223 -0.2644  0.3058 -0.1685
 3096TIP3    H130847   4.319   6.870   2.304  0.9434 -1.0816  0.6957
 3096TIP3    H230848   4.456   6.838   2.249  0.6093  1.3675 -1.7835
 3097TIP3   OH230849   3.766   5.550   0.443 -0.4347 -0.5141 -0.3197
 3097TIP3    H130850   3.844   5.535   0.496 -0.9293 -1.0727  0.2594
 3097TIP3    H230851   3.758   5.473   0.387 -0.6596 -0.5239 -0.2752
 3098TIP3   OH230852   6.266   6.757   8.198 -0.5763 -0.8012  0.3461
 3098TIP3    H130853   6.176   6.776   8.171 -0.6836 -1.0424  0.5397
 3098TIP3    H230854   6.259   6.729   8.289 -0.1776  0.2712  0.7223
 3099TIP3   OH230855   6.530   0.464   0.349 -0.5205 -0.7941 -0.8593
 3099TIP3    H130856   6.589   0.389   0.340 -1.6957 -1.6510 -1.6995
 3099TIP3    H230857   6.477   0.462   0.270 -1.5380  0.0966 -0.2224
 3100TIP3   OH230858   2.368   5.451   7.029 -0.2614  0.3986  0.1694
 3100TIP3    H130859   2.445   5.506   7.047 -0.6532  0.6780  1.0264
 3100TIP3    H230860   2.385   5.414   6.942  1.1546 -0.0707  0.6165
 3101TIP3   OH230861   6.083   1.709   0.209 -0.9050 -0.0916 -0.0752
 3101TIP3    H130862   6.076   1.633   0.267 -0.8557 -0.8842 -1.0789
 3101TIP3    H230863   6.017   1.770   0.241 -1.6757 -1.0028  0.1207
 3102TIP3   OH230864   5.876   2.901   2.627 -0.2573 -0.3871 -0.2998
 3102TIP3    H130865   5.922   2.903   2.712 -0.6105  0.7848 -0.1247
 3102TIP3    H230866   5.946   2.898   2.562  0.0476 -3.3752  0.0015
 3103TIP3   OH230867   5.752   5.955   2.370  0.1532 -0.0780  0.2970
 3103TIP3    H130868   5.799   5.872   2.371  0.1846 -0.0724  1.6297
 3103TIP3    H230869   5.797   6.008   2.436 -0.5289  0.6149  0.2193
 3104TIP3   OH230870   2.681   5.104   0.982  1.6540 -0.2598  0.0489
 3104TIP3    H130871   2.620   5.030   0.977 -0.8600  1.4618  2.5029
 3104TIP3    H230872   2.752   5.073   1.038  0.7246 -0.9083  0.9025
 3105TIP3   OH230873   1.310   4.492   0.742 -0.7560 -0.4902 -0.9628
 3105TIP3    H130874   1.327   4.584   0.725  1.6771 -0.2336  1.9177
 3105TIP3    H230875   1.221   4.490   0.778  0.1722  1.3284  1.8038
 3106TIP3   OH230876   0.000   6.171   2.678 -0.2324 -0.2193 -0.3148
 3106TIP3    H130877  -0.086   6.204   2.703 -0.1322 -0.1079 -0.1146
 3106TIP3    H230878   0.058   6.200   2.749  0.2880  1.0864 -1.2431
 3107TIP3   OH230879   0.137   5.112   0.833  0.0216  0.0349  0.0000
 3107TIP3    H130880   0.124   5.179   0.766  0.3047 -0.6808 -0.7877
 3107TIP3    H230881   0.113   5.155   0.915  0.6301  1.2442 -0.4265
 3108TIP3   OH230882   2.008   5.893   7.303 -0.2413  0.2642 -0.5792
 3108TIP3    H130883   1.928   5.869   7.256 -1.0866  0.3925  0.7648
 3108TIP3    H230884   2.077   5.840   7.261 -0.9883  0.2447 -1.8295
 3109TIP3   OH230885   0.873   3.969   1.288  0.4026  0.1103 -0.6412
 3109TIP3    H130886   0.928   3.963   1.210  0.9156  0.9571 -0.3541
 3109TIP3    H230887   0.847   4.061   1.293 -0.4406 -0.1295 -0.3597
 3110TIP3   OH230888   0.265   4.030   6.736  0.1366  0.1823 -0.2421
 3110TIP3    H130889   0.213   4.081   6.674  0.0179  0.3941  0.0332
 3110TIP3    H230890   0.201   3.988   6.793  0.2351 -0.2281 -0.4291
 3111TIP3   OH230891   6.204   0.642   0.452 -0.0974 -0.0725 -0.3885
 3111TIP3    H130892   6.203   0.698   0.374 -0.5636  0.5535  0.0527
 3111TIP3    H230893   6.116   0.605   0.456 -0.1238  0.0196 -0.0808
 3112TIP3   OH230894   0.186   1.544   8.044 -0.2310 -0.2397 -0.3085
 3112TIP3    H130895   0.244   1.609   8.084 -1.1542  0.2241  0.3101
 3112TIP3    H230896   0.166   1.484   8.116 -0.9503 -0.0802 -0.3680
 3113TIP3   OH230897   1.593   5.513   7.693 -0.2436  0.2183 -0.6907
 3113TIP3    H130898   1.557   5.468   7.617 -0.5037  2.2755 -1.8521
 3113TIP3    H230899   1.523   5.511   7.758 -0.0124 -1.5669 -0.4210
 3114TIP3   OH230900   4.946   2.527   1.263 -0.7417 -0.9295 -0.2928
 3114TIP3    H130901   4.890   2.474   1.319 -1.1877  0.6065  0.7674
 3114TIP3    H230902   4.892   2.603   1.239 -0.3189 -1.1717 -2.2252
 3115TIP3   OH230903   4.876   2.799   1.572  0.3843 -0.1349 -0.5136
 3115TIP3    H130904   4.852   2.891   1.558  1.8364  0.0149 -2.4385
 3115TIP3    H230905   4.878   2.789   1.667 -0.3038  1.6889 -0.2618
 3116TIP3   OH230906   4.065   4.688   1.859  0.5548  0.0739 -0.1194
 3116TIP3    H130907   4.016   4.682   1.776 -0.4212  1.1648  0.3486
 3116TIP3    H230908   4.048   4.777   1.890  1.5604 -0.0644  0.8702
 3117TIP3   OH230909   0.856   3.674   0.410 -0.2952 -0.1737 -0.2099
 3117TIP3    H130910   0.905   3.606   0.363 -0.1164 -0.7630  0.8078
 3117TIP3    H230911   0.790   3.703   0.347  0.5024 -0.3066 -1.1427
 3118TIP3   OH230912   0.154   3.938   0.951 -0.5264  0.5142 -0.1897
 3118TIP3    H130913   0.231   3.918   0.897  1.2272 -1.6417  2.8418
 3118TIP3    H230914   0.095   3.864   0.937 -0.4829  0.4182  0.1270
 3119TIP3   OH230915   6.670   6.762   7.836  0.1270 -0.6454  0.9468
 3119TIP3    H130916   6.741   6.763   7.772 -0.8517 -2.0381 -0.2106
 3119TIP3    H230917   6.644   6.670   7.844 -1.1578 -0.2533  1.7875
 3120TIP3   OH230918   2.111   6.084   7.564 -0.3673 -0.1336 -0.2401
 3120TIP3    H130919   2.163   6.005   7.550  1.7367  1.0097  0.6203
 3120TIP3    H230920   2.147   6.121   7.645 -2.3850  0.8744  0.2364
 3121TIP3   OH230921   3.270   0.282   1.902 -0.3060  0.1116  0.2539
 3121TIP3    H130922   3.294   0.301   1.993  0.4708  0.5046 -0.0231
 3121TIP3    H230923   3.235   0.365   1.869 -1.8592 -0.3846  0.5743
 3122TIP3   OH230924   2.460   4.716   7.768 -0.2554  0.7648 -0.8504
 3122TIP3    H130925   2.491   4.680   7.685  0.9645  1.8200 -0.8899
 3122TIP3    H230926   2.421   4.800   7.745 -1.2934  0.3802 -0.5297
 3123TIP3   OH230927   0.009   6.849   1.258 -0.6169  0.2828  0.5363
 3123TIP3    H130928   0.032   6.895   1.177  0.2669  1.1325  1.2533
 3123TIP3    H230929   0.093   6.824   1.296 -0.9166  1.5802  2.1406
 3124TIP3   OH230930   4.963   3.814   1.096 -0.1448 -0.3739  0.2093
 3124TIP3    H130931   4.969   3.892   1.152 -0.6506  0.7260 -1.1939
 3124TIP3    H230932   5.034   3.757   1.125  1.6448  1.5664 -0.1417
 3125TIP3   OH230933   3.942   2.867   0.347  0.0576  0.1452  0.2053
 3125TIP3    H130934   3.972   2.907   0.429  1.0981  0.7081 -0.4352
 3125TIP3    H230935   3.877   2.803   0.375 -0.3902  1.0687  1.3919
 3126TIP3   OH230936   6.561   3.929   1.081 -0.2536 -0.0923 -0.0496
 3126TIP3    H130937   6.626   3.990   1.117 -0.9787  1.0724 -0.6722
 3126TIP3    H230938   6.541   3.963   0.994  0.0534 -1.7948 -0.8282
 3127TIP3   OH230939   3.519   6.655   0.729 -0.3008 -0.2212 -0.2055
 3127TIP3    H130940   3.541   6.641   0.821 -0.7876  1.8282  0.2931
 3127TIP3    H230941   3.591   6.709   0.696  0.6894 -2.2291 -1.5178
 3128TIP3   OH230942   2.270   5.692   7.263 -0.1922  0.0017  0.3180
 3128TIP3    H130943   2.351   5.686   7.212  0.3343 -0.6362  1.1930
 3128TIP3    H230944   2.296   5.738   7.343 -0.6502 -0.3384  0.6654
 3129TIP3   OH230945   4.987   0.702   1.379 -0.2788 -0.1958 -0.2785
 3129TIP3    H130946   4.949   0.727   1.295 -0.3998 -0.9156 -0.4468
 3129TIP3    H230947   5.080   0.727   1.373  0.3483 -2.5267 -1.6401
 3130TIP3   OH230948   4.518   2.935   8.010 -0.6588  0.7076  0.2940
 3130TIP3    H130949   4.474   3.007   7.963 -1.0709 -0.5681 -1.3787
 3130TIP3    H230950   4.461   2.860   7.996 -0.2875  0.0503  2.1142
 3131TIP3   OH230951   2.087   3.151   6.828 -0.6252 -0.2010 -0.5571
 3131TIP3    H130952   2.126   3.238   6.814 -0.0996 -0.3978 -0.3592
 3131TIP3    H230953   2.134   3.094   6.768 -0.4645 -0.4785 -0.1743
 3132TIP3   OH230954   4.294   3.417   2.257  0.5248  0.8622 -0.0304
 3132TIP3    H130955   4.200   3.433   2.247  0.4372 -0.6154 -2.0422
 3132TIP3    H230956   4.300   3.329   2.293  1.1667  1.2962  0.9943
 3133TIP3   OH230957   1.614   5.012   6.743 -0.3100 -0.7777  0.2018
 3133TIP3    H130958   1.622   5.060   6.660  2.2682 -1.0235  0.2257
 3133TIP3    H230959   1.565   4.933   6.720 -2.1044  0.4487 -0.4361
 3134TIP3   OH230960   2.126   3.632   1.095  0.1159  0.8173 -0.0993
 3134TIP3    H130961   2.089   3.710   1.052  2.3503  1.3142 -1.2485
 3134TIP3    H230962   2.102   3.642   1.187  0.0074  2.6697 -0.2949
 3135TIP3   OH230963   0.418   2.037   7.488  0.0530 -0.4475  0.4152
 3135TIP3    H130964   0.471   2.116   7.502  0.0684 -0.4333  0.2757
 3135TIP3    H230965   0.347   2.045   7.552 -0.3022 -0.0033 -0.0273
 3136TIP3   OH230966   4.886   3.682   0.859  0.5072 -0.0623 -0.2166
 3136TIP3    H130967   4.907   3.717   0.946 -0.6517 -0.6910  0.3346
 3136TIP3    H230968   4.791   3.670   0.860 -0.1991  3.5851 -2.9340
 3137TIP3   OH230969   1.756   1.111   7.369 -0.5936 -0.5574  0.5158
 3137TIP3    H130970   1.780   1.163   7.292 -1.5093 -0.3923  0.3338
 3137TIP3    H230971   1.792   1.024   7.351 -0.7247 -0.4981 -0.0610
 3138TIP3   OH230972   3.313   3.202   6.259  0.3882 -0.2520 -0.3752
 3138TIP3    H130973   3.225   3.237   6.248  0.5095 -0.0255 -0.6624
 3138TIP3    H230974   3.301   3.110   6.279  0.1023 -0.3208 -0.8712
 3139TIP3   OH230975   6.256   4.742   0.973 -0.4298  0.1839  0.2485
 3139TIP3    H130976   6.289   4.766   1.060 -0.8014 -0.9092  0.7161
 3139TIP3    H230977   6.278   4.649   0.965 -3.1214 -0.5527  0.4823
 3140TIP3   OH230978   1.664   2.623   1.788  0.2300 -0.0332 -0.1541
 3140TIP3    H130979   1.572   2.625   1.817  0.8590 -1.2152  2.1763
 3140TIP3    H230980   1.714   2.645   1.866  1.9541  0.7874 -1.4351
 3141TIP3   OH230981   4.346   1.561   1.570  0.0504 -0.2614 -0.3257
 3141TIP3    H130982   4.282   1.530   1.506 -1.2148 -0.0515  0.7983
 3141TIP3    H230983   4.405   1.617   1.519 -0.3355 -0.8653 -1.4863
 3142TIP3   OH230984   0.084   3.608   0.237 -0.1699  0.7768  0.0072
 3142TIP3    H130985   0.085   3.525   0.284 -0.7203  1.3121  0.9852
 3142TIP3    H230986   0.174   3.621   0.209 -0.2768 -0.6894 -1.1557
 3143TIP3   OH230987   3.580   4.963   2.499  0.1295  0.6400  0.3435
 3143TIP3    H130988   3.589   5.048   2.455 -0.3038 -0.0370 -1.1264
 3143TIP3    H230989   3.486   4.947   2.500 -0.1324  1.5607  3.4835
 3144TIP3   OH230990   3.849   6.845   1.376  0.1526  0.2379 -0.0678
 3144TIP3    H130991   3.771   6.877   1.331  0.0850  0.4716  0.2076
 3144TIP3    H230992   3.818   6.820   1.463  0.4660  0.7956  0.2113
 3145TIP3   OH230993   3.801   0.704   7.767 -0.4040 -0.0071 -0.5992
 3145TIP3    H130994   3.821   0.791   7.801 -2.3031  0.1336  0.2699
 3145TIP3    H230995   3.804   0.714   7.672  0.4685  0.7043 -0.5144
 3146TIP3   OH230996   0.138   3.314   7.667 -0.0738  0.4722  0.2167
 3146TIP3    H130997   0.082   3.266   7.728  1.8330 -2.3004 -0.0338
 3146TIP3    H230998   0.205   3.355   7.723 -0.1835  0.6648  0.2103
 3147TIP3   OH230999   6.411   3.694   1.820  0.1864 -0.0696  0.3780
 3147TIP3    H131000   6.415   3.611   1.867 -1.2589  0.1339  0.9090
 3147TIP3    H231001   6.372   3.673   1.735 -0.1831  0.0590  0.5133
 3148TIP3   OH231002   1.273   4.158   8.498  0.1567  0.2548  0.0723
 3148TIP3    H131003   1.355   4.184   8.456 -0.7751  0.5128 -1.6982
 3148TIP3    H231004   1.271   4.063   8.490  1.6209 -0.0900  2.8086
 3149TIP3   OH231005   3.293   0.192   7.715  0.0445 -0.7824 -0.1218
 3149TIP3    H131006   3.224   0.164   7.775  0.1669 -1.4421 -0.2806
 3149TIP3    H231007   3.346   0.253   7.766 -0.7867 -0.0838 -0.0725
 3150TIP3   OH231008   5.398   0.701   0.455  0.5542 -0.2016  0.0246
 3150TIP3    H131009   5.377   0.618   0.412 -0.2522  0.6885 -1.3674
 3150TIP3    H231010   5.402   0.765   0.384 -0.4863  1.2632  1.2084
 3151TIP3   OH231011   5.189   1.818   8.293 -0.2986 -0.1163 -0.6658
 3151TIP3    H131012   5.207   1.735   8.338 -1.4178 -0.4445 -0.7864
 3151TIP3    H231013   5.106   1.803   8.248 -0.3408  0.9689 -0.9746
 3152TIP3   OH231014   0.413   4.383   7.904  0.4676 -0.5756 -0.0756
 3152TIP3    H131015   0.444   4.372   7.814  0.9136 -2.0895  0.2308
 3152TIP3    H231016   0.393   4.294   7.934  0.5349 -0.1290  1.3924
 3153TIP3   OH231017   6.651   5.941   2.176 -0.1995 -0.3219 -0.5607
 3153TIP3    H131018   6.620   6.032   2.185  0.8459 -0.1787  3.6950
 3153TIP3    H231019   6.577   5.894   2.138 -2.4169  1.5884  1.1193
 3154TIP3   OH231020   5.088   6.370   1.335  0.0008  0.3182  0.3886
 3154TIP3    H131021   5.088   6.466   1.326 -0.7148  0.3985  1.1542
 3154TIP3    H231022   5.038   6.339   1.259 -0.8093  0.6281  0.7879
 3155TIP3   OH231023   0.106   1.006   1.956  0.0819 -0.4298 -0.3893
 3155TIP3    H131024   0.163   1.021   2.031  1.2863 -0.2446 -1.3065
 3155TIP3    H231025   0.128   1.076   1.895 -1.4024 -0.1393 -0.6293
 3156TIP3   OH231026   0.434   0.563   1.866  0.3297  0.1264  0.0214
 3156TIP3    H131027   0.473   0.647   1.838 -0.4582  0.5217  0.0924
 3156TIP3    H231028   0.509   0.512   1.897  1.0680  0.1877 -1.5188
 3157TIP3   OH231029   6.609   1.102   7.384  0.6957 -0.3601 -0.2833
 3157TIP3    H131030   6.666   1.179   7.385 -1.0605  1.0155  0.9717
 3157TIP3    H231031   6.550   1.117   7.310  1.0095 -1.0530 -0.6851
 3158TIP3   OH231032   5.691   3.009   1.598 -0.6799  0.0935 -0.2242
 3158TIP3    H131033   5.617   2.954   1.623 -0.5447 -0.6917 -1.4772
 3158TIP3    H231034   5.652   3.095   1.580 -0.6978  0.9616  3.2324
 3159TIP3   OH231035   0.401   2.847   6.334  0.1681 -0.7068 -0.3571
 3159TIP3    H131036   0.322   2.796   6.316  0.9093 -2.3511  0.7857
 3159TIP3    H231037   0.431   2.815   6.419  0.3938  2.0662  0.7124
 3160TIP3   OH231038   6.300   1.706   0.964 -0.1713 -0.2561 -0.0164
 3160TIP3    H131039   6.285   1.800   0.960  0.2276 -0.2178 -0.6914
 3160TIP3    H231040   6.395   1.697   0.976 -0.3762 -0.5481  1.7301
 3161TIP3   OH231041   6.502   4.606   2.392  0.0249 -0.1188 -0.7330
 3161TIP3    H131042   6.470   4.670   2.455 -0.3835 -0.0497 -1.0096
 3161TIP3    H231043   6.425   4.555   2.367  0.5434 -1.4883  0.3498
 3162TIP3   OH231044   5.121   3.177   8.504 -0.1034  0.8870 -0.0523
 3162TIP3    H131045   5.133   3.243   8.436  0.1080  1.4650  0.5317
 3162TIP3    H231046   5.083   3.225   8.578 -3.8631 -0.3504 -0.9407
 3163TIP3   OH231047   3.571   4.473   8.136  0.2727  0.0747 -0.3418
 3163TIP3    H131048   3.588   4.509   8.223 -0.1122  1.3891 -0.7951
 3163TIP3    H231049   3.626   4.395   8.132  1.7412  1.0283  0.3929
 3164TIP3   OH231050   0.459   4.785   0.602  0.0475 -0.2443  0.1721
 3164TIP3    H131051   0.552   4.760   0.603  0.0610 -0.2204 -0.4012
 3164TIP3    H231052   0.430   4.765   0.513 -0.8026 -1.3837  0.6862
 3165TIP3   OH231053   2.072   2.418   8.331  0.3711 -0.2369  0.1833
 3165TIP3    H131054   1.986   2.450   8.303  0.1520 -0.3041  0.7511
 3165TIP3    H231055   2.065   2.323   8.326 -0.5243 -0.3960  2.7378
 3166TIP3   OH231056   2.401   2.368   0.991 -0.0109 -0.3319 -0.2247
 3166TIP3    H131057   2.361   2.316   1.060  0.5770 -0.8379 -0.2590
 3166TIP3    H231058   2.428   2.449   1.034 -2.5208  0.7598 -0.5267
 3167TIP3   OH231059   4.256   5.112   1.825  0.3163  0.3618 -0.3561
 3167TIP3    H131060   4.339   5.068   1.805  0.5003  0.2484  0.5904
 3167TIP3    H231061   4.234   5.159   1.745  1.0751  0.0490 -0.7629
 3168TIP3   OH231062   2.861   6.208   0.148 -0.5278 -0.1410  0.9041
 3168TIP3    H131063   2.878   6.284   0.204 -1.2445  1.2395 -0.6403
 3168TIP3    H231064   2.948   6.182   0.117 -0.2733  0.0510  1.4311
 3169TIP3   OH231065   4.259   4.648   7.110 -0.1186  0.2811  0.2499
 3169TIP3    H131066   4.208   4.724   7.136 -1.2992 -0.3121 -0.2302
 3169TIP3    H231067   4.232   4.630   7.020 -0.7048 -1.3268  0.6946
 3170TIP3   OH231068   2.176   4.038   7.219  0.9245  0.3957  0.1798
 3170TIP3    H131069   2.187   3.944   7.225  2.0881  0.5809  1.6096
 3170TIP3    H231070   2.089   4.055   7.256  0.5412 -0.1280 -0.4591
 3171TIP3   OH231071   3.627   3.083   6.852 -0.1062  0.1995 -0.4336
 3171TIP3    H131072   3.717   3.058   6.834 -0.8612 -1.4861 -2.4294
 3171TIP3    H231073   3.617   3.074   6.946  1.2188 -1.8404 -0.4323
 3172TIP3   OH231074   3.620   5.318   2.382  0.0003 -0.2432  0.0888
 3172TIP3    H131075   3.537   5.279   2.355  0.0978  0.9883 -2.1882
 3172TIP3    H231076   3.597   5.405   2.414  0.1965 -0.7684  1.7973
 3173TIP3   OH231077   2.758   5.754   2.427  0.7346 -0.5185  0.7983
 3173TIP3    H131078   2.786   5.841   2.399  2.3294 -0.9850  0.8306
 3173TIP3    H231079   2.731   5.765   2.518 -0.5507  0.2110  0.3590
 3174TIP3   OH231080   3.738   4.721   0.897  0.3680  0.4475  0.1282
 3174TIP3    H131081   3.745   4.649   0.960  1.4068 -0.6288 -1.1484
 3174TIP3    H231082   3.738   4.678   0.812 -3.5151  1.6614 -0.6737
 3175TIP3   OH231083   6.869   3.800   2.096 -0.1698  0.4883 -0.7835
 3175TIP3    H131084   6.884   3.892   2.119  1.7531  0.0806 -0.1968
 3175TIP3    H231085   6.873   3.754   2.179  1.0776 -0.3490 -1.2752
 3176TIP3   OH231086   4.349   5.580   1.909  0.0029 -0.4667  0.3039
 3176TIP3    H131087   4.419   5.619   1.856 -0.7254 -0.1635 -0.4595
 3176TIP3    H231088   4.380   5.587   1.999  0.4936  0.6408  0.0658
 3177TIP3   OH231089   4.023   1.058   7.961 -0.2124 -0.2694 -0.2440
 3177TIP3    H131090   3.998   1.009   8.040  2.4768  1.7415  2.0826
 3177TIP3    H231091   4.114   1.032   7.945  0.1561  1.3824 -1.0015
 3178TIP3   OH231092   0.519   6.260   0.799 -0.3220  0.2275  0.3794
 3178TIP3    H131093   0.596   6.242   0.854 -0.7584 -0.0564  0.9148
 3178TIP3    H231094   0.548   6.327   0.737  0.3641  0.1003  0.5561
 3179TIP3   OH231095   4.977   0.180   7.926 -0.4908  1.1238 -0.0475
 3179TIP3    H131096   5.037   0.123   7.974 -1.3236  1.9806  2.1486
 3179TIP3    H231097   4.993   0.267   7.963 -3.4222  1.2903  1.0563
 3180TIP3   OH231098   2.432   4.505   2.472  0.2600 -0.4478 -0.5231
 3180TIP3    H131099   2.357   4.445   2.475 -0.0303 -0.1859 -1.8981
 3180TIP3    H231100   2.480   4.478   2.393  2.3521 -1.4448  1.0015
 3181TIP3   OH231101   5.670   2.992   6.368  0.4692 -0.0726  0.2880
 3181TIP3    H131102   5.656   2.902   6.340 -0.3503 -0.1862  1.0277
 3181TIP3    H231103   5.598   3.041   6.327  0.8888  0.2474 -0.0783
 3182TIP3   OH231104   6.080   2.068   1.329  0.6274 -0.1530 -0.1827
 3182TIP3    H131105   6.013   2.131   1.304  1.3473  1.5309  1.8494
 3182TIP3    H231106   6.031   1.990   1.355 -0.7360  1.4049  2.3150
 3183TIP3   OH231107   5.790   4.942   6.627  0.1312  0.5964 -0.1972
 3183TIP3    H131108   5.875   4.921   6.589  0.0031  0.6684 -0.5295
 3183TIP3    H231109   5.772   4.870   6.688  0.4421  0.5967 -0.1058
 3184TIP3   OH231110   5.295   1.327   7.678 -0.2544 -0.9658 -0.5385
 3184TIP3    H131111   5.295   1.296   7.588 -1.8767 -0.2167 -0.8249
 3184TIP3    H231112   5.228   1.273   7.721  0.9571 -1.7701  0.4084
 3185TIP3   OH231113   6.291   1.505   7.684  0.3047  0.2184 -0.7090
 3185TIP3    H131114   6.338   1.540   7.609  2.4870  0.6781  0.7635
 3185TIP3    H231115   6.304   1.410   7.679  0.9942  0.2989 -0.6012
 3186TIP3   OH231116   4.946   5.022   0.362  0.4281 -0.0884  0.4466
 3186TIP3    H131117   4.876   5.065   0.411 -0.8804  0.5131 -1.8248
 3186TIP3    H231118   5.009   4.996   0.429 -2.1468 -1.0667  2.6753
 3187TIP3   OH231119   2.472   5.434   8.298  0.3137 -0.9525 -0.4507
 3187TIP3    H131120   2.402   5.380   8.335 -0.4991 -1.4884 -2.5908
 3187TIP3    H231121   2.458   5.521   8.335  0.6117 -1.8019  1.7648
 3188TIP3   OH231122   1.077   5.629   7.185 -0.1125 -0.1163 -0.0289
 3188TIP3    H131123   1.051   5.549   7.231 -0.4403 -0.3000 -0.5216
 3188TIP3    H231124   1.013   5.695   7.212 -0.5420 -0.3249 -0.5085
 3189TIP3   OH231125   2.783   2.589   7.637 -0.3210 -0.0688 -0.5895
 3189TIP3    H131126   2.741   2.598   7.722 -0.5637  0.3391 -0.7496
 3189TIP3    H231127   2.787   2.494   7.622 -0.2937 -0.1410 -0.1354
 3190TIP3   OH231128   0.342   2.440   2.420  0.7643  0.4073 -0.4129
 3190TIP3    H131129   0.363   2.424   2.512 -1.3856  1.5045  0.3436
 3190TIP3    H231130   0.378   2.527   2.402 -0.4211  1.0122  0.0041
 3191TIP3   OH231131   6.079   4.117   7.939  0.2091 -0.6337  0.0831
 3191TIP3    H131132   5.997   4.091   7.897 -0.9526 -0.0619  1.9027
 3191TIP3    H231133   6.054   4.143   8.027  1.8060  3.0637 -0.3727
 3192TIP3   OH231134   0.878   1.804   1.025  0.4076  0.3161 -0.0513
 3192TIP3    H131135   0.853   1.845   0.942  0.9445  0.4605 -0.1435
 3192TIP3    H231136   0.845   1.715   1.019 -0.2672  0.5567 -0.0832
 3193TIP3   OH231137   3.859   5.797   8.335 -0.0434  0.0522  0.0580
 3193TIP3    H131138   3.775   5.753   8.319 -0.1690 -0.1958  1.3243
 3193TIP3    H231139   3.841   5.890   8.318 -0.2652 -0.1414 -0.8003
 3194TIP3   OH231140   0.191   1.831   0.956  0.2847  0.5352 -0.2453
 3194TIP3    H131141   0.176   1.862   0.867  0.3211  1.8169  0.1718
 3194TIP3    H231142   0.108   1.791   0.981 -0.0641  1.0699 -0.5118
 3195TIP3   OH231143   5.438   2.370   6.865  0.1516 -0.1398  0.0241
 3195TIP3    H131144   5.529   2.387   6.842 -0.1561  0.6011 -0.7205
 3195TIP3    H231145   5.391   2.377   6.781 -0.2392 -3.3019 -0.1422
 3196TIP3   OH231146   4.024   4.581   0.995 -0.5010 -0.2589  0.5820
 3196TIP3    H131147   3.949   4.530   1.024 -1.0475 -0.5333 -1.2028
 3196TIP3    H231148   4.033   4.560   0.902  0.3357  1.5756  0.2026
 3197TIP3   OH231149   5.480   2.679   7.598  0.1546 -0.4168  0.6005
 3197TIP3    H131150   5.470   2.616   7.526 -1.1013 -0.0587  0.4324
 3197TIP3    H231151   5.498   2.763   7.555 -0.3562 -0.2485  0.7049
 3198TIP3   OH231152   5.559   4.607   0.518  0.2118 -0.2813  0.3773
 3198TIP3    H131153   5.641   4.558   0.528  0.7033  0.2071 -1.0457
 3198TIP3    H231154   5.556   4.631   0.425 -0.2699  1.9105  0.9013
 3199TIP3   OH231155   5.484   3.644   0.899 -0.0279 -0.1270  0.3552
 3199TIP3    H131156   5.504   3.591   0.822  1.0331  0.8049 -0.0193
 3199TIP3    H231157   5.557   3.704   0.908  1.4258 -2.0836  3.7954
 3200TIP3   OH231158   2.538   3.829   0.361 -0.1083 -0.2501 -1.2144
 3200TIP3    H131159   2.631   3.813   0.351 -0.2015 -0.0516 -2.7057
 3200TIP3    H231160   2.525   3.917   0.325 -0.3512  1.2778  2.2311
 3201TIP3   OH231161   6.512   2.506   0.684  0.2436  0.2597  0.3713
 3201TIP3    H131162   6.523   2.550   0.768 -2.7194 -0.1713  1.1147
 3201TIP3    H231163   6.578   2.437   0.683  0.8056  0.7411  1.9936
 3202TIP3   OH231164   6.456   2.036   0.219 -0.0773 -0.6243  0.6558
 3202TIP3    H131165   6.436   1.966   0.281 -1.2623  0.8360  2.0142
 3202TIP3    H231166   6.397   2.107   0.243  0.1614  0.3973 -1.5124
 3203TIP3   OH231167   1.899   5.086   1.610  0.1865 -0.1446  0.7214
 3203TIP3    H131168   1.868   5.048   1.692 -0.3450 -1.6466 -0.1328
 3203TIP3    H231169   1.972   5.030   1.584  0.3498  0.3171  0.1658
 3204TIP3   OH231170   2.978   5.597   6.326 -0.0429 -0.1980 -0.1308
 3204TIP3    H131171   2.941   5.620   6.240 -0.7108 -2.7576 -0.6200
 3204TIP3    H231172   2.924   5.523   6.356  1.4405 -0.6535  1.5745
 3205TIP3   OH231173   0.314   4.567   2.566 -0.6499 -0.1318  0.3084
 3205TIP3    H131174   0.407   4.563   2.587 -0.1128 -0.7787 -1.8377
 3205TIP3    H231175   0.285   4.652   2.597  1.0591  0.7281 -0.3200
 3206TIP3   OH231176   4.209   3.539   8.595 -0.7896  0.4919  0.0485
 3206TIP3    H131177   4.223   3.606   8.528 -0.6587  1.2912  0.8535
 3206TIP3    H231178   4.193   3.588   8.675 -2.5085 -0.4349  0.3164
 3207TIP3   OH231179   0.179   4.048   7.763 -0.0679  0.0161  0.1398
 3207TIP3    H131180   0.156   4.137   7.738  1.2415  0.1850 -0.5093
 3207TIP3    H231181   0.154   4.042   7.855  0.3163  1.2293  0.3379
 3208TIP3   OH231182   2.499   2.143   2.196  0.0036 -0.5542  0.2352
 3208TIP3    H131183   2.457   2.170   2.278 -0.8276  0.6020 -0.5530
 3208TIP3    H231184   2.531   2.054   2.214  2.4094  0.6721  2.7772
 3209TIP3   OH231185   3.747   2.075   8.535  0.8079  0.0947  0.1407
 3209TIP3    H131186   3.803   2.149   8.558 -1.0558  1.6788 -0.0843
 3209TIP3    H231187   3.728   2.087   8.442 -0.8069  0.3204  0.4614
 3210TIP3   OH231188   4.707   5.121   1.575  0.2080 -0.2170 -0.1219
 3210TIP3    H131189   4.646   5.161   1.512 -0.8392  0.3639  1.1948
 3210TIP3    H231190   4.650   5.070   1.633  1.2443 -1.4299 -0.1428
 3211TIP3   OH231191   4.250   6.601   7.696  0.0797 -0.4011  0.0123
 3211TIP3    H131192   4.285   6.643   7.775  0.8142  1.1500 -1.0952
 3211TIP3    H231193   4.176   6.655   7.671 -0.4097 -1.1314 -0.1422
 3212TIP3   OH231194   4.153   1.717   7.787 -0.1401 -0.1636  0.4696
 3212TIP3    H131195   4.200   1.635   7.773 -1.5514 -0.8443 -0.5745
 3212TIP3    H231196   4.148   1.726   7.882  2.1526  0.0049  0.6089
 3213TIP3   OH231197   6.417   0.491   8.085 -0.3482  0.0517  0.0631
 3213TIP3    H131198   6.368   0.435   8.023 -1.5078  1.9270 -0.8002
 3213TIP3    H231199   6.507   0.457   8.081  0.0844  1.1489 -4.1141
 3214TIP3   OH231200   2.862   0.218   0.971  0.2911  0.7102 -0.2627
 3214TIP3    H131201   2.938   0.162   0.986  0.4923  1.6394  2.7313
 3214TIP3    H231202   2.787   0.159   0.978  0.6235  0.1688 -1.0933
 3215TIP3   OH231203   1.791   2.238   1.479  0.1483 -0.2499  0.1805
 3215TIP3    H131204   1.790   2.248   1.384  1.1954 -2.0152 -0.0516
 3215TIP3    H231205   1.719   2.294   1.509 -1.2780 -0.9028 -1.7842
 3216TIP3   OH231206   0.086   4.740   1.033 -0.1984 -0.6233 -0.4436
 3216TIP3    H131207   0.137   4.721   0.954 -0.2258 -2.4493 -0.0763
 3216TIP3    H231208  -0.003   4.755   1.001  0.5743  3.7087 -1.2143
 3217TIP3   OH231209   3.953   0.263   6.564 -0.0809 -0.4413 -0.7192
 3217TIP3    H131210   3.935   0.170   6.547 -0.5467 -0.6085  0.5475
 3217TIP3    H231211   4.015   0.288   6.496  1.3751 -2.1345 -0.1038
 3218TIP3   OH231212   0.767   1.834   7.958  0.2853  0.2427  0.9219
 3218TIP3    H131213   0.798   1.745   7.976  1.0647  0.5133  0.9609
 3218TIP3    H231214   0.771   1.842   7.863  0.7109  0.4063  0.9517
 3219TIP3   OH231215   0.747   3.469   7.176  0.4740  0.6964  0.0361
 3219TIP3    H131216   0.788   3.403   7.233  0.1720  1.3658  1.0591
 3219TIP3    H231217   0.766   3.439   7.087  1.1941 -0.2381  0.4842
 3220TIP3   OH231218   0.249   0.448   1.667 -0.6706 -0.1966 -0.4021
 3220TIP3    H131219   0.199   0.527   1.690 -2.3002 -1.8751  2.3569
 3220TIP3    H231220   0.314   0.440   1.736  0.3310 -0.6098 -1.3753
 3221TIP3   OH231221   6.354   1.054   0.003  0.0289 -0.1651 -0.1528
 3221TIP3    H131222   6.446   1.048   0.028 -0.3979  0.7839  1.8733
 3221TIP3    H231223   6.326   0.964  -0.011  1.2875 -0.4469 -0.9840
 3222TIP3   OH231224   0.716   1.219   1.701 -0.2968  0.2980  0.1460
 3222TIP3    H131225   0.631   1.208   1.658  0.4368 -1.0194 -1.0570
 3222TIP3    H231226   0.770   1.262   1.634  0.4425 -0.4156  0.2744
 3223TIP3   OH231227   1.225   3.093   0.793  0.1502 -0.3399 -0.1086
 3223TIP3    H131228   1.313   3.114   0.760  0.1657 -1.7664 -1.0565
 3223TIP3    H231229   1.171   3.166   0.764  0.8972  0.2438 -0.0712
 3224TIP3   OH231230   6.686   3.263   0.198  0.2737  0.0153  0.5204
 3224TIP3    H131231   6.711   3.271   0.106 -1.4615  0.1754  0.0128
 3224TIP3    H231232   6.734   3.332   0.243  0.1112  0.8096 -0.5068
 3225TIP3   OH231233   3.996   5.903   6.599 -0.0202 -0.2369 -0.6396
 3225TIP3    H131234   4.057   5.835   6.626 -0.1962  0.0856  0.6444
 3225TIP3    H231235   3.929   5.904   6.668 -1.7611 -0.9062 -2.2496
 3226TIP3   OH231236   3.252   2.898   1.833  0.0224  0.0208 -0.9814
 3226TIP3    H131237   3.288   2.911   1.921  1.9346 -3.1591 -1.1071
 3226TIP3    H231238   3.329   2.897   1.776 -0.9848 -0.0409 -2.3946
 3227TIP3   OH231239   5.970   2.916   0.603 -0.4712 -0.7169 -0.3184
 3227TIP3    H131240   6.037   2.954   0.660 -2.2608  1.0988  0.6776
 3227TIP3    H231241   6.018   2.852   0.550  1.9452  0.1525  0.6704
 3228TIP3   OH231242   6.585   6.491   1.559 -0.3288  0.0840 -0.0410
 3228TIP3    H131243   6.529   6.467   1.485  1.4023  1.0270 -1.7455
 3228TIP3    H231244   6.604   6.584   1.545  0.7122  0.0740  1.1354
 3229TIP3   OH231245   4.077   4.941   1.422  0.5868  0.7667  0.0074
 3229TIP3    H131246   4.046   4.888   1.349  0.7219 -1.0208  1.2038
 3229TIP3    H231247   4.169   4.959   1.402  0.2946  1.3980 -0.8563
 3230TIP3   OH231248   0.645   0.179   7.595  0.2574  0.6804 -0.7319
 3230TIP3    H131249   0.685   0.264   7.576 -0.3672  0.9115 -1.0552
 3230TIP3    H231250   0.653   0.130   7.513  1.9127 -0.1203 -0.1296
 3231TIP3   OH231251   0.193   5.460   0.470  0.3838 -0.1561  0.0848
 3231TIP3    H131252   0.249   5.511   0.413  1.2678  0.4156  1.4155
 3231TIP3    H231253   0.123   5.520   0.496  0.2512 -0.2718  0.0025
 3232TIP3   OH231254   0.073   0.221   0.939 -0.1702 -0.0729  0.2136
 3232TIP3    H131255   0.152   0.262   0.905 -1.5874  1.0257 -1.9745
 3232TIP3    H231256   0.074   0.132   0.904  0.1076 -0.0833  0.2498
 3233TIP3   OH231257   4.074   1.596   8.066 -0.0517 -0.1823  0.2412
 3233TIP3    H131258   4.022   1.546   8.004 -0.5324  0.9928 -0.3323
 3233TIP3    H231259   4.030   1.583   8.150 -0.8138  0.1458 -0.0939
 3234TIP3   OH231260   2.261   0.092   7.953 -0.8767 -0.0115 -0.6843
 3234TIP3    H131261   2.187   0.047   7.913  0.2410 -2.7326  0.0880
 3234TIP3    H231262   2.333   0.079   7.891 -0.7294  1.5516 -0.8649
 3235TIP3   OH231263   4.367   4.485   2.696  0.0316 -0.5856 -0.3741
 3235TIP3    H131264   4.463   4.479   2.697  0.2013  1.3670 -0.7915
 3235TIP3    H231265   4.343   4.467   2.605  0.2793  1.5772 -0.9204
 3236TIP3   OH231266   5.224   2.197   1.256 -0.5499 -0.0857 -0.0325
 3236TIP3    H131267   5.265   2.250   1.324 -0.8065 -0.8788  0.7668
 3236TIP3    H231268   5.256   2.234   1.174  1.7390 -0.6233  0.5289
 3237TIP3   OH231269   3.395   4.055   7.054  0.6485 -0.6090 -0.5542
 3237TIP3    H131270   3.424   4.019   7.137 -1.4763 -1.4040 -0.1135
 3237TIP3    H231271   3.374   3.979   7.000 -0.9087 -0.0985 -0.7128
 3238TIP3   OH231272   0.866   2.802   7.574  0.4831 -0.0459  0.0555
 3238TIP3    H131273   0.925   2.827   7.645  0.9355 -0.4433 -0.1761
 3238TIP3    H231274   0.781   2.839   7.599  0.4969 -0.6702  1.0759
 3239TIP3   OH231275   6.819   4.208   7.113  0.0950  0.8360  0.3162
 3239TIP3    H131276   6.860   4.279   7.064  3.1394 -0.6932  0.4107
 3239TIP3    H231277   6.788   4.148   7.046  0.1806  0.8610  0.2545
 3240TIP3   OH231278   6.463   2.860   0.783 -0.0510 -0.4062 -0.1263
 3240TIP3    H131279   6.512   2.932   0.744 -1.2394  1.9142  2.3828
 3240TIP3    H231280   6.528   2.813   0.836  0.4419 -0.4003 -0.7062
 3241TIP3   OH231281   4.638   4.406   7.396  0.2605  0.4106 -0.3880
 3241TIP3    H131282   4.676   4.318   7.406  0.2787  0.3330 -1.0984
 3241TIP3    H231283   4.561   4.405   7.453 -1.5323 -1.1391 -2.6577
 3242TIP3   OH231284   6.454   4.424   8.396  0.5878 -0.6842 -0.0447
 3242TIP3    H131285   6.431   4.495   8.455  0.3241  0.8183 -1.8729
 3242TIP3    H231286   6.370   4.385   8.372  0.5734 -0.3446 -0.5527
 3243TIP3   OH231287   5.575   0.958   0.689  0.3394 -0.6039 -0.4653
 3243TIP3    H131288   5.568   1.054   0.690 -0.4419 -0.6583 -0.3008
 3243TIP3    H231289   5.589   0.936   0.597  1.8143 -0.2642 -0.3604
 3244TIP3   OH231290   6.513   4.330   7.519 -0.5934  0.4245 -0.4099
 3244TIP3    H131291   6.493   4.241   7.547 -1.1601  0.7240  0.1594
 3244TIP3    H231292   6.430   4.377   7.524  0.1229  1.6242  1.7250
 3245TIP3   OH231293   5.719   3.474   0.763 -0.0173  0.7715  0.2203
 3245TIP3    H131294   5.739   3.381   0.751 -0.4532  0.4706  1.5966
 3245TIP3    H231295   5.675   3.499   0.682 -2.5775 -1.0322  0.9093
 3246TIP3   OH231296   0.121   5.205   1.929  0.1500  0.2252 -0.5422
 3246TIP3    H131297   0.092   5.120   1.960  0.3946  0.1945 -0.3932
 3246TIP3    H231298   0.094   5.266   1.998  0.4313  0.1967 -0.4030
 3247TIP3   OH231299   0.371   4.244   0.996  0.1578  0.4373  0.3278
 3247TIP3    H131300   0.457   4.265   1.030  1.6514 -3.0668 -0.8180
 3247TIP3    H231301   0.344   4.166   1.045 -0.4317 -0.9785 -2.0673
 3248TIP3   OH231302   4.001   5.542   0.590 -0.1079 -0.0201 -0.5874
 3248TIP3    H131303   3.939   5.546   0.663 -0.9686 -0.1917 -1.2862
 3248TIP3    H231304   4.084   5.570   0.627 -0.7035  0.6522  0.2829
 3249TIP3   OH231305   0.265   1.779   2.246  1.2102 -0.1364 -0.1566
 3249TIP3    H131306   0.312   1.707   2.288  2.0490  0.1127 -0.6439
 3249TIP3    H231307   0.269   1.759   2.152 -2.2103 -1.6435 -0.1136
 3250TIP3   OH231308   4.536   5.007   0.723  0.5883  0.1221 -0.3302
 3250TIP3    H131309   4.567   4.928   0.767 -0.1128 -0.0706 -0.1759
 3250TIP3    H231310   4.442   5.007   0.736  0.5281  0.7651 -0.6956
 3251TIP3   OH231311   5.883   1.720   0.972  0.2104  0.2282 -0.1290
 3251TIP3    H131312   5.899   1.739   1.065 -2.8498 -1.2751  0.8374
 3251TIP3    H231313   5.877   1.806   0.931 -0.3747  1.0061  1.4973
 3252TIP3   OH231314   1.248   3.996   7.550  0.5030 -0.4649  0.3753
 3252TIP3    H131315   1.236   4.090   7.563  0.4132 -0.5902  1.2311
 3252TIP3    H231316   1.195   3.977   7.472 -0.9369 -0.1149  1.2289
 3253TIP3   OH231317   4.446   5.695   1.143 -0.1747 -0.9492  0.1765
 3253TIP3    H131318   4.428   5.789   1.145 -1.6829 -1.2216  0.6193
 3253TIP3    H231319   4.386   5.658   1.207 -1.7882 -2.5471 -2.1097
 3254TIP3   OH231320   1.853   2.495   8.194  0.0230  0.5305 -0.5552
 3254TIP3    H131321   1.778   2.555   8.196  0.0925  0.6080 -0.1830
 3254TIP3    H231322   1.849   2.454   8.108 -1.6144 -0.9456  0.1665
 3255TIP3   OH231323   4.758   3.763   8.203 -0.2090 -0.2456  0.2013
 3255TIP3    H131324   4.689   3.702   8.227 -1.4275  0.9215 -0.1753
 3255TIP3    H231325   4.728   3.800   8.119  0.2359  1.2008  0.6565
 3256TIP3   OH231326   2.466   2.137   8.014 -0.1114 -0.0307 -1.0650
 3256TIP3    H131327   2.521   2.122   7.937 -0.7960 -0.6771 -1.4413
 3256TIP3    H231328   2.482   2.229   8.037  0.1824  0.1396 -1.9113
 3257TIP3   OH231329   4.606   3.791   6.322  0.3393  0.2520 -0.5373
 3257TIP3    H131330   4.626   3.875   6.363 -0.4306  0.0541  0.2922
 3257TIP3    H231331   4.688   3.764   6.281  0.4241  1.7142 -1.4178
 3258TIP3   OH231332   5.515   1.760   7.179  0.3603  0.0098 -0.0457
 3258TIP3    H131333   5.593   1.762   7.124  0.5980 -0.2855  0.2772
 3258TIP3    H231334   5.527   1.831   7.242 -0.0196  0.4974 -0.5148
 3259TIP3   OH231335   1.235   1.906   6.616  0.1981  0.4024  0.2702
 3259TIP3    H131336   1.312   1.865   6.655  0.6974  0.3487 -0.7371
 3259TIP3    H231337   1.233   1.994   6.655  0.0823  0.0094  1.1789
 3260TIP3   OH231338   0.446   5.052   0.795 -0.0342 -0.1916  0.1935
 3260TIP3    H131339   0.414   5.136   0.828 -0.2349  0.9994 -2.7689
 3260TIP3    H231340   0.536   5.045   0.829 -0.2742  0.8488  1.0800
 3261TIP3   OH231341   4.829   6.433   1.106  0.3122 -0.5218  0.0063
 3261TIP3    H131342   4.761   6.444   1.040  0.0497 -0.6394  0.2593
 3261TIP3    H231343   4.868   6.520   1.115 -1.9621  0.3742  2.2326
 3262TIP3   OH231344   6.385   6.728   6.530 -0.2382  0.0058 -0.2117
 3262TIP3    H131345   6.365   6.820   6.548  0.2755  0.2250 -0.7287
 3262TIP3    H231346   6.307   6.680   6.559 -1.6242  0.8438 -2.3100
 3263TIP3   OH231347   4.082   2.786   0.805  0.2429  0.2857  0.3620
 3263TIP3    H131348   4.014   2.829   0.753  0.2950 -0.9431 -0.7531
 3263TIP3    H231349   4.163   2.803   0.757  0.4788  0.2272  0.7394
 3264TIP3   OH231350   0.597   0.664   7.986  0.2042  0.0382 -0.0245
 3264TIP3    H131351   0.585   0.751   7.948 -0.7360 -0.5385 -1.1038
 3264TIP3    H231352   0.611   0.681   8.079 -0.7600  1.3023 -0.0775
 3265TIP3   OH231353   5.077   6.231   1.069  0.0333 -0.2416  0.4344
 3265TIP3    H131354   4.981   6.239   1.070 -0.0172 -0.6634 -0.1807
 3265TIP3    H231355   5.105   6.283   0.994  0.3836  0.7153  1.2175
 3266TIP3   OH231356   4.058   6.577   7.960 -0.2732 -0.2943 -0.7383
 3266TIP3    H131357   3.981   6.537   7.920 -0.9251 -1.8112  1.7961
 3266TIP3    H231358   4.116   6.503   7.979  1.7916  0.7966 -2.4193
 3267TIP3   OH231359   5.412   2.090   1.061  0.0889  0.4967  0.0403
 3267TIP3    H131360   5.420   2.131   1.147 -1.7758 -1.5470  1.3176
 3267TIP3    H231361   5.468   2.013   1.066 -2.3461 -1.3786  0.7189
 3268TIP3   OH231362   5.905   0.838   0.625 -0.7587 -0.3452  0.1373
 3268TIP3    H131363   5.840   0.802   0.565  0.3134 -0.4342 -1.0337
 3268TIP3    H231364   5.857   0.857   0.705 -1.7950 -2.2874  0.0191
 3269TIP3   OH231365   1.837   4.363   0.852  0.0384 -0.5502  0.3018
 3269TIP3    H131366   1.921   4.407   0.837  0.4606 -0.8817  1.5636
 3269TIP3    H231367   1.788   4.424   0.908 -0.6597 -0.2668 -0.5936
 3270TIP3   OH231368   6.838   1.939   7.937 -0.0050  0.1875  0.1437
 3270TIP3    H131369   6.795   2.017   7.973 -2.6604 -1.5797  1.0979
 3270TIP3    H231370   6.769   1.894   7.889  2.2952  0.0666 -3.4188
 3271TIP3   OH231371   4.452   2.359   0.297  0.6468 -0.2079 -0.3400
 3271TIP3    H131372   4.424   2.419   0.227 -4.1184 -0.8023  0.6721
 3271TIP3    H231373   4.447   2.412   0.377 -0.6882 -1.1465  0.2260
 3272TIP3   OH231374   0.595   1.207   7.967 -0.1121 -0.3127  0.1504
 3272TIP3    H131375   0.641   1.288   7.947 -0.1977  0.0819  1.4531
 3272TIP3    H231376   0.509   1.217   7.926 -0.4154  0.6326  0.9676
 3273TIP3   OH231377   4.801   1.037   0.036  0.4628 -0.0049  0.6023
 3273TIP3    H131378   4.774   0.989   0.114 -1.2654 -0.8087 -0.4274
 3273TIP3    H231379   4.759   1.123   0.045  0.7886  0.1310  0.8460
 3274TIP3   OH231380   1.480   1.939   0.551 -0.4753  0.1720  0.1706
 3274TIP3    H131381   1.424   2.014   0.531 -2.4599 -0.5958  2.3760
 3274TIP3    H231382   1.463   1.877   0.481 -1.4543  0.4629  0.1289
 3275TIP3   OH231383   6.866   2.092   1.989  0.6067  0.3744  0.1836
 3275TIP3    H131384   6.934   2.086   2.057 -1.2079 -1.3977  1.9767
 3275TIP3    H231385   6.830   2.004   1.984 -1.4304  1.2125 -0.8365
 3276TIP3   OH231386   5.857   4.410   1.772  0.3095 -0.0922  0.2032
 3276TIP3    H131387   5.878   4.318   1.785  0.6603 -0.3708 -1.8955
 3276TIP3    H231388   5.833   4.416   1.679 -3.5472  1.2424  1.1195
 3277TIP3   OH231389   4.076   3.429   0.755 -0.3060 -0.3102  0.2462
 3277TIP3    H131390   4.171   3.418   0.750 -0.5000 -1.7240 -0.8290
 3277TIP3    H231391   4.056   3.424   0.849  0.4577 -2.2102  0.3463
 3278TIP3   OH231392   5.467   5.855   2.040 -0.4462 -0.0433  0.1464
 3278TIP3    H131393   5.478   5.853   2.135 -0.1785  0.1263  0.1202
 3278TIP3    H231394   5.384   5.810   2.024 -0.3492 -0.3274  0.4369
 3279TIP3   OH231395   0.911   2.442   7.289 -0.0638 -0.5033  0.1449
 3279TIP3    H131396   0.946   2.494   7.218  0.4948 -0.9063  0.1164
 3279TIP3    H231397   0.980   2.378   7.308 -0.6487 -1.0951  0.3108
 3280TIP3   OH231398   5.538   0.576   8.393  0.3301  0.1167  0.3735
 3280TIP3    H131399   5.571   0.635   8.461 -1.2199  0.6535  0.6985
 3280TIP3    H231400   5.553   0.624   8.311  0.6064  0.2180  0.4796
 3281TIP3   OH231401   2.665   4.669   0.821 -0.1472  0.2178 -0.0750
 3281TIP3    H131402   2.727   4.729   0.861 -0.2567 -0.3869  1.0322
 3281TIP3    H231403   2.626   4.719   0.749 -0.1371  1.4157  0.7294
 3282TIP3   OH231404   6.423   0.107   0.774 -0.0216 -0.8850 -0.0769
 3282TIP3    H131405   6.487   0.115   0.845 -1.4649 -1.6535  1.3845
 3282TIP3    H231406   6.354   0.169   0.797 -1.1838 -2.1586 -0.0188
 3283TIP3   OH231407   6.136   4.137   7.585 -0.1654 -0.3703 -0.0731
 3283TIP3    H131408   6.158   4.101   7.671  0.1579  0.1063  0.0419
 3283TIP3    H231409   6.095   4.063   7.539  1.7418 -1.3324 -0.3368
 3284TIP3   OH231410   2.604   3.647   8.319  0.9146  0.0949 -0.2866
 3284TIP3    H131411   2.677   3.708   8.308  2.2812 -1.8683 -3.5577
 3284TIP3    H231412   2.586   3.615   8.230 -0.6610 -3.1530  1.0360
 3285TIP3   OH231413   3.548   5.998   7.056  0.5518  0.2433 -0.1918
 3285TIP3    H131414   3.628   5.946   7.070  0.6516  0.2806 -0.6258
 3285TIP3    H231415   3.568   6.053   6.980 -0.2964 -0.5764 -1.0297
 3286TIP3   OH231416   2.223   6.753   8.281 -0.2240 -0.0238  0.1918
 3286TIP3    H131417   2.257   6.706   8.357  0.3056 -1.8351 -1.1073
 3286TIP3    H231418   2.170   6.688   8.234 -1.7418  1.4583 -0.2607
 3287TIP3   OH231419   1.330   6.230   1.494  0.1235  0.5051  0.1471
 3287TIP3    H131420   1.373   6.302   1.448 -0.1567  0.7569  0.2727
 3287TIP3    H231421   1.325   6.160   1.429  0.7680  0.4514  0.1492
 3288TIP3   OH231422   4.293   4.616   0.682 -0.3006 -0.5492  0.5124
 3288TIP3    H131423   4.329   4.550   0.742  1.1019  0.8366  1.2625
 3288TIP3    H231424   4.245   4.676   0.738 -0.5966 -0.2896 -0.0132
 3289TIP3   OH231425   4.361   0.399   1.371  0.5752  0.5808  0.0412
 3289TIP3    H131426   4.370   0.306   1.394 -0.5066  0.3079 -0.5427
 3289TIP3    H231427   4.366   0.400   1.275 -1.8121  0.7780 -0.1336
 3290TIP3   OH231428   4.608   2.628   8.578  0.1186  0.1988  0.2388
 3290TIP3    H131429   4.647   2.569   8.513  0.1695  0.5612 -0.0703
 3290TIP3    H231430   4.668   2.703   8.579 -0.4329  0.6501 -0.0523
 3291TIP3   OH231431   0.243   4.868   0.829  0.5206 -0.5171  0.1943
 3291TIP3    H131432   0.324   4.901   0.789  0.6372 -2.4222 -1.2800
 3291TIP3    H231433   0.198   4.947   0.860  2.0267  0.7531 -0.6871
 3292TIP3   OH231434   4.434   0.450   7.854  0.2352 -0.3391  0.2191
 3292TIP3    H131435   4.412   0.518   7.917 -1.2853 -0.5890  0.0180
 3292TIP3    H231436   4.506   0.487   7.802 -0.6375  1.1956  0.0200
 3293TIP3   OH231437   2.967   4.696   2.410  0.1023 -0.1118 -0.5107
 3293TIP3    H131438   2.961   4.608   2.374  0.2791 -1.3188  2.1648
 3293TIP3    H231439   3.055   4.725   2.387  0.3941 -1.0425 -0.6142
 3294TIP3   OH231440   5.702   1.289   1.439  0.2291 -0.6079 -0.1049
 3294TIP3    H131441   5.743   1.336   1.367  0.4952 -0.6951 -0.0121
 3294TIP3    H231442   5.647   1.223   1.397  0.2889 -0.5792 -0.2286
 3295TIP3   OH231443   3.630   6.072   1.985 -0.4555 -0.0919  0.5348
 3295TIP3    H131444   3.671   6.045   1.903  0.6315  2.3902  0.1815
 3295TIP3    H231445   3.561   6.007   2.000 -0.3112 -0.9286 -2.0319
 3296TIP3   OH231446   5.571   3.670   7.145  0.1439 -0.0378  0.0973
 3296TIP3    H131447   5.617   3.731   7.087 -0.5485 -1.3054 -1.8977
 3296TIP3    H231448   5.639   3.636   7.202  1.4669 -0.7568 -1.7991
 3297TIP3   OH231449   3.686   2.589   7.454 -0.3129  0.3577  0.5100
 3297TIP3    H131450   3.639   2.522   7.405 -1.5791  0.3853  1.6205
 3297TIP3    H231451   3.776   2.585   7.421 -0.9262 -0.1524 -1.2181
 3298TIP3   OH231452   3.289   2.363   6.898 -0.3193 -0.4122  0.2053
 3298TIP3    H131453   3.340   2.343   6.820 -0.0266 -0.0715  0.3079
 3298TIP3    H231454   3.218   2.298   6.897 -0.2027 -0.5383 -0.2303
 3299TIP3   OH231455   1.810   6.173   1.028  0.0722 -0.5956 -0.8624
 3299TIP3    H131456   1.798   6.252   1.080 -1.8818 -1.1511 -0.3672
 3299TIP3    H231457   1.852   6.202   0.947 -1.1417  1.0511 -0.9383
 3300TIP3   OH231458   4.125   5.865   1.795 -0.1094  0.1193 -0.1709
 3300TIP3    H131459   4.131   5.956   1.766 -0.9808 -0.3803 -2.0894
 3300TIP3    H231460   4.136   5.869   1.890  0.5453  2.1365 -0.2808
 3301TIP3   OH231461   4.167   2.133   7.218 -0.0551 -0.5357 -0.2987
 3301TIP3    H131462   4.196   2.052   7.176  0.4832  0.5444 -2.1194
 3301TIP3    H231463   4.076   2.144   7.190  0.5568  0.6233 -2.0098
 3302TIP3   OH231464   1.662   2.435   1.599  0.1706  0.1451 -0.3038
 3302TIP3    H131465   1.570   2.452   1.579  0.3031  1.0401 -0.1781
 3302TIP3    H231466   1.695   2.517   1.635  0.9558 -0.2436 -0.1074
 3303TIP3   OH231467   1.631   5.045   8.572  0.0223 -0.1564  0.2464
 3303TIP3    H131468   1.548   5.088   8.593 -0.5053 -1.4698  0.9444
 3303TIP3    H231469   1.657   5.004   8.655  1.1339 -0.1587 -0.0924
 3304TIP3   OH231470   4.909   5.202   1.143 -0.1802  0.6328 -0.0599
 3304TIP3    H131471   4.910   5.253   1.224 -1.9759  0.8944 -0.1575
 3304TIP3    H231472   5.001   5.189   1.122  0.3234  1.5361  1.4080
 3305TIP3   OH231473   4.893   5.643   0.995  0.1558 -0.2699  0.0127
 3305TIP3    H131474   4.865   5.581   0.928  0.7004 -0.1228 -0.3538
 3305TIP3    H231475   4.981   5.614   1.019  0.7729  0.8766 -0.7951
 3306TIP3   OH231476   2.867   0.595   1.545  0.2354 -0.2800 -0.0207
 3306TIP3    H131477   2.894   0.582   1.454  0.0149 -1.4262  0.0578
 3306TIP3    H231478   2.948   0.591   1.595  0.2679 -0.5013 -0.0901
 3307TIP3   OH231479   5.261   3.626   8.194  0.5481 -0.0134 -0.5279
 3307TIP3    H131480   5.311   3.704   8.171 -1.4893  1.6151  0.2496
 3307TIP3    H231481   5.271   3.618   8.289 -0.8497  0.5231 -0.3117
 3308TIP3   OH231482   5.855   0.237   8.432 -0.0273 -0.2827 -0.0125
 3308TIP3    H131483   5.774   0.266   8.474  0.8258  1.2179  0.6856
 3308TIP3    H231484   5.924   0.285   8.477  1.1113 -0.2431 -1.6923
 3309TIP3   OH231485   5.838   4.737   0.260  0.1701  0.1350  0.6322
 3309TIP3    H131486   5.759   4.791   0.264  0.4232  0.7258 -1.2153
 3309TIP3    H231487   5.885   4.769   0.182  1.3334 -1.4134  0.6402
 3310TIP3   OH231488   1.384   6.462   0.747 -0.4837 -0.1538 -0.6338
 3310TIP3    H131489   1.358   6.391   0.689 -3.2377  0.2384 -0.0302
 3310TIP3    H231490   1.440   6.420   0.813 -2.2346 -1.8854 -0.1428
 3311TIP3   OH231491   1.120   1.658   1.112  0.3080 -0.0377  0.2232
 3311TIP3    H131492   1.165   1.708   1.180  3.3533  2.1488 -2.9949
 3311TIP3    H231493   1.049   1.715   1.084  0.2966 -0.0418  0.2435
 3312TIP3   OH231494   3.765   3.943   1.737 -0.0168 -0.1195 -0.1385
 3312TIP3    H131495   3.809   3.987   1.810  0.1324 -1.9218  0.9218
 3312TIP3    H231496   3.680   3.986   1.731 -0.1944 -0.1881  1.3983
 3313TIP3   OH231497   0.406   2.728   2.502  0.3344  0.2578  0.2043
 3313TIP3    H131498   0.364   2.796   2.553  0.7508 -0.7939  2.0418
 3313TIP3    H231499   0.495   2.722   2.538  0.5384 -0.7477 -0.4177
 3314TIP3   OH231500   6.025   1.850   2.426  0.3227  0.1166 -0.4383
 3314TIP3    H131501   6.052   1.759   2.418 -2.0677 -0.7891  0.6909
 3314TIP3    H231502   5.992   1.873   2.339 -3.3871 -1.7495  0.2794
 3315TIP3   OH231503   3.191   0.472   7.980  0.0451  0.5271  0.5771
 3315TIP3    H131504   3.159   0.400   8.035  0.0750  3.3833  4.7172
 3315TIP3    H231505   3.112   0.518   7.953  0.1550  0.3569 -0.0634
 3316TIP3   OH231506   4.329   3.903   2.772 -0.3717  0.1689  0.1520
 3316TIP3    H131507   4.336   3.971   2.705  1.0418 -1.4863 -1.4769
 3316TIP3    H231508   4.272   3.941   2.838  1.3803  3.4430 -0.0185
 3317TIP3   OH231509   6.649   5.422   2.437  0.0514 -0.2590 -0.0079
 3317TIP3    H131510   6.576   5.369   2.405  0.1594  0.5249 -1.6556
 3317TIP3    H231511   6.607   5.500   2.474 -0.0012 -0.4807  0.4087
 3318TIP3   OH231512   5.343   0.659   2.400 -0.3878 -0.1080 -0.8863
 3318TIP3    H131513   5.417   0.716   2.423  0.1917 -1.2349  0.1766
 3318TIP3    H231514   5.296   0.648   2.482 -2.8552  2.0457 -1.8858
 3319TIP3   OH231515   5.315   5.079   7.505 -0.0502  0.1368 -0.4176
 3319TIP3    H131516   5.230   5.108   7.472 -0.2115  1.8946  1.3583
 3319TIP3    H231517   5.298   4.992   7.541 -0.6889 -0.2205 -1.5127
 3320TIP3   OH231518   4.948   2.321   7.765  1.0786 -0.2419  0.2864
 3320TIP3    H131519   4.941   2.396   7.824  0.2039 -0.1336  0.0534
 3320TIP3    H231520   5.042   2.305   7.758  1.2668  0.7068  0.4904
 3321TIP3   OH231521   2.864   1.386   0.581 -0.9167 -0.7175  0.0643
 3321TIP3    H131522   2.890   1.310   0.528 -0.1853  0.4449 -1.2929
 3321TIP3    H231523   2.901   1.461   0.535 -2.0868  0.5240  1.0874
 3322TIP3   OH231524   6.868   4.557   7.438  0.2347 -0.5281  1.0842
 3322TIP3    H131525   6.962   4.548   7.450  0.5074  1.4668  0.8117
 3322TIP3    H231526   6.847   4.643   7.475 -1.1112 -0.0221 -0.6913
 3323TIP3   OH231527   0.412   3.156   7.726  0.1662 -0.2974 -0.1166
 3323TIP3    H131528   0.365   3.118   7.651  1.2353 -0.5801 -0.6596
 3323TIP3    H231529   0.486   3.203   7.687  0.4977 -0.0856  0.7385
 3324TIP3   OH231530   3.516   6.519   1.248  0.3889  0.1605  0.0205
 3324TIP3    H131531   3.517   6.607   1.209 -2.6540  0.3623  0.1882
 3324TIP3    H231532   3.580   6.524   1.319  2.0761  1.4375 -1.4989
 3325TIP3   OH231533   0.272   6.307   1.064  0.4073  0.1807  0.4796
 3325TIP3    H131534   0.232   6.345   0.986  1.2473  0.8294  0.3596
 3325TIP3    H231535   0.225   6.225   1.077  0.1827  0.1176 -0.6454
 3326TIP3   OH231536   1.845   0.514   1.265 -0.3583 -0.6450  0.0940
 3326TIP3    H131537   1.796   0.591   1.295 -0.1828  0.0515 -1.3081
 3326TIP3    H231538   1.779   0.448   1.247 -0.4725 -1.0457  1.8530
 3327TIP3   OH231539   0.544   1.106   8.200  0.1155 -1.0735  0.1746
 3327TIP3    H131540   0.553   1.145   8.113 -0.4432 -2.2870 -0.4613
 3327TIP3    H231541   0.633   1.079   8.224  0.1549 -1.4886 -0.4082
 3328TIP3   OH231542   0.649   3.405   0.497 -0.5674 -0.1512 -0.2033
 3328TIP3    H131543   0.662   3.312   0.512  0.1554 -0.0067  0.1283
 3328TIP3    H231544   0.667   3.417   0.404 -0.3286 -0.2947 -0.1780
 3329TIP3   OH231545   4.694   5.451   0.492  0.2239 -0.1954  0.0237
 3329TIP3    H131546   4.661   5.519   0.435  1.8387 -0.0044 -0.7409
 3329TIP3    H231547   4.623   5.387   0.498 -1.3309  1.5034  0.7612
 3330TIP3   OH231548   6.133   0.538   6.896  0.0672  0.0003  0.3103
 3330TIP3    H131549   6.215   0.553   6.849 -1.2378  1.7747 -1.5567
 3330TIP3    H231550   6.121   0.443   6.893  1.3601 -0.1616 -0.6172
 3331TIP3   OH231551   0.045   6.119   1.091  0.1052  0.5600 -0.4601
 3331TIP3    H131552  -0.000   6.075   1.163  0.7651  0.9802  0.2264
 3331TIP3    H231553   0.069   6.048   1.031  1.6862 -0.1521  0.9146
 3332TIP3   OH231554   2.512   6.871   2.149 -0.7356  0.3878  0.3818
 3332TIP3    H131555   2.590   6.910   2.111 -0.0261  0.3401  1.7329
 3332TIP3    H231556   2.452   6.945   2.160 -0.1891  0.7470  1.0091
 3333TIP3   OH231557   4.248   1.253   8.086  0.4011  0.3614 -0.0188
 3333TIP3    H131558   4.220   1.232   7.997  1.0911  0.4797 -0.2700
 3333TIP3    H231559   4.271   1.168   8.124  0.5803  0.3626 -0.1224
 3334TIP3   OH231560   1.436   1.556   1.354 -0.2407  0.4849 -0.2627
 3334TIP3    H131561   1.430   1.524   1.444  1.0004  2.1972  0.4674
 3334TIP3    H231562   1.479   1.641   1.361 -3.4273  2.4610 -2.0971
 3335TIP3   OH231563   1.924   3.637   7.837  0.0566  0.0022 -0.6726
 3335TIP3    H131564   1.931   3.597   7.923 -0.8680  0.0480 -0.5656
 3335TIP3    H231565   2.014   3.658   7.813  0.2882  0.3347  0.4371
 3336TIP3   OH231566   2.468   2.945   0.092  0.2582  0.3677  0.0304
 3336TIP3    H131567   2.533   2.987   0.035 -0.5706  0.0145 -1.2208
 3336TIP3    H231568   2.394   3.006   0.093  0.0596  0.1263  0.2976
 3337TIP3   OH231569   6.148   5.114   0.373 -0.3229  0.4042 -0.3690
 3337TIP3    H131570   6.168   5.205   0.392  0.3129  0.5840 -1.7434
 3337TIP3    H231571   6.097   5.117   0.292  2.0447 -0.5412 -2.0237
 3338TIP3   OH231572   1.557   6.283   0.141 -0.6025  0.0002  0.1515
 3338TIP3    H131573   1.532   6.366   0.101 -0.5259  0.5142  1.1453
 3338TIP3    H231574   1.505   6.278   0.221  1.6455  0.6211  1.7469
 3339TIP3   OH231575   4.012   1.343   8.003 -0.4435 -0.0256  0.0407
 3339TIP3    H131576   3.981   1.278   7.940  2.4660 -0.1878 -1.3598
 3339TIP3    H231577   4.066   1.293   8.064 -1.1640  0.5495  1.1884
 3340TIP3   OH231578   2.362   5.930   8.536 -0.1311 -0.3366 -0.3055
 3340TIP3    H131579   2.363   5.847   8.488  0.2177 -1.3148  1.2864
 3340TIP3    H231580   2.292   5.919   8.600  0.5860  0.1573  0.5964
 3341TIP3   OH231581   1.523   5.916   0.783  0.2493 -0.2743 -0.0730
 3341TIP3    H131582   1.560   5.967   0.711  0.9541  0.6274  0.8919
 3341TIP3    H231583   1.546   5.965   0.862 -1.3210 -0.7288  0.7231
 3342TIP3   OH231584   6.403   6.063   8.542 -0.5277 -0.3518 -0.2427
 3342TIP3    H131585   6.412   6.148   8.497 -1.1192  0.2777  0.7818
 3342TIP3    H231586   6.309   6.056   8.560 -0.1588  0.1447  2.1985
 3343TIP3   OH231587   4.484   0.876   8.262  0.0380 -0.4667 -0.1084
 3343TIP3    H131588   4.426   0.800   8.264  0.2045 -0.6199 -0.8594
 3343TIP3    H231589   4.426   0.950   8.247 -0.2203 -0.3251  1.3738
 3344TIP3   OH231590   6.721   6.844   1.986  0.2768  0.0151 -0.0220
 3344TIP3    H131591   6.731   6.935   1.961  0.0887 -0.5610 -2.4135
 3344TIP3    H231592   6.810   6.812   1.998  0.5361 -0.2310 -2.2682
 3345TIP3   OH231593   5.996   1.115   1.312  0.4998 -0.0658 -0.1546
 3345TIP3    H131594   5.928   1.083   1.372 -0.6373 -0.2316 -1.4837
 3345TIP3    H231595   6.072   1.130   1.368 -0.6119  0.0800  1.3793
 3346TIP3   OH231596   5.539   2.374   1.851  0.0584 -0.7440  0.3609
 3346TIP3    H131597   5.532   2.323   1.932 -1.1951 -1.9638 -0.4807
 3346TIP3    H231598   5.496   2.457   1.872  2.1620  0.0825  1.7554
 3347TIP3   OH231599   0.469   0.229   1.860  0.4545 -0.8126 -0.2909
 3347TIP3    H131600   0.468   0.142   1.900  2.0618 -0.0922  1.4640
 3347TIP3    H231601   0.504   0.286   1.928 -1.9883  1.5339 -0.8347
 3348TIP3   OH231602   0.526   0.985   0.390  0.3634 -0.1979 -0.3589
 3348TIP3    H131603   0.449   1.031   0.423  0.7838  1.0277 -1.0351
 3348TIP3    H231604   0.494   0.932   0.317  0.2951  1.0303 -1.2510
 3349TIP3   OH231605   0.365   6.596   0.768  0.0514  0.1000  0.1311
 3349TIP3    H131606   0.315   6.665   0.724  1.9001  0.9108 -0.7929
 3349TIP3    H231607   0.438   6.578   0.709 -0.5580 -2.9847  0.1183
 3350TIP3   OH231608   3.401   3.090   6.014  0.3573  0.2677  0.4541
 3350TIP3    H131609   3.378   3.135   6.096  1.7232  1.6267  0.1238
 3350TIP3    H231610   3.323   3.101   5.959 -0.0032  0.6688  1.0238
 3351TIP3   OH231611   1.491   3.933   7.946 -0.0059  0.0709  0.1969
 3351TIP3    H131612   1.586   3.917   7.947  0.0311  0.2979  0.7462
 3351TIP3    H231613   1.452   3.848   7.928  0.2677 -0.2588  1.0900
 3352TIP3   OH231614   4.099   4.028   2.012 -0.0587 -0.9325 -0.0959
 3352TIP3    H131615   4.174   4.085   2.030 -0.3725 -0.2408 -0.8974
 3352TIP3    H231616   4.033   4.087   1.974 -0.9337 -1.5657  0.3959
 3353TIP3   OH231617   1.941   1.523   2.876 -0.0138  0.5366 -0.3435
 3353TIP3    H131618   1.989   1.458   2.927 -0.2368 -0.3044 -1.1774
 3353TIP3    H231619   2.002   1.595   2.866 -0.2016  1.0316  1.6870
 3354TIP3   OH231620   3.580   5.248   2.686  0.0634  0.2567 -0.0130
 3354TIP3    H131621   3.546   5.189   2.753  0.8603 -1.0074 -0.6945
 3354TIP3    H231622   3.606   5.326   2.735 -1.5309  0.3133  0.8283
 3355TIP3   OH231623   4.170   2.869   1.447  0.0285  0.5903 -0.3885
 3355TIP3    H131624   4.145   2.783   1.415  1.8927  0.6315 -2.1628
 3355TIP3    H231625   4.158   2.864   1.542  2.1433 -2.3886 -0.1583
 3356TIP3   OH231626   2.049   6.464   1.670  0.3205  0.5909 -0.1335
 3356TIP3    H131627   2.088   6.520   1.738 -0.2182  0.0647  0.6337
 3356TIP3    H231628   2.121   6.444   1.611  0.3011  2.9538 -1.0533
 3357TIP3   OH231629   1.753   0.964   2.738 -0.1182  0.4144  0.2112
 3357TIP3    H131630   1.792   1.007   2.814 -1.2112  0.4314  0.7866
 3357TIP3    H231631   1.685   1.026   2.709  0.6208  0.6350 -1.0884
 3358TIP3   OH231632   3.270   2.296   8.468 -0.1275 -0.2128  0.1843
 3358TIP3    H131633   3.220   2.338   8.539 -0.2545  0.3559 -0.2307
 3358TIP3    H231634   3.283   2.366   8.404 -0.6344 -0.9021 -0.6893
 3359TIP3   OH231635   5.853   2.621   2.515  0.6632  0.1185 -0.2912
 3359TIP3    H131636   5.887   2.638   2.427 -2.6960  3.5092 -1.2338
 3359TIP3    H231637   5.886   2.694   2.568  0.1973 -0.1812  0.4280
 3360TIP3   OH231638   3.441   3.206   1.839  0.3566 -0.4431  0.1468
 3360TIP3    H131639   3.482   3.158   1.912 -1.0623  0.2423  1.4412
 3360TIP3    H231640   3.379   3.265   1.881 -0.5657 -0.0776 -1.6435
 3361TIP3   OH231641   3.983   4.190   8.149  0.0094  0.0373  0.1729
 3361TIP3    H131642   3.951   4.210   8.238 -0.7469  0.2087 -0.1314
 3361TIP3    H231643   4.066   4.238   8.143  0.1077 -0.0356  0.8113
 3362TIP3   OH231644   1.373   0.229   2.128  0.1412 -0.0759  1.0961
 3362TIP3    H131645   1.376   0.284   2.206 -0.1570 -0.2647  1.2405
 3362TIP3    H231646   1.367   0.291   2.056  1.3944  0.1341  1.1543
 3363TIP3   OH231647   1.449   0.745   6.653 -0.1413 -0.0233 -0.0941
 3363TIP3    H131648   1.430   0.670   6.596 -0.7148 -0.4856  0.6795
 3363TIP3    H231649   1.484   0.706   6.733  0.4730  0.6028 -0.0494
 3364TIP3   OH231650   4.578   5.057   7.937 -0.1361 -0.3183  0.1415
 3364TIP3    H131651   4.510   4.998   7.902 -0.2450 -2.5895  3.7110
 3364TIP3    H231652   4.530   5.135   7.964 -1.1152 -1.1938  1.0385
 3365TIP3   OH231653   5.622   4.329   1.978  0.6159  0.6104  0.2112
 3365TIP3    H131654   5.653   4.400   1.922  0.2265 -1.3909 -2.7807
 3365TIP3    H231655   5.692   4.265   1.976 -1.6312 -2.1224 -3.1861
 3366TIP3   OH231656   2.847   1.702   1.960 -0.0669  0.3977  0.3483
 3366TIP3    H131657   2.785   1.681   2.030 -1.1925 -0.0887 -0.7553
 3366TIP3    H231658   2.879   1.790   1.982  0.2867 -0.0953  1.9326
 3367TIP3   OH231659   3.672   3.097   2.279  0.6400 -0.3005  0.1651
 3367TIP3    H131660   3.609   3.135   2.340  0.4481  0.1275 -0.2900
 3367TIP3    H231661   3.723   3.036   2.331  2.1384  1.8244  1.3262
 3368TIP3   OH231662   6.417   4.671   7.545 -0.1201  0.1209 -0.0847
 3368TIP3    H131663   6.417   4.743   7.482 -2.0306 -0.3558 -0.7050
 3368TIP3    H231664   6.324   4.654   7.561  0.2794  0.6586  3.4088
 3369TIP3   OH231665   6.030   4.897   0.930  0.5123  0.2192 -0.1849
 3369TIP3    H131666   6.092   4.825   0.943 -0.6397 -0.6771  0.5485
 3369TIP3    H231667   6.056   4.963   0.994 -0.0673 -0.7140  1.0644
 3370TIP3   OH231668   4.119   2.259   2.325  0.8252  0.0346  0.3742
 3370TIP3    H131669   4.147   2.185   2.272 -1.5842  0.0176 -1.0100
 3370TIP3    H231670   4.140   2.234   2.415  1.5461 -1.5984 -0.2237
 3371TIP3   OH231671   4.959   2.592   6.581  0.3218 -0.0683 -0.4479
 3371TIP3    H131672   5.012   2.636   6.648 -1.7506  1.8309  0.0454
 3371TIP3    H231673   4.947   2.503   6.614  1.5242  0.0561  0.3865
 3372TIP3   OH231674   0.247   5.383   7.687 -0.5030  0.0987 -0.3791
 3372TIP3    H131675   0.260   5.352   7.597 -0.6805 -0.2301 -0.2932
 3372TIP3    H231676   0.240   5.478   7.679  1.0493  0.2279 -0.5346
 3373TIP3   OH231677   4.354   0.732   0.396 -0.2936 -0.2862  0.6614
 3373TIP3    H131678   4.293   0.689   0.455  0.8133 -0.3719  1.7835
 3373TIP3    H231679   4.402   0.794   0.451  0.5078 -0.1023 -0.2169
 3374TIP3   OH231680   3.832   5.180   2.518 -0.2104 -0.7019  0.6250
 3374TIP3    H131681   3.747   5.206   2.482 -0.2656 -0.4399  0.9394
 3374TIP3    H231682   3.810   5.125   2.594 -0.1234 -3.2240 -1.0530
 3375TIP3   OH231683   4.258   4.812   0.880  0.2809  0.5334  0.6993
 3375TIP3    H131684   4.241   4.854   0.796  2.5026  1.1110  0.4600
 3375TIP3    H231685   4.278   4.885   0.939  0.1801  0.0459  1.3455
 3376TIP3   OH231686   5.989   1.142   8.195  0.4885  0.3925  0.0343
 3376TIP3    H131687   6.078   1.145   8.230  1.0552  0.5707 -1.3468
 3376TIP3    H231688   5.933   1.133   8.272  1.7503 -0.7282  0.8615
 3377TIP3   OH231689   4.849   4.458   8.387 -0.0912  0.1980 -0.3662
 3377TIP3    H131690   4.902   4.441   8.309 -0.2613  1.1323 -0.7080
 3377TIP3    H231691   4.883   4.542   8.420  0.3990 -0.4859  0.9293
 3378TIP3   OH231692   3.866   0.945   1.735  0.0713 -0.4566 -0.1998
 3378TIP3    H131693   3.950   0.899   1.741 -0.1296 -0.7840  0.1028
 3378TIP3    H231694   3.876   1.021   1.792  0.2965 -0.2826 -0.4666
 3379TIP3   OH231695   1.434   4.290   1.406  0.1243 -0.0097 -0.7248
 3379TIP3    H131696   1.449   4.201   1.438  0.8271  0.3023 -0.1488
 3379TIP3    H231697   1.339   4.297   1.398  0.1100 -1.1854 -1.9074
 3380TIP3   OH231698   0.459   5.441   8.228 -0.5388 -0.4970  0.2914
 3380TIP3    H131699   0.513   5.508   8.185  1.4773 -1.2501  1.4876
 3380TIP3    H231700   0.443   5.476   8.316  1.4119 -1.9282  1.2904
 3381TIP3   OH231701   3.244   4.094   1.831  0.2567  0.0257 -0.0409
 3381TIP3    H131702   3.276   4.179   1.862  1.3963 -0.2279 -0.4783
 3381TIP3    H231703   3.155   4.088   1.865 -0.3351  1.9771 -1.0947
 3382TIP3   OH231704   4.490   0.048   1.046 -0.1148  0.0651 -0.2996
 3382TIP3    H131705   4.428   0.115   1.074 -2.1904 -0.7075 -2.6202
 3382TIP3    H231706   4.560   0.096   1.001 -0.0240  0.8213  0.6205
 3383TIP3   OH231707   0.769   0.858   0.094  0.0775  0.6505 -0.2191
 3383TIP3    H131708   0.735   0.846   0.006  1.0356  0.6958 -0.6142
 3383TIP3    H231709   0.800   0.949   0.095 -1.9822  1.3907  0.9081
 3384TIP3   OH231710   4.756   1.593   1.375  0.6573  0.2232  0.4689
 3384TIP3    H131711   4.680   1.568   1.321 -0.2149  1.1343  1.2423
 3384TIP3    H231712   4.738   1.682   1.402  2.4919  0.8175 -0.1077
 3385TIP3   OH231713   5.397   3.774   2.735  0.5181 -0.1165  0.5789
 3385TIP3    H131714   5.350   3.692   2.745  2.1583 -1.1937 -0.1259
 3385TIP3    H231715   5.331   3.836   2.703  0.1491 -2.3682 -3.7352
 3386TIP3   OH231716   3.534   3.999   0.526 -0.4200  0.4842  0.3914
 3386TIP3    H131717   3.564   3.968   0.612 -2.1357  2.6636  1.8939
 3386TIP3    H231718   3.449   3.956   0.514 -0.4099  0.5662  0.0266
 3387TIP3   OH231719   4.476   5.448   8.258  0.5478 -0.1428 -0.2701
 3387TIP3    H131720   4.522   5.390   8.319 -0.5298 -0.7569 -0.0186
 3387TIP3    H231721   4.387   5.453   8.292 -0.3680 -1.3230 -2.3536
 3388TIP3   OH231722   6.576   6.666   8.518  1.0371  0.4240  0.8030
 3388TIP3    H131723   6.671   6.676   8.523  1.0923  0.4484 -0.1406
 3388TIP3    H231724   6.555   6.675   8.425  0.3254 -1.4056  0.7381
 3389TIP3   OH231725   0.652   5.926   7.478  0.3388 -0.2075  0.2508
 3389TIP3    H131726   0.674   6.001   7.424  0.8688 -0.3171  0.3124
 3389TIP3    H231727   0.655   5.959   7.568  2.7325 -0.7797  0.4570
 3390TIP3   OH231728   5.551   6.879   8.343  0.4132 -0.0385  0.0560
 3390TIP3    H131729   5.585   6.882   8.253 -0.2734 -0.5457 -0.2343
 3390TIP3    H231730   5.483   6.946   8.344  0.8072  0.3618  0.3742
 3391TIP3   OH231731   6.542   0.541   7.763 -0.5150 -0.2915  0.2711
 3391TIP3    H131732   6.548   0.459   7.714  0.7009 -0.7031  1.0790
 3391TIP3    H231733   6.449   0.562   7.763 -0.4827  0.5218 -3.4994
 3392TIP3   OH231734   4.947   0.066   6.761 -0.1441 -0.7376  0.5045
 3392TIP3    H131735   4.892   0.003   6.714  0.3389 -0.1709 -0.8796
 3392TIP3    H231736   4.897   0.148   6.759  0.2752 -0.4840  0.1610
 3393TIP3   OH231737   1.799   2.820   1.357  0.0075  0.7181 -0.7518
 3393TIP3    H131738   1.745   2.894   1.385  0.0825  0.1826  0.9711
 3393TIP3    H231739   1.803   2.763   1.435 -0.4417 -1.3431 -2.1472
 3394TIP3   OH231740   0.675   2.845   1.339 -0.2001  0.3416 -0.5340
 3394TIP3    H131741   0.618   2.870   1.412 -0.3121  0.4775 -0.6678
 3394TIP3    H231742   0.615   2.834   1.265 -0.1664 -0.3998 -0.4588
 3395TIP3   OH231743   1.080   1.863   7.904 -0.9084  0.4602  0.3236
 3395TIP3    H131744   0.999   1.906   7.877 -1.0155  0.1464  0.1468
 3395TIP3    H231745   1.051   1.786   7.952 -0.7132  0.1557 -0.0434
 3396TIP3   OH231746   3.971   0.384   0.779 -0.2123  0.0034 -0.3245
 3396TIP3    H131747   4.014   0.313   0.731 -0.6547 -0.2532 -0.3539
 3396TIP3    H231748   4.030   0.458   0.771  0.9261 -0.7271  0.8480
 3397TIP3   OH231749   3.862   6.763   8.342 -0.1723  0.0888 -0.9693
 3397TIP3    H131750   3.910   6.813   8.276  0.2836 -0.0286 -0.7282
 3397TIP3    H231751   3.896   6.674   8.334  0.3208  0.2002 -0.1666
 3398TIP3   OH231752   6.003   3.700   7.165 -0.2441 -0.1924 -0.5801
 3398TIP3    H131753   6.025   3.629   7.104 -1.0202  0.2015 -1.3439
 3398TIP3    H231754   5.908   3.709   7.157 -0.3617 -0.1371  0.7079
 3399TIP3   OH231755   3.353   6.521   7.909  0.1499 -0.0538 -0.0120
 3399TIP3    H131756   3.419   6.588   7.894  1.1107 -1.3085 -1.7569
 3399TIP3    H231757   3.342   6.478   7.824  0.2709 -2.6861  1.1960
 3400TIP3   OH231758   6.017   5.776   1.522 -0.0934 -0.4656  0.4731
 3400TIP3    H131759   5.987   5.861   1.491  0.7255 -0.1440  0.5485
 3400TIP3    H231760   6.007   5.718   1.446 -2.8688 -0.8992  1.0553
 3401TIP3   OH231761   3.125   2.405   0.079 -0.1805 -0.7320  0.2885
 3401TIP3    H131762   3.116   2.469   0.150 -0.8920 -0.4407 -0.0506
 3401TIP3    H231763   3.044   2.354   0.082  0.0373 -1.1019  0.0498
 3402TIP3   OH231764   3.354   1.093   0.656 -0.9430 -0.7502 -0.0353
 3402TIP3    H131765   3.299   1.145   0.714  1.7272  1.9385  0.2934
 3402TIP3    H231766   3.409   1.040   0.715  0.0597  0.1403 -0.1423
 3403TIP3   OH231767   5.145   4.136   2.756 -0.5652  0.5067 -0.2063
 3403TIP3    H131768   5.166   4.057   2.705  0.2757  1.1773 -0.9264
 3403TIP3    H231769   5.230   4.170   2.783 -0.9835  0.3982  1.3168
 3404TIP3   OH231770   6.155   1.338   0.611  0.7546 -0.4098  0.0759
 3404TIP3    H131771   6.067   1.301   0.620  0.6370 -0.4120 -0.9436
 3404TIP3    H231772   6.198   1.282   0.546  0.9929  0.4807 -0.5548
 3405TIP3   OH231773   1.416   0.313   1.240 -0.5535  0.1791 -0.0919
 3405TIP3    H131774   1.474   0.322   1.316 -0.0870  1.9429 -0.5935
 3405TIP3    H231775   1.333   0.281   1.276 -0.2126  0.5811  1.0975
 3406TIP3   OH231776   0.031   2.956   1.795  0.2883  0.4816 -0.4846
 3406TIP3    H131777   0.088   2.954   1.872 -1.3117  1.6594  0.7966
 3406TIP3    H231778   0.025   3.048   1.772 -0.4149  0.2906 -1.1106
 3407TIP3   OH231779   5.624   1.721   1.926  0.2880  0.3770  0.2605
 3407TIP3    H131780   5.611   1.666   2.003  3.0693  0.6311  1.0078
 3407TIP3    H231781   5.658   1.803   1.960 -0.7203  1.4071 -1.1001
 3408TIP3   OH231782   5.160   3.329   8.284  0.1282 -0.1931  0.3483
 3408TIP3    H131783   5.131   3.414   8.251 -1.9889 -0.6057  0.9507
 3408TIP3    H231784   5.217   3.295   8.216 -0.1000  1.1233 -0.5387
 3409TIP3   OH231785   2.828   4.372   1.594 -0.6492 -0.1421  0.4795
 3409TIP3    H131786   2.774   4.329   1.528  1.3475 -2.5783  0.2825
 3409TIP3    H231787   2.806   4.328   1.676 -0.0531 -0.1394  0.6510
 3410TIP3   OH231788   2.527   6.605   8.022 -0.5864 -0.0750 -0.4489
 3410TIP3    H131789   2.569   6.575   8.103  0.4125  0.3290 -0.8040
 3410TIP3    H231790   2.437   6.573   8.029 -0.7848  0.7427  1.2412
 3411TIP3   OH231791   1.362   4.732   2.636  0.1307  0.4123  0.1159
 3411TIP3    H131792   1.338   4.817   2.673 -0.0780  0.6224 -0.5014
 3411TIP3    H231793   1.308   4.669   2.684 -3.1629  1.0064 -2.4599
 3412TIP3   OH231794   4.025   6.821   8.118  0.1866 -0.2787 -0.5987
 3412TIP3    H131795   4.083   6.894   8.096  1.5150 -0.5817  1.5579
 3412TIP3    H231796   4.041   6.756   8.050 -0.2928  1.0332 -2.0111
 3413TIP3   OH231797   1.127   1.249   7.149  0.1362 -0.5405  0.5057
 3413TIP3    H131798   1.188   1.301   7.202 -1.6220 -0.3766  2.5229
 3413TIP3    H231799   1.183   1.202   7.087  2.1020  1.0696  0.9502
 3414TIP3   OH231800   6.502   1.204   0.235 -0.1329  0.2522 -0.0790
 3414TIP3    H131801   6.428   1.224   0.177  0.2022 -0.2272 -0.6917
 3414TIP3    H231802   6.542   1.288   0.254 -1.8088  0.7480  1.6334
 3415TIP3   OH231803   2.523   3.545   7.613  0.6294  0.0910  0.0334
 3415TIP3    H131804   2.600   3.488   7.607 -0.6524 -1.5835 -1.6873
 3415TIP3    H231805   2.460   3.508   7.551 -0.7344  2.7464 -0.3263
 3416TIP3   OH231806   2.517   0.908   1.563  0.6015 -0.7854 -0.3130
 3416TIP3    H131807   2.422   0.905   1.556  0.5341  0.4117 -0.2357
 3416TIP3    H231808   2.549   0.875   1.479  0.1311 -1.3577 -0.2730
 3417TIP3   OH231809   6.289   1.808   8.042  0.5521  0.1724 -0.7544
 3417TIP3    H131810   6.369   1.845   8.005 -0.3294  0.2322 -2.7094
 3417TIP3    H231811   6.274   1.727   7.992 -1.2467  0.8013 -1.3169
 3418TIP3   OH231812   2.291   3.436   7.454 -0.5654  0.0430 -0.3249
 3418TIP3    H131813   2.254   3.365   7.507  2.0193 -2.4940 -1.6505
 3418TIP3    H231814   2.264   3.416   7.365  0.0213  0.8764 -0.6967
 3419TIP3   OH231815   0.256   1.286   2.135  0.4387  0.1014  0.3180
 3419TIP3    H131816   0.338   1.271   2.182  0.8794  3.0733  0.6990
 3419TIP3    H231817   0.284   1.314   2.048 -0.1987  0.4245  0.2157
 3420TIP3   OH231818   6.285   0.364   7.722  0.2573 -0.0721  0.3476
 3420TIP3    H131819   6.257   0.311   7.647 -0.9207 -0.3728  0.9701
 3420TIP3    H231820   6.262   0.312   7.798  0.8102  0.5279  0.9378
 3421TIP3   OH231821   0.488   3.578   2.860  0.1642  0.5099  0.0313
 3421TIP3    H131822   0.442   3.625   2.791 -0.0549 -1.7262 -1.4641
 3421TIP3    H231823   0.422   3.567   2.929 -0.4300  0.5351 -0.5191
 3422TIP3   OH231824   5.577   3.547   2.215 -0.4069  0.0435 -0.3086
 3422TIP3    H131825   5.496   3.597   2.228 -0.6332 -0.4941  0.3448
 3422TIP3    H231826   5.622   3.551   2.299 -0.4804 -0.9407 -0.2102
 3423TIP3   OH231827   4.258   5.951   8.286  0.1657 -0.1460  0.2555
 3423TIP3    H131828   4.320   5.935   8.215  0.7330 -0.1388  0.7436
 3423TIP3    H231829   4.248   5.866   8.329 -1.2539 -0.4921 -0.6615
 3424TIP3   OH231830   1.264   1.128   7.845  0.3935 -0.0607  0.4019
 3424TIP3    H131831   1.248   1.190   7.774 -1.3499 -0.9893 -0.0771
 3424TIP3    H231832   1.333   1.071   7.812  0.6554  0.4304  0.0800
 3425TIP3   OH231833   1.225   1.814   1.308  0.1635 -0.1634 -0.0688
 3425TIP3    H131834   1.179   1.890   1.343 -2.7638 -3.2275  3.5522
 3425TIP3    H231835   1.289   1.791   1.375  1.0459 -0.9733 -1.1395
 3426TIP3   OH231836   5.153   4.484   0.280  0.0307 -0.1617  0.3058
 3426TIP3    H131837   5.180   4.531   0.201 -1.1148 -1.6932 -1.0781
 3426TIP3    H231838   5.233   4.472   0.330  0.5055  2.4215  0.3188
 3427TIP3   OH231839   4.858   5.918   1.770 -0.3436  0.3465  0.3442
 3427TIP3    H131840   4.895   5.922   1.681 -0.0729  0.7541  0.4728
 3427TIP3    H231841   4.835   6.008   1.790 -0.8255  0.1856  0.5178
 3428TIP3   OH231842   5.947   5.735   0.134 -0.1334  0.7565 -0.0202
 3428TIP3    H131843   5.994   5.734   0.051 -0.4069 -3.0978 -0.3164
 3428TIP3    H231844   6.010   5.771   0.196  1.4038  0.3730 -1.2907
 3429TIP3   OH231845   6.279   4.635   0.496 -0.4273  0.3352 -0.2589
 3429TIP3    H131846   6.301   4.575   0.568 -1.3966  0.8386  0.4892
 3429TIP3    H231847   6.211   4.589   0.447  0.2393 -0.0105 -0.8869
 3430TIP3   OH231848   6.173   1.280   2.856 -0.1108  0.5154  0.1314
 3430TIP3    H131849   6.088   1.237   2.868  0.3960 -1.1498 -1.7228
 3430TIP3    H231850   6.152   1.369   2.829 -1.2823 -0.0052 -0.7231
 3431TIP3   OH231851   0.318   3.168   1.726  0.3328 -0.5659 -0.4789
 3431TIP3    H131852   0.298   3.169   1.632  0.1472  0.9886 -0.4505
 3431TIP3    H231853   0.412   3.188   1.730  0.6084 -1.8396 -0.3704
 3432TIP3   OH231854   2.522   0.499   1.678  0.5252  0.4584 -0.0445
 3432TIP3    H131855   2.454   0.490   1.745 -0.0032  1.2179 -0.4651
 3432TIP3    H231856   2.598   0.533   1.726  0.1746  0.9259  0.1865
 3433TIP3   OH231857   1.325   4.993   0.674 -1.1703  0.1252 -0.3489
 3433TIP3    H131858   1.248   5.050   0.677 -1.5312 -0.3862  2.0644
 3433TIP3    H231859   1.289   4.905   0.662 -0.7840  0.0964 -1.4077
 3434TIP3   OH231860   6.400   4.400   0.607 -0.8789 -0.7884  0.2427
 3434TIP3    H131861   6.436   4.350   0.534  0.0480  0.0786  0.0873
 3434TIP3    H231862   6.463   4.387   0.678 -1.6245 -1.3927  0.8181
 3435TIP3   OH231863   4.492   0.274   1.951 -0.4333 -0.2463  0.9860
 3435TIP3    H131864   4.527   0.341   2.010 -0.1398  1.3615 -0.9136
 3435TIP3    H231865   4.564   0.256   1.890 -1.3769 -0.3302 -0.1307
 3436TIP3   OH231866   5.686   1.987   8.369 -0.7801 -0.0820 -0.0524
 3436TIP3    H131867   5.769   1.939   8.375 -1.0895 -0.6666 -0.3897
 3436TIP3    H231868   5.697   2.043   8.292 -1.1834 -1.1235 -0.8848
 3437TIP3   OH231869   0.179   1.629   1.991  0.2074  0.0816  0.0466
 3437TIP3    H131870   0.111   1.628   2.059  0.6888 -2.3462  0.5882
 3437TIP3    H231871   0.132   1.654   1.911 -0.3564  3.0794  1.1603
 3438TIP3   OH231872   3.813   1.738   1.672  0.2011 -0.1626 -0.1297
 3438TIP3    H131873   3.797   1.714   1.763  2.6966  0.5029  0.5579
 3438TIP3    H231874   3.909   1.737   1.663  0.0477  0.5235 -2.5426
 3439TIP3   OH231875   3.839   2.153   7.699  0.4335  0.1813  0.1586
 3439TIP3    H131876   3.795   2.122   7.778 -2.0423 -0.9097 -1.5379
 3439TIP3    H231877   3.837   2.079   7.639  1.0875  1.3569 -1.4010
 3440TIP3   OH231878   5.516   4.210   8.392  0.2126  0.2068  0.4530
 3440TIP3    H131879   5.478   4.232   8.307 -0.2004 -0.8659  0.3479
 3440TIP3    H231880   5.449   4.159   8.437  0.4059  0.7878  1.4559
 3441TIP3   OH231881   0.968   2.944   1.921  0.4177 -0.0980  0.2883
 3441TIP3    H131882   0.916   3.021   1.943 -0.7069 -0.1199 -1.9975
 3441TIP3    H231883   0.979   2.948   1.826  2.0942 -1.6921  0.3379
 3442TIP3   OH231884   4.134   5.888   0.850  0.2575  0.5609  0.2223
 3442TIP3    H131885   4.080   5.962   0.877  1.9251  1.4009  1.3726
 3442TIP3    H231886   4.220   5.925   0.833  0.5395 -0.7570 -1.5472
 3443TIP3   OH231887   0.976   5.415   0.474 -0.3927  0.2556 -0.4157
 3443TIP3    H131888   0.960   5.333   0.427 -1.1608  0.5217 -0.6302
 3443TIP3    H231889   1.064   5.405   0.511  0.5407  0.3137 -2.5004
 3444TIP3   OH231890   1.461   5.342   8.234 -0.0351 -0.2578  0.1894
 3444TIP3    H131891   1.420   5.359   8.318 -0.2076  1.0920 -0.1432
 3444TIP3    H231892   1.555   5.335   8.254 -0.1631 -0.8482  0.6029
 3445TIP3   OH231893   4.046   0.217   7.960 -0.6918  0.1078 -0.2211
 3445TIP3    H131894   3.963   0.237   8.003 -0.9270  2.0303 -1.4778
 3445TIP3    H231895   4.068   0.296   7.911  1.1315 -0.8958 -1.1262
 3446TIP3   OH231896   4.135   1.213   0.634 -0.4714  0.1175  0.1542
 3446TIP3    H131897   4.191   1.163   0.573 -1.0162  0.2070 -0.4295
 3446TIP3    H231898   4.188   1.290   0.656 -0.8616  0.9084 -1.4737
 3447TIP3   OH231899   0.140   5.810   8.530  0.1587  0.0896  0.2275
 3447TIP3    H131900   0.161   5.806   8.623 -0.1277 -2.6067  0.2321
 3447TIP3    H231901   0.058   5.763   8.521 -0.0860  0.7421 -1.3588
 3448TIP3   OH231902   0.765   0.087   0.421 -0.3870 -0.2834  0.5713
 3448TIP3    H131903   0.767   0.112   0.514 -0.5145 -1.7413  0.9812
 3448TIP3    H231904   0.855   0.061   0.402  0.5439  3.2846 -0.7112
 3449TIP3   OH231905   1.190   1.307   1.440  0.1539  0.5257 -0.2348
 3449TIP3    H131906   1.233   1.285   1.523  0.3913  0.2640 -0.4244
 3449TIP3    H231907   1.236   1.254   1.375 -1.1277 -0.5373 -0.3117
 3450TIP3   OH231908   1.244   4.757   7.264 -0.2424 -0.7244 -0.4780
 3450TIP3    H131909   1.276   4.778   7.176  1.6873  1.8379  0.6796
 3450TIP3    H231910   1.229   4.842   7.304  2.1273 -1.5996  2.6988
 3451TIP3   OH231911   2.703   0.257   2.321 -0.1190  0.6892 -0.6756
 3451TIP3    H131912   2.618   0.228   2.353 -0.2363 -0.3787 -1.9033
 3451TIP3    H231913   2.761   0.250   2.397 -1.1567  1.7234  0.2583
 3452TIP3   OH231914   4.513   1.766   0.547 -0.4324 -0.3354 -0.0650
 3452TIP3    H131915   4.486   1.839   0.602 -2.0971  0.6319 -2.0487
 3452TIP3    H231916   4.589   1.800   0.499 -0.0089 -0.6109  0.3950
 3453TIP3   OH231917   3.202   2.623   6.807 -0.4763 -0.7434 -0.0057
 3453TIP3    H131918   3.124   2.605   6.860 -1.5750 -2.3291 -2.0166
 3453TIP3    H231919   3.255   2.543   6.815 -1.3254 -1.6100 -2.3026
 3454TIP3   OH231920   0.535   1.643   8.357 -0.2277 -0.0102  0.7475
 3454TIP3    H131921   0.541   1.563   8.304  0.7663  1.1004 -0.8915
 3454TIP3    H231922   0.610   1.695   8.330 -2.2404  2.6238 -0.1280
 3455TIP3   OH231923   1.043   5.887   0.632  0.6574  0.1143  0.0102
 3455TIP3    H131924   0.954   5.912   0.607  0.4393 -1.3876 -0.8452
 3455TIP3    H231925   1.088   5.971   0.645 -0.4308  0.9287 -1.1593
 3456TIP3   OH231926   1.889   0.812   0.065  0.7669  0.5266  0.1303
 3456TIP3    H131927   1.940   0.813   0.146  2.1585  0.3263 -0.7045
 3456TIP3    H231928   1.907   0.898   0.025  0.9582  0.2153 -0.4682
 3457TIP3   OH231929   2.890   0.716   8.044 -0.3045 -0.3258  0.2095
 3457TIP3    H131930   2.863   0.629   8.014 -0.0700 -0.7701  1.2349
 3457TIP3    H231931   2.831   0.736   8.116  0.9302 -0.5434  1.3212
 3458TIP3   OH231932   1.903   4.828   7.927 -0.0314 -0.6942  0.3168
 3458TIP3    H131933   1.885   4.797   8.016  1.7565 -1.6372  0.3864
 3458TIP3    H231934   1.965   4.899   7.937 -0.1526 -0.5121 -0.1689
 3459TIP3   OH231935   2.234   0.070   0.729 -0.0066  0.0817 -0.7498
 3459TIP3    H131936   2.191   0.096   0.647  0.4057  0.6720 -0.7852
 3459TIP3    H231937   2.162   0.054   0.790 -0.3691 -1.4251 -1.5221
 3460TIP3   OH231938   3.891   5.309   1.917  0.3662 -0.6771  0.0996
 3460TIP3    H131939   3.978   5.288   1.950  1.1330 -0.5476 -1.7701
 3460TIP3    H231940   3.881   5.255   1.838 -0.5868  0.5160 -0.6292
 3461TIP3   OH231941   2.079   6.840   0.919  0.0488  0.3588 -0.8369
 3461TIP3    H131942   2.138   6.858   0.992 -0.0729 -2.8517  0.1764
 3461TIP3    H231943   2.010   6.907   0.928 -0.7480 -0.7180  2.9517
 3462TIP3   OH231944   2.975   3.710   2.359 -0.0017 -0.1993 -0.6458
 3462TIP3    H131945   3.058   3.715   2.407 -0.5088  0.5614  0.1774
 3462TIP3    H231946   2.990   3.641   2.294  1.9657  1.2486 -1.8629
 3463TIP3   OH231947   1.594   4.842   7.913  0.3604 -0.3932  0.1772
 3463TIP3    H131948   1.653   4.823   7.986  0.6809  1.3462  0.4198
 3463TIP3    H231949   1.605   4.936   7.897 -0.3764 -0.5484 -1.5259
 3464TIP3   OH231950   1.359   0.643   0.518  0.3678 -0.5733  0.1158
 3464TIP3    H131951   1.293   0.586   0.557  1.2481 -0.4366  1.9287
 3464TIP3    H231952   1.398   0.689   0.593  1.4036  0.5420 -1.0559
 3465TIP3   OH231953   3.333   5.619   7.495 -0.0049 -0.2210 -0.4022
 3465TIP3    H131954   3.381   5.671   7.431  1.3246 -1.2700 -0.3042
 3465TIP3    H231955   3.288   5.552   7.442  0.5048 -0.6410 -0.3095
 3466TIP3   OH231956   2.866   1.723   8.448 -0.6555  0.1219  0.0719
 3466TIP3    H131957   2.902   1.784   8.383 -0.2291 -0.7322 -0.5107
 3466TIP3    H231958   2.928   1.650   8.449 -0.2119  0.4822  2.0497
 3467TIP3   OH231959   2.329   1.136   7.841  0.1181  0.1051 -0.0981
 3467TIP3    H131960   2.364   1.047   7.836  0.4893  0.2335  0.2084
 3467TIP3    H231961   2.234   1.124   7.846  0.1880 -0.2864  0.3352
 3468TIP3   OH231962   6.770   3.027   0.807 -0.5990 -0.5113  0.1532
 3468TIP3    H131963   6.849   3.002   0.855 -1.5348  0.2630  2.2084
 3468TIP3    H231964   6.796   3.027   0.715  1.4200 -1.5603  0.6890
 3469TIP3   OH231965   4.609   5.115   6.861  0.3198 -0.5798 -0.0948
 3469TIP3    H131966   4.647   5.146   6.778  0.5366  1.2322  0.6400
 3469TIP3    H231967   4.594   5.195   6.911  0.3315 -1.6659  1.6936
 3470TIP3   OH231968   3.502   3.967   1.397 -0.0705  0.4514  0.2545
 3470TIP3    H131969   3.515   4.044   1.343 -0.2616  0.1766 -0.1942
 3470TIP3    H231970   3.522   3.893   1.339  0.1296  0.1640  0.6814
 3471TIP3   OH231971   5.015   3.153   7.292 -0.3102 -0.0039  0.1546
 3471TIP3    H131972   5.043   3.237   7.257 -0.1588 -0.1842 -0.1598
 3471TIP3    H231973   4.967   3.111   7.221 -0.8840  0.0536  0.4978
 3472TIP3   OH231974   6.799   0.566   7.889  0.3330  0.2974 -0.0382
 3472TIP3    H131975   6.710   0.559   7.855  0.3648 -0.5129  0.0256
 3472TIP3    H231976   6.799   0.646   7.942  0.5508  2.1840 -2.7060
 3473TIP3   OH231977   5.770   5.966   0.020 -0.2334  0.0836 -0.0387
 3473TIP3    H131978   5.825   6.044   0.025  0.6717 -0.5868  1.0640
 3473TIP3    H231979   5.787   5.930  -0.067 -0.5845  1.0526 -0.5167
 3474TIP3   OH231980   2.640   0.602   0.287 -0.2122 -0.2697  0.2129
 3474TIP3    H131981   2.706   0.623   0.221  1.5567 -0.3873  1.8700
 3474TIP3    H231982   2.690   0.575   0.363 -1.9624  3.1433  2.8374
 3475TIP3   OH231983   6.630   0.265   0.003 -0.8766  0.3984  0.0722
 3475TIP3    H131984   6.551   0.319   0.001 -0.4277  1.3648  2.9495
 3475TIP3    H231985   6.661   0.271   0.094  1.9579 -0.7607 -0.6908
 3476TIP3   OH231986   0.981   0.056   6.747  0.2810  0.0241  0.0477
 3476TIP3    H131987   0.998   0.024   6.835  4.7464  2.0028  0.2157
 3476TIP3    H231988   1.023  -0.008   6.690  0.5354  0.5272 -0.3396
 3477TIP3   OH231989   4.684   3.804   1.345  0.2296 -0.0704 -0.2700
 3477TIP3    H131990   4.780   3.810   1.347  0.2538 -0.5165  0.3806
 3477TIP3    H231991   4.662   3.751   1.422 -0.6922  2.0576  1.0259
 3478TIP3   OH231992   5.121   4.508   1.758  0.1892 -0.0656  0.3797
 3478TIP3    H131993   5.071   4.581   1.795  0.7337  1.1824 -1.2358
 3478TIP3    H231994   5.207   4.514   1.801 -0.1374 -0.4978  1.1092
 3479TIP3   OH231995   3.788   2.611   0.308 -0.1184 -0.3042 -0.2830
 3479TIP3    H131996   3.696   2.610   0.283 -0.9720  0.9203  2.4566
 3479TIP3    H231997   3.798   2.535   0.366  0.9277 -1.0814 -1.4161
 3480TIP3   OH231998   5.863   6.655   8.399 -0.0083 -0.1829  0.5443
 3480TIP3    H131999   5.787   6.606   8.369 -1.1373  0.1697  2.6185
 3480TIP3    H232000   5.938   6.598   8.380 -0.8844 -0.9794 -0.6120
 3481TIP3   OH232001   6.596   5.614   0.012  0.5774  0.6562 -0.0261
 3481TIP3    H132002   6.547   5.676   0.065 -0.2362  0.2548 -0.2790
 3481TIP3    H232003   6.568   5.631  -0.078  3.1547  2.4405 -0.6024
 3482TIP3   OH232004   2.216   4.553   7.726 -0.1349 -0.2918 -0.1199
 3482TIP3    H132005   2.195   4.563   7.633 -0.2076 -0.5090 -0.1284
 3482TIP3    H232006   2.277   4.625   7.745  1.4172 -1.3537 -0.8212
 3483TIP3   OH232007   6.074   1.114   2.141  0.2644  0.1725  0.2436
 3483TIP3    H132008   6.142   1.175   2.172 -0.4572  1.2755 -0.2530
 3483TIP3    H232009   6.085   1.113   2.046  1.0482 -1.4543  0.3270
 3484TIP3   OH232010   6.639   1.776   0.689  0.4658 -0.0965 -0.6962
 3484TIP3    H132011   6.571   1.821   0.640  1.5734  1.4577 -0.8612
 3484TIP3    H232012   6.606   1.773   0.779 -0.5216 -0.8283 -1.0734
 3485TIP3   OH232013   2.833   2.501   1.291  0.7119 -0.1785  0.1735
 3485TIP3    H132014   2.750   2.501   1.341  0.6070  0.1048  0.0009
 3485TIP3    H232015   2.900   2.522   1.357  0.5811  0.1255  0.2143
 3486TIP3   OH232016   0.867   1.879   8.579  0.5857 -0.1041  0.2972
 3486TIP3    H132017   0.943   1.823   8.592  2.0558  2.0651  1.5420
 3486TIP3    H232018   0.822   1.879   8.664 -0.9134 -1.4133 -0.4386
 3487TIP3   OH232019   2.152   3.291   0.877 -0.0788  0.4786  0.3055
 3487TIP3    H132020   2.200   3.361   0.832  0.7381  0.5660  1.2764
 3487TIP3    H232021   2.219   3.227   0.900 -0.7038 -0.2451  0.1331
 3488TIP3   OH232022   2.472   6.555   2.583  0.2992  0.0387  0.0575
 3488TIP3    H132023   2.549   6.535   2.636  0.8088  0.1539 -0.6246
 3488TIP3    H232024   2.409   6.486   2.605  1.5788 -1.7023 -1.3509
 3489TIP3   OH232025   2.840   2.449   1.033  0.3173 -0.2114 -0.0459
 3489TIP3    H132026   2.832   2.477   1.124  2.0462  1.8973 -0.4653
 3489TIP3    H232027   2.778   2.504   0.985  2.4576  1.8372 -0.6375
 3490TIP3   OH232028   2.701   2.177   1.082 -0.0757 -0.1414 -0.0763
 3490TIP3    H132029   2.701   2.199   1.175 -3.3210 -0.6681  0.1537
 3490TIP3    H232030   2.700   2.262   1.038  1.8292  0.1195  0.2812
 3491TIP3   OH232031   1.918   0.929   2.460  0.2542  0.3054  0.1937
 3491TIP3    H132032   1.887   0.960   2.544  1.4195 -0.1303  0.8071
 3491TIP3    H232033   1.838   0.907   2.411 -0.4324  0.6665  1.1317
 3492TIP3   OH232034   1.707   3.501   7.687 -0.0916  0.5678  0.2431
 3492TIP3    H132035   1.788   3.539   7.719  0.4845  1.3512 -1.9406
 3492TIP3    H232036   1.659   3.475   7.766  1.5168  1.6418  1.6376
 3493TIP3   OH232037   0.595   5.792   1.269  0.1422 -0.1714  0.6609
 3493TIP3    H132038   0.679   5.836   1.281  0.4417 -0.6852  0.4872
 3493TIP3    H232039   0.617   5.713   1.219 -0.5420  0.0550 -0.0262
 3494TIP3   OH232040   1.036   2.218   0.172  0.2891 -0.5334  0.4077
 3494TIP3    H132041   1.022   2.270   0.251  1.2225 -0.5330  0.5846
 3494TIP3    H232042   0.957   2.233   0.119 -0.3505 -0.5398  1.3349
 3495TIP3   OH232043   6.158   3.191   2.266  0.4633 -0.0541  0.1001
 3495TIP3    H132044   6.139   3.138   2.342  1.8782  0.0887  0.5812
 3495TIP3    H232045   6.239   3.237   2.288  0.7179  0.2480 -1.3523
 3496TIP3   OH232046   4.890   6.727   8.226  0.6516  0.2439 -0.7137
 3496TIP3    H132047   4.865   6.663   8.292 -0.3169 -0.5673 -1.8290
 3496TIP3    H232048   4.967   6.689   8.184  0.1921 -0.1069 -1.2460
 3497TIP3   OH232049   1.454   0.782   1.208 -0.3699 -0.0485 -0.0506
 3497TIP3    H132050   1.374   0.834   1.197 -0.8614 -0.1579  2.4467
 3497TIP3    H232051   1.440   0.704   1.155 -1.4972  0.3876 -0.4154
 3498TIP3   OH232052   1.400   5.645   2.199  0.0615  0.0256  0.2419
 3498TIP3    H132053   1.439   5.688   2.274  1.2744 -1.2260  0.3785
 3498TIP3    H232054   1.378   5.716   2.138 -1.0004  1.0565  1.7727
 3499TIP3   OH232055   4.777   4.954   1.265 -0.1311 -0.1520  0.5207
 3499TIP3    H132056   4.852   5.003   1.300 -0.9789  1.0587  0.7224
 3499TIP3    H232057   4.745   4.902   1.338  0.2768 -0.3845  0.5369
 3500TIP3   OH232058   5.562   0.023   0.027 -0.1554  0.5887  0.1561
 3500TIP3    H132059   5.540   0.040  -0.065  0.5333 -0.0907 -0.1421
 3500TIP3    H232060   5.633  -0.041   0.023  0.9329  1.6970  1.1355
 3501TIP3   OH232061   6.560   3.397   0.599  0.1078  0.2946 -0.1978
 3501TIP3    H132062   6.610   3.478   0.604  0.7763 -0.1738  2.2112
 3501TIP3    H232063   6.620   3.329   0.629 -0.7835 -0.9320 -1.0804
 3502TIP3   OH232064   3.829   0.537   7.326 -0.2413  0.6891  0.3424
 3502TIP3    H132065   3.770   0.521   7.399  0.2997 -1.1183  0.4436
 3502TIP3    H232066   3.804   0.473   7.260 -0.2232  1.7946 -0.7795
 3503TIP3   OH232067   1.999   1.071   2.051 -0.3748 -0.1058  0.2532
 3503TIP3    H132068   2.014   0.989   2.098 -1.2884  0.0109  0.7714
 3503TIP3    H232069   2.037   1.139   2.106  0.6171 -0.1912 -0.3014
 3504TIP3   OH232070   1.670   3.428   8.464  0.2603 -0.2311 -0.5205
 3504TIP3    H132071   1.647   3.435   8.557 -0.1125 -0.0235 -0.6250
 3504TIP3    H232072   1.588   3.446   8.418  0.3411 -0.7693 -0.8819
 3505TIP3   OH232073   1.977   1.334   7.737 -0.1989  0.0098  0.1867
 3505TIP3    H132074   2.019   1.409   7.780  1.0591 -0.6975  0.2253
 3505TIP3    H232075   2.010   1.337   7.647 -1.4906  0.4866 -0.2897
 3506TIP3   OH232076   2.594   3.284   0.148  0.5533  0.3811 -0.1262
 3506TIP3    H132077   2.541   3.362   0.130 -1.7054 -1.4791 -2.1306
 3506TIP3    H232078   2.568   3.257   0.236  1.6004  1.9991  0.7233
 3507TIP3   OH232079   1.091   6.774   7.990 -0.0044 -0.9528  0.5374
 3507TIP3    H132080   1.180   6.748   7.967 -0.0356  0.1473 -0.9357
 3507TIP3    H232081   1.044   6.774   7.907 -0.1214  3.2228  0.3922
 3508TIP3   OH232082   6.436   1.348   8.080 -0.1980  0.1763  0.0098
 3508TIP3    H132083   6.343   1.359   8.061 -0.2733 -1.5268 -0.7668
 3508TIP3    H232084   6.478   1.345   7.994  0.0777 -2.6749  0.1487
 3509TIP3   OH232085   4.961   5.691   7.474  0.7363  0.3297 -0.1432
 3509TIP3    H132086   4.877   5.665   7.436  0.4235  1.9608 -0.6918
 3509TIP3    H232087   5.026   5.661   7.410  0.3421  1.4280 -1.1097
 3510TIP3   OH232088   0.221   3.933   8.319 -0.2679 -0.4928 -0.1058
 3510TIP3    H132089   0.182   4.017   8.346 -0.6906 -1.1166  1.2925
 3510TIP3    H232090   0.146   3.874   8.311 -0.2578 -0.2371 -3.2924
 3511TIP3   OH232091   2.426   1.936   6.612  0.4119 -0.4020 -0.1014
 3511TIP3    H132092   2.339   1.937   6.653  0.4709  1.1807  0.0366
 3511TIP3    H232093   2.477   2.000   6.661  1.9969 -1.9924  0.4375
 3512TIP3   OH232094   6.362   3.491   6.984  0.0055 -0.7579  0.1125
 3512TIP3    H132095   6.449   3.466   6.952  0.8045  0.2257  1.4009
 3512TIP3    H232096   6.355   3.449   7.070 -1.0626 -1.3300 -0.2392
 3513TIP3   OH232097   2.492   5.316   6.803 -0.2052  0.6447 -0.4534
 3513TIP3    H132098   2.570   5.269   6.772 -1.4889 -2.6308  0.7879
 3513TIP3    H232099   2.434   5.320   6.727 -0.2272 -0.2662 -0.5019
 3514TIP3   OH232100   4.874   4.592   1.468  0.4123 -0.0618 -0.0130
 3514TIP3    H132101   4.792   4.621   1.507  0.4818 -0.3229  0.3293
 3514TIP3    H232102   4.863   4.608   1.374  0.0448  0.0817  0.0533
 3515TIP3   OH232103   4.783   1.585   6.297 -0.3031 -0.1252 -0.5857
 3515TIP3    H132104   4.863   1.586   6.350 -0.7978  0.3749  0.1813
 3515TIP3    H232105   4.808   1.541   6.216  0.2404 -1.7970  0.4393
 3516TIP3   OH232106   6.487   3.219   2.811  0.3042 -0.5584  0.3624
 3516TIP3    H132107   6.561   3.259   2.767  1.3359 -1.5546  1.1400
 3516TIP3    H232108   6.412   3.274   2.788  1.0387 -0.2912 -1.5083
 3517TIP3   OH232109   2.151   6.856   0.347 -0.3810  0.4724 -0.0955
 3517TIP3    H132110   2.055   6.854   0.351 -0.4300  2.3365  0.9365
 3517TIP3    H232111   2.174   6.947   0.368  1.6541 -0.1718  0.7253
 3518TIP3   OH232112   0.516   2.302   0.941 -0.5328 -0.3965 -0.3128
 3518TIP3    H132113   0.441   2.360   0.955 -1.3380 -1.8203  1.7096
 3518TIP3    H232114   0.487   2.217   0.974  1.9056 -1.0662  0.3061
 3519TIP3   OH232115   3.841   6.407   0.490  0.0792 -0.3794  0.1143
 3519TIP3    H132116   3.909   6.398   0.424  2.1815  1.6313  1.8166
 3519TIP3    H232117   3.766   6.444   0.444  1.3907  0.7338 -1.1815
 3520TIP3   OH232118   1.839   6.090   7.473 -0.4704 -0.2819  0.1734
 3520TIP3    H132119   1.931   6.065   7.471 -0.0582  0.8626  2.0085
 3520TIP3    H232120   1.807   6.056   7.556 -1.6065 -0.3256 -0.2653
 3521TIP3   OH232121   3.762   5.831   7.109 -0.1115 -0.1262  0.1292
 3521TIP3    H132122   3.769   5.781   7.190 -0.9297 -1.8056 -0.7987
 3521TIP3    H232123   3.772   5.766   7.039  0.4908  1.2641 -1.1405
 3522TIP3   OH232124   3.716   0.115   2.523  0.0051 -0.1285  0.0954
 3522TIP3    H132125   3.621   0.115   2.538  0.2124 -1.5825  1.7495
 3522TIP3    H232126   3.754   0.133   2.609  1.2517 -1.1272 -0.2222
 3523TIP3   OH232127   0.231   5.651   7.682  0.3537  0.8919  0.1106
 3523TIP3    H132128   0.195   5.698   7.757 -0.8128  0.7527 -0.3504
 3523TIP3    H232129   0.174   5.674   7.609  2.4061  2.3164 -1.1420
 3524TIP3   OH232130   1.675   3.025   1.084 -0.1020  0.8555 -0.1139
 3524TIP3    H132131   1.764   3.050   1.106 -0.3148  1.0093  0.5998
 3524TIP3    H232132   1.676   3.012   0.989  0.5494  1.3691 -0.1824
 3525TIP3   OH232133   6.611   6.764   7.242  0.4858 -0.1751 -0.1571
 3525TIP3    H132134   6.691   6.801   7.206  0.4738 -0.1200 -0.1256
 3525TIP3    H232135   6.616   6.671   7.219 -0.1283  0.0765 -1.4329
 3526TIP3   OH232136   4.793   0.795   6.876  0.4001  0.0662  0.5841
 3526TIP3    H132137   4.817   0.724   6.816  2.3820  1.9585 -1.0064
 3526TIP3    H232138   4.800   0.756   6.963  0.8811 -1.8319 -0.2516
 3527TIP3   OH232139   2.049   5.016   8.039 -0.1372  0.6591 -0.1239
 3527TIP3    H132140   2.099   4.941   8.072  0.3678  0.5585 -1.0851
 3527TIP3    H232141   2.115   5.081   8.017 -0.5379  1.1560  0.1370
 3528TIP3   OH232142   1.959   2.842   0.582 -0.5009  0.4863  0.1156
 3528TIP3    H132143   1.998   2.929   0.584 -1.7291  1.0721 -0.5196
 3528TIP3    H232144   1.879   2.852   0.530 -1.2034 -0.7921  0.8878
 3529TIP3   OH232145   0.185   4.254   2.632  0.7392 -0.4343  0.0848
 3529TIP3    H132146   0.095   4.245   2.665  0.7761 -0.9642  0.0512
 3529TIP3    H232147   0.201   4.172   2.584  0.0705  0.9681 -2.7439
 3530TIP3   OH232148   2.191   0.097   8.428 -0.0445 -0.1155  0.1076
 3530TIP3    H132149   2.216   0.091   8.520  3.4592 -0.3578 -0.7226
 3530TIP3    H232150   2.161   0.009   8.406  0.1419 -0.3496  0.7550
 3531TIP3   OH232151   0.206   1.742   0.148  0.2079  0.0482 -0.1333
 3531TIP3    H132152   0.248   1.728   0.063  0.7038  2.6683 -0.3935
 3531TIP3    H232153   0.133   1.802   0.130  0.7679  1.2574  1.3572
 3532TIP3   OH232154   4.151   0.427   0.985 -0.1403  0.2701 -0.2732
 3532TIP3    H132155   4.103   0.356   0.942  0.6539 -0.6256  0.2715
 3532TIP3    H232156   4.164   0.493   0.917  1.1301 -1.1307 -1.4532
 3533TIP3   OH232157   4.318   4.622   1.058 -0.3290  0.4295  0.9984
 3533TIP3    H132158   4.227   4.590   1.060  0.4503 -3.3893 -3.9029
 3533TIP3    H232159   4.320   4.683   0.983  1.1268  0.5544  1.1125
 3534TIP3   OH232160   2.472   2.585   1.159  0.1492 -0.3978 -0.0732
 3534TIP3    H132161   2.497   2.608   1.249  0.0237  1.6278 -0.5113
 3534TIP3    H232162   2.522   2.645   1.104 -3.0642  1.5647 -1.1366
 3535TIP3   OH232163   3.786   1.545   7.871 -0.1477  0.3524  0.1304
 3535TIP3    H132164   3.845   1.470   7.864 -0.4753  0.0684  0.3436
 3535TIP3    H232165   3.698   1.507   7.870 -0.3291  0.7669 -0.1632
 3536TIP3   OH232166   4.154   5.707   6.713  0.1433 -0.4511 -0.4657
 3536TIP3    H132167   4.183   5.616   6.703 -1.4144 -1.0840  0.4630
 3536TIP3    H232168   4.235   5.755   6.730  0.8521 -1.8799  0.4612
 3537TIP3   OH232169   6.210   3.717   1.224 -0.2333  0.5206  0.1729
 3537TIP3    H132170   6.235   3.671   1.144 -0.2057 -0.5460  0.7882
 3537TIP3    H232171   6.153   3.788   1.193  0.3431  0.5545 -0.8542
 3538TIP3   OH232172   4.876   0.773   1.146 -0.0119  0.4252 -0.2585
 3538TIP3    H132173   4.917   0.759   1.061  0.8583 -0.5706  0.2951
 3538TIP3    H232174   4.791   0.730   1.139 -0.5663  1.6048 -1.0804
 3539TIP3   OH232175   5.569   3.264   1.533  0.0499 -0.2332  0.3883
 3539TIP3    H132176   5.542   3.320   1.605  0.1446  0.9217 -0.4553
 3539TIP3    H232177   5.563   3.319   1.455  0.4304 -1.3037 -0.4305
 3540TIP3   OH232178   2.939   5.690   1.283  0.6083 -0.4262  0.0866
 3540TIP3    H132179   2.992   5.628   1.232 -0.7255 -0.4605 -1.3211
 3540TIP3    H232180   2.864   5.639   1.312 -0.2352  0.3744 -0.6295
 3541TIP3   OH232181   1.244   4.956   0.385 -0.1025  0.0679  0.3302
 3541TIP3    H132182   1.238   4.936   0.292 -1.7866 -0.0983  0.4512
 3541TIP3    H232183   1.189   5.033   0.398 -1.4116 -0.9962  1.4558
 3542TIP3   OH232184   5.357   4.883   2.570 -0.0259 -0.4334 -0.0484
 3542TIP3    H132185   5.348   4.974   2.542  0.9650  0.4385  2.2338
 3542TIP3    H232186   5.268   4.855   2.590 -0.4624 -0.3385 -1.7453
 3543TIP3   OH232187   0.336   5.324   1.728  0.1223  0.5427  0.5113
 3543TIP3    H132188   0.259   5.271   1.751  0.4116 -0.2165 -0.2352
 3543TIP3    H232189   0.304   5.415   1.734 -0.3855  0.3064  1.7747
 3544TIP3   OH232190   5.670   0.133   7.878 -0.0600 -0.0504 -0.0077
 3544TIP3    H132191   5.743   0.118   7.817 -1.3571  0.0428 -1.6519
 3544TIP3    H232192   5.659   0.228   7.877  2.0377  0.3859  3.0577
 3545TIP3   OH232193   0.127   2.402   8.414 -0.3075 -0.0222 -0.0164
 3545TIP3    H132194   0.115   2.310   8.437  0.3806 -0.0394  0.3021
 3545TIP3    H232195   0.142   2.446   8.498 -0.6895  0.3937 -0.1605
 3546TIP3   OH232196   0.106   5.865   1.547 -0.9296 -0.2959 -0.1038
 3546TIP3    H132197   0.016   5.868   1.515 -1.0838  0.9898  0.3909
 3546TIP3    H232198   0.160   5.878   1.469 -1.1842 -0.5091 -0.3184
 3547TIP3   OH232199   2.037   4.641   0.001  0.3601  0.3458  0.3748
 3547TIP3    H132200   2.109   4.585   0.031  0.1799 -0.2107 -0.2036
 3547TIP3    H232201   2.074   4.688  -0.075 -0.4066 -1.2900 -1.0775
 3548TIP3   OH232202   4.026   0.513   8.588  0.0088 -0.0724  0.1262
 3548TIP3    H132203   4.033   0.608   8.581  1.2594 -0.1133  0.4841
 3548TIP3    H232204   4.109   0.486   8.628 -0.5303 -1.2678  0.4929
 3549TIP3   OH232205   6.483   0.028   2.121  0.5363 -0.1115  0.0330
 3549TIP3    H132206   6.486   0.118   2.089  1.3871 -0.1798 -0.0956
 3549TIP3    H232207   6.569  -0.008   2.100 -0.1756 -1.3219 -0.9560
 3550TIP3   OH232208   2.483   5.633   1.431  0.3124  0.0696 -0.0394
 3550TIP3    H132209   2.429   5.567   1.475  0.3408 -1.4158 -2.1058
 3550TIP3    H232210   2.475   5.710   1.486  0.1310 -1.5704  2.4086
 3551TIP3   OH232211   1.405   3.000   1.555 -0.1042 -0.2206  0.0132
 3551TIP3    H132212   1.393   2.914   1.595 -0.7244  1.1168  2.9516
 3551TIP3    H232213   1.316   3.035   1.545  0.2087  0.9273  0.9837
 3552TIP3   OH232214   0.082   6.825   2.479 -0.2385  0.1279 -0.0575
 3552TIP3    H132215   0.124   6.906   2.451  2.3612 -0.9978  0.2823
 3552TIP3    H232216  -0.010   6.835   2.455 -0.1073  3.3424  0.4173
 3553TIP3   OH232217   2.726   3.503   0.881  0.1316 -0.4265 -0.2315
 3553TIP3    H132218   2.817   3.494   0.856 -0.2409  1.0885 -2.4755
 3553TIP3    H232219   2.679   3.517   0.798 -2.0586 -0.6253  0.8835
 3554TIP3   OH232220   0.823   2.073   7.440  0.1467 -0.6572  0.8397
 3554TIP3    H132221   0.768   2.042   7.512 -1.0922  1.1817  0.7356
 3554TIP3    H232222   0.773   2.055   7.361  0.8066 -1.2099  0.5303
 3555TIP3   OH232223   5.104   0.973   1.622  0.5696 -0.4423  0.5172
 3555TIP3    H132224   5.144   0.932   1.545 -0.8989  3.2479 -2.5190
 3555TIP3    H232225   5.010   0.959   1.611  0.2443  1.2037  0.8771
 3556TIP3   OH232226   2.871   6.265   7.420 -0.0951  0.0504  0.2843
 3556TIP3    H132227   2.833   6.207   7.486  2.0136 -1.0323  0.6068
 3556TIP3    H232228   2.901   6.207   7.351  1.4538  0.7668  0.3048
 3557TIP3   OH232229   0.158   4.770   1.765 -0.1231 -0.3826 -0.1640
 3557TIP3    H132230   0.218   4.840   1.737  0.7168 -0.2601  1.7797
 3557TIP3    H232231   0.089   4.770   1.699  1.4605  0.1825 -1.9059
 3558TIP3   OH232232   3.956   1.676   2.098  0.4784 -0.0434  0.1104
 3558TIP3    H132233   3.991   1.657   2.185  2.5913  1.7400 -0.2626
 3558TIP3    H232234   3.941   1.771   2.098 -2.0662 -0.3600 -0.6379
 3559TIP3   OH232235   5.990   4.386   7.165 -0.3809 -0.7040  0.0092
 3559TIP3    H132236   5.897   4.385   7.187 -0.1975  1.5816  1.1718
 3559TIP3    H232237   5.996   4.445   7.091  0.3945  1.3354  1.6208
 3560TIP3   OH232238   5.072   2.107   0.671 -0.3792 -0.6198  0.6182
 3560TIP3    H132239   5.096   2.196   0.649 -1.9645  0.0613  1.4702
 3560TIP3    H232240   5.035   2.071   0.590 -0.2163 -0.3341  0.4164
 3561TIP3   OH232241   3.036   0.490   0.561 -0.6213 -0.0792 -0.7563
 3561TIP3    H132242   3.002   0.579   0.569 -1.0013 -0.2369 -0.6025
 3561TIP3    H232243   2.973   0.436   0.609  0.7037 -0.1738  0.9909
 3562TIP3   OH232244   5.168   1.521   7.471  0.3057  0.1281  0.3823
 3562TIP3    H132245   5.237   1.456   7.462  1.1583  1.0939 -0.3464
 3562TIP3    H232246   5.172   1.548   7.563  1.6109  0.8954  0.1332
 3563TIP3   OH232247   0.890   6.214   8.069 -0.3618 -0.1500  0.4243
 3563TIP3    H132248   0.961   6.168   8.113  0.6097  1.2005  0.3339
 3563TIP3    H232249   0.812   6.160   8.084  0.5208 -1.2205  1.2384
 3564TIP3   OH232250   1.919   2.638   0.861  0.5557  0.1365  0.1588
 3564TIP3    H132251   1.898   2.616   0.952 -1.2167  0.2611 -0.1922
 3564TIP3    H232252   1.933   2.553   0.819 -1.8767 -0.1812 -0.1611
 3565TIP3   OH232253   3.792   0.682   1.947  0.8024  0.2880 -0.4187
 3565TIP3    H132254   3.753   0.608   1.899  2.2689 -2.1606  1.9064
 3565TIP3    H232255   3.886   0.670   1.937  1.1548  0.0290  2.4255
 3566TIP3   OH232256   6.743   2.114   0.163  0.5833 -0.1584  0.2887
 3566TIP3    H132257   6.774   2.203   0.143 -1.0245  0.3626  0.0166
 3566TIP3    H232258   6.648   2.120   0.158  0.4169 -1.7016  1.1791
 3567TIP3   OH232259   4.233   6.340   8.579  0.3368  0.3106  0.3273
 3567TIP3    H132260   4.309   6.285   8.593 -0.2436 -0.4282  0.6263
 3567TIP3    H232261   4.238   6.406   8.648 -0.0064 -0.5382  1.1824
 3568TIP3   OH232262   6.313   0.405   0.501 -0.1556 -0.7399 -0.0830
 3568TIP3    H132263   6.257   0.479   0.479  0.7480  0.3075  0.9693
 3568TIP3    H232264   6.402   0.435   0.481  0.1763 -1.7965 -0.2745
 3569TIP3   OH232265   2.045   1.002   7.553  0.5485 -0.8557  0.1376
 3569TIP3    H132266   2.034   1.096   7.566  0.1098 -0.9526  0.4981
 3569TIP3    H232267   2.017   0.986   7.464 -0.7684 -0.8579  0.5364
 3570TIP3   OH232268   2.232   6.255   0.197 -0.3112  0.6804 -0.2428
 3570TIP3    H132269   2.195   6.338   0.226  0.0086 -0.3274  3.4568
 3570TIP3    H232270   2.249   6.206   0.277  1.1381 -2.3093 -2.1840
 3571TIP3   OH232271   0.108   6.045   2.454  0.2964 -0.2160 -0.1193
 3571TIP3    H132272   0.070   6.077   2.535 -1.7250  2.0765 -1.8193
 3571TIP3    H232273   0.174   6.111   2.431  0.6246 -0.6708 -0.4994
 3572TIP3   OH232274   3.558   4.577   0.326 -0.5259  0.0670  0.0891
 3572TIP3    H132275   3.639   4.561   0.373  0.1920  3.2201  0.1850
 3572TIP3    H232276   3.584   4.624   0.246 -2.1787  0.6787 -0.1525
 3573TIP3   OH232277   1.697   5.808   8.056  0.4019  0.4355  0.0248
 3573TIP3    H132278   1.689   5.868   8.130  1.2637  1.7977 -0.9337
 3573TIP3    H232279   1.607   5.783   8.036  0.1029  0.6157  1.0805
 3574TIP3   OH232280   1.005   6.712   0.644  0.5316 -0.2046  0.0358
 3574TIP3    H132281   0.929   6.732   0.589  0.0576  1.5928  1.2413
 3574TIP3    H232282   1.046   6.797   0.660  1.7992 -0.9331  0.8364
 3575TIP3   OH232283   5.797   4.701   7.489  0.3346  0.6471 -0.1363
 3575TIP3    H132284   5.721   4.702   7.548  0.5675 -0.4925  0.2174
 3575TIP3    H232285   5.777   4.766   7.422 -1.0053  0.2843 -0.1138
 3576TIP3   OH232286   2.953   3.573   0.034 -0.3364  0.3063  0.4358
 3576TIP3    H132287   2.954   3.528  -0.051 -1.3824  1.1662 -0.0500
 3576TIP3    H232288   2.866   3.612   0.039 -0.1137  0.6643  1.7042
 3577TIP3   OH232289   3.123   4.037   0.772  0.4875  0.0133 -0.4052
 3577TIP3    H132290   3.082   4.122   0.785  0.6235 -0.3446  3.8729
 3577TIP3    H232291   3.217   4.055   0.767  0.5603  0.1465  1.0622
 3578TIP3   OH232292   6.443   2.094   8.500 -0.7377  0.0095 -0.0467
 3578TIP3    H132293   6.348   2.087   8.503 -0.6351 -1.6185  0.3128
 3578TIP3    H232294   6.473   2.045   8.577  0.4056  0.2500 -0.3172
 3579TIP3   OH232295   5.047   5.205   8.048 -0.0270  0.9019 -0.4559
 3579TIP3    H132296   5.005   5.247   7.973  1.9993  1.8039 -1.1387
 3579TIP3    H232297   5.033   5.266   8.120  0.4515  1.4141 -0.7839
 3580TIP3   OH232298   3.517   2.543   0.243 -0.3540  0.2222  0.3566
 3580TIP3    H132299   3.464   2.587   0.310 -2.6799 -1.1446 -0.4728
 3580TIP3    H232300   3.514   2.451   0.266 -1.5273 -0.3414 -1.7334
 3581TIP3   OH232301   1.873   1.509   0.898 -0.0432  0.0010  0.6777
 3581TIP3    H132302   1.803   1.525   0.961 -0.4316 -2.3571  0.9159
 3581TIP3    H232303   1.952   1.541   0.940 -0.1521 -2.2675  2.7931
 3582TIP3   OH232304   3.354   2.922   2.093 -0.8628  0.6779 -0.9854
 3582TIP3    H132305   3.350   2.876   2.177  0.0809  2.0522 -0.1623
 3582TIP3    H232306   3.447   2.939   2.079 -1.1212  1.5681 -1.6989
 3583TIP3   OH232307   3.372   3.332   1.220 -0.3555  0.1899  0.1506
 3583TIP3    H132308   3.278   3.351   1.229  0.1265  2.3068  1.3295
 3583TIP3    H232309   3.376   3.236   1.214 -2.4922 -0.0745  1.5566
 3584TIP3   OH232310   6.753   4.313   1.127  0.3171 -0.2436 -0.2608
 3584TIP3    H132311   6.815   4.305   1.054  2.2268 -1.1020  1.3544
 3584TIP3    H232312   6.744   4.407   1.141  1.0066 -0.0888 -0.7634
 3585TIP3   OH232313   6.533   2.140   7.698  0.5308 -0.3453  0.0387
 3585TIP3    H132314   6.460   2.164   7.755 -0.8952 -1.0031 -1.4541
 3585TIP3    H232315   6.515   2.184   7.615  1.9837 -0.3039 -0.2833
 3586TIP3   OH232316   3.089   2.813   8.156 -0.3013  0.0844  0.0852
 3586TIP3    H132317   3.109   2.897   8.116 -0.5792 -0.3251 -0.9506
 3586TIP3    H232318   3.079   2.832   8.249  2.3349  0.7639  0.3186
 3587TIP3   OH232319   0.010   3.747   8.311  0.2635 -0.0313 -0.5357
 3587TIP3    H132320   0.012   3.657   8.344  0.3025  0.8680  2.1841
 3587TIP3    H232321  -0.066   3.786   8.353  1.1006  1.5943 -0.4604
 3588TIP3   OH232322   3.306   6.644   7.069  0.3125 -0.7063 -0.1885
 3588TIP3    H132323   3.303   6.737   7.093 -3.2804 -0.8238  0.4384
 3588TIP3    H232324   3.342   6.601   7.147 -1.5600 -0.0759  1.1327
 3589TIP3   OH232325   3.268   4.897   6.645 -0.1068  0.1765  0.3803
 3589TIP3    H132326   3.176   4.880   6.624 -0.0634  1.5417 -1.1518
 3589TIP3    H232327   3.315   4.824   6.606 -0.4643  0.0253  0.2280
 3590TIP3   OH232328   5.021   0.231   7.292  0.0764  0.5306  0.0264
 3590TIP3    H132329   4.951   0.289   7.263  2.0810  2.2838 -1.6093
 3590TIP3    H232330   5.014   0.154   7.235 -2.2505 -0.7452  1.8466
 3591TIP3   OH232331   4.762   1.006   7.156  0.0442 -0.2517 -0.3499
 3591TIP3    H132332   4.791   0.915   7.149  1.0773  0.0947 -0.8454
 3591TIP3    H232333   4.839   1.053   7.189  0.0290  0.6883 -1.5757
 3592TIP3   OH232334   3.716   3.473   0.043  0.4409  0.1332  0.0921
 3592TIP3    H132335   3.650   3.457  -0.025  2.1995  0.4263 -1.7875
 3592TIP3    H232336   3.773   3.396   0.039  1.3574  0.7926  0.2616
 3593TIP3   OH232337   5.449   5.876   2.585 -0.1366 -0.2054 -0.2514
 3593TIP3    H132338   5.496   5.871   2.669  0.3814  1.7106 -0.3685
 3593TIP3    H232339   5.413   5.789   2.573  0.8164 -0.8866  1.3678
 3594TIP3   OH232340   4.563   5.940   0.662 -0.3177  0.3000 -0.4881
 3594TIP3    H132341   4.648   5.956   0.703 -1.5110  2.3700  1.4490
 3594TIP3    H232342   4.529   5.862   0.705 -0.3352  0.7995  0.4247
 3595TIP3   OH232343   5.950   3.985   0.592  0.1664 -0.0393  0.3244
 3595TIP3    H132344   5.993   4.009   0.509  1.0203 -0.3205  0.6767
 3595TIP3    H232345   5.967   4.059   0.650 -1.3154  0.6292 -0.0419
 3596TIP3   OH232346   2.724   3.401   8.482  0.2498  0.6569  0.9338
 3596TIP3    H132347   2.632   3.416   8.503 -0.7961 -0.8898 -1.9452
 3596TIP3    H232348   2.741   3.453   8.403  1.5008  0.0831  0.7831
 3597TIP3   OH232349   0.658   4.087   6.586 -0.0855  0.1367 -0.3949
 3597TIP3    H132350   0.606   4.051   6.513  0.6405 -2.2843  0.1875
 3597TIP3    H232351   0.597   4.092   6.659 -0.2294  0.1871 -0.5190
 3598TIP3   OH232352   4.460   3.177   8.561  0.2041  0.2878  0.3973
 3598TIP3    H132353   4.388   3.118   8.536 -1.2230  1.4973  1.4426
 3598TIP3    H232354   4.538   3.136   8.524 -0.6378 -2.4459  1.3778
 3599TIP3   OH232355   5.451   1.116   0.239 -0.3505  0.2508  0.1590
 3599TIP3    H132356   5.546   1.126   0.225 -0.1965  0.9810  1.5196
 3599TIP3    H232357   5.426   1.195   0.286 -1.3454 -0.6441  1.1782
 3600TIP3   OH232358   5.278   1.726   7.328 -0.6472  0.5887 -0.1837
 3600TIP3    H132359   5.358   1.701   7.283  0.5907  0.5705  1.8950
 3600TIP3    H232360   5.255   1.649   7.381 -1.3026  1.0394  0.2042
 3601TIP3   OH232361   2.175   2.695   1.217  0.4565  0.2938 -0.1802
 3601TIP3    H132362   2.256   2.644   1.221  0.6744  0.6728  0.3013
 3601TIP3    H232363   2.106   2.628   1.209  0.8946  0.0225 -2.2676
 3602TIP3   OH232364   0.376   1.792   8.526 -0.2391  0.5847 -0.0471
 3602TIP3    H132365   0.447   1.750   8.477  0.2994  0.7205  0.5984
 3602TIP3    H232366   0.370   1.880   8.489  1.7651  1.5144  1.6564
 3603TIP3   OH232367   1.225   2.857   0.636  0.0034  0.7657 -0.3629
 3603TIP3    H132368   1.237   2.927   0.699 -1.4828 -0.8418  1.8354
 3603TIP3    H232369   1.203   2.902   0.554 -0.6415  2.8470  0.8801
 3604TIP3   OH232370   5.321   3.217   1.696  0.2231 -0.3283  0.6426
 3604TIP3    H132371   5.362   3.222   1.610 -0.1637 -1.0327  0.4113
 3604TIP3    H232372   5.393   3.229   1.758  0.5150  0.0916  0.2256
 3605TIP3   OH232373   3.114   6.183   7.689  0.0949  0.4840 -0.6246
 3605TIP3    H132374   3.082   6.101   7.652  0.1297  0.6039 -0.9217
 3605TIP3    H232375   3.046   6.209   7.752  0.0351  0.2805 -0.6054
 3606TIP3   OH232376   3.290   4.480   7.313 -0.2730 -0.0702 -0.3147
 3606TIP3    H132377   3.274   4.387   7.302  1.2925 -0.4637  0.4053
 3606TIP3    H232378   3.302   4.491   7.407 -0.8970  0.9497 -0.3423
 3607TIP3   OH232379   4.891   6.333   2.043  0.1810  0.2193 -0.6762
 3607TIP3    H132380   4.977   6.321   2.085  0.1482  1.6087 -0.1239
 3607TIP3    H232381   4.859   6.416   2.080 -1.1233  0.0348 -1.3511
 3608TIP3   OH232382   0.344   3.739   1.169  0.1883 -0.1202 -0.4055
 3608TIP3    H132383   0.422   3.691   1.199 -0.5400 -0.5488  0.8943
 3608TIP3    H232384   0.284   3.734   1.243 -0.5671  1.3671 -0.8961
 3609TIP3   OH232385   0.951   1.214   8.558  0.0390 -0.1687 -0.1275
 3609TIP3    H132386   0.912   1.258   8.634  2.8802  0.8089  0.8819
 3609TIP3    H232387   0.978   1.286   8.501 -1.5453 -0.8809 -1.8698
 3610TIP3   OH232388   4.101   6.264   1.234 -0.0730 -0.0291  0.5564
 3610TIP3    H132389   4.071   6.175   1.214  0.5204 -0.0211 -0.4119
 3610TIP3    H232390   4.172   6.280   1.172 -0.1216  1.0977  0.7741
 3611TIP3   OH232391   4.938   4.080   2.080 -0.0562 -0.0214 -0.6638
 3611TIP3    H132392   4.923   3.991   2.113 -0.8522  0.1376 -0.5941
 3611TIP3    H232393   4.900   4.081   1.992 -0.3373  0.3406 -0.5423
 3612TIP3   OH232394   4.826   4.047   6.828 -0.0021  0.3417 -0.5115
 3612TIP3    H132395   4.803   3.978   6.766  1.5070 -0.0433 -0.6940
 3612TIP3    H232396   4.904   4.088   6.791  0.0104  1.1558  0.3539
 3613TIP3   OH232397   2.202   2.355   0.291  0.4993 -0.3467  0.6526
 3613TIP3    H132398   2.162   2.352   0.204 -2.1031 -3.2465  1.7525
 3613TIP3    H232399   2.279   2.299   0.283  0.3629 -0.4745  0.1638
 3614TIP3   OH232400   0.249   4.960   8.402 -0.3978  0.3125 -0.1977
 3614TIP3    H132401   0.253   4.991   8.311  0.8130  1.2536  0.1471
 3614TIP3    H232402   0.164   4.989   8.433 -1.2239 -0.8184 -1.2806
 3615TIP3   OH232403   4.519   3.351   8.032 -0.5937  0.0500 -0.5547
 3615TIP3    H132404   4.449   3.293   8.062 -0.9261  0.9733  0.5130
 3615TIP3    H232405   4.600   3.305   8.055 -0.8510 -0.3622 -0.4628
 3616TIP3   OH232406   0.201   5.224   1.470  0.0727  0.2158 -0.3864
 3616TIP3    H132407   0.121   5.232   1.419  0.1167 -1.0961 -0.7082
 3616TIP3    H232408   0.218   5.312   1.503 -1.4598  0.5286 -0.3688
 3617TIP3   OH232409   3.087   0.729   8.225 -0.1614  0.3955 -0.2834
 3617TIP3    H132410   3.073   0.698   8.314  0.9208  0.7307  0.0222
 3617TIP3    H232411   3.014   0.694   8.175 -1.0646  0.6196  0.8362
 3618TIP3   OH232412   1.433   4.568   1.517  0.0738 -0.0564  0.4081
 3618TIP3    H132413   1.407   4.478   1.499  0.8142 -0.3421  0.7293
 3618TIP3    H232414   1.444   4.608   1.430 -1.9656  0.2579  0.2451
 3619TIP3   OH232415   6.263   0.443   1.427  0.1856  0.3847 -0.4469
 3619TIP3    H132416   6.314   0.438   1.508 -0.7504  1.1193  0.2009
 3619TIP3    H232417   6.325   0.417   1.359  0.8437 -0.7896  0.5427
 3620TIP3   OH232418   2.071   4.389   0.738 -0.4321 -0.0189 -0.0743
 3620TIP3    H132419   2.163   4.396   0.762 -0.7496  1.0477  0.9820
 3620TIP3    H232420   2.070   4.335   0.659  1.1288  0.3171 -0.3568
 3621TIP3   OH232421   2.348   2.125   6.967 -0.1723 -0.7136 -0.2253
 3621TIP3    H132422   2.282   2.158   7.028  0.8482 -0.6067  0.8647
 3621TIP3    H232423   2.364   2.198   6.907  1.5226  0.6197  1.7104
 3622TIP3   OH232424   0.322   6.243   2.156 -0.2710  0.2092 -0.1350
 3622TIP3    H132425   0.297   6.232   2.247  0.9446 -0.7366  0.1045
 3622TIP3    H232426   0.381   6.170   2.138 -1.0758 -0.0576 -1.8952
 3623TIP3   OH232427   1.090   2.188   1.848  0.3837 -0.1506 -0.2560
 3623TIP3    H132428   1.012   2.198   1.901 -0.2394 -1.7886 -0.7956
 3623TIP3    H232429   1.101   2.273   1.805 -0.9829  0.1719 -0.0216
 3624TIP3   OH232430   3.487   4.138   1.179  0.1681  0.4559  0.2154
 3624TIP3    H132431   3.430   4.071   1.142 -1.6844  1.9071  0.2624
 3624TIP3    H232432   3.427   4.210   1.201  1.8303  1.4261  1.7927
 3625TIP3   OH232433   5.575   1.751   1.649 -0.5574  0.1412 -0.1084
 3625TIP3    H132434   5.586   1.724   1.740 -0.1035 -0.1883 -0.2618
 3625TIP3    H232435   5.480   1.744   1.634 -0.4045 -1.9307 -0.3127
 3626TIP3   OH232436   6.780   1.905   1.679  0.9090  0.8636  0.4972
 3626TIP3    H132437   6.726   1.875   1.606  2.4959 -1.8573  0.3005
 3626TIP3    H232438   6.723   1.964   1.729 -0.8683  1.2315 -1.7939
 3627TIP3   OH232439   0.948   3.287   0.909 -0.5105 -0.0802 -0.8028
 3627TIP3    H132440   0.928   3.359   0.849  0.1958  0.7065 -0.1112
 3627TIP3    H232441   0.870   3.279   0.964  0.0534  1.3061  0.2393
 3628TIP3   OH232442   3.132   3.101   5.923  0.1917  0.0410  0.7774
 3628TIP3    H132443   3.121   3.060   6.009 -0.2932  0.2025  0.7956
 3628TIP3    H232444   3.043   3.109   5.889  0.3109  0.7165  0.6089
 3629TIP3   OH232445   5.118   5.965   1.123 -0.1282  0.3782  0.8785
 3629TIP3    H132446   5.192   5.932   1.072 -1.1203 -0.2299 -0.2142
 3629TIP3    H232447   5.127   6.060   1.119  0.3144  0.3175  0.3154
 3630TIP3   OH232448   3.892   5.119   7.090  0.0789  0.5471 -0.0045
 3630TIP3    H132449   3.868   5.210   7.111  1.1727  0.4157  2.0145
 3630TIP3    H232450   3.811   5.070   7.106 -0.6874  1.1768 -1.6464
 3631TIP3   OH232451   2.444   4.706   8.404 -0.6865 -0.1353 -0.1470
 3631TIP3    H132452   2.529   4.687   8.364 -1.5507 -0.3908 -1.9693
 3631TIP3    H232453   2.432   4.800   8.392 -1.6480 -0.4467 -2.0791
 3632TIP3   OH232454   5.882   5.274   1.210  0.1863 -0.4480 -0.4395
 3632TIP3    H132455   5.838   5.342   1.159  0.6222 -0.5557 -0.9692
 3632TIP3    H232456   5.967   5.263   1.168  0.8449 -0.0541  0.7312
 3633TIP3   OH232457   3.468   6.153   7.995 -0.0378 -0.3193  0.4334
 3633TIP3    H132458   3.420   6.207   7.932  2.5832  1.1705 -0.4444
 3633TIP3    H232459   3.453   6.196   8.080  2.3135  2.2187 -0.2931
 3634TIP3   OH232460   4.696   5.089   2.353 -0.2623 -0.6813  0.2696
 3634TIP3    H132461   4.693   5.035   2.432 -0.2325 -0.3770  0.4789
 3634TIP3    H232462   4.694   5.179   2.385  0.8184 -0.5379 -0.0284
 3635TIP3   OH232463   1.029   3.317   7.540  0.2813 -0.1123  0.2287
 3635TIP3    H132464   1.104   3.260   7.524 -0.1560 -1.1013  1.5347
 3635TIP3    H232465   1.059   3.380   7.605  0.2659  0.0825  0.0467
 3636TIP3   OH232466   3.417   4.369   8.384 -0.3250  0.5436  0.1127
 3636TIP3    H132467   3.422   4.295   8.445  1.7529 -0.2774 -0.9621
 3636TIP3    H232468   3.406   4.327   8.298 -0.3469  1.5555 -0.3842
 3637TIP3   OH232469   6.072   3.040   7.879  0.5130  0.3937 -0.5502
 3637TIP3    H132470   6.057   3.040   7.973 -1.1112  1.9794 -0.7379
 3637TIP3    H232471   6.138   3.108   7.865 -0.5676  1.4681 -0.6576
 3638TIP3   OH232472   4.837   1.399   1.606 -0.2452 -0.0153 -0.7538
 3638TIP3    H132473   4.781   1.476   1.616 -0.2080 -0.0032 -0.6397
 3638TIP3    H232474   4.783   1.336   1.557 -0.8035 -0.4700  0.4122
 3639TIP3   OH232475   0.680   4.832   2.325 -0.3523 -0.8794  0.2796
 3639TIP3    H132476   0.598   4.855   2.368 -0.0002 -1.9609  1.5975
 3639TIP3    H232477   0.663   4.745   2.287 -0.1535 -0.6272 -0.3999
 3640TIP3   OH232478   6.337   1.481   1.972 -0.3511  0.5304  0.0570
 3640TIP3    H132479   6.418   1.484   2.023  0.9934 -0.4286 -1.8894
 3640TIP3    H232480   6.366   1.480   1.881 -2.6570  2.4273 -0.7975
 3641TIP3   OH232481   3.814   4.738   0.240 -0.5721 -0.0959 -0.0106
 3641TIP3    H132482   3.828   4.661   0.294  1.5328  0.5918  0.5237
 3641TIP3    H232483   3.815   4.811   0.302 -2.7715  0.3946 -0.4702
 3642TIP3   OH232484   2.919   5.560   0.915  0.2657  0.0436  0.2295
 3642TIP3    H132485   2.830   5.524   0.910 -0.2856  1.4342 -0.6362
 3642TIP3    H232486   2.952   5.558   0.825  0.3728  1.2339  0.2155
 3643TIP3   OH232487   1.388   5.205   1.955  0.3384 -0.3332 -0.5567
 3643TIP3    H132488   1.345   5.131   1.999  0.7188 -1.1526 -1.5271
 3643TIP3    H232489   1.425   5.167   1.875  0.8388  0.8448 -0.9016
 3644TIP3   OH232490   3.732   0.264   1.525 -0.2935 -0.0318 -0.3935
 3644TIP3    H132491   3.748   0.312   1.444 -0.4939 -0.4970 -0.7197
 3644TIP3    H232492   3.807   0.205   1.534 -0.7111 -0.6274 -0.7337
 3645TIP3   OH232493   3.842   1.366   0.295  1.1827 -0.1475  0.2400
 3645TIP3    H132494   3.753   1.333   0.285  1.7827 -1.6810 -0.3732
 3645TIP3    H232495   3.845   1.444   0.240 -0.1008  0.6515  1.2342
 3646TIP3   OH232496   3.011   5.365   7.650 -0.7535 -0.2473  0.3201
 3646TIP3    H132497   2.921   5.374   7.683 -0.0921  0.8660  1.9084
 3646TIP3    H232498   3.058   5.439   7.688  1.0063 -1.2071  0.0924
 3647TIP3   OH232499   6.348   3.438   0.095 -0.1142  0.0695  0.4499
 3647TIP3    H132500   6.312   3.353   0.123 -1.6149 -0.2723 -2.1529
 3647TIP3    H232501   6.286   3.502   0.130 -0.8064 -0.1880 -0.2697
 3648TIP3   OH232502   5.400   5.053   0.667  0.0317 -0.5423 -0.4259
 3648TIP3    H132503   5.471   4.992   0.647 -0.2161 -1.8391  2.3126
 3648TIP3    H232504   5.442   5.139   0.667  1.0059 -0.9869 -1.4352
 3649TIP3   OH232505   5.856   4.064   0.895 -0.2835 -0.0401  0.6029
 3649TIP3    H132506   5.921   4.123   0.857 -2.2316  1.0727 -1.2109
 3649TIP3    H232507   5.796   4.122   0.941 -3.6424 -0.0652 -3.2314
 3650TIP3   OH232508   6.739   6.751   0.226  0.2508 -0.2050 -0.3043
 3650TIP3    H132509   6.819   6.777   0.273 -0.3058  0.6229  0.2029
 3650TIP3    H232510   6.744   6.800   0.143 -0.1792  0.5725  0.1207
 3651TIP3   OH232511   5.680   3.552   8.494  0.0342  0.1438 -0.4602
 3651TIP3    H132512   5.729   3.532   8.414 -0.1773 -0.6306 -0.4037
 3651TIP3    H232513   5.713   3.638   8.521  0.4617  0.1917 -1.1069
 3652TIP3   OH232514   2.335   5.530   2.467  0.0041 -0.5086 -0.0667
 3652TIP3    H132515   2.284   5.466   2.418  0.8164 -1.4529  0.3004
 3652TIP3    H232516   2.286   5.612   2.457 -0.5838 -0.9838 -1.2694
 3653TIP3   OH232517   1.124   0.802   1.839  0.0026 -0.0943  0.4498
 3653TIP3    H132518   1.088   0.773   1.756  1.5090 -0.2286 -0.1858
 3653TIP3    H232519   1.117   0.725   1.896 -0.4963 -0.1764  0.2886
 3654TIP3   OH232520   1.298   6.180   0.581 -0.5946  0.5441 -0.1583
 3654TIP3    H132521   1.317   6.090   0.605  1.6254  1.2347  1.0016
 3654TIP3    H232522   1.220   6.203   0.631 -0.8137 -0.5253  0.0121
 3655TIP3   OH232523   0.632   1.936   1.485 -0.4916 -0.2001 -0.6799
 3655TIP3    H132524   0.704   1.939   1.421 -1.1578  0.8285 -1.4209
 3655TIP3    H232525   0.554   1.917   1.432 -1.1285  1.1661 -0.2644
 3656TIP3   OH232526   5.689   2.218   0.121  0.5419  0.3023 -0.2858
 3656TIP3    H132527   5.647   2.235   0.036 -1.2990  0.3297  0.5698
 3656TIP3    H232528   5.740   2.138   0.108 -1.6889 -1.1207 -0.8291
 3657TIP3   OH232529   2.274   2.053   0.036 -0.2183  0.1561  0.4858
 3657TIP3    H132530   2.270   2.096  -0.049 -0.5702  1.2014  1.0180
 3657TIP3    H232531   2.186   2.062   0.072  0.1354  0.4236  1.2941
 3658TIP3   OH232532   2.143   4.491   0.403 -0.1114 -0.1458  1.0020
 3658TIP3    H132533   2.215   4.440   0.441 -0.2522 -1.1164  0.0074
 3658TIP3    H232534   2.126   4.560   0.467  2.7448  1.0946  0.5696
 3659TIP3   OH232535   6.817   5.132   6.697  0.8074  0.1349 -0.0221
 3659TIP3    H132536   6.777   5.067   6.755 -0.4576  1.6159  0.8411
 3659TIP3    H232537   6.757   5.138   6.623  1.1062  0.0914 -0.2717
 3660TIP3   OH232538   2.307   6.240   1.181  0.5180 -0.0782  0.8131
 3660TIP3    H132539   2.276   6.299   1.113  0.3646 -0.9002  0.1549
 3660TIP3    H232540   2.391   6.207   1.147 -0.2241 -1.5719  0.3511
 3661TIP3   OH232541   1.464   1.437   7.114  0.5245  0.3469 -0.5064
 3661TIP3    H132542   1.399   1.373   7.083  1.3490 -0.9223  0.2987
 3661TIP3    H232543   1.536   1.431   7.051 -0.1149  1.8027 -1.4363
 3662TIP3   OH232544   1.445   6.584   0.367 -0.1585 -0.0324 -0.0634
 3662TIP3    H132545   1.529   6.547   0.392 -0.5579  0.5218  2.3474
 3662TIP3    H232546   1.398   6.512   0.326  0.9351 -0.7619 -0.0531
 3663TIP3   OH232547   4.122   1.522   7.476 -0.9287 -0.2109  0.6191
 3663TIP3    H132548   4.054   1.504   7.411  0.2272  3.0660 -1.7885
 3663TIP3    H232549   4.133   1.617   7.474  1.1733 -0.2130  3.6641
 3664TIP3   OH232550   3.001   4.810   1.678 -0.3366  0.1363  0.1043
 3664TIP3    H132551   3.020   4.845   1.766 -2.8337 -0.2528  0.8932
 3664TIP3    H232552   2.913   4.774   1.686 -0.7454  0.3301 -2.6686
 3665TIP3   OH232553   1.341   2.583   0.347 -0.3229  0.5554  0.2956
 3665TIP3    H132554   1.421   2.606   0.395  1.1343  0.9536 -2.1458
 3665TIP3    H232555   1.369   2.519   0.283 -1.9181  0.8788 -0.7788
 3666TIP3   OH232556   6.800   4.397   8.320 -0.1793 -0.0320 -0.1878
 3666TIP3    H132557   6.801   4.487   8.286  0.5198  0.4233  0.9538
 3666TIP3    H232558   6.753   4.347   8.254  0.1680  1.0094 -1.2696
 3667TIP3   OH232559   1.096   5.425   0.012  0.0549  0.4930 -0.4965
 3667TIP3    H132560   1.087   5.340   0.055  3.0496  0.4742  0.3620
 3667TIP3    H232561   1.028   5.425  -0.055 -0.3102 -2.4238 -0.2884
 3668TIP3   OH232562   4.300   2.399   1.771  0.5842  0.1535  0.8622
 3668TIP3    H132563   4.266   2.372   1.856  0.8804 -3.9431 -0.1114
 3668TIP3    H232564   4.379   2.346   1.759 -0.0410 -0.2773 -2.3353
 3669TIP3   OH232565   4.587   0.801   0.543  0.9854  0.5230 -0.0308
 3669TIP3    H132566   4.622   0.713   0.533 -0.4496 -0.3962  2.4114
 3669TIP3    H232567   4.641   0.841   0.612  0.0369  0.6443  0.6522
 3670TIP3   OH232568   4.513   6.029   1.646 -0.0501  0.6972  0.0511
 3670TIP3    H132569   4.599   6.072   1.642 -0.5466  1.6202 -1.1309
 3670TIP3    H232570   4.471   6.068   1.723  0.4087  0.5811  0.3636
 3671TIP3   OH232571   6.055   1.119   0.243  0.2800  0.2501  0.1978
 3671TIP3    H132572   6.128   1.165   0.285  0.5326  0.9012 -0.9137
 3671TIP3    H232573   5.981   1.131   0.303  0.0782  2.9807 -0.4584
 3672TIP3   OH232574   5.837   2.212   1.208 -0.8317 -0.5483  0.1337
 3672TIP3    H132575   5.763   2.160   1.240 -1.6114 -0.0382 -0.8098
 3672TIP3    H232576   5.846   2.187   1.116 -0.8870  0.5821 -0.1914
 3673TIP3   OH232577   1.077   6.156   2.522 -0.6560 -0.5917  0.2286
 3673TIP3    H132578   1.003   6.100   2.498 -0.2135 -2.1143  2.1620
 3673TIP3    H232579   1.041   6.245   2.522 -2.7905 -1.3559  1.9709
 3674TIP3   OH232580   5.886   4.214   0.021  0.0633  0.0388 -0.1581
 3674TIP3    H132581   5.813   4.213   0.084  1.3009 -1.0045  1.3206
 3674TIP3    H232582   5.869   4.139  -0.036 -1.2151  1.1508 -1.3127
 3675TIP3   OH232583   2.779   2.269   2.139 -0.8726  0.0218 -0.4801
 3675TIP3    H132584   2.815   2.195   2.091  0.7623  1.6781 -1.9768
 3675TIP3    H232585   2.846   2.291   2.204 -1.3020  0.2281 -0.1020
 3676TIP3   OH232586   4.687   4.212   2.200  0.1211  0.1499  0.0111
 3676TIP3    H132587   4.778   4.189   2.180  0.1599 -0.2758  0.6538
 3676TIP3    H232588   4.670   4.172   2.285 -0.9079 -0.3900 -0.4305
 3677TIP3   OH232589   6.701   1.679   8.532  0.0956  0.2761 -0.5886
 3677TIP3    H132590   6.639   1.737   8.577 -1.6826 -2.1342  0.3104
 3677TIP3    H232591   6.647   1.628   8.471  1.1245 -1.8621  0.1700
 3678TIP3   OH232592   1.366   1.710   1.939 -0.4730  0.7654  0.0817
 3678TIP3    H132593   1.315   1.693   2.018 -1.6875 -0.0400 -0.8385
 3678TIP3    H232594   1.340   1.798   1.912 -0.8471  0.6227 -0.0140
 3679TIP3   OH232595   0.906   2.332   8.283 -0.5350  0.0251  0.2031
 3679TIP3    H132596   0.896   2.304   8.373  1.5033  0.9909  0.7826
 3679TIP3    H232597   0.931   2.253   8.235 -3.0424 -0.8050  0.1320
 3680TIP3   OH232598   3.375   1.591   2.661 -0.2397  0.4831  0.4458
 3680TIP3    H132599   3.446   1.622   2.605  0.3902 -1.2624  0.2326
 3680TIP3    H232600   3.305   1.567   2.601  0.5545 -1.6978  0.2911
 3681TIP3   OH232601   1.305   2.688   1.330 -0.3274 -0.6298 -0.4088
 3681TIP3    H132602   1.222   2.711   1.287 -0.0228 -1.0662 -1.2589
 3681TIP3    H232603   1.364   2.760   1.310  0.1261 -1.3132 -1.6468
 3682TIP3   OH232604   3.325   0.710   8.102  0.5911 -0.9057  0.0100
 3682TIP3    H132605   3.242   0.721   8.148  0.7504  0.1298  0.0860
 3682TIP3    H232606   3.311   0.636   8.043 -0.4947 -0.5396 -0.2091
 3683TIP3   OH232607   4.463   3.479   2.455 -0.1630  0.9123  0.3202
 3683TIP3    H132608   4.408   3.455   2.530 -1.8696  1.2716 -0.7616
 3683TIP3    H232609   4.408   3.460   2.379  1.2137  1.3632 -0.8190
 3684TIP3   OH232610   4.577   2.696   1.856  0.4083  0.1497  0.7449
 3684TIP3    H132611   4.542   2.625   1.803  0.9976  0.5479 -0.1975
 3684TIP3    H232612   4.501   2.733   1.901 -0.2483  0.4413 -0.5845
 3685TIP3   OH232613   1.372   1.867   6.950 -0.3401 -0.1332 -0.3766
 3685TIP3    H132614   1.379   1.791   7.009 -1.5346 -0.8389 -1.1049
 3685TIP3    H232615   1.339   1.937   7.005  0.3871 -0.2364  0.2164
 3686TIP3   OH232616   6.126   5.670   0.696  0.6396 -0.0595  0.1178
 3686TIP3    H132617   6.090   5.632   0.776  0.1647  0.0005 -0.0591
 3686TIP3    H232618   6.058   5.731   0.666  0.5828 -0.4679 -0.6049
 3687TIP3   OH232619   3.791   6.651   2.712  0.2513  0.2011  0.0387
 3687TIP3    H132620   3.773   6.654   2.618  0.2333 -0.7576  0.0032
 3687TIP3    H232621   3.719   6.600   2.749  0.5720  0.0742  0.4949
 3688TIP3   OH232622   2.117   6.470   1.982 -0.6834 -0.8555  0.4717
 3688TIP3    H132623   2.126   6.443   2.074  0.3525 -0.9342  0.3604
 3688TIP3    H232624   2.080   6.393   1.938 -0.6578 -1.0123  0.7176
 3689TIP3   OH232625   1.229   6.258   1.098 -0.3358 -0.2268  0.6076
 3689TIP3    H132626   1.185   6.183   1.059  0.0958 -0.8645  1.3095
 3689TIP3    H232627   1.193   6.334   1.053 -0.4560 -0.8836 -0.4316
 3690TIP3   OH232628   4.597   0.331   7.017 -0.5328  0.1035  0.3038
 3690TIP3    H132629   4.626   0.245   7.048 -1.7937  0.0563  1.4587
 3690TIP3    H232630   4.659   0.354   6.948  0.8936 -0.9490  1.1674
 3691TIP3   OH232631   5.869   5.485   0.496  0.3799 -0.0030  0.4250
 3691TIP3    H132632   5.848   5.405   0.545  1.0685  1.2393  2.9372
 3691TIP3    H232633   5.958   5.470   0.464 -0.1647 -0.9308 -0.7224
 3692TIP3   OH232634   2.227   2.057   7.373  0.9171  0.0477  0.7034
 3692TIP3    H132635   2.152   2.012   7.333  2.7436 -0.4874 -2.3963
 3692TIP3    H232636   2.226   2.144   7.334  0.4740  0.9926  2.6753
 3693TIP3   OH232637   2.719   3.946   7.633  0.0547  0.1369  0.2105
 3693TIP3    H132638   2.669   3.873   7.669 -0.6358  0.4616 -0.0656
 3693TIP3    H232639   2.653   4.011   7.610  0.4313 -0.1234 -1.8134
 3694TIP3   OH232640   6.785   6.876   8.572 -0.0496  0.6958 -0.1044
 3694TIP3    H132641   6.871   6.886   8.531  0.6790  1.4332  1.5516
 3694TIP3    H232642   6.760   6.964   8.597  0.0613  0.1744  2.0288
 3695TIP3   OH232643   0.223   1.234   7.136  0.0604  0.1012 -0.3289
 3695TIP3    H132644   0.145   1.179   7.130  1.4583 -2.0100 -0.2669
 3695TIP3    H232645   0.211   1.285   7.216 -1.6683  0.5719 -0.8473
 3696TIP3   OH232646   0.747   4.034   8.505 -0.6214 -0.7766 -0.4986
 3696TIP3    H132647   0.693   4.096   8.455  0.3159  0.2380 -0.2865
 3696TIP3    H232648   0.803   4.090   8.559 -0.8195 -1.8350  0.8490
 3697TIP3   OH232649   1.661   4.082   1.119 -0.2692 -0.2396  0.2599
 3697TIP3    H132650   1.653   3.998   1.163 -1.0709 -1.4617 -2.0177
 3697TIP3    H232651   1.571   4.116   1.116  0.1082  0.9482  1.5504
 3698TIP3   OH232652   3.410   0.786   1.892 -0.1569 -0.8481  0.1993
 3698TIP3    H132653   3.355   0.858   1.923 -0.6667 -1.2662  0.2854
 3698TIP3    H232654   3.388   0.712   1.950 -0.2696 -1.3067 -0.4140
 3699TIP3   OH232655   4.456   0.584   1.522  0.6707 -0.1901 -0.4163
 3699TIP3    H132656   4.493   0.545   1.601 -1.3985  1.3837  1.4577
 3699TIP3    H232657   4.420   0.510   1.474  1.6660 -1.1563  0.2714
 3700TIP3   OH232658   6.369   5.718   0.592 -0.3517  0.1634 -0.2785
 3700TIP3    H132659   6.409   5.789   0.641 -1.0075  1.7829 -1.9807
 3700TIP3    H232660   6.286   5.702   0.637 -0.6479  1.1676 -0.4431
 3701TIP3   OH232661   1.460   0.151   1.001  0.3402  0.2506  0.2706
 3701TIP3    H132662   1.493   0.162   1.090 -2.3537  2.2844  1.1127
 3701TIP3    H232663   1.366   0.141   1.010 -0.4857  3.6303 -2.4427
 3702TIP3   OH232664   0.573   3.873   2.622  0.0166 -0.1831 -0.0511
 3702TIP3    H132665   0.504   3.807   2.628  0.2377 -0.2855  2.1677
 3702TIP3    H232666   0.536   3.951   2.663  1.0723 -0.1417  0.8795
 3703TIP3   OH232667   2.842   2.240   0.009 -0.4781 -0.3468  0.4059
 3703TIP3    H132668   2.858   2.268   0.099  0.8166 -0.8896  0.3635
 3703TIP3    H232669   2.796   2.157   0.017  0.2295 -0.7244  0.5731
 3704TIP3   OH232670   1.967   2.055   0.825  0.8892 -0.0704  0.2825
 3704TIP3    H132671   2.019   2.044   0.905 -0.0964  0.4547  1.0259
 3704TIP3    H232672   2.024   2.025   0.755  1.7562 -0.6219  1.1918
 3705TIP3   OH232673   5.166   4.523   7.385  0.6029  0.5091 -0.3484
 3705TIP3    H132674   5.228   4.452   7.368 -0.9760 -0.9406 -0.3462
 3705TIP3    H232675   5.104   4.519   7.312 -1.4004 -0.3093  1.2982
 3706TIP3   OH232676   3.467   6.412   0.997  0.1533  0.1411 -0.0724
 3706TIP3    H132677   3.444   6.505   1.000  0.5010  0.1962  1.9936
 3706TIP3    H232678   3.503   6.393   1.083  0.0938 -1.9301 -0.4523
 3707TIP3   OH232679   4.458   0.608   8.123 -0.3027  0.2150  0.2239
 3707TIP3    H132680   4.518   0.576   8.191 -0.8460 -0.3722  0.4420
 3707TIP3    H232681   4.505   0.679   8.080 -0.5082  1.6108  2.1784
 3708TIP3   OH232682   2.156   0.629   7.460  0.6792  0.0025  0.1754
 3708TIP3    H132683   2.218   0.678   7.406  0.0187 -0.9557 -1.5675
 3708TIP3    H232684   2.208   0.559   7.499  1.0238  0.2116  0.0914
 3709TIP3   OH232685   2.120   5.048   7.265  0.1629  0.1770 -0.0331
 3709TIP3    H132686   2.127   5.123   7.206 -2.6917  0.9788  0.4653
 3709TIP3    H232687   2.029   5.050   7.295  0.9209 -1.4585  2.7319
 3710TIP3   OH232688   4.237   3.881   0.022 -0.3009 -0.3848 -0.1535
 3710TIP3    H132689   4.169   3.904   0.085 -0.7378 -0.4710 -0.5848
 3710TIP3    H232690   4.312   3.853   0.075 -0.0742  1.1424  0.3641
 3711TIP3   OH232691   4.060   2.560   0.233 -0.6004 -0.6354 -0.2188
 3711TIP3    H132692   4.107   2.558   0.317  0.0878  0.1994 -0.5673
 3711TIP3    H232693   3.968   2.570   0.257 -0.4212 -0.5393  0.4494
 3712TIP3   OH232694   4.134   3.640   2.068 -0.2947  0.1513 -0.2297
 3712TIP3    H132695   4.092   3.724   2.047 -0.8453 -0.0816 -0.0839
 3712TIP3    H232696   4.062   3.585   2.100  0.1870 -0.1361  0.3867
 3713TIP3   OH232697   1.786   4.584   0.064  0.4895 -0.4608  0.1546
 3713TIP3    H132698   1.736   4.585  -0.018 -0.5917 -1.5242  0.7643
 3713TIP3    H232699   1.870   4.624   0.042  0.7514 -1.9627 -1.7955
 3714TIP3   OH232700   6.580   0.275   6.888  0.7649  0.0206  0.2388
 3714TIP3    H132701   6.642   0.204   6.871  1.3345  0.2935  1.1278
 3714TIP3    H232702   6.523   0.276   6.811  2.2493  0.1754 -0.9032
 3715TIP3   OH232703   3.443   1.521   2.915 -0.0111 -0.0966 -0.4321
 3715TIP3    H132704   3.386   1.553   2.844  0.9436 -1.1801 -1.7216
 3715TIP3    H232705   3.524   1.571   2.904  0.3567 -0.7027 -0.4915
 3716TIP3   OH232706   0.988   2.215   0.811  0.3632  0.3914 -0.4514
 3716TIP3    H132707   1.010   2.274   0.740 -0.6583 -0.2856 -1.3726
 3716TIP3    H232708   1.070   2.170   0.833  0.4591 -0.2703 -2.0520
 3717TIP3   OH232709   2.763   4.250   7.204  0.3962 -0.7347  0.0468
 3717TIP3    H132710   2.848   4.210   7.220 -0.2650 -1.6361  1.5595
 3717TIP3    H232711   2.704   4.177   7.189  0.0660 -0.0859 -2.3376
 3718TIP3   OH232712   3.054   2.964   1.576  0.0561 -0.3020 -0.4333
 3718TIP3    H132713   3.125   2.903   1.556  0.2320 -0.7257  1.3908
 3718TIP3    H232714   2.974   2.917   1.553 -0.0516 -2.5741  3.7455
 3719TIP3   OH232715   6.541   0.675   0.826  0.9842  0.1261  0.1925
 3719TIP3    H132716   6.491   0.715   0.897  0.4040  1.0977 -0.7306
 3719TIP3    H232717   6.495   0.701   0.746  0.7123 -2.2284 -0.4956
 3720TIP3   OH232718   3.310   6.385   7.306  0.5659  0.5872 -0.3334
 3720TIP3    H132719   3.351   6.471   7.315  2.8334 -0.5980  2.0382
 3720TIP3    H232720   3.380   6.323   7.324 -1.7261 -1.6826  1.6415
 3721TIP3   OH232721   2.266   4.579   0.168 -0.4551 -0.3502  0.3262
 3721TIP3    H132722   2.206   4.572   0.242 -2.0052 -0.8306 -0.9207
 3721TIP3    H232723   2.319   4.657   0.187 -0.9622 -0.3449  1.8208
 3722TIP3   OH232724   3.912   4.060   7.932 -0.3147 -0.9033 -0.2078
 3722TIP3    H132725   3.927   4.110   8.012 -2.8164 -0.0076 -0.2137
 3722TIP3    H232726   3.854   3.988   7.959 -0.0716 -1.3974 -0.9637
 3723TIP3   OH232727   0.279   5.463   1.195 -0.0370 -0.2505  0.0391
 3723TIP3    H132728   0.335   5.474   1.272  0.3538 -1.3877 -0.0588
 3723TIP3    H232729   0.194   5.495   1.222  0.7496  2.0390  0.0272
 3724TIP3   OH232730   2.892   1.441   1.881  0.8872  0.3689 -0.6472
 3724TIP3    H132731   2.984   1.434   1.907  0.8722 -1.1414 -0.9225
 3724TIP3    H232732   2.868   1.531   1.903  1.3191 -0.2638  3.0697
 3725TIP3   OH232733   3.498   2.318   6.723  0.2847 -0.4635  0.0181
 3725TIP3    H132734   3.453   2.364   6.651 -0.0359 -1.7363 -0.6200
 3725TIP3    H232735   3.549   2.250   6.679  1.2076 -0.3635  0.9057
 3726TIP3   OH232736   1.867   6.300   7.211  0.0399 -0.2735 -0.1003
 3726TIP3    H132737   1.928   6.235   7.175  1.3774  0.5106  0.6613
 3726TIP3    H232738   1.846   6.357   7.137  0.6419 -0.2514 -0.2592
 3727TIP3   OH232739   2.848   6.431   6.343 -0.1555  0.1723  0.2231
 3727TIP3    H132740   2.901   6.352   6.343  0.3950  0.5205 -0.8584
 3727TIP3    H232741   2.762   6.403   6.375  0.4225 -0.5695  1.1670
 3728TIP3   OH232742   6.514   2.523   6.951  0.2505 -0.0583 -0.1997
 3728TIP3    H132743   6.532   2.482   7.035 -0.9163  1.0086  0.6052
 3728TIP3    H232744   6.592   2.574   6.932 -0.7376  2.4821  1.9893
 3729TIP3   OH232745   1.478   5.852   0.059 -0.1172 -0.0085 -0.0008
 3729TIP3    H132746   1.439   5.786   0.001 -0.2893 -2.0452  2.2606
 3729TIP3    H232747   1.526   5.910  -0.000  0.5683 -2.5146 -2.1425
 3730TIP3   OH232748   4.786   4.482   7.730 -0.9665  0.3167  0.2916
 3730TIP3    H132749   4.734   4.413   7.772 -1.4379  0.4363 -0.0902
 3730TIP3    H232750   4.829   4.438   7.656 -0.0578  0.0830  0.9418
 3731TIP3   OH232751   2.297   4.318   1.589  0.0363  0.4919 -0.4058
 3731TIP3    H132752   2.301   4.300   1.683  0.1681  0.2976 -0.4477
 3731TIP3    H232753   2.333   4.240   1.548  0.9362  0.9803 -0.5765
 3732TIP3   OH232754   5.221   3.109   7.490 -0.1043 -0.3273 -0.5878
 3732TIP3    H132755   5.306   3.114   7.445 -0.1036  3.8000 -0.4824
 3732TIP3    H232756   5.156   3.121   7.421 -0.4264  0.1061 -0.2091
 3733TIP3   OH232757   4.823   2.878   0.631 -0.2224 -0.1507  0.2068
 3733TIP3    H132758   4.761   2.826   0.579  0.4433 -0.9828  0.2188
 3733TIP3    H232759   4.874   2.813   0.679 -1.7039  0.5831  3.0082
 3734TIP3   OH232760   4.802   1.728   6.948 -0.0906 -0.1196 -0.5837
 3734TIP3    H132761   4.811   1.694   6.859 -0.1266 -0.8958 -0.3009
 3734TIP3    H232762   4.840   1.816   6.944 -0.5634  0.0591 -1.4811
 3735TIP3   OH232763   5.351   1.308   0.411  0.2774 -0.0446  0.3010
 3735TIP3    H132764   5.348   1.259   0.494  0.7383 -0.2229  0.2175
 3735TIP3    H232765   5.376   1.397   0.438 -1.3004  0.3512  0.5319
 3736TIP3   OH232766   4.361   6.400   1.283  0.2243 -0.2668  0.1364
 3736TIP3    H132767   4.383   6.401   1.376  0.4418 -1.1891  0.1030
 3736TIP3    H232768   4.286   6.459   1.275  2.4858  2.8198  0.2964
 3737TIP3   OH232769   2.307   3.649   8.237 -0.2772 -1.1020 -0.0540
 3737TIP3    H132770   2.303   3.554   8.237 -1.3957 -1.1318 -2.4469
 3737TIP3    H232771   2.220   3.677   8.265  0.3298 -0.6998  1.5936
 3738TIP3   OH232772   4.689   0.914   0.790  0.1567  0.7151  0.4521
 3738TIP3    H132773   4.736   0.832   0.806  1.1013  1.2812  0.6514
 3738TIP3    H232774   4.713   0.970   0.864  0.6781  1.6652 -0.4065
 3739TIP3   OH232775   5.735   3.453   6.543 -0.1885  0.0619 -0.1881
 3739TIP3    H132776   5.745   3.358   6.547 -0.5127  0.0276 -0.1468
 3739TIP3    H232777   5.671   3.473   6.612 -0.5494  0.2489 -0.5739
 3740TIP3   OH232778   5.907   2.128   1.945 -0.4583  0.1083  0.1907
 3740TIP3    H132779   5.907   2.208   1.999  0.4910 -0.2369  0.7285
 3740TIP3    H232780   5.815   2.112   1.926 -0.8077  0.3532  1.5667
 3741TIP3   OH232781   4.900   3.241   6.691  0.2991 -0.2983  0.0333
 3741TIP3    H132782   4.944   3.157   6.697 -0.2782 -0.5396  1.2659
 3741TIP3    H232783   4.829   3.228   6.629 -1.2120 -1.4253  1.8955
 3742TIP3   OH232784   2.803   4.440   0.987 -0.1967  0.4823 -0.3037
 3742TIP3    H132785   2.891   4.429   1.022 -1.5071 -1.3264  3.0057
 3742TIP3    H232786   2.801   4.529   0.953  2.8908  0.5387 -0.6027
 3743TIP3   OH232787   2.473   3.240   1.618 -0.4010 -0.2177 -0.0861
 3743TIP3    H132788   2.489   3.168   1.678  3.3085  1.8770  1.7953
 3743TIP3    H232789   2.519   3.215   1.538  0.2912 -0.2766  0.3212
 3744TIP3   OH232790   3.822   2.579   7.143  0.2387  0.2089  0.4587
 3744TIP3    H132791   3.776   2.503   7.178  1.5984  0.1452  2.3085
 3744TIP3    H232792   3.914   2.562   7.163  0.5129  2.6905  1.7958
 3745TIP3   OH232793   1.972   0.875   8.243  0.0104 -0.0036 -0.2550
 3745TIP3    H132794   2.064   0.867   8.219 -0.0616 -1.0887 -0.2085
 3745TIP3    H232795   1.971   0.885   8.338  0.1266  1.0334 -0.3562
 3746TIP3   OH232796   0.434   2.678   8.575  0.2742  0.0744 -0.5634
 3746TIP3    H132797   0.419   2.696   8.482 -0.6141  2.8235  0.0154
 3746TIP3    H232798   0.364   2.727   8.619  0.2352 -1.7749  1.5371
 3747TIP3   OH232799   1.028   5.142   8.049  0.1432  0.2040 -0.3154
 3747TIP3    H132800   0.978   5.100   8.118  0.2104  0.0553 -0.3563
 3747TIP3    H232801   1.117   5.108   8.060  0.7991  2.1907  1.2028
 3748TIP3   OH232802   4.800   4.569   1.205  0.2291  0.0564  0.1605
 3748TIP3    H132803   4.739   4.616   1.149  1.6120  1.0683 -0.5764
 3748TIP3    H232804   4.763   4.482   1.214 -1.8807  0.9524  0.6809
 3749TIP3   OH232805   0.702   0.367   8.308 -0.5099  0.1029 -0.5436
 3749TIP3    H132806   0.650   0.381   8.229 -2.3099  2.0685  0.8655
 3749TIP3    H232807   0.779   0.422   8.296 -0.2978 -0.3478 -1.3057
 3750TIP3   OH232808   4.424   4.286   8.137  0.3370  0.0396 -0.5683
 3750TIP3    H132809   4.414   4.267   8.044  1.3325  0.4226 -0.7652
 3750TIP3    H232810   4.361   4.356   8.154  0.3785  0.1930 -1.0279
 3751TIP3   OH232811   1.479   4.042   8.208 -0.3055  0.0593 -0.5691
 3751TIP3    H132812   1.490   4.040   8.113 -0.6275 -0.0206 -0.6074
 3751TIP3    H232813   1.389   4.012   8.222 -0.1991 -0.1098 -0.2279
 3752TIP3   OH232814   2.700   1.246   8.220  0.1538 -0.9125 -0.2168
 3752TIP3    H132815   2.659   1.328   8.247  0.2124 -0.8688 -0.2601
 3752TIP3    H232816   2.637   1.205   8.162  0.9399  0.0477 -1.8272
 3753TIP3   OH232817   4.654   2.608   1.572  0.1754  0.3235 -0.1884
 3753TIP3    H132818   4.604   2.583   1.494  0.1980 -1.4585  0.3090
 3753TIP3    H232819   4.717   2.672   1.541 -0.2382  0.1212 -1.5048
 3754TIP3   OH232820   0.623   3.951   0.421 -0.1490 -0.7952  0.4621
 3754TIP3    H132821   0.688   3.963   0.352 -0.2117 -0.7857  0.4046
 3754TIP3    H232822   0.673   3.956   0.503 -0.0316 -1.0870  0.4105
 3755TIP3   OH232823   0.490   4.261   0.171 -0.0827 -0.5167 -0.1434
 3755TIP3    H132824   0.427   4.272   0.243 -0.6374  0.2054 -0.7290
 3755TIP3    H232825   0.574   4.287   0.209 -0.6579  1.7041 -0.2374
 3756TIP3   OH232826   4.751   2.088   8.170  0.0780  0.3772  0.4038
 3756TIP3    H132827   4.807   2.108   8.095 -0.6979  1.0488 -0.0211
 3756TIP3    H232828   4.668   2.060   8.131 -0.5817  1.4291  0.9765
 3757TIP3   OH232829   3.272   5.481   0.815 -0.0363 -0.8391 -0.0026
 3757TIP3    H132830   3.279   5.543   0.743  0.2003 -1.1963 -0.2940
 3757TIP3    H232831   3.326   5.406   0.787  1.2016 -0.4081  1.1532
 3758TIP3   OH232832   2.832   4.290   6.919  0.4015  0.3323  0.6861
 3758TIP3    H132833   2.839   4.309   7.012 -0.0091  1.2786  0.5270
 3758TIP3    H232834   2.824   4.375   6.877  3.0233  0.1210 -0.4470
 3759TIP3   OH232835   2.060   4.407   8.028  0.4312  0.0241  0.2443
 3759TIP3    H132836   2.026   4.338   8.085 -0.0488 -2.3890 -2.7240
 3759TIP3    H232837   2.142   4.434   8.069  0.9949 -2.8442  1.1890
 3760TIP3   OH232838   1.101   5.720   0.184  0.5664 -0.2035 -0.3040
 3760TIP3    H132839   1.122   5.687   0.097 -1.9623 -1.8825 -0.3640
 3760TIP3    H232840   1.072   5.810   0.169  0.2534 -0.4468 -1.1939
 3761TIP3   OH232841   3.915   6.880   6.767  0.0767  0.4189 -0.2898
 3761TIP3    H132842   3.928   6.970   6.798  0.6625  0.8689 -1.7304
 3761TIP3    H232843   3.944   6.882   6.676 -1.2718 -0.8908 -0.7990
 3762TIP3   OH232844   2.254   4.963   2.322 -0.1505  0.0286 -0.1358
 3762TIP3    H132845   2.188   5.030   2.341  0.9108  0.9301  0.4799
 3762TIP3    H232846   2.303   4.997   2.247  0.3132 -0.1146  0.0979
 3763TIP3   OH232847   4.390   2.390   7.515 -0.3612  0.3316  0.0105
 3763TIP3    H132848   4.415   2.434   7.596 -1.0213  3.0338 -1.1495
 3763TIP3    H232849   4.471   2.388   7.463 -0.7302  1.9033 -0.6544
 3764TIP3   OH232850   4.322   3.889   0.399  0.1737  0.1423  0.5713
 3764TIP3    H132851   4.336   3.798   0.422 -0.0154 -0.2268 -0.6877
 3764TIP3    H232852   4.406   3.932   0.416  0.4205 -0.3758  0.6663
 3765TIP3   OH232853   1.899   2.615   0.413  0.0711  0.1298  0.3015
 3765TIP3    H132854   1.981   2.637   0.367 -1.2584  2.1799 -1.2958
 3765TIP3    H232855   1.916   2.638   0.504  1.6730 -0.6976  0.2381
 3766TIP3   OH232856   4.476   1.691   6.957 -0.4051 -0.1140 -0.0968
 3766TIP3    H132857   4.489   1.700   7.052  0.3016 -0.7669 -0.1214
 3766TIP3    H232858   4.559   1.719   6.919 -1.2222  1.7354 -0.6364
 3767TIP3   OH232859   1.924   0.510   0.799  0.0631  0.0614 -0.0794
 3767TIP3    H132860   1.969   0.574   0.854 -0.0375  0.1179 -0.0610
 3767TIP3    H232861   1.938   0.426   0.843  0.8050 -0.0372 -0.4864
 3768TIP3   OH232862   2.664   5.646   7.430  0.3142 -0.2463 -0.0376
 3768TIP3    H132863   2.679   5.740   7.444  0.3608 -0.1616 -0.6134
 3768TIP3    H232864   2.750   5.612   7.406 -0.2505  0.1879 -3.0773
 3769TIP3   OH232865   4.125   0.017   8.412 -0.0971 -0.0237  0.0664
 3769TIP3    H132866   4.080   0.097   8.387  0.3787  0.5359  0.9619
 3769TIP3    H232867   4.056  -0.040   8.445 -0.2521  0.5944  0.8439
 3770TIP3   OH232868   1.245   2.524   8.461 -0.1024 -0.0703  0.3353
 3770TIP3    H132869   1.313   2.551   8.399 -1.8079 -0.9834 -2.0992
 3770TIP3    H232870   1.250   2.428   8.461 -1.2149 -0.1360  0.3014
 3771TIP3   OH232871   0.953   4.610   1.796  0.3559 -0.1450 -0.3463
 3771TIP3    H132872   0.875   4.664   1.779 -1.4966 -1.6173  2.6838
 3771TIP3    H232873   0.921   4.520   1.797  2.2462 -0.8682  0.2775
 3772TIP3   OH232874   6.845   1.834   7.489  0.7563 -0.1813 -0.0569
 3772TIP3    H132875   6.920   1.802   7.538  1.7849  0.5518 -1.1123
 3772TIP3    H232876   6.769   1.805   7.541  1.6739 -2.3487  0.1876
 3773TIP3   OH232877   3.964   4.228   0.143  0.0649 -0.0281 -0.0803
 3773TIP3    H132878   3.925   4.200   0.060 -0.0481 -0.7503  0.2080
 3773TIP3    H232879   3.891   4.228   0.205 -0.1645  1.9139 -0.2713
 3774TIP3   OH232880   1.781   3.180   0.630  0.0269 -0.2898 -0.4670
 3774TIP3    H132881   1.777   3.266   0.672  0.5670 -0.3030 -0.3829
 3774TIP3    H232882   1.865   3.179   0.585 -0.1072 -0.6647 -0.7158
 3775TIP3   OH232883   5.367   5.364   1.129 -0.1732 -0.5990 -0.3344
 3775TIP3    H132884   5.415   5.412   1.197 -0.5497  0.6520 -0.9292
 3775TIP3    H232885   5.320   5.431   1.080 -0.7230 -1.5821 -1.2017
 3776TIP3   OH232886   0.924   6.543   7.593  0.2413 -0.4792  0.6408
 3776TIP3    H132887   0.905   6.511   7.682  1.7225 -0.5492  0.9530
 3776TIP3    H232888   1.019   6.537   7.585  0.0729 -1.2582 -1.2630
 3777TIP3   OH232889   1.472   1.266   8.392  0.0274 -0.3255 -0.1009
 3777TIP3    H132890   1.448   1.188   8.341  0.7642 -0.6468  0.0390
 3777TIP3    H232891   1.426   1.255   8.475  0.4149 -0.7908  0.0550
 3778TIP3   OH232892   6.317   6.560   0.654 -0.1560 -0.3234  0.0181
 3778TIP3    H132893   6.388   6.622   0.670 -0.8620  0.8975 -1.3782
 3778TIP3    H232894   6.337   6.522   0.569  0.5422 -2.4653  1.0757
 3779TIP3   OH232895   2.252   0.891   1.494 -0.1585  0.0291 -0.1688
 3779TIP3    H132896   2.190   0.963   1.490 -1.0127 -0.7046 -0.4004
 3779TIP3    H232897   2.207   0.817   1.453  1.7008  0.0760 -2.5738
 3780TIP3   OH232898   2.477   6.738   7.503  0.5397  0.2027 -0.1778
 3780TIP3    H132899   2.520   6.653   7.494 -0.2412 -0.0438 -2.1131
 3780TIP3    H232900   2.437   6.754   7.418  1.6259  3.0640 -0.2719
 3781TIP3   OH232901   2.662   5.296   7.328 -0.2663  0.6970 -0.0204
 3781TIP3    H132902   2.661   5.213   7.377 -0.5300 -1.1899 -2.9597
 3781TIP3    H232903   2.745   5.336   7.350 -0.7446  0.4259  2.5919
 3782TIP3   OH232904   5.539   5.579   1.589 -0.2024 -0.1083  0.0856
 3782TIP3    H132905   5.490   5.658   1.612 -1.8800 -1.0260 -0.1946
 3782TIP3    H232906   5.608   5.610   1.531 -0.5058  1.2235  0.4100
 3783TIP3   OH232907   1.574   5.516   1.965 -0.0014  0.7262  0.2351
 3783TIP3    H132908   1.651   5.470   1.930 -0.5811  0.3593 -0.5740
 3783TIP3    H232909   1.592   5.609   1.948 -0.4343  0.5306 -1.3900
 3784TIP3   OH232910   6.063   1.609   6.594 -0.5781 -0.1301  0.0714
 3784TIP3    H132911   6.031   1.699   6.596  0.0508  0.0884  0.3370
 3784TIP3    H232912   6.143   1.610   6.647  0.1797 -0.5420 -1.0255
 3785TIP3   OH232913   2.366   4.449   2.071  0.3770  0.4771  0.6277
 3785TIP3    H132914   2.384   4.383   2.138  0.0233  0.8732  1.1111
 3785TIP3    H232915   2.453   4.481   2.045  0.6294 -0.9310 -0.3856
 3786TIP3   OH232916   1.062   0.979   8.553  0.6902  0.1034 -0.1029
 3786TIP3    H132917   1.012   1.060   8.565 -1.0536 -0.8202 -0.6860
 3786TIP3    H232918   1.107   0.991   8.470  1.0701  0.7718  0.1920
 3787TIP3   OH232919   4.801   6.800   1.663 -0.0302 -0.1334  0.3995
 3787TIP3    H132920   4.820   6.881   1.616  0.9806 -0.5035  0.1440
 3787TIP3    H232921   4.718   6.770   1.627 -0.2874  0.6585  0.3209
 3788TIP3   OH232922   1.623   4.502   0.943  0.3598 -0.6828  0.1822
 3788TIP3    H132923   1.601   4.572   0.881 -1.4958  0.5511  2.0902
 3788TIP3    H232924   1.559   4.433   0.924 -0.2711 -0.2662  0.7310
 3789TIP3   OH232925   5.098   2.825   7.306  0.7877 -0.0156  0.5655
 3789TIP3    H132926   5.156   2.751   7.325  1.9131  0.9729  1.1022
 3789TIP3    H232927   5.132   2.861   7.224 -0.6034 -0.8864 -0.4369
 3790TIP3   OH232928   3.524   0.361   0.530 -0.0933 -0.1207  0.1049
 3790TIP3    H132929   3.566   0.355   0.444 -1.0924 -0.6508 -0.3537
 3790TIP3    H232930   3.513   0.455   0.545 -0.2598 -0.0417 -0.5121
 3791TIP3   OH232931   3.390   2.256   1.807 -0.5893 -0.0455 -0.6683
 3791TIP3    H132932   3.445   2.327   1.774  0.6898 -0.4552  0.5127
 3791TIP3    H232933   3.321   2.247   1.741  0.1201  1.2235 -1.6320
 3792TIP3   OH232934   1.821   3.493   0.442  0.5632  0.1706  0.1822
 3792TIP3    H132935   1.743   3.454   0.482 -0.2965  0.4974 -1.0921
 3792TIP3    H232936   1.868   3.419   0.404 -0.0114  0.1323 -0.4797
 3793TIP3   OH232937   2.934   4.357   8.456 -0.4675 -0.0148 -0.8281
 3793TIP3    H132938   2.963   4.391   8.540  0.6665 -0.5716 -0.9781
 3793TIP3    H232939   2.848   4.318   8.474 -0.6093  0.6153 -0.1210
 3794TIP3   OH232940   0.298   1.332   0.979 -0.3869 -0.3767 -0.2933
 3794TIP3    H132941   0.299   1.409   0.923  0.2527 -0.1828 -0.0231
 3794TIP3    H232942   0.281   1.259   0.920  0.4396 -0.1936 -0.7689
 3795TIP3   OH232943   1.044   0.734   6.544  0.1842  0.2862  0.7650
 3795TIP3    H132944   1.012   0.647   6.520  0.8025 -0.0099  0.9813
 3795TIP3    H232945   0.981   0.795   6.505 -0.5526 -0.2703  1.0647
 3796TIP3   OH232946   5.651   1.673   1.144 -0.6691 -0.0804  0.5497
 3796TIP3    H132947   5.746   1.665   1.153 -0.5281 -1.2344 -1.3605
 3796TIP3    H232948   5.617   1.657   1.232  0.8622 -0.3910  1.1197
 3797TIP3   OH232949   6.572   3.688   0.945  0.0211 -0.1752  0.1295
 3797TIP3    H132950   6.605   3.633   1.017  2.6479  1.2616  0.1616
 3797TIP3    H232951   6.538   3.766   0.989  1.6820  0.7300 -0.1176
 3798TIP3   OH232952   5.581   2.677   1.594  0.2578 -0.0175 -0.3252
 3798TIP3    H132953   5.547   2.637   1.674 -0.3161  0.2279 -0.4441
 3798TIP3    H232954   5.541   2.764   1.591  0.1484 -0.0848 -0.9586
 3799TIP3   OH232955   2.826   2.278   8.013  0.0592 -0.2691  0.4216
 3799TIP3    H132956   2.909   2.317   8.040 -0.0880 -1.3405  2.7121
 3799TIP3    H232957   2.851   2.201   7.962  0.4274  0.0378  0.1300
 3800TIP3   OH232958   1.527   5.773   6.508 -0.1501 -0.2283  0.3793
 3800TIP3    H132959   1.546   5.838   6.576 -1.1126 -0.8170  1.2302
 3800TIP3    H232960   1.539   5.689   6.551  0.5034 -0.6219 -0.5527
 3801TIP3   OH232961   0.827   6.271   0.794 -0.5269 -0.2260  0.1498
 3801TIP3    H132962   0.819   6.355   0.748  2.5080 -0.9740 -2.0801
 3801TIP3    H232963   0.866   6.294   0.879 -2.1466  0.7940  0.6631
 3802TIP3   OH232964   4.581   1.284   2.033  0.3097 -0.3201 -0.2632
 3802TIP3    H132965   4.573   1.301   2.127  0.6990  1.5493 -0.5355
 3802TIP3    H232966   4.661   1.330   2.007 -0.2960 -0.0288 -1.6727
 3803TIP3   OH232967   4.615   2.002   6.850  0.3847 -0.4911 -0.1874
 3803TIP3    H132968   4.703   1.969   6.866  0.7623  0.6553  0.2175
 3803TIP3    H232969   4.614   2.025   6.757  0.2406 -1.2787 -0.3819
 3804TIP3   OH232970   2.806   4.059   8.547  0.1794  0.2602 -0.3077
 3804TIP3    H132971   2.783   4.072   8.454  0.4370 -0.9089 -0.5511
 3804TIP3    H232972   2.729   4.015   8.584  0.6093 -0.5093 -0.3027
 3805TIP3   OH232973   5.099   0.348   7.636 -0.0234  0.4176 -0.4746
 3805TIP3    H132974   5.131   0.326   7.724  1.6572  0.0721 -1.1492
 3805TIP3    H232975   5.059   0.267   7.604 -0.5203  0.5063 -0.0990
 3806TIP3   OH232976   2.222   0.216   7.595  0.8592  0.0334 -0.0607
 3806TIP3    H132977   2.293   0.151   7.594  1.1464  0.3496 -0.0725
 3806TIP3    H232978   2.259   0.293   7.553  0.6937  0.4000  0.4639
 3807TIP3   OH232979   3.195   6.551   6.486 -0.8266  0.2726 -0.7384
 3807TIP3    H132980   3.263   6.492   6.453  0.5310  1.4304 -0.0790
 3807TIP3    H232981   3.116   6.524   6.439 -0.0311 -1.3994 -1.1982
 3808TIP3   OH232982   2.958   3.508   3.008 -0.8202  0.9634 -0.0895
 3808TIP3    H132983   2.878   3.457   3.017 -0.4836  0.2361 -0.9751
 3808TIP3    H232984   2.967   3.523   2.914  0.1886  0.8344 -0.0342
 3809TIP3   OH232985   3.123   2.933   0.389  0.1427  0.2251 -0.3859
 3809TIP3    H132986   3.114   3.020   0.349 -1.1172 -0.1373 -0.9386
 3809TIP3    H232987   3.042   2.920   0.438  1.5385  0.5476  2.1777
 3810TIP3   OH232988   0.671   2.524   0.938 -0.2679 -0.0168  0.7221
 3810TIP3    H132989   0.629   2.439   0.930  0.1160 -0.0859 -0.7482
 3810TIP3    H232990   0.669   2.561   0.850 -1.6574  2.1107  1.5619
 3811TIP3   OH232991   3.645   1.226   7.541  0.1854  0.3811 -0.2724
 3811TIP3    H132992   3.658   1.181   7.458  1.9895 -0.4721  0.4087
 3811TIP3    H232993   3.598   1.164   7.596 -1.6224  1.1985 -0.8117
 3812TIP3   OH232994   5.273   0.955   0.864 -0.0669  0.2238  0.6913
 3812TIP3    H132995   5.252   0.905   0.785  0.4800 -1.1431  1.3852
 3812TIP3    H232996   5.331   1.025   0.833 -0.0863 -0.1275 -0.1662
 3813TIP3   OH232997   4.752   2.894   1.841  0.4726 -0.5219 -0.1328
 3813TIP3    H132998   4.709   2.809   1.857  0.6910 -0.5864  0.1237
 3813TIP3    H232999   4.696   2.957   1.887  0.9515 -0.6756  0.6899
 3814TIP3   OH233000   4.626   5.436   7.514 -0.1053 -0.3247 -0.3911
 3814TIP3    H133001   4.584   5.394   7.589 -0.0102  0.1257 -0.0809
 3814TIP3    H233002   4.642   5.526   7.543  1.4237 -0.5721 -0.3406
 3815TIP3   OH233003   1.363   5.732   0.300 -0.2067  0.0111 -0.3009
 3815TIP3    H133004   1.423   5.746   0.226 -0.6583 -1.0176 -0.8825
 3815TIP3    H233005   1.278   5.719   0.260 -1.0080  2.1708  0.5571
 3816TIP3   OH233006   0.681   3.238   2.328 -0.2166  0.8629 -0.2303
 3816TIP3    H133007   0.686   3.291   2.249 -1.0676  3.3531  1.2369
 3816TIP3    H233008   0.772   3.231   2.358 -0.0142  0.8951 -0.8282
 3817TIP3   OH233009   0.328   6.030   1.648 -0.3039 -0.0277  0.1788
 3817TIP3    H133010   0.275   5.950   1.647  0.1661 -0.3513 -0.8499
 3817TIP3    H233011   0.266   6.100   1.664 -0.8766 -0.5079  0.1127
 3818TIP3   OH233012   2.463   2.307   1.777 -0.1018 -0.2170 -0.2658
 3818TIP3    H133013   2.378   2.320   1.735 -0.7419  0.5668  1.2006
 3818TIP3    H233014   2.448   2.236   1.840 -0.0773  0.8457  0.9800
 3819TIP3   OH233015   0.691   1.929   0.212  0.0483 -0.2394  0.5274
 3819TIP3    H133016   0.602   1.932   0.247 -0.3253 -0.2215 -0.3883
 3819TIP3    H233017   0.734   2.005   0.250 -0.0324 -0.7777  1.7274
 3820TIP3   OH233018   4.334   6.323   7.816  0.5647  0.1408  0.1923
 3820TIP3    H133019   4.327   6.389   7.747 -1.4028 -0.7979 -0.5962
 3820TIP3    H233020   4.267   6.349   7.880  1.6636  0.4140  1.2684
 3821TIP3   OH233021   6.746   0.354   1.033 -0.1116  0.4003 -0.5004
 3821TIP3    H133022   6.687   0.356   0.958  0.2472 -1.8664 -0.9064
 3821TIP3    H233023   6.820   0.302   1.004 -0.9293 -2.4877  2.0318
 3822TIP3   OH233024   6.758   1.891   0.959  0.1513 -0.1283 -0.5611
 3822TIP3    H133025   6.697   1.937   1.016 -0.1730  0.0326 -1.0357
 3822TIP3    H233026   6.802   1.960   0.909  1.2471 -0.1863  0.2800
 3823TIP3   OH233027   2.084   4.568   7.462  0.6577 -0.5205 -0.2411
 3823TIP3    H133028   2.097   4.568   7.367 -2.0749  0.9027 -0.6970
 3823TIP3    H233029   2.003   4.616   7.476  0.4387 -1.5421  2.7897
 3824TIP3   OH233030   5.707   5.021   2.359 -0.4193 -0.2360  0.7182
 3824TIP3    H133031   5.772   5.088   2.378  0.4954 -1.1330  0.8126
 3824TIP3    H233032   5.648   5.062   2.296  1.9139 -0.3202 -1.6951
 3825TIP3   OH233033   3.211   4.283   0.986  0.0816  0.2832 -0.0472
 3825TIP3    H133034   3.179   4.299   0.897  0.8048 -0.1511 -0.3918
 3825TIP3    H233035   3.151   4.334   1.042 -2.5909 -2.1645 -0.4374
 3826TIP3   OH233036   0.393   6.354   1.830 -0.3328 -0.5180  0.1161
 3826TIP3    H133037   0.314   6.408   1.820 -2.1257 -2.8994  0.5019
 3826TIP3    H233038   0.416   6.329   1.741 -0.1143  0.0325  0.0155
 3827TIP3   OH233039   2.319   3.641   0.888  0.1390 -0.6633 -0.1707
 3827TIP3    H133040   2.251   3.617   0.950  0.5822 -0.9397  0.2160
 3827TIP3    H233041   2.364   3.559   0.869  0.7803 -0.3819  0.0904
 3828TIP3   OH233042   6.089   1.531   0.420  0.2594 -0.3034 -0.2156
 3828TIP3    H133043   6.105   1.486   0.502 -0.1437 -0.0650 -0.0044
 3828TIP3    H233044   6.174   1.533   0.376  0.9794  1.4393  1.1386
 3829TIP3   OH233045   3.452   1.634   0.280 -0.2363 -0.1156  0.2565
 3829TIP3    H133046   3.375   1.577   0.279 -1.7283  1.8114 -0.2037
 3829TIP3    H233047   3.466   1.658   0.189  1.2101 -0.7762  0.2791
 3830TIP3   OH233048   5.608   3.889   7.842 -0.1601 -0.3588  0.2017
 3830TIP3    H133049   5.517   3.917   7.832 -0.2075 -0.6307 -0.1672
 3830TIP3    H233050   5.602   3.800   7.878 -0.0603 -0.6428 -0.4669
 3831TIP3   OH233051   1.990   5.714   7.824 -0.8516 -0.1521 -0.0373
 3831TIP3    H133052   2.007   5.715   7.730  0.3134  2.4963  0.1249
 3831TIP3    H233053   2.077   5.704   7.864 -1.1436  0.4211  0.7639
 3832TIP3   OH233054   5.540   0.984   8.337  0.1156 -0.1813  0.0450
 3832TIP3    H133055   5.512   1.072   8.313  0.6432  0.0475  0.2505
 3832TIP3    H233056   5.469   0.927   8.308  0.2880  0.1906 -1.1597
 3833TIP3   OH233057   2.532   5.451   7.604  0.1303 -0.1823  0.5624
 3833TIP3    H133058   2.581   5.502   7.540  1.2131 -1.1426  0.5896
 3833TIP3    H233059   2.440   5.477   7.592 -0.0743 -2.0236 -3.0153
 3834TIP3   OH233060   2.523   6.096   0.098 -0.4694 -0.1770 -0.0812
 3834TIP3    H133061   2.511   6.179   0.051 -1.4560 -1.0512 -1.4307
 3834TIP3    H233062   2.470   6.033   0.050 -1.2834 -1.1978  2.0562
 3835TIP3   OH233063   6.685   4.259   8.124  0.8839 -0.1372  0.5119
 3835TIP3    H133064   6.629   4.182   8.111  0.1058  0.3089  1.1551
 3835TIP3    H233065   6.767   4.236   8.080  0.8823 -1.5897  1.1845
 3836TIP3   OH233066   6.833   1.068   8.588  0.3204 -0.4041  0.0267
 3836TIP3    H133067   6.807   1.125   8.660 -0.0135  0.0091 -0.4062
 3836TIP3    H233068   6.830   1.126   8.511 -1.4385 -1.3442 -0.6647
 3837TIP3   OH233069   6.707   4.015   0.838  0.2642  0.0236 -0.3914
 3837TIP3    H133070   6.700   3.923   0.865  1.1124 -0.5308 -1.9694
 3837TIP3    H233071   6.771   4.015   0.768  1.0182  1.9951  0.2279
 3838TIP3   OH233072   0.108   5.650   7.420 -0.2185  0.4046 -0.5648
 3838TIP3    H133073   0.039   5.588   7.442  0.4589 -0.7512 -1.5753
 3838TIP3    H233074   0.109   5.653   7.325  0.8645  0.6864 -0.5622
 3839TIP3   OH233075   3.389   3.292   8.072  0.3169  0.6056 -0.1549
 3839TIP3    H133076   3.476   3.326   8.051 -0.1275  0.7341 -1.9304
 3839TIP3    H233077   3.331   3.336   8.010 -0.8072 -0.5477  0.0511
 3840TIP3   OH233078   5.656   0.455   8.173  0.5704  0.0550  0.6458
 3840TIP3    H133079   5.742   0.447   8.131  0.3174 -3.2643  0.4884
 3840TIP3    H233080   5.675   0.460   8.267  0.9479  2.0222  0.5105
 3841TIP3   OH233081   3.118   0.900   1.344 -0.7492 -0.2826 -0.3386
 3841TIP3    H133082   3.113   0.991   1.313 -2.2422 -0.7509 -1.6228
 3841TIP3    H233083   3.032   0.883   1.382 -0.8192 -1.4276 -0.9684
 3842TIP3   OH233084   0.635   1.019   7.656 -0.6244  0.4447 -0.0560
 3842TIP3    H133085   0.715   1.070   7.670  0.3083 -0.6693 -1.0983
 3842TIP3    H233086   0.630   0.960   7.731 -1.2918  1.5034  0.7606
 3843TIP3   OH233087   0.744   0.381   2.965  0.6337 -0.1109  0.1320
 3843TIP3    H133088   0.825   0.353   3.007  0.4298  2.0600  2.2122
 3843TIP3    H233089   0.770   0.458   2.913 -0.0714  0.6945  0.9404
 3844TIP3   OH233090   1.975   1.264   0.617  0.3504 -0.2792 -0.1203
 3844TIP3    H133091   1.919   1.218   0.554 -0.2889  0.8284 -0.3731
 3844TIP3    H233092   1.977   1.206   0.693  0.1440 -1.0678 -0.6978
 3845TIP3   OH233093   1.219   4.920   8.141 -0.2843  0.1995 -0.3518
 3845TIP3    H133094   1.178   4.862   8.076  1.8117 -1.0959 -0.6224
 3845TIP3    H233095   1.313   4.900   8.134 -0.0033 -0.4568  3.4750
 3846TIP3   OH233096   1.735   2.321   0.397 -0.8160 -0.0921 -0.4777
 3846TIP3    H133097   1.692   2.402   0.423  3.0406  1.7980  0.8697
 3846TIP3    H233098   1.795   2.301   0.469  0.3171 -2.6429 -1.9591
 3847TIP3   OH233099   1.538   3.564   2.253 -0.0355  0.3836  0.4238
 3847TIP3    H133100   1.537   3.469   2.257  0.9743  0.3271 -0.1780
 3847TIP3    H233101   1.562   3.592   2.341 -0.8001  0.1055  0.7259
 3848TIP3   OH233102   1.922   5.748   8.255 -0.3271 -0.4346 -0.0648
 3848TIP3    H133103   1.940   5.717   8.167  0.1684  0.9308 -0.4696
 3848TIP3    H233104   1.952   5.839   8.255 -0.0996 -0.4858  1.5813
 3849TIP3   OH233105   5.271   0.606   0.768 -0.3862  0.3872  0.2407
 3849TIP3    H133106   5.336   0.586   0.701  1.0180  0.3668  1.5569
 3849TIP3    H233107   5.280   0.535   0.832 -0.0033  1.6471  1.6391
 3850TIP3   OH233108   1.526   6.408   1.346 -0.0273 -0.5021 -0.5925
 3850TIP3    H133109   1.603   6.369   1.305  0.3335 -1.2495  0.7330
 3850TIP3    H233110   1.504   6.483   1.290  2.2516  0.3263 -0.4709
 3851TIP3   OH233111   5.472   2.834   8.271  0.0638 -0.3955 -0.2127
 3851TIP3    H133112   5.405   2.894   8.305  0.1998  0.1966 -0.9420
 3851TIP3    H233113   5.460   2.839   8.176  0.9149 -0.5578 -0.3295
 3852TIP3   OH233114   3.310   1.251   7.027 -0.6154 -0.1871  0.2953
 3852TIP3    H133115   3.270   1.174   7.068 -1.8371  0.6337  0.6901
 3852TIP3    H233116   3.255   1.268   6.950 -1.2277  1.1004  0.9772
 3853TIP3   OH233117   3.468   3.020   1.662  0.0721  0.7387 -0.0500
 3853TIP3    H133118   3.415   3.040   1.585  0.2713 -0.8492 -0.6481
 3853TIP3    H233119   3.485   3.105   1.703 -2.4826  1.3396 -0.1089
 3854TIP3   OH233120   4.092   2.425   7.195 -0.2784 -0.0552  0.2764
 3854TIP3    H133121   4.096   2.330   7.202 -0.5987 -0.0122  1.1667
 3854TIP3    H233122   4.184   2.452   7.184  0.3634 -0.2343  3.8782
 3855TIP3   OH233123   1.887   1.599   0.605 -0.7346 -0.4109  0.0360
 3855TIP3    H133124   1.831   1.669   0.638  0.5132  0.3870  0.5060
 3855TIP3    H233125   1.887   1.533   0.675 -1.1576 -0.4673 -0.0140
 3856TIP3   OH233126   0.679   6.762   8.210  0.0992 -0.1422  0.2692
 3856TIP3    H133127   0.745   6.826   8.181  0.4201 -1.0962 -1.2670
 3856TIP3    H233128   0.619   6.812   8.265  0.4271  1.4611 -0.7494
 3857TIP3   OH233129   2.498   1.892   2.302 -0.6170 -0.0433 -0.5282
 3857TIP3    H133130   2.408   1.859   2.306 -0.5357 -0.5731 -2.1015
 3857TIP3    H233131   2.551   1.826   2.347 -1.0324  0.3884  0.6099
 3858TIP3   OH233132   1.422   5.810   2.427 -0.3445 -0.3163  0.0007
 3858TIP3    H133133   1.359   5.790   2.496  1.0211  2.7812  2.3891
 3858TIP3    H233134   1.386   5.888   2.385  0.6337 -0.0404 -0.3396
 3859TIP3   OH233135   5.283   2.939   7.055 -0.3121 -0.1518 -0.1802
 3859TIP3    H133136   5.283   2.913   6.963 -1.0220 -0.1502 -0.1824
 3859TIP3    H233137   5.202   2.988   7.066 -0.0153  0.2275  0.3450
 3860TIP3   OH233138   6.177   5.569   8.271 -0.0341 -0.6952 -0.2525
 3860TIP3    H133139   6.240   5.525   8.329  0.0022 -0.4935 -0.1381
 3860TIP3    H233140   6.106   5.506   8.262 -0.3059 -0.5046  0.4759
 3861TIP3   OH233141   1.413   5.415   7.512  0.3841 -0.3268 -0.6108
 3861TIP3    H133142   1.406   5.344   7.576  1.1527 -0.6735 -0.8970
 3861TIP3    H233143   1.330   5.462   7.519  0.3561 -0.5086  0.4610
 3862TIP3   OH233144   0.004   1.107   0.576 -0.0275 -0.7072 -0.2685
 3862TIP3    H133145   0.068   1.045   0.613 -0.0974  0.7216  2.5149
 3862TIP3    H233146  -0.076   1.091   0.625 -0.0958  1.4051  0.4068
 3863TIP3   OH233147   1.821   6.190   0.392  0.2229 -0.6869  0.5508
 3863TIP3    H133148   1.763   6.141   0.334 -0.3543  0.9504 -0.3431
 3863TIP3    H233149   1.906   6.146   0.385 -0.3451 -1.7448  0.0828
 3864TIP3   OH233150   0.984   4.335   7.974  0.0107 -0.3034  0.4361
 3864TIP3    H133151   0.909   4.301   7.924  0.1023 -1.8550  1.2917
 3864TIP3    H233152   0.991   4.426   7.947 -2.2520 -0.0808  0.3953
 3865TIP3   OH233153   1.031   3.408   8.572  0.2822 -0.1191  0.0205
 3865TIP3    H133154   1.069   3.383   8.657  0.5410 -0.6207 -0.2393
 3865TIP3    H233155   0.973   3.335   8.550 -0.7712  0.5935  0.3627
 3866TIP3   OH233156   6.548   1.973   6.913 -0.2140  0.0513 -0.4605
 3866TIP3    H133157   6.480   1.940   6.972 -1.4572  1.8585 -0.7842
 3866TIP3    H233158   6.621   1.995   6.970 -1.6666  2.4598  0.5947
 3867TIP3   OH233159   5.363   3.875   1.836 -0.0547 -0.4622 -0.0013
 3867TIP3    H133160   5.368   3.940   1.766 -0.9901  0.4484  0.7423
 3867TIP3    H233161   5.454   3.863   1.864  0.1130  0.7662  0.0477
 3868TIP3   OH233162   0.151   0.248   1.449 -0.1194 -0.2206 -0.1036
 3868TIP3    H133163   0.227   0.297   1.420  1.1760 -2.0270  0.0957
 3868TIP3    H233164   0.109   0.305   1.514  1.2578  0.6377  0.0704
 3869TIP3   OH233165   5.911   0.395   8.002  0.5201  0.6454  0.2109
 3869TIP3    H133166   5.984   0.438   7.956  1.4450 -0.2751  0.7595
 3869TIP3    H233167   5.954   0.339   8.067 -0.7013  0.3054  0.7533
 3870TIP3   OH233168   1.126   5.083   1.445  0.0192  0.3624 -0.1610
 3870TIP3    H133169   1.194   5.077   1.378 -0.6720  0.0799 -0.8505
 3870TIP3    H233170   1.173   5.108   1.525  0.7027  1.8838 -1.0016
 3871TIP3   OH233171   3.148   2.415   0.455  0.1247  0.1118 -0.1012
 3871TIP3    H133172   3.207   2.339   0.453  1.1097  0.8529 -2.1725
 3871TIP3    H233173   3.091   2.400   0.530  1.8342 -1.5121  0.9458
 3872TIP3   OH233174   1.049   3.303   0.610 -0.1604  0.6121  0.0394
 3872TIP3    H133175   0.959   3.295   0.641 -0.1955 -0.0158 -0.2099
 3872TIP3    H233176   1.075   3.392   0.634 -1.1924  1.1749 -0.8151
 3873TIP3   OH233177   1.437   6.535   8.558  0.4784 -1.1093  0.0235
 3873TIP3    H133178   1.363   6.585   8.524  0.1174 -2.9152 -2.0449
 3873TIP3    H233179   1.513   6.591   8.542 -0.0502 -0.6821 -1.0707
 3874TIP3   OH233180   0.742   1.217   1.345  0.4084  0.2600  0.7737
 3874TIP3    H133181   0.717   1.139   1.396  1.3052 -0.9580 -0.5805
 3874TIP3    H233182   0.745   1.186   1.255  2.2569  1.4954  0.3741
 3875TIP3   OH233183   2.408   6.338   0.016  0.0381  0.2248 -0.0057
 3875TIP3    H133184   2.341   6.315   0.080 -0.7326  3.1001  0.3864
 3875TIP3    H233185   2.359   6.370  -0.060  0.8628  2.3445  0.2643
 3876TIP3   OH233186   5.012   4.745   7.278 -0.4244 -0.5573 -0.7649
 3876TIP3    H133187   5.105   4.756   7.255 -0.0212 -2.2212 -0.1385
 3876TIP3    H233188   4.965   4.796   7.213  0.9187  0.0404 -1.3177
 3877TIP3   OH233189   1.107   0.237   7.853  0.0581 -0.1057  0.4156
 3877TIP3    H133190   1.098   0.142   7.859  1.9687 -0.4454 -1.1630
 3877TIP3    H233191   1.017   0.270   7.849 -0.6268 -1.9778 -0.6640
 3878TIP3   OH233192   1.290   0.438   7.831 -0.0007  0.0800 -0.2791
 3878TIP3    H133193   1.258   0.358   7.873  0.0734 -0.5674 -1.3947
 3878TIP3    H233194   1.239   0.444   7.750  0.3494  0.8976 -0.4500
 3879TIP3   OH233195   2.507   2.021   0.980 -0.6057 -0.0010  0.0680
 3879TIP3    H133196   2.571   2.070   1.033 -0.8965  0.0532  0.3728
 3879TIP3    H233197   2.548   2.013   0.894 -2.0283  3.9465 -1.1590
 3880TIP3   OH233198   6.063   1.560   2.000  0.1616  0.2786 -0.1345
 3880TIP3    H133199   6.106   1.644   1.985 -0.7226  1.0174  1.1974
 3880TIP3    H233200   6.134   1.496   2.002  0.6954  0.6249 -3.1866
 3881TIP3   OH233201   2.161   6.568   7.467  0.2698 -0.0941 -0.6586
 3881TIP3    H133202   2.128   6.602   7.384  1.3184  1.1140 -0.6062
 3881TIP3    H233203   2.137   6.475   7.466 -0.9314  0.2050 -1.6898
 3882TIP3   OH233204   3.667   4.544   0.708 -0.5050  0.0511  0.5235
 3882TIP3    H133205   3.755   4.506   0.704 -1.0156 -1.1741  0.5348
 3882TIP3    H233206   3.617   4.483   0.762 -1.3841  0.7049  0.4683
 3883TIP3   OH233207   6.363   4.139   0.223  0.2019 -0.0164 -0.3233
 3883TIP3    H133208   6.293   4.174   0.169  1.3062 -0.1328 -1.9015
 3883TIP3    H233209   6.426   4.102   0.160  0.9330 -1.3227  1.0939
 3884TIP3   OH233210   0.806   4.240   1.324  0.1415  0.0111 -0.1627
 3884TIP3    H133211   0.817   4.270   1.234 -0.7452 -1.0226 -0.6362
 3884TIP3    H233212   0.830   4.316   1.378  0.6035  0.6634 -1.2606
 3885TIP3   OH233213   1.083   4.561   7.842 -0.1769  0.1649  0.1869
 3885TIP3    H133214   1.167   4.600   7.866 -0.3930  1.0104 -0.3679
 3885TIP3    H233215   1.076   4.575   7.747 -0.7485 -0.2835  0.1518
 3886TIP3   OH233216   3.661   1.299   1.324 -0.4385 -0.0537  0.4124
 3886TIP3    H133217   3.609   1.363   1.373 -0.9872 -1.3762  1.6380
 3886TIP3    H233218   3.751   1.318   1.348 -0.5656  0.5311  0.4396
 3887TIP3   OH233219   3.672   3.711   1.906  0.4894  0.4121 -0.4584
 3887TIP3    H133220   3.580   3.705   1.881  0.1677 -0.7301  0.8630
 3887TIP3    H233221   3.672   3.763   1.987  0.8582 -0.4919  0.1383
 3888TIP3   OH233222   4.997   4.948   8.089  0.4980 -0.2027 -0.5956
 3888TIP3    H133223   5.026   4.928   8.178  0.0953 -0.3049 -0.4859
 3888TIP3    H233224   5.038   5.032   8.068 -0.8060  0.7140  0.3472
 3889TIP3   OH233225   3.939   4.975   7.997  0.1458  0.2365  0.8853
 3889TIP3    H133226   3.996   4.901   7.974  2.5990  2.1172  0.5999
 3889TIP3    H233227   3.899   4.949   8.080  2.1037 -0.8407  1.5581
 3890TIP3   OH233228   5.181   3.632   6.319 -0.2446  0.1350  0.3840
 3890TIP3    H133229   5.182   3.572   6.244  1.0049 -1.1064  1.3180
 3890TIP3    H233230   5.232   3.586   6.386 -0.5606  1.6015  1.6842
 3891TIP3   OH233231   5.452   6.890   1.630  1.1790  0.3674 -0.4170
 3891TIP3    H133232   5.366   6.913   1.594  0.3872 -0.6000  0.7395
 3891TIP3    H233233   5.432   6.823   1.696  2.8359  0.1306 -0.1262
 3892TIP3   OH233234   4.169   1.796   7.170 -0.0152  0.1302  0.0108
 3892TIP3    H133235   4.136   1.733   7.105  0.3038 -0.8882  0.8170
 3892TIP3    H233236   4.111   1.786   7.245  0.4595  0.3060  0.4054
 3893TIP3   OH233237   5.373   2.591   2.478 -0.3488  0.3033  0.0285
 3893TIP3    H133238   5.372   2.501   2.445 -0.6292  0.3330 -0.0475
 3893TIP3    H233239   5.303   2.635   2.430  0.7177  0.9416 -0.9872
 3894TIP3   OH233240   4.462   3.727   0.049  0.2530 -0.1258  0.1839
 3894TIP3    H133241   4.506   3.798   0.002  0.6652  1.2617  2.4960
 3894TIP3    H233242   4.524   3.701   0.117 -1.0295 -0.7203  1.1839
 3895TIP3   OH233243   5.051   6.245   1.739  0.2516 -0.1659  0.4403
 3895TIP3    H133244   4.982   6.210   1.796 -0.1561 -0.4072 -0.1960
 3895TIP3    H233245   5.013   6.243   1.651  0.0570  2.2185  0.4007
 3896TIP3   OH233246   1.373   4.629   1.767 -0.0692  0.2653  0.8493
 3896TIP3    H133247   1.415   4.598   1.687 -0.6220  1.6222  0.0103
 3896TIP3    H233248   1.351   4.549   1.814 -2.5521 -0.7838 -1.7952
 3897TIP3   OH233249   1.990   2.690   8.530  0.0649 -0.0933 -0.3819
 3897TIP3    H133250   1.912   2.746   8.534 -0.0787 -0.3074 -0.1019
 3897TIP3    H233251   1.955   2.602   8.521  0.1322 -0.5414  2.6654
 3898TIP3   OH233252   5.863   3.381   7.821  0.1179  0.0025 -0.2961
 3898TIP3    H133253   5.822   3.299   7.792  1.3171 -1.5437  2.0108
 3898TIP3    H233254   5.823   3.398   7.906  0.4215  1.4312 -0.4231
 3899TIP3   OH233255   4.504   6.064   7.527 -0.0640 -0.3943  0.7803
 3899TIP3    H133256   4.507   6.095   7.618  0.9598 -2.0717  1.3651
 3899TIP3    H233257   4.411   6.045   7.512 -0.2427 -0.1138  1.4924
 3900TIP3   OH233258   1.895   4.688   1.417  0.1487 -0.2375  0.2313
 3900TIP3    H133259   1.918   4.596   1.406  1.1779  0.0333 -0.0648
 3900TIP3    H233260   1.887   4.722   1.328  2.0632  0.4676  0.2713
 3901TIP3   OH233261   2.329   6.290   1.442 -0.0341 -0.1583  0.0569
 3901TIP3    H133262   2.357   6.382   1.443 -2.2845  0.5864  0.5143
 3901TIP3    H233263   2.327   6.266   1.349  0.8729  0.1182 -0.0473
 3902TIP3   OH233264   0.335   5.803   1.097 -0.2345  0.0668  0.7842
 3902TIP3    H133265   0.332   5.728   1.038  0.9924  2.0199 -1.9741
 3902TIP3    H233266   0.371   5.874   1.044 -0.1526  2.3149  3.6019
 3903TIP3   OH233267   1.667   0.739   2.609  0.0989  0.3289  0.3150
 3903TIP3    H133268   1.689   0.807   2.673 -0.1144  0.0047  0.7366
 3903TIP3    H233269   1.669   0.785   2.525 -1.4714  1.2146  0.7216
 3904TIP3   OH233270   3.639   0.094   8.423  0.2950 -0.1169  0.5836
 3904TIP3    H133271   3.641   0.001   8.402 -1.2281  0.0182 -0.3091
 3904TIP3    H233272   3.721   0.110   8.469 -0.1467 -2.2160  2.2381
 3905TIP3   OH233273   1.678   0.873   2.350  0.6672  0.0605 -0.0734
 3905TIP3    H133274   1.684   0.888   2.255 -0.3458  0.5003 -0.0852
 3905TIP3    H233275   1.598   0.919   2.376  1.7412  1.2609  1.2663
 3906TIP3   OH233276   0.335   2.758   1.990  0.1820  0.4070 -0.2487
 3906TIP3    H133277   0.239   2.757   1.993  0.1411 -0.1847 -1.2682
 3906TIP3    H233278   0.362   2.726   2.076 -0.5473 -0.1322 -0.2115
 3907TIP3   OH233279   6.021   3.294   0.368 -0.5365 -0.2150  0.0281
 3907TIP3    H133280   5.955   3.231   0.340  1.7180 -1.4641 -2.9208
 3907TIP3    H233281   6.066   3.252   0.441  0.8842 -2.1449 -1.8477
 3908TIP3   OH233282   1.835   6.205   1.559 -0.3294  0.1726 -0.2700
 3908TIP3    H133283   1.849   6.289   1.602 -0.0815 -0.1926  0.3706
 3908TIP3    H233284   1.897   6.206   1.486  0.5554  0.0477  0.4562
 3909TIP3   OH233285   5.464   3.117   0.403  0.3326 -0.2375 -0.0653
 3909TIP3    H133286   5.517   3.170   0.463  0.6654  1.6510 -1.9386
 3909TIP3    H233287   5.375   3.151   0.413  0.5805  0.8579 -1.4154
 3910TIP3   OH233288   1.691   4.394   1.393  0.5014 -0.4833  0.0940
 3910TIP3    H133289   1.597   4.380   1.397  0.4624 -0.3082 -0.1795
 3910TIP3    H233290   1.701   4.477   1.347  0.7039  0.5830  1.9448
 3911TIP3   OH233291   6.478   4.356   2.033  0.5632  0.1196 -0.0950
 3911TIP3    H133292   6.518   4.443   2.025 -1.3375  1.0500  0.0003
 3911TIP3    H233293   6.388   4.373   2.060  0.7351 -1.9787  2.2456
 3912TIP3   OH233294   5.017   5.581   7.738  0.2535  0.4637  0.3429
 3912TIP3    H133295   4.972   5.645   7.794 -0.2875  0.4205 -0.0332
 3912TIP3    H233296   4.979   5.594   7.652  0.6062  0.0688  0.1259
 3913TIP3   OH233297   2.651   6.821   1.518  0.4541 -0.5027 -0.3885
 3913TIP3    H133298   2.601   6.759   1.465  0.5608  0.0954 -1.1984
 3913TIP3    H233299   2.593   6.896   1.528  1.5412  0.6517 -2.2436
 3914TIP3   OH233300   1.566   0.975   6.592 -0.2967 -0.2115 -0.3643
 3914TIP3    H133301   1.540   0.883   6.601 -0.4714 -0.0544  0.8970
 3914TIP3    H233302   1.485   1.024   6.598 -0.1217  0.0673 -0.2619
 3915TIP3   OH233303   6.201   2.527   1.574  0.1572  0.1611  0.4057
 3915TIP3    H133304   6.162   2.480   1.648  1.4238 -2.0805 -0.2338
 3915TIP3    H233305   6.205   2.462   1.504  0.1511  1.8627 -1.2413
 3916TIP3   OH233306   1.376   6.852   2.796 -0.0149 -0.3141  0.2846
 3916TIP3    H133307   1.457   6.902   2.786 -0.4430  0.0403 -1.8644
 3916TIP3    H233308   1.318   6.911   2.845  0.0313  0.6784 -0.8066
 3917TIP3   OH233309   1.862   6.859   7.099  0.1365 -0.6314 -0.2763
 3917TIP3    H133310   1.799   6.817   7.040 -0.8275 -1.9357  1.5745
 3917TIP3    H233311   1.938   6.878   7.044 -0.8938 -1.3360 -2.0203
 3918TIP3   OH233312   4.880   3.454   0.487  0.2140 -0.2223  0.1647
 3918TIP3    H133313   4.823   3.379   0.471 -0.8262  0.0936  2.0685
 3918TIP3    H233314   4.912   3.441   0.576 -0.4850  1.8857  0.7839
 3919TIP3   OH233315   5.158   6.628   6.383 -0.1296 -0.0386  0.0860
 3919TIP3    H133316   5.136   6.569   6.310 -0.4030  1.3283 -0.9692
 3919TIP3    H233317   5.139   6.576   6.461 -0.2426 -1.3993 -0.8088
 3920TIP3   OH233318   5.142   3.181   1.898 -0.2317 -0.1718  0.4444
 3920TIP3    H133319   5.198   3.225   1.835  1.0083 -0.0141  1.6208
 3920TIP3    H233320   5.073   3.141   1.845  0.8624 -0.1895 -1.0132
 3921TIP3   OH233321   5.478   6.046   8.053 -0.1205  0.4408 -0.6024
 3921TIP3    H133322   5.500   5.954   8.038  0.1460  0.3860  0.1125
 3921TIP3    H233323   5.559   6.086   8.084 -0.7196  0.4773  0.9934
 3922TIP3   OH233324   3.156   5.879   1.567  0.2914 -0.5759  0.3763
 3922TIP3    H133325   3.092   5.950   1.566  0.0404 -0.7656  1.4362
 3922TIP3    H233326   3.204   5.888   1.485  0.1490  0.7174  0.4226
 3923TIP3   OH233327   1.309   1.447   7.481  0.0943  0.3329 -0.3594
 3923TIP3    H133328   1.222   1.485   7.468 -0.5331 -0.7502  0.4773
 3923TIP3    H233329   1.293   1.353   7.493  1.4721 -0.0430 -1.1328
 3924TIP3   OH233330   2.634   4.281   0.723 -0.0267  0.3286  0.1805
 3924TIP3    H133331   2.693   4.218   0.765 -0.6012 -1.7604 -1.9056
 3924TIP3    H233332   2.630   4.355   0.784 -0.5501 -2.2730  3.5675
 3925TIP3   OH233333   4.801   4.040   1.859  0.5387  0.1937  0.3440
 3925TIP3    H133334   4.760   3.965   1.901  0.0910  1.2106  1.8199
 3925TIP3    H233335   4.795   4.022   1.765 -6.2791  1.6027  0.0039
 3926TIP3   OH233336   3.229   3.772   2.904 -0.1867  0.4528 -0.3442
 3926TIP3    H133337   3.239   3.680   2.925 -0.8737  0.3495 -0.4368
 3926TIP3    H233338   3.246   3.818   2.986  0.3344  0.2571 -0.3409
 3927TIP3   OH233339   0.147   2.343   2.239 -0.3923 -0.5466 -0.4430
 3927TIP3    H133340   0.224   2.378   2.284  0.6473 -0.5353 -2.1491
 3927TIP3    H233341   0.113   2.416   2.188 -1.7682 -0.4599  0.5408
 3928TIP3   OH233342   0.983   5.983   0.167  0.2896  0.2814  0.4561
 3928TIP3    H133343   1.029   5.972   0.084  1.3222  0.1709  1.0287
 3928TIP3    H233344   1.047   6.025   0.224 -0.8074  1.4484  0.8488
 3929TIP3   OH233345   5.391   1.756   7.580  0.1938  0.1723  0.0312
 3929TIP3    H133346   5.440   1.682   7.614 -0.1890 -0.8177 -1.4569
 3929TIP3    H233347   5.386   1.741   7.485 -2.3987  0.5456  0.0151
 3930TIP3   OH233348   0.623   0.665   0.604 -0.2754 -0.0825 -0.0488
 3930TIP3    H133349   0.705   0.712   0.618  0.8039 -0.7708 -3.1005
 3930TIP3    H233350   0.638   0.615   0.524 -3.2262 -1.3626  0.0619
 3931TIP3   OH233351   1.477   0.892   1.495 -0.3721  0.8295 -0.8191
 3931TIP3    H133352   1.570   0.873   1.482 -0.8475 -1.9305 -0.6098
 3931TIP3    H233353   1.449   0.932   1.412  0.4913 -0.5135 -1.7844
 3932TIP3   OH233354   0.419   1.467   6.374  0.1402 -0.0177  0.4774
 3932TIP3    H133355   0.472   1.398   6.415  0.6775  1.3511  2.2379
 3932TIP3    H233356   0.397   1.525   6.447 -3.1918 -0.1038 -0.3500
 3933TIP3   OH233357   5.325   2.884   6.770  0.8283 -0.2340  0.0422
 3933TIP3    H133358   5.353   2.956   6.712  2.1311  0.5690  1.5795
 3933TIP3    H233359   5.400   2.825   6.772  0.4971 -0.6507  0.3070
 3934TIP3   OH233360   2.427   3.481   0.083  0.1403  0.3108 -0.0500
 3934TIP3    H133361   2.366   3.408   0.073  0.1802  0.5097 -2.1656
 3934TIP3    H233362   2.384   3.540   0.144 -0.4932 -0.8502  0.6678
 3935TIP3   OH233363   0.931   3.957   2.068  0.2060  0.9916  0.1057
 3935TIP3    H133364   1.003   4.020   2.058 -0.6897  1.9182 -0.7417
 3935TIP3    H233365   0.878   3.993   2.139  0.4482  0.4349  0.5721
 3936TIP3   OH233366   5.109   3.779   7.377  0.3367  0.4413 -0.5964
 3936TIP3    H133367   5.162   3.705   7.348 -0.9110 -0.9016  0.3737
 3936TIP3    H233368   5.118   3.778   7.473  0.1914  1.4783 -0.5604
 3937TIP3   OH233369   5.062   3.750   1.825  0.6044  0.5952 -0.2414
 3937TIP3    H133370   5.125   3.795   1.882  0.1090  1.3098 -0.2389
 3937TIP3    H233371   5.092   3.659   1.823  2.5183  1.1909 -1.4384
 3938TIP3   OH233372   3.072   2.703   7.154 -0.1341  0.2779  0.4452
 3938TIP3    H133373   3.027   2.633   7.201  1.5975 -0.6909  0.7602
 3938TIP3    H233374   3.146   2.660   7.111  0.7716  1.8381  0.3419
 3939TIP3   OH233375   4.873   2.997   7.761 -0.1971 -0.0077 -0.2354
 3939TIP3    H133376   4.850   2.907   7.786  0.3215 -0.1745 -0.3275
 3939TIP3    H233377   4.965   2.990   7.733 -0.9286 -0.0190 -2.9482
 3940TIP3   OH233378   1.644   1.630   0.380  0.0426  0.0975  0.3143
 3940TIP3    H133379   1.562   1.584   0.393  0.3622 -1.3116 -2.0564
 3940TIP3    H233380   1.680   1.642   0.468 -2.5060  0.4946  1.3653
 3941TIP3   OH233381   3.242   4.723   0.854  0.2340  0.1321 -0.0390
 3941TIP3    H133382   3.322   4.776   0.860  0.4592 -0.0304 -1.2363
 3941TIP3    H233383   3.171   4.783   0.878  0.6064  0.6104 -0.1233
 3942TIP3   OH233384   4.511   1.103   0.667  0.1494 -0.0098  0.8158
 3942TIP3    H133385   4.563   1.045   0.723  3.3361 -1.2161 -2.9300
 3942TIP3    H233386   4.559   1.186   0.668  0.8552 -0.3636 -0.7787
 3943TIP3   OH233387   0.446   0.559   2.688 -0.4517 -0.0965  0.1241
 3943TIP3    H133388   0.512   0.490   2.696  0.2364  0.5470  0.0982
 3943TIP3    H233389   0.461   0.596   2.601  1.2033  2.0700  1.2374
 3944TIP3   OH233390   3.424   0.566   7.395  0.3590  0.0764  0.2528
 3944TIP3    H133391   3.460   0.648   7.428 -0.5267  0.9275 -0.8099
 3944TIP3    H233392   3.467   0.554   7.310 -1.3630  0.7980 -0.7564
 3945TIP3   OH233393   2.387   4.240   6.735 -0.2825  0.3548  0.1175
 3945TIP3    H133394   2.471   4.196   6.729 -0.8765 -0.7804 -0.1675
 3945TIP3    H233395   2.356   4.222   6.823 -0.4321  0.3716  0.0688
 3946TIP3   OH233396   6.752   2.610   0.386  0.2893 -0.3221  0.3354
 3946TIP3    H133397   6.669   2.612   0.337  0.4542 -0.4021  0.0470
 3946TIP3    H233398   6.739   2.671   0.458  0.3621  0.5013 -0.3358
 3947TIP3   OH233399   1.527   4.682   8.427 -0.2790  1.1004  0.0589
 3947TIP3    H133400   1.562   4.769   8.446  0.4571  1.1519 -1.4141
 3947TIP3    H233401   1.600   4.635   8.387  0.5491 -1.4866  4.0921
 3948TIP3   OH233402   4.110   3.304   7.914 -0.0816 -0.4157 -0.5662
 3948TIP3    H133403   4.064   3.222   7.896 -2.4310  0.4389  1.0657
 3948TIP3    H233404   4.168   3.283   7.987 -0.3784 -0.7126 -0.4124
 3949TIP3   OH233405   6.568   2.225   1.391 -0.4133  0.3712  0.3088
 3949TIP3    H133406   6.527   2.195   1.472 -2.9413  0.7688 -0.7064
 3949TIP3    H233407   6.508   2.291   1.357  0.6024  0.2870 -1.8247
 3950TIP3   OH233408   2.398   1.675   1.307  0.9556  0.3090 -0.7348
 3950TIP3    H133409   2.429   1.602   1.361 -0.7988  0.4050  0.5031
 3950TIP3    H233410   2.399   1.642   1.218  0.7692 -1.0285 -0.2595
 3951TIP3   OH233411   3.718   6.178   7.897 -0.1163  0.3824 -0.0508
 3951TIP3    H133412   3.681   6.169   7.809  2.2880  0.3593 -1.1542
 3951TIP3    H233413   3.645   6.159   7.956 -1.9842  1.0072 -2.0020
 3952TIP3   OH233414   3.486   2.733   2.617  0.1404 -0.3064  0.0449
 3952TIP3    H133415   3.579   2.742   2.594  0.1537 -0.0472  0.2024
 3952TIP3    H233416   3.479   2.770   2.704 -0.2139  0.1782 -0.1881
 3953TIP3   OH233417   3.390   6.682   1.015  0.0804 -0.5574 -0.4545
 3953TIP3    H133418   3.339   6.647   0.942 -0.4374 -0.2522 -0.2444
 3953TIP3    H233419   3.352   6.769   1.031  0.7129 -0.2989 -0.3396
 3954TIP3   OH233420   1.000   3.338   2.368  0.0362  0.2873 -0.0203
 3954TIP3    H133421   0.942   3.413   2.377  0.6175  0.5892  1.3898
 3954TIP3    H233422   1.032   3.321   2.456  1.7187 -0.1662 -0.6749
 3955TIP3   OH233423   0.084   0.497   0.527 -0.0303 -1.0899  0.1862
 3955TIP3    H133424   0.040   0.426   0.480 -1.7118  0.0128  0.0225
 3955TIP3    H233425   0.032   0.508   0.607  1.5880 -1.5640  1.3616
 3956TIP3   OH233426   6.016   5.420   0.119 -0.0402 -0.3177  0.3308
 3956TIP3    H133427   5.974   5.464   0.045  1.4474 -1.8445 -1.5010
 3956TIP3    H233428   5.980   5.331   0.117 -0.4302 -0.2289  1.8678
 3957TIP3   OH233429   6.282   1.163   0.406  0.2316  0.6457  0.1114
 3957TIP3    H133430   6.255   1.080   0.444 -2.3301  0.3776 -1.9875
 3957TIP3    H233431   6.351   1.140   0.343 -0.0826  0.1876 -0.0670
 3958TIP3   OH233432   3.578   6.844   1.712 -0.5391 -0.4326  0.0057
 3958TIP3    H133433   3.492   6.884   1.721 -0.2852  0.1196 -0.0133
 3958TIP3    H233434   3.562   6.766   1.658 -0.9673 -0.1390 -0.3016
 3959TIP3   OH233435   5.500   1.257   8.218 -0.7212  0.6889 -0.1598
 3959TIP3    H133436   5.443   1.333   8.225  0.2042  1.4652 -0.6992
 3959TIP3    H233437   5.586   1.294   8.198 -0.2550 -0.5022 -0.4489
 3960TIP3   OH233438   4.950   0.927   0.584  0.2439  0.2412 -0.0577
 3960TIP3    H133439   5.039   0.897   0.606  0.3312  0.0309 -0.6577
 3960TIP3    H233440   4.903   0.928   0.667  0.6589 -0.1687  0.1876
 3961TIP3   OH233441   6.147   6.115   7.266  0.1802  0.0251 -0.0771
 3961TIP3    H133442   6.146   6.198   7.218 -1.7228 -0.0082 -0.1354
 3961TIP3    H233443   6.059   6.080   7.257  1.0693 -2.2944 -0.5170
 3962TIP3   OH233444   2.648   6.329   8.452  0.3495 -0.6106 -0.2258
 3962TIP3    H133445   2.566   6.317   8.498  0.6347 -1.6457  0.0302
 3962TIP3    H233446   2.641   6.416   8.413 -0.4226 -0.2528  0.6808
 3963TIP3   OH233447   2.923   6.514   7.673 -0.0651  0.1880 -0.3299
 3963TIP3    H133448   2.904   6.463   7.751 -1.8919 -0.1834 -0.9835
 3963TIP3    H233449   2.966   6.452   7.613  1.5514  0.5304  0.4097
 3964TIP3   OH233450   3.303   3.827   6.897 -0.6794  0.3831 -0.3238
 3964TIP3    H133451   3.337   3.790   6.816 -1.4020 -0.4161 -0.2714
 3964TIP3    H233452   3.285   3.751   6.953  1.1939  0.9457  1.1758
 3965TIP3   OH233453   4.142   3.370   0.238  0.4393 -0.3631 -0.4453
 3965TIP3    H133454   4.169   3.371   0.146 -0.3133 -0.7211 -0.6790
 3965TIP3    H233455   4.130   3.463   0.260  1.5227 -0.2172 -0.4233
 3966TIP3   OH233456   5.701   5.508   8.091  0.2195  0.3228  0.4128
 3966TIP3    H133457   5.780   5.505   8.144  1.1059  2.5341 -0.6707
 3966TIP3    H233458   5.676   5.416   8.079  2.2992 -0.3900  1.2178
 3967TIP3   OH233459   4.332   0.679   7.045 -0.5609  0.0703  0.4475
 3967TIP3    H133460   4.274   0.618   7.090 -0.2564  0.6128  1.6346
 3967TIP3    H233461   4.279   0.758   7.031 -0.1085  0.6366  1.7029
 3968TIP3   OH233462   1.182   0.609   8.040 -0.1238  0.8026 -0.1089
 3968TIP3    H133463   1.225   0.693   8.060  1.0623  0.7481 -2.1548
 3968TIP3    H233464   1.252   0.553   8.007 -0.9181 -1.0068  1.1194
 3969TIP3   OH233465   4.869   1.036   7.701  0.2472  0.0800  0.5893
 3969TIP3    H133466   4.958   1.050   7.736  0.2360 -0.4245  0.8188
 3969TIP3    H233467   4.812   1.056   7.775  0.1982 -0.3637  0.6700
 3970TIP3   OH233468   6.229   0.860   0.250 -0.0310  0.1315  0.0283
 3970TIP3    H133469   6.214   0.800   0.177  1.3591  0.1830 -0.3347
 3970TIP3    H233470   6.164   0.929   0.238 -1.3673 -1.0478  0.2022
 3971TIP3   OH233471   2.978   3.034   1.038 -0.4759  0.5102  0.1179
 3971TIP3    H133472   3.068   3.010   1.019 -0.6679 -1.4734  1.4148
 3971TIP3    H233473   2.980   3.129   1.049  1.6136  0.4139  0.9874
 3972TIP3   OH233474   3.178   5.762   2.953  0.5712  0.0257 -0.1639
 3972TIP3    H133475   3.130   5.720   2.881  0.5194 -0.6090  0.2318
 3972TIP3    H233476   3.136   5.848   2.963 -0.5168 -0.5294  0.2043
 3973TIP3   OH233477   5.371   0.921   1.139 -0.2997  0.5064 -0.0638
 3973TIP3    H133478   5.286   0.948   1.106  0.2526  1.6559 -0.6389
 3973TIP3    H233479   5.421   0.899   1.060  0.3125  1.0276  0.1697
 3974TIP3   OH233480   5.537   2.893   0.960 -0.9214  0.2071 -0.0404
 3974TIP3    H133481   5.608   2.902   0.896 -1.7205  0.9695 -0.8374
 3974TIP3    H233482   5.542   2.974   1.012  0.3719 -0.8388  1.5814
 3975TIP3   OH233483   3.445   5.418   0.439 -0.2925  0.3405 -0.3096
 3975TIP3    H133484   3.469   5.453   0.353 -2.3875  0.4054 -0.9306
 3975TIP3    H233485   3.458   5.492   0.499  0.5645  0.4946 -0.6726
 3976TIP3   OH233486   6.012   5.355   8.281  0.1357  0.4185 -0.8834
 3976TIP3    H133487   5.931   5.382   8.323  0.7575  0.7093  0.1835
 3976TIP3    H233488   5.990   5.275   8.235  0.2486 -2.3805  3.3572
 3977TIP3   OH233489   1.760   5.601   1.574  0.0200  0.5143  0.6424
 3977TIP3    H133490   1.668   5.577   1.574  0.0225  0.4598  1.4945
 3977TIP3    H233491   1.779   5.626   1.484 -0.7893  0.3934  0.4337
 3978TIP3   OH233492   3.197   3.971   7.452 -0.1042 -0.1763 -0.2208
 3978TIP3    H133493   3.156   4.013   7.528  1.1117 -2.0940  1.5933
 3978TIP3    H233494   3.134   3.903   7.426 -0.1029 -0.1387 -0.3210
 3979TIP3   OH233495   3.646   3.567   0.692  0.3471  0.1694  0.6713
 3979TIP3    H133496   3.724   3.511   0.697  0.4495  0.1707 -0.6342
 3979TIP3    H233497   3.572   3.505   0.690  0.4519  0.0510 -0.5829
 3980TIP3   OH233498   1.144   4.098   2.119 -0.5633  0.3565 -0.0017
 3980TIP3    H133499   1.214   4.036   2.138 -1.2566 -0.6551 -0.6541
 3980TIP3    H233500   1.173   4.180   2.160  0.5973 -0.2547  0.4534
 3981TIP3   OH233501   2.320   2.755   7.935  0.0446  0.4839 -0.0964
 3981TIP3    H133502   2.308   2.822   8.003  0.7810  0.9995 -0.4572
 3981TIP3    H233503   2.411   2.765   7.908  0.2661 -0.8869  0.0532
 3982TIP3   OH233504   3.952   6.481   1.229  0.1219 -0.4306  0.0787
 3982TIP3    H133505   3.995   6.396   1.244  0.4446 -0.4546 -0.8960
 3982TIP3    H233506   4.019   6.535   1.189  0.0133  0.4122  1.0034
 3983TIP3   OH233507   2.587   6.003   7.485  0.6411  0.3731  0.4350
 3983TIP3    H133508   2.577   6.092   7.451  2.6862  0.1481 -0.9066
 3983TIP3    H233509   2.659   6.009   7.548  0.5535 -0.2574  0.6007
 3984TIP3   OH233510   6.067   5.913   0.905 -0.0819 -0.0057  0.7424
 3984TIP3    H133511   5.984   5.867   0.920 -0.8059 -0.3590 -3.2090
 3984TIP3    H233512   6.044   5.983   0.844  2.5804 -0.4439 -0.8998
 3985TIP3   OH233513   1.844   6.367   1.245  0.3507  0.1520 -0.3188
 3985TIP3    H133514   1.899   6.311   1.299 -0.3510  0.2776  0.5528
 3985TIP3    H233515   1.890   6.451   1.244 -0.8430  0.9539  2.2899
 3986TIP3   OH233516   3.057   2.825   7.690  0.1029 -0.1195 -0.0204
 3986TIP3    H133517   2.965   2.800   7.681  0.2410 -0.3198 -1.0410
 3986TIP3    H233518   3.055   2.920   7.695 -0.3325 -0.1887  2.6425
 3987TIP3   OH233519   6.034   1.908   2.153 -0.1628  0.2827  0.2799
 3987TIP3    H133520   5.993   1.985   2.193 -0.1412  1.6530 -2.1421
 3987TIP3    H233521   6.042   1.931   2.061  1.8390 -1.8015 -0.1457
 3988TIP3   OH233522   6.259   1.812   0.021  0.0548  0.1815  0.0733
 3988TIP3    H133523   6.201   1.806   0.097 -0.4356 -0.3154 -0.3277
 3988TIP3    H233524   6.244   1.901  -0.013  0.5600  0.5414  0.7681
 3989TIP3   OH233525   2.268   3.320   8.043  0.4231  0.6087 -0.0007
 3989TIP3    H133526   2.298   3.367   7.965  3.0971 -0.0779  0.4941
 3989TIP3    H233527   2.223   3.243   8.008  1.1638  0.5590 -0.9013
 3990TIP3   OH233528   2.812   4.778   7.161 -0.6655  0.1411  0.1963
 3990TIP3    H133529   2.903   4.783   7.130 -0.2961  1.3061  1.3464
 3990TIP3    H233530   2.786   4.688   7.144  1.2206 -0.6483  1.1396
 3991TIP3   OH233531   6.503   0.604   1.370 -0.1189  0.1019  0.7146
 3991TIP3    H133532   6.554   0.565   1.298  2.4155 -0.9232  2.9035
 3991TIP3    H233533   6.512   0.698   1.358  0.0895 -0.0434 -0.3932
 3992TIP3   OH233534   3.782   3.300   2.960 -0.4696  0.1262 -0.4814
 3992TIP3    H133535   3.705   3.246   2.983  0.9789 -1.7765  0.2004
 3992TIP3    H233536   3.809   3.338   3.044 -0.7422  0.9434 -0.7545
 3993TIP3   OH233537   4.956   2.162   1.275 -0.2448  0.0682  0.3565
 3993TIP3    H133538   5.044   2.165   1.237  0.0185 -2.1003  0.6693
 3993TIP3    H233539   4.897   2.164   1.199  0.0342  1.5157  0.1463
 3994TIP3   OH233540   1.603   2.660   0.455 -0.1613 -0.1598 -1.6686
 3994TIP3    H133541   1.599   2.755   0.465 -0.7150 -0.3239 -0.0161
 3994TIP3    H233542   1.690   2.643   0.418  0.5768  0.8885 -0.4714
 3995TIP3   OH233543   2.844   4.131   7.827  0.1155  0.1494 -0.1664
 3995TIP3    H133544   2.767   4.076   7.810  0.2983 -0.0750 -0.2701
 3995TIP3    H233545   2.870   4.108   7.916  0.2131  0.0415 -0.2224
 3996TIP3   OH233546   3.763   2.757   2.668  0.2541 -0.4814  0.0965
 3996TIP3    H133547   3.722   2.753   2.755  0.5656  2.7154  0.5068
 3996TIP3    H233548   3.857   2.749   2.686  0.2924 -0.2177  0.0154
 3997TIP3   OH233549   6.720   0.170   7.894 -0.1006  0.4659  0.3644
 3997TIP3    H133550   6.673   0.198   7.816 -0.3912 -0.0039  0.3680
 3997TIP3    H233551   6.750   0.081   7.874  1.1232  0.8952  0.2141
 3998TIP3   OH233552   3.153   3.109   1.994 -0.0113 -0.2052 -0.1276
 3998TIP3    H133553   3.220   3.069   2.050  0.2135  1.2527  0.7132
 3998TIP3    H233554   3.141   3.197   2.031 -1.9455 -0.2147 -0.6456
 3999TIP3   OH233555   6.155   2.429   0.352 -0.4915 -0.4833 -0.1896
 3999TIP3    H133556   6.085   2.364   0.343 -1.4192 -0.0750  2.9779
 3999TIP3    H233557   6.120   2.508   0.311 -1.6145 -0.5072  0.6724
 4000TIP3   OH233558   3.506   1.168   2.034 -0.1454 -0.0176 -0.1824
 4000TIP3    H133559   3.485   1.150   1.943 -2.2146 -1.5722  0.5259
 4000TIP3    H233560   3.511   1.082   2.076 -0.1264  0.6838  1.3382
 4001TIP3   OH233561   6.741   1.379   2.408 -0.1330 -0.2977 -0.2622
 4001TIP3    H133562   6.710   1.368   2.498 -0.6081 -1.2308 -0.5255
 4001TIP3    H233563   6.777   1.294   2.385  0.3077  0.0409 -0.8379
 4002TIP3   OH233564   2.973   3.525   7.962  0.3675 -0.2131  0.3509
 4002TIP3    H133565   2.992   3.563   7.876  0.3132 -0.3375  0.2823
 4002TIP3    H233566   3.046   3.551   8.017  0.3350 -0.0187  0.3013
 4003TIP3   OH233567   4.088   6.574   2.366 -0.1060  0.2531 -0.3019
 4003TIP3    H133568   4.025   6.645   2.364  1.7335  2.0901  1.4895
 4003TIP3    H233569   4.110   6.565   2.459  0.0691 -2.4022 -0.5186
 4004TIP3   OH233570   0.798   0.193   6.909 -0.2821  0.3406  0.2419
 4004TIP3    H133571   0.728   0.225   6.853 -0.8469 -0.2957  0.5738
 4004TIP3    H233572   0.861   0.155   6.848 -0.6935  0.0306  0.0072
 4005TIP3   OH233573   6.202   0.229   6.859 -0.2337 -0.4762  0.0569
 4005TIP3    H133574   6.117   0.196   6.886 -0.1674 -0.8078 -0.1195
 4005TIP3    H233575   6.253   0.150   6.842  0.2660 -0.2862  0.6416
 4006TIP3   OH233576   4.499   6.876   1.936 -0.4838 -0.0247 -0.2183
 4006TIP3    H133577   4.487   6.970   1.952  4.7593  1.0745 -0.8641
 4006TIP3    H233578   4.544   6.844   2.014 -3.0429 -2.4155  0.4326
 4007TIP3   OH233579   6.541   1.795   0.103  0.0608  0.0182  0.4592
 4007TIP3    H133580   6.533   1.876   0.153  0.3196  0.3161  0.0259
 4007TIP3    H233581   6.453   1.779   0.069 -0.2344 -0.4624  1.4181
 4008TIP3   OH233582   5.803   5.999   2.014  0.4489 -0.3189 -0.0185
 4008TIP3    H133583   5.750   5.961   1.944  0.6548 -1.2948  0.3372
 4008TIP3    H233584   5.885   6.024   1.972 -0.0462  0.6072 -0.4438
 4009TIP3   OH233585   3.329   2.681   8.093 -0.0104 -0.2183 -0.6183
 4009TIP3    H133586   3.353   2.740   8.021 -0.3268  0.9734  0.2178
 4009TIP3    H233587   3.247   2.716   8.127 -0.4991 -1.4868 -0.4436
 4010TIP3   OH233588   5.902   3.493   7.519  0.2936 -0.7809 -0.6409
 4010TIP3    H133589   5.983   3.542   7.513 -0.0207 -0.3560 -1.4657
 4010TIP3    H233590   5.883   3.490   7.613  1.9086 -1.9838 -0.3191
 4011TIP3   OH233591   2.376   0.346   8.538  0.1563  0.5055 -0.4845
 4011TIP3    H133592   2.304   0.294   8.574 -0.1983  1.2472 -0.0923
 4011TIP3    H233593   2.380   0.423   8.594  1.4762  0.3306 -0.2957
 4012TIP3   OH233594   2.062   2.920   2.378  0.1909 -0.4612  0.7882
 4012TIP3    H133595   2.146   2.874   2.380  0.4739  0.0135  0.2338
 4012TIP3    H233596   2.050   2.952   2.467  1.1890  0.4863  0.6033
 4013TIP3   OH233597   4.372   3.414   1.178 -0.3923  0.5675 -0.4081
 4013TIP3    H133598   4.396   3.362   1.101 -1.0635  0.8556 -0.8290
 4013TIP3    H233599   4.447   3.472   1.192  0.6766 -0.9577  0.5037
 4014TIP3   OH233600   5.736   5.375   7.717 -0.5030 -0.5851  0.0293
 4014TIP3    H133601   5.762   5.369   7.625 -0.8324 -0.1220 -0.1047
 4014TIP3    H233602   5.656   5.324   7.723 -0.6174 -0.4110 -0.0006
 4015TIP3   OH233603   2.308   1.258   3.073  0.0910 -0.7869 -1.0746
 4015TIP3    H133604   2.366   1.252   2.997  0.0891  0.2622 -1.1811
 4015TIP3    H233605   2.360   1.304   3.139 -0.6329  0.2734 -1.2120
 4016TIP3   OH233606   6.213   6.582   1.186 -0.1446  0.4365 -0.2211
 4016TIP3    H133607   6.124   6.576   1.221 -0.3966  0.1284 -0.8892
 4016TIP3    H233608   6.224   6.502   1.135  1.0765 -0.2735  1.0998
 4017TIP3   OH233609   0.175   1.287   0.220 -0.0349 -0.3917 -0.4784
 4017TIP3    H133610   0.096   1.306   0.270  1.7090  1.9809  1.5883
 4017TIP3    H233611   0.223   1.224   0.273 -0.3199 -1.5798 -1.5730
 4018TIP3   OH233612   2.047   5.938   8.005 -0.1905 -0.3681  0.5049
 4018TIP3    H133613   1.992   5.931   7.927  0.0018  0.1681  0.3176
 4018TIP3    H233614   2.115   5.872   7.994  0.8044  0.7747 -0.5796
 4019TIP3   OH233615   0.646   2.613   8.183  0.1832 -0.5411 -0.1859
 4019TIP3    H133616   0.642   2.616   8.087  1.3189  0.4447 -0.2237
 4019TIP3    H233617   0.653   2.520   8.204  0.7194 -0.7260 -1.1080
 4020TIP3   OH233618   6.836   3.141   2.475 -0.4211  0.2253  0.1057
 4020TIP3    H133619   6.923   3.101   2.467 -0.8736 -0.3928 -2.8845
 4020TIP3    H233620   6.843   3.198   2.551  2.5533  0.0585  0.0714
 4021TIP3   OH233621   3.588   2.704   7.913 -0.4143 -0.1089  0.0323
 4021TIP3    H133622   3.515   2.732   7.858  0.6864  0.6059 -1.1365
 4021TIP3    H233623   3.663   2.699   7.852  1.2671  2.3019  1.7102
 4022TIP3   OH233624   1.361   4.674   7.891  0.0195 -0.1338  0.2707
 4022TIP3    H133625   1.371   4.626   7.973  0.5465 -0.4512  0.0279
 4022TIP3    H233626   1.438   4.731   7.887  0.8078 -1.2036 -0.7002
 4023TIP3   OH233627   0.359   0.914   6.410  0.1392 -0.3574  0.5830
 4023TIP3    H133628   0.450   0.915   6.441  0.6985 -0.2805 -0.9470
 4023TIP3    H233629   0.342   0.822   6.390  0.8477 -0.0712 -1.6542
 4024TIP3   OH233630   2.966   6.826   7.189 -0.6545  0.0563  0.3513
 4024TIP3    H133631   2.974   6.751   7.248 -0.9419  0.3046  0.7156
 4024TIP3    H233632   2.993   6.901   7.243  0.3512  0.1296 -0.2280
 4025TIP3   OH233633   5.282   0.004   7.423  0.4103 -0.5266 -0.1905
 4025TIP3    H133634   5.252  -0.087   7.416 -0.6969 -0.0839 -1.7670
 4025TIP3    H233635   5.366  -0.002   7.469 -0.8365 -2.0756  2.0465
 4026TIP3   OH233636   5.516   4.012   0.705 -0.3268 -0.6684 -0.5152
 4026TIP3    H133637   5.498   3.971   0.790  1.1871 -2.4049 -0.9718
 4026TIP3    H233638   5.519   3.939   0.643  1.4128  0.2275 -1.5687
 4027TIP3   OH233639   6.446   4.215   2.586  0.5993 -0.8295 -0.8243
 4027TIP3    H133640   6.459   4.196   2.679  0.8116 -3.2055 -1.2890
 4027TIP3    H233641   6.351   4.215   2.574  0.3701  2.5292 -0.1211
 4028TIP3   OH233642   2.845   0.858   1.033  0.4606  0.1567 -0.5843
 4028TIP3    H133643   2.871   0.772   0.999  0.1664 -0.1164 -0.1245
 4028TIP3    H233644   2.924   0.912   1.025  0.3818  0.1186 -1.7625
 4029TIP3   OH233645   6.351   3.509   7.351 -0.3291 -0.3451  0.5814
 4029TIP3    H133646   6.374   3.418   7.332  0.6704  0.0815 -0.3507
 4029TIP3    H233647   6.418   3.561   7.306 -1.6547  0.8898 -0.0288
 4030TIP3   OH233648   4.095   0.141   1.283 -0.1043 -0.2994  0.4083
 4030TIP3    H133649   4.020   0.092   1.248  1.2299 -0.7672 -2.0884
 4030TIP3    H233650   4.097   0.222   1.232  1.0166 -0.2775  0.4469
 4031TIP3   OH233651   3.609   1.917   1.578  0.3093  0.0826  0.4321
 4031TIP3    H133652   3.660   1.846   1.617 -1.3987  0.1250  2.9353
 4031TIP3    H233653   3.639   1.996   1.623 -1.0857  0.2683  1.0579
 4032TIP3   OH233654   5.368   4.513   8.010  0.0055 -0.2285 -0.0996
 4032TIP3    H133655   5.337   4.603   8.021  0.8250  0.1819 -0.9621
 4032TIP3    H233656   5.463   4.520   8.013  0.1117 -0.9005 -1.2839
 4033TIP3   OH233657   2.908   5.422   0.004 -0.2385 -0.0409 -0.0256
 4033TIP3    H133658   2.958   5.371  -0.059  1.3292  1.8598 -0.4252
 4033TIP3    H233659   2.849   5.475  -0.049  0.0166  0.4616  0.1844
 4034TIP3   OH233660   6.855   3.759   2.353  0.2897 -0.3585 -0.4598
 4034TIP3    H133661   6.932   3.752   2.410 -0.4283  0.1262  0.5941
 4034TIP3    H233662   6.797   3.820   2.399 -0.6146 -0.5198 -1.3687
 4035TIP3   OH233663   6.178   4.834   0.163 -0.1539 -0.3076 -0.1177
 4035TIP3    H133664   6.222   4.762   0.118  0.7003 -1.0325  1.8043
 4035TIP3    H233665   6.095   4.844   0.116  0.4887 -1.3095 -1.5468
 4036TIP3   OH233666   5.979   5.962   7.652 -0.0272 -0.2760  0.1073
 4036TIP3    H133667   5.926   5.962   7.573  0.1876  0.1121 -0.0405
 4036TIP3    H233668   5.941   5.893   7.707  0.0987 -0.8492 -0.5129
 4037TIP3   OH233669   5.724   5.337   8.325  0.2540  0.6946 -0.4781
 4037TIP3    H133670   5.692   5.292   8.246  1.5569  1.2550 -1.3537
 4037TIP3    H233671   5.645   5.374   8.364 -0.4608  0.1609 -1.3495
 4038TIP3   OH233672   1.193   6.246   1.727 -0.0291 -0.4138  0.1966
 4038TIP3    H133673   1.211   6.163   1.770 -0.2741 -1.1325 -1.0552
 4038TIP3    H233674   1.244   6.244   1.646 -0.1842  0.5749  0.0507
 4039TIP3   OH233675   0.503   6.041   7.033 -0.7612  0.3925  0.5790
 4039TIP3    H133676   0.409   6.025   7.038 -0.5312 -1.0532  0.6926
 4039TIP3    H233677   0.517   6.076   6.946 -1.3350  0.0042  0.3264
 4040TIP3   OH233678   5.484   6.137   2.548  0.6184  0.0037 -0.5785
 4040TIP3    H133679   5.389   6.138   2.536  0.8896  0.2926 -3.4844
 4040TIP3    H233680   5.506   6.044   2.560 -0.0180 -0.0506  0.2373
 4041TIP3   OH233681   2.391   5.317   7.319  0.0814 -0.2827 -0.6034
 4041TIP3    H133682   2.357   5.382   7.258 -1.6468 -0.7566 -0.2226
 4041TIP3    H233683   2.486   5.330   7.319  0.2002 -0.5412 -3.6655
 4042TIP3   OH233684   4.522   6.222   7.015  0.1807 -0.2424  0.3850
 4042TIP3    H133685   4.553   6.301   6.970 -0.0163 -0.7374 -0.6680
 4042TIP3    H233686   4.501   6.161   6.944  0.9068 -1.4658  1.1931
 4043TIP3   OH233687   1.716   1.190   7.616  0.1007 -0.0204  0.2402
 4043TIP3    H133688   1.731   1.142   7.535 -0.2602  0.8085 -0.3336
 4043TIP3    H233689   1.802   1.223   7.641  0.0644  0.5847 -0.3814
 4044TIP3   OH233690   3.333   4.206   8.164 -0.1892 -0.0476  0.6506
 4044TIP3    H133691   3.311   4.257   8.085 -0.8516 -0.7531  0.3705
 4044TIP3    H233692   3.316   4.115   8.140 -1.8271 -0.1580  2.0781
 4045TIP3   OH233693   2.348   4.225   2.242 -0.6125  0.0382 -0.0220
 4045TIP3    H133694   2.316   4.262   2.324 -1.7604  1.4963 -1.0844
 4045TIP3    H233695   2.276   4.171   2.210  0.2134 -1.3808  0.3827
 4046TIP3   OH233696   3.965   1.458   0.591 -0.0439 -0.1629  0.2309
 4046TIP3    H133697   3.899   1.419   0.534  1.0804 -2.4305  0.3849
 4046TIP3    H233698   3.982   1.392   0.658 -0.9013  2.1968  2.9510
 4047TIP3   OH233699   4.037   6.448   0.246  0.5291 -0.5594  0.4297
 4047TIP3    H133700   3.957   6.461   0.196  0.1395  0.4710  1.2936
 4047TIP3    H233701   4.069   6.362   0.218 -0.7449 -0.8795 -0.1034
 4048TIP3   OH233702   0.527   2.548   7.861 -0.4701 -0.7699 -0.4412
 4048TIP3    H133703   0.596   2.614   7.873 -0.1111 -1.0097 -1.1215
 4048TIP3    H233704   0.474   2.582   7.789 -0.9632 -0.6707 -0.0316
 4049TIP3   OH233705   2.111   6.168   0.757  0.4953 -0.0830  0.0883
 4049TIP3    H133706   2.091   6.075   0.770 -0.2036  0.2135  1.2717
 4049TIP3    H233707   2.025   6.210   0.746  0.8943  0.1088 -3.0107
 4050TIP3   OH233708   1.583   1.037   0.051  0.2117  0.2497  0.7943
 4050TIP3    H133709   1.601   0.974   0.121  0.4580 -0.2271  0.3139
 4050TIP3    H233710   1.592   1.123   0.093 -0.3217 -0.0286  1.5048
 4051TIP3   OH233711   1.791   5.214   7.129  0.1409  0.0418  0.4374
 4051TIP3    H133712   1.717   5.223   7.189  0.9132  1.8150  1.1830
 4051TIP3    H233713   1.788   5.293   7.075  1.4972  0.1597  0.5079
 4052TIP3   OH233714   4.512   0.100   8.540  0.5962 -0.1870 -0.2178
 4052TIP3    H133715   4.584   0.037   8.551 -0.2424 -0.9601  0.9780
 4052TIP3    H233716   4.528   0.138   8.453  1.7151 -1.2805 -0.5288
 4053TIP3   OH233717   5.331   0.433   8.268 -0.0322 -0.3103 -0.4350
 4053TIP3    H133718   5.405   0.484   8.302 -0.2352 -1.5493  2.1515
 4053TIP3    H233719   5.267   0.499   8.242  0.8969  0.7694 -0.1013
 4054TIP3   OH233720   5.696   2.597   7.131  0.0152  0.1441  0.6824
 4054TIP3    H133721   5.697   2.501   7.133 -1.4975  0.1062  0.5281
 4054TIP3    H233722   5.720   2.622   7.221 -0.7338 -0.4011  1.0419
 4055TIP3   OH233723   2.917   5.382   6.516  0.1174  0.7722  0.1861
 4055TIP3    H133724   2.954   5.293   6.522  0.7931  1.0635  0.4637
 4055TIP3    H233725   2.838   5.378   6.569  0.8633  0.6872  1.3230
 4056TIP3   OH233726   0.816   1.831   1.881 -0.0933 -0.0043 -0.2329
 4056TIP3    H133727   0.748   1.874   1.828 -0.1385 -0.8096 -0.8539
 4056TIP3    H233728   0.808   1.738   1.859  0.6083 -0.2189  0.3824
 4057TIP3   OH233729   0.132   0.655   0.057  0.0530 -0.3117 -0.1952
 4057TIP3    H133730   0.111   0.746   0.079  1.0216 -0.0460 -0.3184
 4057TIP3    H233731   0.221   0.643   0.090 -1.1790 -2.2405  2.8259
 4058TIP3   OH233732   3.838   0.453   1.688 -0.3556  0.6502 -0.6194
 4058TIP3    H133733   3.790   0.400   1.624  1.0614  0.2787 -1.4023
 4058TIP3    H233734   3.873   0.389   1.750 -1.7128  1.0050  0.5880
 4059TIP3   OH233735   1.634   3.224   0.298 -0.0414 -0.1820 -0.7518
 4059TIP3    H133736   1.666   3.138   0.270  1.6082  0.7868 -2.0224
 4059TIP3    H233737   1.570   3.248   0.232  0.3093  0.0278 -1.0192
 4060TIP3   OH233738   1.705   4.109   3.181 -0.0640 -0.1995  0.5608
 4060TIP3    H133739   1.800   4.117   3.176 -0.0314 -0.6828  0.3838
 4060TIP3    H233740   1.689   4.016   3.192 -0.5064 -0.0834  0.9227
 4061TIP3   OH233741   3.788   4.473   0.429 -0.3500 -0.5782 -0.1061
 4061TIP3    H133742   3.861   4.449   0.486 -0.1718  1.5415  0.6428
 4061TIP3    H233743   3.718   4.412   0.451  1.1678 -2.7612 -0.9329
 4062TIP3   OH233744   5.464   1.051   1.348 -0.2172 -0.3474  0.0355
 4062TIP3    H133745   5.427   0.991   1.412  0.3703 -0.2192  0.5078
 4062TIP3    H233746   5.448   1.009   1.263  0.3981 -1.3028  0.3705
 4063TIP3   OH233747   5.285   0.592   6.525 -0.0871 -0.4565 -0.1052
 4063TIP3    H133748   5.323   0.568   6.609  0.7035  2.0187  0.3155
 4063TIP3    H233749   5.359   0.601   6.466 -0.5746 -1.3766 -0.9036
 4064TIP3   OH233750   4.418   5.815   8.536  0.0168  0.0091  0.3353
 4064TIP3    H133751   4.494   5.763   8.509 -0.1705 -0.3604  0.5281
 4064TIP3    H233752   4.442   5.905   8.511  0.0198 -0.2583 -0.6923
 4065TIP3   OH233753   2.657   0.427   8.557  0.2729 -0.1266  0.2919
 4065TIP3    H133754   2.576   0.381   8.577  0.1517 -0.2357 -0.4204
 4065TIP3    H233755   2.717   0.402   8.627 -0.4077  0.2341  1.0287
 4066TIP3   OH233756   0.708   6.573   0.247 -0.0458 -0.2594  0.1099
 4066TIP3    H133757   0.767   6.518   0.195  0.2760  1.3200 -1.3013
 4066TIP3    H233758   0.703   6.655   0.198 -0.6411  0.9243  2.0305
 4067TIP3   OH233759   0.577   4.130   8.150  1.0018  0.5805  0.1511
 4067TIP3    H133760   0.575   4.060   8.215  0.9074  0.6751  0.2510
 4067TIP3    H233761   0.642   4.101   8.085  0.4247  0.0591 -0.1992
 4068TIP3   OH233762   2.402   4.111   1.441 -0.6483  0.1478  0.8433
 4068TIP3    H133763   2.426   4.044   1.377  0.2628 -0.0637  1.3913
 4068TIP3    H233764   2.386   4.062   1.522 -1.3027  0.4612  0.9097
 4069TIP3   OH233765   6.617   5.296   1.756 -0.6093 -0.2460 -0.1720
 4069TIP3    H133766   6.620   5.390   1.741 -0.8137 -0.3389 -0.8433
 4069TIP3    H233767   6.563   5.285   1.833 -0.5309  0.1893 -0.0523
 4070TIP3   OH233768   0.256   5.493   0.016 -0.4577  0.0781  0.4738
 4070TIP3    H133769   0.278   5.413  -0.032  0.7104  0.4158  0.4180
 4070TIP3    H233770   0.160   5.498   0.013 -0.6433 -1.9341  1.4809
 4071TIP3   OH233771   0.166   6.487   0.144  0.2226  0.1007 -0.4248
 4071TIP3    H133772   0.189   6.406   0.188  0.2188  1.1652  1.6649
 4071TIP3    H233773   0.249   6.534   0.135 -0.1845  1.3609  1.6781
 4072TIP3   OH233774   1.417   4.895   1.008 -0.1869  0.0666 -0.0871
 4072TIP3    H133775   1.356   4.950   1.058  0.2195  1.2050 -0.8224
 4072TIP3    H233776   1.488   4.877   1.070 -0.2217  0.5433  0.0965
 4073TIP3   OH233777   0.612   4.374   1.072  0.1009 -0.0039 -0.4299
 4073TIP3    H133778   0.598   4.376   1.166 -1.3278 -3.4362 -0.3926
 4073TIP3    H233779   0.706   4.364   1.062  0.3265  0.9475  0.5990
 4074TIP3   OH233780   6.074   1.057   0.620 -0.1157 -0.0958  0.6403
 4074TIP3    H133781   6.038   0.968   0.620 -1.1526  0.2955  1.4910
 4074TIP3    H233782   6.095   1.074   0.712 -2.1903  1.3807  0.9086
 4075TIP3   OH233783   4.465   5.232   0.600  0.3677 -0.3826 -0.1082
 4075TIP3    H133784   4.490   5.154   0.651 -1.2736 -0.1284  1.1684
 4075TIP3    H233785   4.370   5.234   0.605  0.3274  1.1375 -1.0310
 4076TIP3   OH233786   2.050   3.321   7.074  0.0080  0.4882  0.0083
 4076TIP3    H133787   2.054   3.262   6.998  0.3564  2.5233 -1.6620
 4076TIP3    H233788   1.959   3.350   7.077 -0.2439 -0.3552  1.0407
 4077TIP3   OH233789   0.845   4.464   2.034  0.1271  0.1767  0.1659
 4077TIP3    H133790   0.854   4.423   2.120 -0.1836 -0.2041  0.0200
 4077TIP3    H233791   0.896   4.408   1.975 -1.1427 -0.6141 -0.2236
 4078TIP3   OH233792   0.384   4.823   8.072  0.3837 -0.2646  0.6922
 4078TIP3    H133793   0.442   4.850   8.144  0.5257 -0.4616  0.6514
 4078TIP3    H233794   0.333   4.750   8.108  0.0863 -0.0249  0.7613
 4079TIP3   OH233795   3.230   1.398   0.510 -0.2961  0.1022  0.0685
 4079TIP3    H133796   3.219   1.492   0.492  2.7873  0.9990  1.9146
 4079TIP3    H233797   3.276   1.396   0.594 -0.0134 -3.0892 -0.0533
 4080TIP3   OH233798   3.155   4.372   1.618  0.2808  0.1238  0.1547
 4080TIP3    H133799   3.206   4.321   1.681  0.5646  3.3899  2.8473
 4080TIP3    H233800   3.069   4.381   1.659 -0.3811  0.2323 -1.2001
 4081TIP3   OH233801   6.000   0.570   7.157 -0.0385  0.7028  0.0640
 4081TIP3    H133802   5.920   0.612   7.124 -0.3576 -0.6742 -1.0425
 4081TIP3    H233803   6.059   0.570   7.082  0.9923  1.6482  0.8590
 4082TIP3   OH233804   0.222   0.799   1.410 -0.0887  0.5796 -0.0582
 4082TIP3    H133805   0.212   0.865   1.479 -0.6085 -0.1218  0.5570
 4082TIP3    H233806   0.140   0.750   1.411  0.6021 -0.6427  0.1071
 4083TIP3   OH233807   3.825   1.527   1.908  0.4703 -0.0658  0.1848
 4083TIP3    H133808   3.785   1.458   1.961  1.0944  0.2502  1.0852
 4083TIP3    H233809   3.850   1.594   1.971 -1.4508  1.6866 -0.8080
 4084TIP3   OH233810   1.995   2.646   2.261  0.6327 -0.1887  0.2831
 4084TIP3    H133811   1.930   2.577   2.263 -0.3835  0.6355 -1.7313
 4084TIP3    H233812   1.951   2.723   2.297  1.6821 -0.4483  2.2974
 4085TIP3   OH233813   2.101   5.308   0.078  0.5405  0.6191 -0.6113
 4085TIP3    H133814   2.119   5.282   0.168 -1.0957  0.2456 -0.3565
 4085TIP3    H233815   2.134   5.398   0.072  2.3803  0.0169 -0.2382
 4086TIP3   OH233816   6.216   6.705   7.852 -0.0861 -0.5966  0.6672
 4086TIP3    H133817   6.271   6.640   7.896 -0.4562  0.2141  2.4434
 4086TIP3    H233818   6.266   6.787   7.860 -1.1676 -0.0002  1.6367
 4087TIP3   OH233819   3.797   4.998   8.237  0.9287  0.0874 -0.4904
 4087TIP3    H133820   3.750   5.065   8.188  1.9561 -0.6607 -2.5805
 4087TIP3    H233821   3.728   4.939   8.268  0.1886  1.0846 -0.1677
 4088TIP3   OH233822   2.955   3.973   2.287  0.5624 -0.4376 -0.2628
 4088TIP3    H133823   2.962   3.889   2.331 -0.1035 -0.6736 -0.5912
 4088TIP3    H233824   2.870   3.970   2.242  0.5008  0.4282 -0.2328
 4089TIP3   OH233825   4.944   1.860   8.195  0.4950  0.3818  0.7419
 4089TIP3    H133826   4.854   1.850   8.225  0.3201 -0.3633  0.0116
 4089TIP3    H233827   4.944   1.942   8.145 -0.2151 -0.4460 -0.6956
 4090TIP3   OH233828   0.968   2.590   0.228 -0.6032  0.1380  0.2837
 4090TIP3    H133829   0.965   2.644   0.307 -1.0850  1.3440 -0.5344
 4090TIP3    H233830   1.049   2.617   0.184 -0.5843 -0.1801  0.1203
 4091TIP3   OH233831   2.443   5.106   7.107 -0.1935 -0.1527 -0.2498
 4091TIP3    H133832   2.381   5.133   7.039 -0.3226 -0.5939 -0.3165
 4091TIP3    H233833   2.427   5.166   7.180  0.6499  0.9715 -0.9658
 4092TIP3   OH233834   5.808   0.772   0.999 -0.3637 -0.4611  0.2650
 4092TIP3    H133835   5.888   0.763   0.947  1.1165  1.7421  1.9767
 4092TIP3    H233836   5.836   0.753   1.088 -1.7824  0.2515  0.8815
 4093TIP3   OH233837   3.053   5.001   7.521  0.5694 -0.0616 -0.0301
 4093TIP3    H133838   3.042   4.998   7.426  0.0733  1.5471 -0.0636
 4093TIP3    H233839   3.078   4.912   7.545 -0.7363 -0.8822 -1.4736
 4094TIP3   OH233840   2.807   1.679   0.568 -0.0914 -0.4343 -0.0442
 4094TIP3    H133841   2.887   1.730   0.559 -1.1728  1.5716  1.1051
 4094TIP3    H233842   2.798   1.664   0.662 -1.7273  0.5270 -0.0196
 4095TIP3   OH233843   0.323   0.323   1.143 -0.1141  0.0653  0.1094
 4095TIP3    H133844   0.239   0.360   1.168 -0.5809 -1.0451  0.2720
 4095TIP3    H233845   0.318   0.317   1.047 -0.1816  0.0995  0.1102
 4096TIP3   OH233846   0.248   6.863   0.948  0.2238 -0.7145 -0.2582
 4096TIP3    H133847   0.212   6.783   0.988 -0.2455  0.0120  0.8323
 4096TIP3    H233848   0.343   6.853   0.956  0.1425 -0.5980  1.0617
 4097TIP3   OH233849   2.292   1.627   8.158  0.4858  0.8773  0.4232
 4097TIP3    H133850   2.225   1.612   8.224  0.8278  0.5104  0.6985
 4097TIP3    H233851   2.299   1.722   8.151 -0.5911  0.9194 -0.1658
 4098TIP3   OH233852   6.490   5.433   0.438 -0.2254 -0.2238  0.4850
 4098TIP3    H133853   6.437   5.379   0.380 -0.2052  0.0983  0.1632
 4098TIP3    H233854   6.454   5.521   0.428  0.5940  0.0674 -0.0130
 4099TIP3   OH233855   1.256   0.350   0.286  0.0395  0.1634 -0.5815
 4099TIP3    H133856   1.258   0.445   0.279  0.8719  0.2528  0.7399
 4099TIP3    H233857   1.165   0.327   0.266 -0.0477  1.1731 -1.4344
 4100TIP3   OH233858   4.248   5.615   0.942  0.1714 -0.2122  0.4995
 4100TIP3    H133859   4.214   5.695   0.900 -0.9119  0.8942  3.2506
 4100TIP3    H233860   4.331   5.642   0.980  1.8510 -1.5866 -1.9479
 4101TIP3   OH233861   1.046   5.980   7.350  0.1814 -0.2819 -0.2822
 4101TIP3    H133862   1.128   5.978   7.302  0.7900  1.2685  0.6230
 4101TIP3    H233863   1.019   6.072   7.350 -1.4447 -0.7224 -0.3649
 4102TIP3   OH233864   1.020   0.347   1.098  0.4465 -0.3342  0.6298
 4102TIP3    H133865   1.012   0.432   1.142 -0.0879 -0.0094 -0.0593
 4102TIP3    H233866   1.079   0.363   1.024 -1.5749  0.1123 -0.9962
 4103TIP3   OH233867   6.028   1.223   7.809  0.6914 -0.0481 -0.5183
 4103TIP3    H133868   5.957   1.287   7.818  0.9660  0.0950  0.9736
 4103TIP3    H233869   6.073   1.249   7.729 -1.1415 -0.3777 -1.7064
 4104TIP3   OH233870   6.847   6.384   1.114  0.3097  0.1928  0.1150
 4104TIP3    H133871   6.909   6.422   1.176 -0.9389  0.3886  1.2967
 4104TIP3    H233872   6.887   6.300   1.089  0.0393 -0.7938  2.6567
 4105TIP3   OH233873   0.113   3.720   0.549 -0.4594  0.0998 -0.2164
 4105TIP3    H133874   0.153   3.651   0.496 -0.2867  0.3683 -0.4398
 4105TIP3    H233875   0.145   3.801   0.510  0.0761  0.3027  0.6045
 4106TIP3   OH233876   6.654   4.293   1.651  0.3598 -0.1353 -0.5945
 4106TIP3    H133877   6.588   4.243   1.604 -1.2842  2.2065 -0.9267
 4106TIP3    H233878   6.609   4.326   1.729  1.4378  0.6315 -0.2666
 4107TIP3   OH233879   3.046   5.598   0.641 -0.4106  0.0225 -0.1299
 4107TIP3    H133880   3.058   5.594   0.546 -1.7129 -0.8596 -0.2743
 4107TIP3    H233881   2.985   5.671   0.654  1.8524  1.9973  0.3076
 4108TIP3   OH233882   5.972   4.257   0.484  0.1643  0.0022 -0.3014
 4108TIP3    H133883   6.011   4.344   0.483  0.0251  0.0913  0.8550
 4108TIP3    H233884   5.983   4.226   0.574 -1.0253 -0.6128 -0.3397
 4109TIP3   OH233885   0.896   5.014   8.289 -0.3544 -0.2061 -0.2493
 4109TIP3    H133886   0.889   4.924   8.259 -1.1540 -0.3544  0.3297
 4109TIP3    H233887   0.891   5.008   8.385  0.7184  0.3628 -0.1407
 4110TIP3   OH233888   0.218   2.260   7.095  0.4145 -0.3261  0.4846
 4110TIP3    H133889   0.254   2.266   7.006 -0.3129  0.2709  0.2234
 4110TIP3    H233890   0.124   2.245   7.082  0.5912 -2.3259  1.1528
 4111TIP3   OH233891   4.726   2.735   6.482  0.4738  0.5320 -1.3136
 4111TIP3    H133892   4.788   2.672   6.518  0.9969  1.7229 -0.0786
 4111TIP3    H233893   4.780   2.808   6.453 -0.2630  1.1104 -1.2429
 4112TIP3   OH233894   1.953   2.083   8.006 -0.7430 -0.3088  0.7229
 4112TIP3    H133895   2.020   2.151   7.993 -0.8728 -0.4143 -0.6387
 4112TIP3    H233896   1.898   2.089   7.928 -0.6330 -2.1309  0.4781
 4113TIP3   OH233897   0.382   4.424   7.115  0.3229  0.4363 -0.2447
 4113TIP3    H133898   0.296   4.462   7.134  0.6311  2.2206 -2.0956
 4113TIP3    H233899   0.362   4.333   7.092 -1.0170  0.6670 -0.1169
 4114TIP3   OH233900   6.890   4.195   0.273 -0.7863  1.2358  0.1975
 4114TIP3    H133901   6.875   4.214   0.181  1.8445  2.8388 -0.0173
 4114TIP3    H233902   6.832   4.255   0.320  0.5983  3.2109 -0.4982
 4115TIP3   OH233903   1.656   0.352   1.131 -0.5601  0.2048  0.2916
 4115TIP3    H133904   1.581   0.319   1.180 -0.9252  0.1305 -0.3187
 4115TIP3    H233905   1.631   0.440   1.104  0.6119  1.2510  2.3593
 4116TIP3   OH233906   1.630   3.171   8.314 -0.1436 -0.3376  0.2030
 4116TIP3    H133907   1.675   3.250   8.342  1.2728 -0.3005 -1.9943
 4116TIP3    H233908   1.540   3.199   8.299  0.1383  0.6469  0.2635
 4117TIP3   OH233909   6.451   5.856   7.499 -0.2212  0.6744 -0.1923
 4117TIP3    H133910   6.374   5.806   7.525  0.5573 -0.7852 -0.6087
 4117TIP3    H233911   6.426   5.947   7.514 -0.9079  0.1026  2.7127
 4118TIP3   OH233912   0.741   3.745   7.240  0.0490  0.3154  0.3880
 4118TIP3    H133913   0.720   3.653   7.225  1.5112 -0.2360  1.4364
 4118TIP3    H233914   0.676   3.776   7.303 -1.8562  0.7056 -1.6324
 4119TIP3   OH233915   6.645   5.868   1.246  0.8624 -0.2485  0.1818
 4119TIP3    H133916   6.591   5.893   1.321  0.0835  0.5147 -0.6130
 4119TIP3    H233917   6.722   5.925   1.251 -0.2303  1.4058 -0.8129
 4120TIP3   OH233918   4.736   3.231   0.401 -0.0634 -0.2844 -0.1602
 4120TIP3    H133919   4.659   3.174   0.401  0.1686 -0.6005 -0.1129
 4120TIP3    H233920   4.752   3.250   0.309 -0.0471 -0.4198 -0.1842
 4121TIP3   OH233921   2.758   5.940   1.289  0.4864  0.3711 -0.1971
 4121TIP3    H133922   2.837   5.885   1.286  1.0205  1.1024  0.1421
 4121TIP3    H233923   2.741   5.952   1.383  1.0824  1.7534 -0.2385
 4122TIP3   OH233924   5.768   4.065   1.461  0.6762 -0.0445 -0.2797
 4122TIP3    H133925   5.707   4.026   1.399  1.4712  1.0304 -1.7903
 4122TIP3    H233926   5.715   4.126   1.512  0.1692 -0.3717 -0.4147
 4123TIP3   OH233927   0.077   4.644   2.310  0.3092 -0.0535  0.3580
 4123TIP3    H133928   0.043   4.669   2.224  0.6078 -1.7989 -0.3034
 4123TIP3    H233929   0.015   4.684   2.372 -0.6812  0.1259 -0.6960
 4124TIP3   OH233930   1.406   3.760   0.514  0.1228 -0.2532 -0.2781
 4124TIP3    H133931   1.500   3.761   0.496 -0.2441 -0.4071 -2.5142
 4124TIP3    H233932   1.383   3.667   0.516  0.1367 -0.2536  1.2330
 4125TIP3   OH233933   1.510   5.262   1.314 -0.0973  0.7584  0.1754
 4125TIP3    H133934   1.603   5.281   1.325  0.1237  0.7758 -1.4932
 4125TIP3    H233935   1.496   5.262   1.219 -1.1089 -2.5415  0.1850
 4126TIP3   OH233936   0.547   6.458   7.476 -0.4370 -0.0439  0.0696
 4126TIP3    H133937   0.475   6.503   7.431  0.1567  0.4608 -0.4033
 4126TIP3    H233938   0.508   6.425   7.556 -1.2908 -0.1132 -0.3603
 4127TIP3   OH233939   3.803   6.435   0.920 -0.0773  0.4818  0.4295
 4127TIP3    H133940   3.769   6.373   0.856 -0.2983  1.9277 -0.9331
 4127TIP3    H233941   3.783   6.396   1.005 -1.6559 -0.5355 -0.3585
 4128TIP3   OH233942   6.620   5.340   0.059 -0.1993 -0.2244 -0.2988
 4128TIP3    H133943   6.617   5.429   0.024  0.9068 -0.2362 -0.4828
 4128TIP3    H233944   6.712   5.314   0.049 -0.4881 -1.3529 -0.1585
 4129TIP3   OH233945   5.509   0.652   1.747  0.0535 -0.7111  0.3372
 4129TIP3    H133946   5.534   0.736   1.786 -0.2214  0.9098 -2.6697
 4129TIP3    H233947   5.414   0.646   1.760  0.1025 -0.6365  0.7212
 4130TIP3   OH233948   3.223   1.659   8.294  0.0916  0.0618  0.3063
 4130TIP3    H133949   3.188   1.748   8.289  0.3894  0.1812  0.3327
 4130TIP3    H233950   3.173   1.610   8.229 -1.4053 -0.2131  1.5944
 4131TIP3   OH233951   3.096   5.255   6.980 -0.1810  0.0022  0.1801
 4131TIP3    H133952   3.076   5.287   7.068 -0.0568 -0.5298  0.4071
 4131TIP3    H233953   3.166   5.190   6.994 -1.4632 -1.5059 -0.0825
 4132TIP3   OH233954   4.402   0.941   1.088 -0.3487  0.1832 -0.0356
 4132TIP3    H133955   4.340   1.005   1.053  0.3028  0.3004 -0.9889
 4132TIP3    H233956   4.363   0.914   1.172 -1.8257  0.0353 -0.7438
 4133TIP3   OH233957   6.809   0.833   8.455 -0.0952 -0.2159 -0.0358
 4133TIP3    H133958   6.733   0.776   8.468  0.7820 -0.9196  2.4399
 4133TIP3    H233959   6.783   0.917   8.490 -0.3977  0.1398 -1.0714
 4134TIP3   OH233960   0.741   5.038   7.163 -0.8995  0.1911  0.0698
 4134TIP3    H133961   0.806   5.078   7.220 -2.5137 -0.4126  2.5343
 4134TIP3    H233962   0.667   5.099   7.164 -1.7364 -0.7906  0.3725
 4135TIP3   OH233963   5.409   1.921   7.810  0.7650  0.5887 -0.1219
 4135TIP3    H133964   5.411   1.859   7.736 -0.1507  0.5873 -0.1567
 4135TIP3    H233965   5.316   1.936   7.826  0.9684  1.1956  0.5353
 4136TIP3   OH233966   2.468   3.072   7.231 -0.1918  0.3828 -1.2363
 4136TIP3    H133967   2.538   3.068   7.296 -1.3686  0.6743  0.0849
 4136TIP3    H233968   2.504   3.126   7.161  0.7641  0.8702 -0.4032
 4137TIP3   OH233969   4.756   2.081   7.340  0.4196  1.0824 -0.2510
 4137TIP3    H133970   4.800   1.998   7.322 -1.1345  0.2374 -0.2669
 4137TIP3    H233971   4.776   2.100   7.431 -0.5204 -0.1578  0.2414
 4138TIP3   OH233972   1.495   5.544   1.385 -0.1619 -0.0979  0.0339
 4138TIP3    H133973   1.472   5.571   1.474 -3.0627  0.2024 -0.6973
 4138TIP3    H233974   1.496   5.448   1.389 -0.6239 -0.0938  0.3326
 4139TIP3   OH233975   5.765   0.527   1.721 -0.6741 -0.0948 -0.0942
 4139TIP3    H133976   5.843   0.582   1.710 -0.1807 -0.7236  0.1566
 4139TIP3    H233977   5.692   0.588   1.723 -0.1415  0.5432  0.1007
 4140TIP3   OH233978   4.099   4.315   6.754 -0.3660  0.7165  0.1711
 4140TIP3    H133979   4.164   4.273   6.697 -0.7796 -1.1268  1.0082
 4140TIP3    H233980   4.102   4.265   6.835 -1.6530  1.6613  0.8366
 4141TIP3   OH233981   5.149   5.626   1.825 -0.2370 -0.2542 -0.2042
 4141TIP3    H133982   5.059   5.654   1.807 -0.1346  0.0876 -0.2083
 4141TIP3    H233983   5.141   5.562   1.895 -0.3857  0.7439  0.7148
 4142TIP3   OH233984   0.209   2.957   8.227  0.4151 -0.3734 -0.0342
 4142TIP3    H133985   0.288   2.990   8.183 -1.3532  0.0494 -3.2506
 4142TIP3    H233986   0.228   2.864   8.243  1.0157 -0.7372 -2.3842
 4143TIP3   OH233987   3.271   0.476   6.770  0.2817  0.3071  0.4097
 4143TIP3    H133988   3.238   0.456   6.682  1.7355 -2.3561  0.3625
 4143TIP3    H233989   3.366   0.465   6.763  0.4008 -0.2258  2.3647
 4144TIP3   OH233990   1.589   6.874   0.282 -0.0276  0.0619 -0.2347
 4144TIP3    H133991   1.520   6.898   0.220 -1.2673 -1.2569  0.5768
 4144TIP3    H233992   1.630   6.796   0.243 -0.8816 -0.8366  0.6139
 4145TIP3   OH233993   6.528   6.638   8.208  0.2253 -0.1416 -0.1746
 4145TIP3    H133994   6.602   6.696   8.190 -0.2852  0.7893  0.6553
 4145TIP3    H233995   6.454   6.696   8.222 -0.4725 -1.0279 -0.0698
 4146TIP3   OH233996   3.251   3.674   2.177  0.2987  0.1741  0.4423
 4146TIP3    H133997   3.224   3.756   2.136 -0.2028  1.1889  2.6613
 4146TIP3    H233998   3.173   3.619   2.174  0.3039  0.1887 -0.0607
 4147TIP3   OH233999   5.906   5.125   8.138  0.1327 -0.2617 -0.0057
 4147TIP3    H134000   5.960   5.055   8.174 -1.4284 -0.9321  1.1444
 4147TIP3    H234001   5.851   5.081   8.073 -0.0040  0.1411 -0.1643
 4148TIP3   OH234002   0.191   4.663   0.615 -0.5580 -0.9539  0.0701
 4148TIP3    H134003   0.227   4.741   0.658 -2.2487 -0.1769  0.1630
 4148TIP3    H234004   0.211   4.591   0.674  2.1692 -0.8782 -0.6034
 4149TIP3   OH234005   3.777   6.000   0.098 -0.3691 -0.2769 -0.4046
 4149TIP3    H134006   3.826   5.919   0.110 -0.3493 -0.1531  0.4671
 4149TIP3    H234007   3.841   6.061   0.061  0.0170 -0.2618  0.2583
 4150TIP3   OH234008   1.314   3.725   8.163  0.4776  0.5998  0.2474
 4150TIP3    H134009   1.260   3.797   8.196 -0.5952  1.2564 -2.6840
 4150TIP3    H234010   1.283   3.710   8.074  3.3747 -0.8283 -0.6427
 4151TIP3   OH234011   2.277   0.825   1.783 -0.0995  0.7353 -0.4124
 4151TIP3    H134012   2.282   0.825   1.688  0.4589  2.2604 -0.4149
 4151TIP3    H234013   2.368   0.824   1.812 -0.2626  0.3274  0.1093
 4152TIP3   OH234014   5.146   5.253   0.439  0.1144  0.6103  0.1989
 4152TIP3    H134015   5.238   5.248   0.413 -0.1087  0.0782 -0.5177
 4152TIP3    H234016   5.127   5.168   0.478 -0.3339  0.3453 -0.5708
 4153TIP3   OH234017   3.518   1.761   0.022  0.1082  0.3965 -0.1817
 4153TIP3    H134018   3.613   1.766   0.035  0.5085 -2.3736 -1.3934
 4153TIP3    H234019   3.504   1.788  -0.069  0.0132 -0.9681 -0.5982
 4154TIP3   OH234020   6.358   4.403   1.745  0.0953  0.5366 -0.1249
 4154TIP3    H134021   6.307   4.329   1.712  0.9748 -0.1154 -0.0529
 4154TIP3    H234022   6.319   4.423   1.830  0.0411 -0.0473 -0.0078
 4155TIP3   OH234023   2.829   6.131   8.377  0.2523 -0.1679  0.0691
 4155TIP3    H134024   2.767   6.196   8.408  0.4333 -0.4589  1.0702
 4155TIP3    H234025   2.811   6.124   8.283  1.4782  2.7204 -0.5113
 4156TIP3   OH234026   5.126   2.692   6.787  0.2594  0.2631  0.1405
 4156TIP3    H134027   5.197   2.741   6.747  1.9076  0.2257  2.7685
 4156TIP3    H234028   5.128   2.718   6.879 -2.6983 -0.3106  0.4678
 4157TIP3   OH234029   0.081   2.592   0.770 -0.0039 -0.3339  0.2632
 4157TIP3    H134030   0.005   2.536   0.788  0.3569 -1.7941 -2.2980
 4157TIP3    H234031   0.066   2.670   0.823 -3.5877 -0.2952 -0.5809
 4158TIP3   OH234032   3.123   6.751   0.217  0.4686 -0.7317 -0.1358
 4158TIP3    H134033   3.110   6.714   0.304  0.5736 -0.1364  0.1378
 4158TIP3    H234034   3.062   6.824   0.213 -0.1340 -1.2599 -0.8784
 4159TIP3   OH234035   0.731   3.755   0.176 -0.2226  0.4576  0.1916
 4159TIP3    H134036   0.777   3.744   0.092 -0.0595 -1.0656  0.4489
 4159TIP3    H234037   0.660   3.816   0.156 -0.1903  0.1165 -1.0682
 4160TIP3   OH234038   4.402   0.650   0.916  0.7453 -0.9038  0.0776
 4160TIP3    H134039   4.385   0.736   0.878 -0.9725 -0.8506  0.8464
 4160TIP3    H234040   4.329   0.636   0.977  1.8209 -2.2467  1.1197
 4161TIP3   OH234041   3.946   5.265   7.987  0.2583 -0.9304 -0.6218
 4161TIP3    H134042   4.040   5.259   8.005  0.3566 -1.9302 -1.3692
 4161TIP3    H234043   3.918   5.174   7.976 -1.0768 -0.7350  0.8925
 4162TIP3   OH234044   3.574   2.890   0.045  0.1405  0.4806  0.1754
 4162TIP3    H134045   3.491   2.895   0.093  1.2246 -0.7055  2.3109
 4162TIP3    H234046   3.552   2.919  -0.044 -2.6553 -0.3092  0.5199
 4163TIP3   OH234047   0.706   1.154   0.558  0.2756 -0.0561  0.2459
 4163TIP3    H134048   0.635   1.131   0.618  0.7220  0.3650  0.9580
 4163TIP3    H234049   0.671   1.136   0.471 -0.1201 -1.4422  0.6612
 4164TIP3   OH234050   5.596   1.490   0.608 -0.2355  0.9182  0.3378
 4164TIP3    H134051   5.649   1.487   0.528 -0.5477  1.9400  0.0696
 4164TIP3    H234052   5.590   1.399   0.637  0.4185  0.6144 -0.4494
 4165TIP3   OH234053   1.146   5.946   8.553 -0.8659 -0.0271 -0.3020
 4165TIP3    H134054   1.218   5.984   8.502 -0.1022 -0.9852  0.0186
 4165TIP3    H234055   1.108   5.879   8.496 -0.0076 -1.1028  0.3251
 4166TIP3   OH234056   1.778   6.622   1.691  0.3145 -0.7788  0.3720
 4166TIP3    H134057   1.839   6.640   1.620  2.4334 -1.6901  1.8675
 4166TIP3    H234058   1.736   6.540   1.666  1.4828 -1.4066  0.4017
 4167TIP3   OH234059   3.077   1.564   8.053 -0.5344 -0.7448  0.7611
 4167TIP3    H134060   3.010   1.622   8.090  1.3358  0.9263  1.7191
 4167TIP3    H234061   3.071   1.578   7.959  0.1295  1.4195  0.9780
 4168TIP3   OH234062   3.074   1.226   1.975 -0.8634 -0.1542 -0.0334
 4168TIP3    H134063   3.005   1.208   2.040 -0.2900 -0.4283  0.5074
 4168TIP3    H234064   3.132   1.289   2.018 -1.1583  0.6254 -0.7604
 4169TIP3   OH234065   0.099   2.182   8.167 -0.3602  0.0367 -0.4427
 4169TIP3    H134066   0.046   2.104   8.154 -0.8264  0.2386  0.1685
 4169TIP3    H234067   0.035   2.250   8.191  0.1751  0.2791  0.3282
 4170TIP3   OH234068   3.811   5.425   7.383  0.3211 -0.0313  0.0102
 4170TIP3    H134069   3.895   5.393   7.417  0.5206  0.2526 -0.2047
 4170TIP3    H234070   3.811   5.399   7.291  1.5043  2.4986 -0.7907
 4171TIP3   OH234071   6.089   6.232   7.937 -0.4827  0.4290  0.2252
 4171TIP3    H134072   6.073   6.301   8.002 -1.8203  2.3943 -2.0355
 4171TIP3    H234073   6.019   6.169   7.951 -1.5374  1.5005 -0.0936
 4172TIP3   OH234074   4.885   4.952   6.730  0.4789 -0.1087 -0.1609
 4172TIP3    H134075   4.973   4.987   6.716  0.4057  0.0953 -0.1128
 4172TIP3    H234076   4.827   5.018   6.691  0.1285  1.5159  2.8345
 4173TIP3   OH234077   4.465   6.291   8.333  0.4825 -0.1390 -0.1269
 4173TIP3    H134078   4.556   6.318   8.316  0.0413  1.1556 -0.5425
 4173TIP3    H234079   4.413   6.370   8.317 -0.5858 -0.4536  1.5805
 4174TIP3   OH234080   5.684   6.409   7.940  0.2702  0.3560  0.1255
 4174TIP3    H134081   5.709   6.452   7.857  0.5787  0.0327  0.0482
 4174TIP3    H234082   5.589   6.418   7.944  0.1948 -0.0557 -0.5062
 4175TIP3   OH234083   5.898   3.434   2.065 -1.0321  0.2419  0.3974
 4175TIP3    H134084   5.962   3.378   2.110  0.0405  2.3495  1.6642
 4175TIP3    H234085   5.938   3.452   1.980 -0.7721  0.1135  0.4905
 4176TIP3   OH234086   1.341   3.605   1.661 -0.1116  0.0663 -0.3970
 4176TIP3    H134087   1.389   3.557   1.594 -1.3963  0.3227 -1.5539
 4176TIP3    H234088   1.369   3.696   1.651 -0.2011  0.0831 -0.4930
 4177TIP3   OH234089   3.890   6.746   1.082  0.2597  0.7721 -0.1461
 4177TIP3    H134090   3.849   6.660   1.095 -0.3713  0.8734 -1.3355
 4177TIP3    H234091   3.891   6.785   1.170  0.6793 -0.4867  0.4346
 4178TIP3   OH234092   3.709   2.674   1.202 -0.2223  0.1624  0.3263
 4178TIP3    H134093   3.629   2.720   1.177  0.1477  1.6612  1.7072
 4178TIP3    H234094   3.761   2.671   1.122 -0.3928  1.9126  0.1138
 4179TIP3   OH234095   2.131   1.820   8.496 -0.3826 -0.2604  0.2842
 4179TIP3    H134096   2.065   1.760   8.532 -0.5849 -0.4822 -0.4403
 4179TIP3    H234097   2.104   1.906   8.526 -0.6955 -0.4143  0.4521
 4180TIP3   OH234098   2.785   0.682   2.648 -0.0374  0.5130  0.4921
 4180TIP3    H134099   2.753   0.608   2.701 -3.1833  0.1655 -1.5680
 4180TIP3    H234100   2.728   0.755   2.673  0.6972  1.2566  0.0213
 4181TIP3   OH234101   1.874   3.358   1.114 -0.8755  0.7774 -0.4454
 4181TIP3    H134102   1.894   3.265   1.121  1.1771  1.2990  2.7191
 4181TIP3    H234103   1.913   3.384   1.030 -0.0818 -0.9269 -0.6477
 4182TIP3   OH234104   4.026   0.811   8.596 -0.2620 -0.0093  0.2142
 4182TIP3    H134105   4.091   0.871   8.559 -1.6774  2.2053  1.1401
 4182TIP3    H234106   4.066   0.778   8.676  0.5033 -0.2969 -0.2716
 4183TIP3   OH234107   5.385   4.821   1.999  0.0429  0.2512 -0.8433
 4183TIP3    H134108   5.356   4.898   2.049 -2.7309 -1.2348  0.0739
 4183TIP3    H234109   5.332   4.823   1.919 -0.3828 -0.8831 -0.6102
 4184TIP3   OH234110   6.400   5.052   0.950  0.3289 -0.1796 -0.5599
 4184TIP3    H134111   6.412   5.139   0.913  1.3001  0.3695  0.9126
 4184TIP3    H234112   6.421   4.992   0.879  1.2520  0.8152 -1.1521
 4185TIP3   OH234113   1.189   6.583   7.656 -0.1219 -0.2489 -0.1904
 4185TIP3    H134114   1.195   6.678   7.648  1.5232 -0.3755 -1.0743
 4185TIP3    H234115   1.256   6.560   7.720  1.2666 -0.9617 -1.8159
 4186TIP3   OH234116   5.799   0.967   7.771 -0.1863 -0.4446  0.2333
 4186TIP3    H134117   5.816   0.882   7.812  0.5271 -1.1679 -1.4409
 4186TIP3    H234118   5.836   1.031   7.831 -1.2894 -1.2345  1.8393
 4187TIP3   OH234119   4.025   3.881   7.323  0.3178 -0.2685  0.4852
 4187TIP3    H134120   3.936   3.882   7.359  0.3004 -2.5201  0.6203
 4187TIP3    H234121   4.026   3.956   7.263 -1.3224  0.4411  1.2669
 4188TIP3   OH234122   3.996   6.188   0.884  0.3314 -0.3479 -0.5131
 4188TIP3    H134123   3.971   6.128   0.955  2.1638  0.0542  0.5496
 4188TIP3    H234124   3.914   6.230   0.858 -0.3894 -0.2805  1.6230
 4189TIP3   OH234125   2.098   2.989   7.055 -0.5259 -0.6852 -0.1089
 4189TIP3    H134126   2.089   3.042   6.976 -0.4377 -1.3101 -0.5504
 4189TIP3    H234127   2.009   2.972   7.083 -0.5494  0.9400  0.9059
 4190TIP3   OH234128   1.333   3.731   7.595 -0.3866 -0.7442  0.0433
 4190TIP3    H134129   1.342   3.826   7.602 -0.4594 -0.6698 -0.8461
 4190TIP3    H234130   1.411   3.703   7.547  0.7008 -1.3927  2.0300
 4191TIP3   OH234131   4.356   3.427   1.476  0.2610  0.4014  0.0969
 4191TIP3    H134132   4.412   3.352   1.457  0.1044  0.1089  0.7497
 4191TIP3    H234133   4.303   3.438   1.397 -2.2082 -2.3908  1.1528
 4192TIP3   OH234134   4.937   3.655   2.284 -0.2540 -0.6683 -0.6985
 4192TIP3    H134135   4.961   3.623   2.197 -1.4905 -1.5941 -0.7258
 4192TIP3    H234136   4.870   3.721   2.267  1.4489  1.2121 -0.5682
 4193TIP3   OH234137   3.882   3.678   1.733  0.6608 -0.5203  0.1183
 4193TIP3    H134138   3.951   3.739   1.761 -0.3951  0.0724  1.5219
 4193TIP3    H234139   3.803   3.711   1.775 -0.5815 -0.9680 -1.7548
 4194TIP3   OH234140   6.174   0.489   2.068 -0.5099  0.1370  0.2126
 4194TIP3    H134141   6.205   0.508   1.979  0.8292  0.7803  0.8015
 4194TIP3    H234142   6.088   0.448   2.054  0.5256 -1.6558 -1.4764
 4195TIP3   OH234143   6.764   3.605   1.707 -0.1088  0.5623  0.6067
 4195TIP3    H134144   6.675   3.617   1.741  0.2282  1.0118  1.3368
 4195TIP3    H234145   6.751   3.561   1.622 -1.1540  2.6316 -0.3758
 4196TIP3   OH234146   4.270   0.025   2.460  0.1060  0.1474  0.1828
 4196TIP3    H134147   4.326   0.080   2.515  1.6715 -1.9709  0.8321
 4196TIP3    H234148   4.184   0.030   2.501  1.1539 -1.1148  2.7375
 4197TIP3   OH234149   6.205   1.105   0.889 -0.1872 -0.5134 -0.1470
 4197TIP3    H134150   6.156   1.151   0.957 -1.2825 -0.8398 -0.6983
 4197TIP3    H234151   6.279   1.163   0.869 -0.3757  0.0105  0.6554
 4198TIP3   OH234152   1.535   6.071   1.024 -0.0658 -0.1737 -0.1213
 4198TIP3    H134153   1.625   6.101   1.026 -0.3122  0.5500  0.8323
 4198TIP3    H234154   1.483   6.150   1.041 -1.0560  0.0493 -3.4398
 4199TIP3   OH234155   3.350   3.222   0.167 -0.4947 -0.4027 -0.1839
 4199TIP3    H134156   3.301   3.241   0.247  0.4502 -0.6701  0.4752
 4199TIP3    H234157   3.442   3.226   0.194 -0.1548 -0.1423 -1.3409
 4200TIP3   OH234158   2.093   1.738   0.475 -0.0616  0.4857  0.5821
 4200TIP3    H134159   2.156   1.668   0.491 -1.3274 -0.7862  0.2310
 4200TIP3    H234160   2.013   1.710   0.520 -0.3437  2.1316  1.1532
 4201TIP3   OH234161   0.843   0.564   2.798 -0.3891 -0.1539 -0.5040
 4201TIP3    H134162   0.788   0.577   2.721 -0.0663  0.1545 -0.6850
 4201TIP3    H234163   0.930   0.543   2.763 -0.6525 -1.8950 -0.2366
 4202TIP3   OH234164   6.458   4.038   7.217  0.0224  0.3474 -0.0825
 4202TIP3    H134165   6.427   4.129   7.218 -1.1224 -0.0357  0.6242
 4202TIP3    H234166   6.411   3.996   7.289  1.1590 -0.6111  0.1254
 4203TIP3   OH234167   3.901   3.596   7.523  0.1434 -0.1267 -0.5846
 4203TIP3    H134168   3.906   3.557   7.436 -3.3283  0.1422 -1.0115
 4203TIP3    H234169   3.910   3.521   7.583  1.2233 -0.4720 -1.1382
 4204TIP3   OH234170   6.731   5.052   7.659  0.1361 -0.0115  0.1830
 4204TIP3    H134171   6.775   5.131   7.628  0.1814 -0.7398 -1.7490
 4204TIP3    H234172   6.787   5.018   7.728  1.0471  0.6797 -0.2010
 4205TIP3   OH234173   4.054   0.909   0.526 -0.4717  0.2059  0.1795
 4205TIP3    H134174   4.140   0.950   0.516 -0.8403  1.1264  0.6677
 4205TIP3    H234175   3.996   0.963   0.474 -0.8186 -0.1983  0.1467
 4206TIP3   OH234176   1.744   1.298   1.416 -0.3552  0.7136  0.0924
 4206TIP3    H134177   1.764   1.260   1.501 -1.1721  1.4033  0.6083
 4206TIP3    H234178   1.753   1.393   1.429 -2.2095  0.9572 -0.0815
 4207TIP3   OH234179   6.809   4.758   7.913 -0.1762  0.3259  0.1849
 4207TIP3    H134180   6.745   4.751   7.842  0.7862 -0.1366 -0.6609
 4207TIP3    H234181   6.824   4.853   7.922  0.8506  0.3572 -1.3436
 4208TIP3   OH234182   4.962   4.705   1.856 -0.2989 -0.0853  0.5248
 4208TIP3    H134183   4.873   4.675   1.875 -0.7819 -0.0197 -1.4191
 4208TIP3    H234184   4.950   4.789   1.811  0.7447  0.0416  0.4727
 4209TIP3   OH234185   0.370   0.744   0.676 -0.2281  0.1237  0.3961
 4209TIP3    H134186   0.452   0.735   0.627 -1.2363 -2.1367 -0.9940
 4209TIP3    H234187   0.301   0.732   0.610 -1.6918  0.8675  1.7281
 4210TIP3   OH234188   4.480   3.321   0.947  0.6121 -0.4820 -0.3596
 4210TIP3    H134189   4.491   3.339   0.853  1.3678 -0.2384 -0.2315
 4210TIP3    H234190   4.464   3.227   0.952  3.9745 -1.1892 -0.5152
 4211TIP3   OH234191   4.925   1.783   0.167 -0.0504  0.3870  0.1171
 4211TIP3    H134192   4.895   1.693   0.178  1.0102 -0.0611 -0.5722
 4211TIP3    H234193   4.876   1.816   0.092  0.8358 -0.2163 -0.7570
 4212TIP3   OH234194   2.498   1.211   2.873 -0.5178  0.8857 -0.2560
 4212TIP3    H134195   2.455   1.172   2.797 -1.3375  1.0662  0.0974
 4212TIP3    H234196   2.511   1.303   2.848  1.8348  0.3470 -1.2687
 4213TIP3   OH234197   2.545   2.681   7.329  0.1098  0.1622 -0.3876
 4213TIP3    H134198   2.593   2.599   7.326  1.8316  1.0301  1.1846
 4213TIP3    H234199   2.582   2.734   7.258 -0.2245 -0.0185 -0.6989
 4214TIP3   OH234200   6.215   5.315   7.921  0.1492  0.3794  0.0656
 4214TIP3    H134201   6.251   5.388   7.871 -1.3240  0.9622 -0.1991
 4214TIP3    H234202   6.121   5.331   7.923 -0.4103 -2.2037 -1.1222
 4215TIP3   OH234203   3.596   3.389   8.263  0.2091  0.3589  0.2954
 4215TIP3    H134204   3.611   3.404   8.169 -2.3643 -0.3594 -0.3037
 4215TIP3    H234205   3.668   3.332   8.290  0.0088 -0.9433 -1.7137
 4216TIP3   OH234206   1.667   0.992   1.207  0.6975 -0.1094  0.2083
 4216TIP3    H134207   1.650   0.917   1.149  1.0364 -0.7717  0.9396
 4216TIP3    H234208   1.732   1.044   1.161  1.7165 -1.1535  0.4209
 4217TIP3   OH234209   3.420   0.146   0.705  0.1596  0.2817 -0.4675
 4217TIP3    H134210   3.455   0.212   0.645  3.0798 -0.0317  0.7443
 4217TIP3    H234211   3.496   0.110   0.749 -1.5986 -1.8339  1.0866
 4218TIP3   OH234212   5.390   5.657   8.415 -0.3765 -0.2556  0.1492
 4218TIP3    H134213   5.425   5.573   8.446 -1.6787 -0.5416  0.9165
 4218TIP3    H234214   5.391   5.649   8.320 -1.5141 -1.6286  0.2062
 4219TIP3   OH234215   4.686   5.644   8.515  0.7864  0.4294  0.1791
 4219TIP3    H134216   4.712   5.648   8.423  0.1245 -1.0990 -0.1082
 4219TIP3    H234217   4.677   5.550   8.533 -1.4076  0.7434  1.1171
 4220TIP3   OH234218   5.885   1.309   1.838 -0.4146 -0.7716 -0.4249
 4220TIP3    H134219   5.860   1.291   1.929  0.8251 -0.5847 -0.0235
 4220TIP3    H234220   5.881   1.405   1.830  1.6978 -0.5733  0.1660
 4221TIP3   OH234221   4.095   0.172   0.657 -0.3038  0.1775 -0.0651
 4221TIP3    H134222   4.179   0.141   0.692 -0.1875 -0.5469 -0.9483
 4221TIP3    H234223   4.101   0.157   0.563 -1.8055 -0.8430 -0.0337
 4222TIP3   OH234224   3.735   3.081   7.697  0.5333  0.3407  0.5186
 4222TIP3    H134225   3.703   2.995   7.671  0.8287  0.6943 -1.1141
 4222TIP3    H234226   3.707   3.090   7.788 -0.2724 -1.1044  0.4500
 4223TIP3   OH234227   3.947   4.598   7.839 -0.2758 -0.1965 -0.1794
 4223TIP3    H134228   4.004   4.631   7.908  1.6442 -2.0422 -0.7877
 4223TIP3    H234229   3.955   4.663   7.769 -0.0596  0.2819  0.2764
 4224TIP3   OH234230   4.740   0.310   8.026  0.3248  0.3889 -0.1152
 4224TIP3    H134231   4.797   0.378   7.991 -1.6285  1.2244 -1.9329
 4224TIP3    H234232   4.698   0.352   8.102 -0.2684  0.9575 -0.7410
 4225TIP3   OH234233   3.462   5.289   1.089 -0.3334 -0.5176  0.4512
 4225TIP3    H134234   3.369   5.279   1.109 -0.3376  0.1541  0.8015
 4225TIP3    H234235   3.494   5.348   1.157  0.3190 -0.6255  0.2395
 4226TIP3   OH234236   3.766   6.068   2.775  0.3465  0.2625 -0.3668
 4226TIP3    H134237   3.842   6.067   2.834  1.6840 -2.2333 -1.9386
 4226TIP3    H234238   3.721   5.985   2.791  0.3117 -0.1367 -2.1953
 4227TIP3   OH234239   2.453   0.253   0.798 -0.5528 -0.9000 -0.1258
 4227TIP3    H134240   2.429   0.308   0.873  1.3521 -1.4042  0.9263
 4227TIP3    H234241   2.372   0.210   0.773 -2.2127  2.4579 -1.1240
 4228TIP3   OH234242   1.417   0.983   1.762  0.4450 -0.2728 -0.3217
 4228TIP3    H134243   1.444   1.073   1.783 -1.2989  0.4968 -1.1540
 4228TIP3    H234244   1.452   0.968   1.674  0.4523 -0.2889 -0.3160
 4229TIP3   OH234245   6.657   5.495   1.527  0.6923 -0.7796 -0.1642
 4229TIP3    H134246   6.672   5.512   1.434  0.6566  1.5247  0.1942
 4229TIP3    H234247   6.561   5.495   1.536  0.6831  1.5012  0.2191
 4230TIP3   OH234248   5.736   2.335   0.462 -0.5925 -0.0267 -0.3032
 4230TIP3    H134249   5.679   2.314   0.537  0.4092 -0.4495  0.3613
 4230TIP3    H234250   5.708   2.422   0.435 -1.5621 -0.2305  0.0028
 4231TIP3   OH234251   5.792   1.077   1.109 -0.7801 -0.7122  0.5098
 4231TIP3    H134252   5.855   1.068   1.180 -0.4089 -0.5295  0.2082
 4231TIP3    H234253   5.741   1.155   1.130  0.5826  0.4713 -0.3705
 4232TIP3   OH234254   6.186   6.529   0.365 -0.3733  0.4324 -0.1049
 4232TIP3    H134255   6.202   6.470   0.290  1.5459 -1.1283  1.4089
 4232TIP3    H234256   6.185   6.616   0.326  2.2477 -0.1701 -1.8308
 4233TIP3   OH234257   4.932   6.304   0.806 -0.3190  0.2257 -0.0920
 4233TIP3    H134258   4.850   6.338   0.841 -0.1666  0.2888  0.2158
 4233TIP3    H234259   4.973   6.379   0.764 -0.6993  0.0494 -0.7934
 4234TIP3   OH234260   5.435   0.811   7.736 -0.5217 -0.4254 -0.2084
 4234TIP3    H134261   5.371   0.857   7.681 -1.7256 -0.3053  1.2298
 4234TIP3    H234262   5.465   0.738   7.681 -1.3508 -0.0670 -1.1783
 4235TIP3   OH234263   3.345   5.846   7.670  0.0591 -0.3265 -0.4140
 4235TIP3    H134264   3.358   5.780   7.603 -0.6799 -0.6785 -0.2170
 4235TIP3    H234265   3.301   5.800   7.742  0.9154  0.0174  0.3565
 4236TIP3   OH234266   2.313   2.255   2.381 -0.2270  0.5474  0.0763
 4236TIP3    H134267   2.222   2.282   2.387 -0.5874 -0.8350  1.8227
 4236TIP3    H234268   2.345   2.259   2.472  1.0619 -0.1987 -0.3157
 4237TIP3   OH234269   1.687   0.665   7.415  0.3503 -0.4341  0.1183
 4237TIP3    H134270   1.765   0.665   7.361  2.0541 -1.3570  2.4207
 4237TIP3    H234271   1.634   0.593   7.380  2.0229 -1.8846  0.4274
 4238TIP3   OH234272   4.094   1.084   2.163 -0.4150 -0.7146  0.1116
 4238TIP3    H134273   4.026   1.038   2.113 -1.5015  0.3603  0.5594
 4238TIP3    H234274   4.176   1.046   2.132 -1.2410 -2.6077  0.1246
 4239TIP3   OH234275   1.835   2.376   7.947 -0.7476 -0.2930 -0.3592
 4239TIP3    H134276   1.870   2.426   7.873  2.3676 -0.4762  0.8451
 4239TIP3    H234277   1.810   2.292   7.908 -0.7468  0.1984 -1.4750
 4240TIP3   OH234278   4.729   0.670   1.848 -0.2082  0.0074 -0.2262
 4240TIP3    H134279   4.678   0.740   1.805  1.3392  1.1029 -0.3508
 4240TIP3    H234280   4.766   0.712   1.925  0.7019 -0.6870 -0.2680
 4241TIP3   OH234281   0.386   2.593   7.607 -0.3774 -0.6191 -0.0398
 4241TIP3    H134282   0.341   2.660   7.556 -0.0957 -0.3208  0.0972
 4241TIP3    H234283   0.469   2.581   7.562 -0.1187 -0.3411  0.3516
 4242TIP3   OH234284   6.585   0.735   7.074 -0.2655  0.1700 -0.1647
 4242TIP3    H134285   6.675   0.757   7.052  0.0113 -0.1168  0.6332
 4242TIP3    H234286   6.532   0.793   7.020  0.3543 -0.6619 -1.7482
 4243TIP3   OH234287   4.970   0.283   0.182 -0.0431 -0.2663  0.1703
 4243TIP3    H134288   5.001   0.351   0.242  1.6850 -1.6974  1.0155
 4243TIP3    H234289   4.901   0.239   0.231  0.4932 -0.6226  0.6260
 4244TIP3   OH234290   6.495   4.553   8.162  0.6972 -0.0319 -0.0089
 4244TIP3    H134291   6.472   4.495   8.235 -1.5213  0.1934 -0.4634
 4244TIP3    H234292   6.499   4.495   8.086  1.4670 -0.0308  0.0272
 4245TIP3   OH234293   1.847   3.465   7.330 -0.3355 -0.9648  0.4054
 4245TIP3    H134294   1.813   3.454   7.242 -0.4417  2.1229 -0.0482
 4245TIP3    H234295   1.906   3.390   7.343 -1.3224 -2.1799 -1.7478
 4246TIP3   OH234296   0.259   3.332   8.103 -0.5023 -0.1780 -0.3485
 4246TIP3    H134297   0.245   3.384   8.182 -1.7924 -0.9681 -0.0249
 4246TIP3    H234298   0.337   3.280   8.122 -0.8980 -0.4811  0.4741
 4247TIP3   OH234299   3.449   2.377   0.877  0.3889 -0.0135 -0.0856
 4247TIP3    H134300   3.507   2.427   0.820  1.0083 -0.6854 -0.0421
 4247TIP3    H234301   3.361   2.394   0.842  0.4226  2.1846  0.7229
 4248TIP3   OH234302   2.462   5.180   2.444 -0.2618  0.3170  0.9487
 4248TIP3    H134303   2.379   5.191   2.490 -2.0809 -0.3078 -1.9491
 4248TIP3    H234304   2.453   5.233   2.365  0.5282 -2.5688 -1.2542
 4249TIP3   OH234305   6.536   2.985   2.054  0.5925 -0.5752  0.1148
 4249TIP3    H134306   6.564   3.007   1.965 -0.6648 -0.5605 -0.2976
 4249TIP3    H234307   6.453   3.032   2.065  1.7275  1.1591  2.0755
 4250TIP3   OH234308   6.862   6.203   0.464  0.1070 -0.4793  0.4630
 4250TIP3    H134309   6.831   6.155   0.540  0.4990  0.2211  1.0763
 4250TIP3    H234310   6.927   6.146   0.423  0.5914 -0.4662  1.1972
 4251TIP3   OH234311   3.480   4.617   7.899  0.1674 -0.4804  0.3506
 4251TIP3    H134312   3.458   4.550   7.965  0.5637 -0.4559  0.5064
 4251TIP3    H234313   3.530   4.569   7.833 -0.5074 -0.5776 -0.1051
 4252TIP3   OH234314   6.056   2.331   2.679  0.1752  0.2090 -0.1258
 4252TIP3    H134315   6.137   2.373   2.647 -0.2675  1.6871  0.5941
 4252TIP3    H234316   6.051   2.249   2.630  1.8196  0.3499 -0.5951
 4253TIP3   OH234317   2.261   3.744   1.394  1.0431  0.3782  0.4097
 4253TIP3    H134318   2.327   3.802   1.354  0.4129  1.2154  0.5632
 4253TIP3    H234319   2.312   3.671   1.430  1.7430  0.2548 -0.7797
 4254TIP3   OH234320   5.984   1.282   8.505 -0.2342  0.6453 -0.8748
 4254TIP3    H134321   5.941   1.197   8.507 -1.1511  1.0772  1.2069
 4254TIP3    H234322   5.937   1.333   8.572 -0.2553  3.0544 -2.6135
 4255TIP3   OH234323   2.803   3.637   7.424 -0.1442 -0.6918 -0.0904
 4255TIP3    H134324   2.782   3.730   7.415 -2.4949 -0.9256  1.9012
 4255TIP3    H234325   2.725   3.591   7.392 -0.2061 -1.8562  1.5709
 4256TIP3   OH234326   5.567   3.140   0.753 -0.0916 -0.6537  0.5690
 4256TIP3    H134327   5.547   3.197   0.827  1.0451  2.0259 -1.0346
 4256TIP3    H234328   5.482   3.110   0.721 -0.9128  1.7110  0.3716
 4257TIP3   OH234329   1.012   0.015   2.049 -0.5165  0.3668  0.2674
 4257TIP3    H134330   0.923   0.018   2.015 -0.7478  1.8716  0.9173
 4257TIP3    H234331   1.028   0.104   2.081  0.8894 -0.1211  0.9863
 4258TIP3   OH234332   5.070   1.260   1.666 -0.2066 -0.6483  0.2820
 4258TIP3    H134333   4.979   1.290   1.664 -0.0801 -0.3217 -0.9047
 4258TIP3    H234334   5.065   1.165   1.650 -0.3322 -0.6198  0.1551
 4259TIP3   OH234335   1.845   6.245   0.748  0.2249  0.1194  0.0260
 4259TIP3    H134336   1.767   6.194   0.728 -0.1867  0.0544  1.6287
 4259TIP3    H234337   1.813   6.333   0.767  0.8549  0.8222 -1.9856
 4260TIP3   OH234338   5.029   6.707   7.563  0.0590  0.2278 -0.2110
 4260TIP3    H134339   4.997   6.725   7.475  2.2733 -1.0766 -1.3835
 4260TIP3    H234340   4.961   6.654   7.604 -1.2251  1.2753 -0.9443
 4261TIP3   OH234341   0.299   3.810   7.990  0.2914 -0.0407 -0.1511
 4261TIP3    H134342   0.391   3.785   7.983  0.3539  0.0594  0.2634
 4261TIP3    H234343   0.271   3.827   7.900  0.6542 -0.1602 -0.2860
 4262TIP3   OH234344   3.190   0.212   6.885 -0.0916  0.0922  0.1646
 4262TIP3    H134345   3.204   0.296   6.842 -1.9074  0.2493 -0.1799
 4262TIP3    H234346   3.151   0.235   6.969  2.0795 -0.2973  1.3708
 4263TIP3   OH234347   3.875   6.188   1.712  0.2784  0.1200 -0.3353
 4263TIP3    H134348   3.857   6.190   1.618 -0.5007 -1.5224 -0.2612
 4263TIP3    H234349   3.969   6.203   1.718  0.3141  0.4002 -1.3659
 4264TIP3   OH234350   2.870   2.799   1.167  0.2099  0.1805 -0.0710
 4264TIP3    H134351   2.884   2.894   1.169  3.3863 -0.0701 -2.4895
 4264TIP3    H234352   2.829   2.783   1.083  1.8276 -0.6912 -0.7467
 4265TIP3   OH234353   4.084   3.767   7.976  0.4685 -0.0789  0.1060
 4265TIP3    H134354   4.000   3.812   7.984  0.6236 -0.0332  2.0445
 4265TIP3    H234355   4.060   3.675   7.963 -0.0173 -0.4581  2.9040
 4266TIP3   OH234356   3.870   1.933   7.523 -0.2506  0.4681 -0.0026
 4266TIP3    H134357   3.791   1.896   7.484 -0.1038 -0.3685  0.4681
 4266TIP3    H234358   3.942   1.895   7.473 -0.0864 -0.1020  0.6581
 4267TIP3   OH234359   1.266   0.247   7.173  0.0304  0.1593 -0.0056
 4267TIP3    H134360   1.282   0.224   7.082  0.3391  0.0751  0.0704
 4267TIP3    H234361   1.271   0.343   7.175  2.5127  0.0813  0.3785
 4268TIP3   OH234362   0.775   0.856   0.369  0.2989  0.9441  0.1267
 4268TIP3    H134363   0.785   0.872   0.276  0.8245 -2.2613 -0.5000
 4268TIP3    H234364   0.683   0.871   0.387 -0.0318  0.5652 -1.1817
 4269TIP3   OH234365   2.763   4.978   1.236  0.2289  0.4963 -0.3569
 4269TIP3    H134366   2.785   5.054   1.290  0.9511  0.3385 -0.4178
 4269TIP3    H234367   2.814   4.907   1.274  0.1896  0.2274 -0.8116
 4270TIP3   OH234368   0.722   3.142   0.554  0.6013  0.3891  0.1030
 4270TIP3    H134369   0.675   3.074   0.505 -0.1100  0.5052  0.5972
 4270TIP3    H234370   0.727   3.107   0.643  0.2468  0.9670  0.3585
 4271TIP3   OH234371   3.983   3.792   1.484 -0.2168 -0.2713 -0.0432
 4271TIP3    H134372   3.936   3.875   1.477 -0.2304 -0.2306  0.4853
 4271TIP3    H234373   4.052   3.810   1.548  0.9363 -0.1369 -1.2734
 4272TIP3   OH234374   3.802   2.776   8.353  0.0356  0.5351 -0.0434
 4272TIP3    H134375   3.867   2.729   8.405 -1.3218 -0.6716  0.6310
 4272TIP3    H234376   3.773   2.712   8.288 -1.8109  0.3852  0.8537
 4273TIP3   OH234377   2.138   5.964   1.478 -0.1245  0.3590 -0.0385
 4273TIP3    H134378   2.224   6.002   1.500  0.2135 -0.1929 -0.3766
 4273TIP3    H234379   2.131   5.975   1.384  0.5360 -1.5062 -0.3436
 4274TIP3   OH234380   2.702   5.249   0.276  0.1366 -0.3640 -0.1023
 4274TIP3    H134381   2.782   5.302   0.274 -0.0795 -0.0466 -0.4008
 4274TIP3    H234382   2.728   5.166   0.237  0.4812 -0.4861  0.3773
 4275TIP3   OH234383   3.555   5.906   7.848 -0.1072  0.0379  0.3838
 4275TIP3    H134384   3.511   5.928   7.766  0.1664 -3.1315 -0.7689
 4275TIP3    H234385   3.510   5.957   7.915 -2.2322  0.5862 -1.3806
 4276TIP3   OH234386   4.643   4.788   1.438  0.4230 -0.0511 -0.5910
 4276TIP3    H134387   4.589   4.729   1.386 -0.1740  0.7927 -0.9547
 4276TIP3    H234388   4.606   4.785   1.526  0.9655 -0.9083 -0.3858
 4277TIP3   OH234389   6.336   5.353   7.282 -0.5709  0.0578 -0.4156
 4277TIP3    H134390   6.425   5.387   7.283 -0.0420 -1.2803  0.2916
 4277TIP3    H234391   6.340   5.279   7.221 -1.5599  0.8309 -1.4789
 4278TIP3   OH234392   5.494   3.442   7.729  0.2094 -0.0516  0.0661
 4278TIP3    H134393   5.526   3.388   7.656 -1.5565  1.6415 -2.0977
 4278TIP3    H234394   5.400   3.424   7.733 -0.1054  1.5021  0.4572
 4279TIP3   OH234395   5.187   3.055   2.744 -0.3671  0.3112  0.8708
 4279TIP3    H134396   5.156   3.043   2.834 -2.2038 -0.1093  0.2344
 4279TIP3    H234397   5.150   3.139   2.717 -0.2313  0.2151  0.3676
 4280TIP3   OH234398   1.033   6.826   6.995  0.2849  0.0082  0.0346
 4280TIP3    H134399   1.116   6.800   6.954  0.9462  0.2679  1.1666
 4280TIP3    H234400   1.046   6.808   7.088  0.5389  3.6307  0.8574
 4281TIP3   OH234401   6.706   1.417   1.015 -0.5337 -0.1366 -0.0408
 4281TIP3    H134402   6.797   1.433   1.040 -0.2853  0.8291 -1.4270
 4281TIP3    H234403   6.692   1.324   1.032  1.3237 -0.7632 -1.5969
 4282TIP3   OH234404   5.235   0.615   1.719 -0.2511  0.7528 -0.1792
 4282TIP3    H134405   5.149   0.639   1.685 -0.4614  0.4841  0.1686
 4282TIP3    H234406   5.218   0.569   1.801  0.2569  1.3885  0.3014
 4283TIP3   OH234407   2.124   6.777   7.827  0.0895  0.5991 -0.2368
 4283TIP3    H134408   2.194   6.715   7.807  0.7097  0.9335  0.8254
 4283TIP3    H234409   2.092   6.749   7.912 -0.3249  1.1214 -0.2204
 4284TIP3   OH234410   4.493   3.705   7.464 -0.0791  0.1593  0.1729
 4284TIP3    H134411   4.542   3.700   7.382 -1.0336 -1.9656 -0.3181
 4284TIP3    H234412   4.401   3.698   7.438 -0.3392 -3.6610  1.4984
 4285TIP3   OH234413   6.298   2.784   0.529  0.1137  0.6897  0.1371
 4285TIP3    H134414   6.385   2.783   0.568 -0.1802 -1.3840  0.8464
 4285TIP3    H234415   6.238   2.797   0.602 -0.2725 -0.0581 -0.0348
 4286TIP3   OH234416   6.574   3.044   2.406  0.0766 -0.1794 -0.1079
 4286TIP3    H134417   6.598   2.976   2.343 -0.1265 -0.2843 -0.0723
 4286TIP3    H234418   6.653   3.057   2.458  0.6510  0.7664 -1.1570
 4287TIP3   OH234419   5.754   4.465   0.950  0.2761  0.1995 -0.4991
 4287TIP3    H134420   5.758   4.445   0.856  4.2506 -0.2769 -0.4052
 4287TIP3    H234421   5.728   4.557   0.953 -0.4820  0.0723 -2.0009
 4288TIP3   OH234422   4.658   0.503   7.722 -0.2110 -0.3396  0.3963
 4288TIP3    H134423   4.705   0.456   7.653 -2.6358 -0.4059 -1.3543
 4288TIP3    H234424   4.723   0.518   7.790  1.6872 -2.4720 -0.8273
 4289TIP3   OH234425   0.554   2.541   1.289  0.0526 -0.6844 -0.5843
 4289TIP3    H134426   0.562   2.633   1.314  0.9284 -0.3838 -1.9013
 4289TIP3    H234427   0.462   2.532   1.263 -0.0153 -0.1641 -0.5463
 4290TIP3   OH234428   1.489   2.895   1.225  0.2469 -0.7519  0.3624
 4290TIP3    H134429   1.422   2.963   1.228 -0.5096 -1.4945  3.2848
 4290TIP3    H234430   1.572   2.943   1.217 -0.4542  0.2236 -2.0907
 4291TIP3   OH234431   2.624   5.376   2.546  0.1001  0.1095  0.4635
 4291TIP3    H134432   2.544   5.415   2.582  0.0117  1.3945 -0.9744
 4291TIP3    H234433   2.602   5.283   2.534 -0.6891  0.1643  1.3774
 4292TIP3   OH234434   2.505   4.787   0.050  0.2368 -0.1203 -0.3396
 4292TIP3    H134435   2.571   4.805  -0.016 -1.0114 -0.2444 -1.6709
 4292TIP3    H234436   2.452   4.716   0.013 -0.8115  0.1665  0.5454
 4293TIP3   OH234437   4.267   2.651   7.451 -0.2331  0.6331 -0.3586
 4293TIP3    H134438   4.292   2.559   7.456 -0.3158  0.6278 -0.0007
 4293TIP3    H234439   4.177   2.653   7.485  0.3846  1.0911  1.3524
 4294TIP3   OH234440   4.522   2.378   1.083  0.1595 -0.0111 -0.0423
 4294TIP3    H134441   4.601   2.428   1.062  0.1049  0.0770 -0.0363
 4294TIP3    H234442   4.461   2.442   1.118 -0.4110  0.1861 -1.3294
 4295TIP3   OH234443   3.455   0.832   7.465 -0.3860 -0.4367  0.0529
 4295TIP3    H134444   3.460   0.914   7.414 -0.0041  0.3811  1.3676
 4295TIP3    H234445   3.378   0.843   7.520  0.0931 -0.6440  0.7726
 4296TIP3   OH234446   2.325   1.833   0.633 -0.7636 -0.5628 -0.0770
 4296TIP3    H134447   2.365   1.911   0.594  0.0989 -0.6794  0.5344
 4296TIP3    H234448   2.238   1.862   0.660 -0.7136 -0.0040 -0.4908
 4297TIP3   OH234449   2.710   0.692   8.513  0.2099 -0.1289  0.1695
 4297TIP3    H134450   2.714   0.723   8.604  0.7615  1.3167 -0.3206
 4297TIP3    H234451   2.686   0.600   8.520  0.4420 -0.0891  1.7951
 4298TIP3   OH234452   5.233   5.816   1.331 -0.3992 -0.7018  0.3357
 4298TIP3    H134453   5.197   5.844   1.246  2.4483  2.6159 -0.0125
 4298TIP3    H234454   5.209   5.887   1.391  2.4309 -0.0771  0.8452
 4299TIP3   OH234455   0.382   1.826   1.237  0.2620  0.8264  0.4605
 4299TIP3    H134456   0.458   1.771   1.219  0.0346  0.6461  0.0385
 4299TIP3    H234457   0.308   1.766   1.237  0.1979  0.8811  1.6381
 4300TIP3   OH234458   3.326   3.178   7.523  0.1696 -0.1499  0.5442
 4300TIP3    H134459   3.327   3.103   7.464  1.3782 -0.7856  1.3334
 4300TIP3    H234460   3.288   3.249   7.472 -0.5821 -1.1789 -0.3644
 4301TIP3   OH234461   1.621   3.864   8.382  0.3938  0.7902 -0.3287
 4301TIP3    H134462   1.588   3.947   8.347  1.3553  1.1018 -0.5278
 4301TIP3    H234463   1.569   3.850   8.462  1.1469  2.2934  0.4735
 4302TIP3   OH234464   1.032   5.158   0.445  0.5005 -0.3721  0.0005
 4302TIP3    H134465   0.962   5.096   0.467  2.7214 -3.2632 -0.4323
 4302TIP3    H234466   1.063   5.190   0.529  1.0135 -1.9533  0.4559
 4303TIP3   OH234467   2.852   1.953   0.985 -0.2566 -0.1278 -0.2495
 4303TIP3    H134468   2.798   2.030   1.006  2.0774  1.9314 -1.3524
 4303TIP3    H234469   2.900   1.935   1.066 -0.0909  0.2050 -0.2723
 4304TIP3   OH234470   2.329   4.329   0.557  0.1589  0.0090 -0.0761
 4304TIP3    H134471   2.336   4.353   0.650 -2.3470 -2.0911  0.8033
 4304TIP3    H234472   2.387   4.253   0.547 -1.5420 -1.4637  0.5804
 4305TIP3   OH234473   6.067   1.088   1.854  0.2857  0.1269  0.0387
 4305TIP3    H134474   6.000   1.157   1.855  1.0541  0.9200 -0.9823
 4305TIP3    H234475   6.021   1.011   1.820 -0.9264 -0.2913  2.4199
 4306TIP3   OH234476   6.735   6.254   8.203 -0.5837 -0.6879 -0.5459
 4306TIP3    H134477   6.776   6.178   8.245  0.0184  0.0858  0.3144
 4306TIP3    H234478   6.806   6.317   8.195 -1.6231  0.7722  1.1534
 4307TIP3   OH234479   5.383   6.160   0.701  0.0749 -0.3336  0.0519
 4307TIP3    H134480   5.384   6.239   0.646 -0.6465 -0.1367  0.3175
 4307TIP3    H234481   5.291   6.135   0.705  0.2776 -1.0905  0.1230
 4308TIP3   OH234482   2.626   1.842   6.466  0.1529 -0.6570 -0.2264
 4308TIP3    H134483   2.536   1.859   6.496  0.4894 -1.9140  1.6939
 4308TIP3    H234484   2.680   1.904   6.515  0.4310 -0.5099 -0.7128
 4309TIP3   OH234485   3.237   4.263   6.993  0.4398 -0.0779 -0.0394
 4309TIP3    H134486   3.326   4.233   7.011  0.1860 -1.5295 -0.9805
 4309TIP3    H234487   3.196   4.189   6.946 -0.7336  1.1866 -1.1078
 4310TIP3   OH234488   5.735   1.762   7.015 -0.0529 -0.2558 -0.0460
 4310TIP3    H134489   5.685   1.710   6.953 -0.1466 -0.0836 -0.1182
 4310TIP3    H234490   5.807   1.799   6.964 -2.8574  4.0572 -1.4508
 4311TIP3   OH234491   1.453   4.652   1.264 -0.1287 -0.8843  0.0474
 4311TIP3    H134492   1.515   4.715   1.228  0.5020 -0.4961  1.7364
 4311TIP3    H234493   1.387   4.642   1.195  0.7757  0.1546 -1.0142
 4312TIP3   OH234494   0.240   4.024   1.750 -0.3689  0.5465 -0.3411
 4312TIP3    H134495   0.224   4.118   1.762 -0.0809  0.8541 -2.1869
 4312TIP3    H234496   0.154   3.989   1.725 -0.7288  0.0799  1.3553
 4313TIP3   OH234497   0.081   6.066   0.188  0.2204  0.5663  0.2562
 4313TIP3    H134498   0.074   6.155   0.153 -0.7841  0.3197 -0.2095
 4313TIP3    H234499   0.014   6.016   0.141 -0.3694 -0.0600  1.7097
 4314TIP3   OH234500   2.817   3.668   2.763 -0.5423 -0.4172  0.3084
 4314TIP3    H134501   2.790   3.751   2.801 -1.1690 -0.6048  0.2901
 4314TIP3    H234502   2.776   3.601   2.818  2.1868 -0.8255  2.0225
 4315TIP3   OH234503   2.989   1.035   7.992  0.5454  0.0154 -0.1929
 4315TIP3    H134504   2.995   0.946   8.027 -0.4743  0.2002  0.5024
 4315TIP3    H234505   2.984   1.024   7.897 -1.6394 -0.8078 -0.0146
 4316TIP3   OH234506   6.874   6.341   2.402  0.8236 -0.1944  0.2269
 4316TIP3    H134507   6.835   6.317   2.486 -1.0707 -0.6881 -0.7313
 4316TIP3    H234508   6.903   6.431   2.414  0.1071 -0.0849  1.2644
 4317TIP3   OH234509   5.277   0.635   1.178  0.2130  0.2322  0.4749
 4317TIP3    H134510   5.363   0.676   1.170  0.7115 -0.9165 -0.2804
 4317TIP3    H234511   5.295   0.543   1.197 -0.8302 -0.1553 -0.2853
 4318TIP3   OH234512   3.619   3.424   7.262 -0.4781 -0.5873  0.9174
 4318TIP3    H134513   3.591   3.373   7.187  0.1110  0.4897 -0.0684
 4318TIP3    H234514   3.635   3.359   7.331 -0.4228 -1.6443 -0.0693
 4319TIP3   OH234515   5.223   2.803   0.133 -0.3914  0.5616  0.4489
 4319TIP3    H134516   5.205   2.822   0.225  0.3608 -0.3751  0.8050
 4319TIP3    H234517   5.239   2.889   0.093 -1.2615  1.0170  1.0627
 4320TIP3   OH234518   3.359   1.953   0.933 -0.4090  0.4234  0.1782
 4320TIP3    H134519   3.310   1.875   0.909 -0.3181  0.0650  1.1109
 4320TIP3    H234520   3.394   1.934   1.020 -1.6698  2.0816  1.1267
 4321TIP3   OH234521   3.422   4.957   0.509  0.1941 -0.4881  0.2109
 4321TIP3    H134522   3.462   5.021   0.450  0.5230 -0.2292  0.7086
 4321TIP3    H234523   3.494   4.898   0.533  0.3282  0.0702  1.2316
 4322TIP3   OH234524   5.360   4.992   8.291 -0.3329 -0.4557  0.9330
 4322TIP3    H134525   5.347   5.084   8.314  0.9509 -0.4998  1.9341
 4322TIP3    H234526   5.363   4.946   8.375  0.8999 -1.1396  0.5384
 4323TIP3   OH234527   0.855   4.498   0.466 -0.5044 -0.2804  0.6922
 4323TIP3    H134528   0.818   4.539   0.544  0.9205  0.1552  1.1740
 4323TIP3    H234529   0.841   4.404   0.479  0.6085 -0.2971  1.9974
 4324TIP3   OH234530   2.427   4.971   8.354 -0.5174 -0.3621  0.4042
 4324TIP3    H134531   2.494   5.033   8.384  0.1206  0.1055 -1.8289
 4324TIP3    H234532   2.346   5.003   8.393  0.0009  1.1396  0.3252
 4325TIP3   OH234533   1.950   0.158   0.867  0.4418 -0.1613 -0.1943
 4325TIP3    H134534   1.888   0.159   0.794  0.3751  0.9021 -0.1384
 4325TIP3    H234535   1.900   0.123   0.941  0.3956 -0.8656 -0.5544
 4326TIP3   OH234536   6.085   0.532   7.848 -0.0953  0.4786  0.2966
 4326TIP3    H134537   6.147   0.462   7.823 -1.5291 -0.6576 -0.2381
 4326TIP3    H234538   6.102   0.602   7.785  0.3013 -0.0296 -0.1727
 4327TIP3   OH234539   6.776   6.788   7.578 -0.0688  0.8085 -0.2442
 4327TIP3    H134540   6.808   6.859   7.523 -1.6211  0.7306 -1.3225
 4327TIP3    H234541   6.681   6.790   7.567 -0.1491 -1.5963 -0.5293
 4328TIP3   OH234542   5.605   0.376   0.182 -0.3624  0.0131 -0.4749
 4328TIP3    H134543   5.675   0.431   0.217  0.2146 -0.8515 -0.2235
 4328TIP3    H234544   5.622   0.373   0.088 -1.3455  1.5484 -0.7354
 4329TIP3   OH234545   3.632   2.425   0.701  0.2013 -0.1446 -0.0013
 4329TIP3    H134546   3.646   2.519   0.706 -0.0587  0.0906 -2.5934
 4329TIP3    H234547   3.683   2.396   0.625 -1.5194 -1.6773 -0.6575
 4330TIP3   OH234548   2.988   0.870   1.882  0.6614  0.4551  0.0953
 4330TIP3    H134549   3.064   0.920   1.912  1.9590 -0.6419 -1.2219
 4330TIP3    H234550   2.947   0.839   1.962  1.0467  1.8417  0.8617
 4331TIP3   OH234551   1.352   5.254   6.640  0.0273 -0.2709  1.0613
 4331TIP3    H134552   1.386   5.317   6.703 -0.7101  0.7715  0.4346
 4331TIP3    H234553   1.354   5.299   6.556  0.0099 -1.2789  0.4996
 4332TIP3   OH234554   5.828   4.849   8.006  0.0571  0.2835  0.9290
 4332TIP3    H134555   5.734   4.844   8.025  0.0769 -0.9281  0.7969
 4332TIP3    H234556   5.835   4.821   7.915  0.6314 -0.7023  1.2518
 4333TIP3   OH234557   6.247   3.934   0.071  0.0473 -0.0284 -0.2860
 4333TIP3    H134558   6.307   3.932  -0.004 -1.1678  0.5985 -1.3257
 4333TIP3    H234559   6.212   4.023   0.071 -1.6027 -0.6396 -0.3506
 4334TIP3   OH234560   1.580   1.130   2.564 -0.0369 -0.6603 -0.1603
 4334TIP3    H134561   1.501   1.100   2.607  0.1765 -0.5476  0.3136
 4334TIP3    H234562   1.554   1.211   2.520 -0.0285 -0.2815  0.5258
 4335TIP3   OH234563   1.896   1.555   8.515 -0.0740 -0.0041 -0.0091
 4335TIP3    H134564   1.980   1.550   8.469 -0.7887 -1.9852 -1.2538
 4335TIP3    H234565   1.918   1.581   8.604  1.8895 -0.6610 -0.2551
 4336TIP3   OH234566   4.766   3.386   8.450  0.1772 -0.6687  0.3003
 4336TIP3    H134567   4.782   3.312   8.509  0.3325 -0.2304  0.8143
 4336TIP3    H234568   4.829   3.375   8.379  2.7146  0.8975  2.1460
 4337TIP3   OH234569   4.457   5.872   8.109  0.1469  0.2550  0.1955
 4337TIP3    H134570   4.528   5.934   8.124  0.7690 -0.0940 -1.1731
 4337TIP3    H234571   4.412   5.905   8.032 -0.7051  0.0303  0.5788
 4338TIP3   OH234572   4.173   2.278   2.047 -0.1711 -0.7188  0.0054
 4338TIP3    H134573   4.093   2.260   2.096  0.6974 -2.8234  0.7676
 4338TIP3    H234574   4.202   2.193   2.015  0.9110  0.2091 -1.6533
 4339TIP3   OH234575   1.601   1.049   7.946 -0.3854  0.4540  0.6237
 4339TIP3    H134576   1.616   0.969   7.897 -0.5946  0.5136  0.4602
 4339TIP3    H234577   1.671   1.108   7.919 -1.7263  1.2794 -1.3091
 4340TIP3   OH234578   6.553   6.148   1.532 -0.4700  0.5650 -0.7045
 4340TIP3    H134579   6.621   6.212   1.554  0.4061 -0.3263 -0.7308
 4340TIP3    H234580   6.521   6.174   1.446 -1.4358  2.0287  0.0623
 4341TIP3   OH234581   2.298   4.489   6.990 -0.0627 -0.0326  0.8924
 4341TIP3    H134582   2.352   4.510   6.914 -0.9971 -0.1777  0.1651
 4341TIP3    H234583   2.235   4.425   6.957  0.2111 -0.9386  2.0737
 4342TIP3   OH234584   2.285   5.202   7.958 -0.2583 -0.3011 -0.3104
 4342TIP3    H134585   2.362   5.205   8.015  0.6255  1.9054 -1.4880
 4342TIP3    H234586   2.319   5.219   7.870 -1.8650 -1.2493 -1.1640
 4343TIP3   OH234587   5.278   3.541   2.790 -0.4692  0.2216 -0.3729
 4343TIP3    H134588   5.223   3.473   2.751 -0.9728  0.0065  0.6672
 4343TIP3    H234589   5.319   3.498   2.865  0.2924  0.6848 -0.5214
 4344TIP3   OH234590   0.032   4.100   2.113 -0.2179 -0.5542 -0.3543
 4344TIP3    H134591  -0.051   4.135   2.145 -0.0011 -2.2159  2.4131
 4344TIP3    H234592   0.041   4.135   2.025 -2.1377  2.5185  0.5259
 4345TIP3   OH234593   2.012   5.146   1.979 -0.5498 -0.5394  0.0390
 4345TIP3    H134594   2.023   5.159   1.884  3.0310  0.1521  0.4062
 4345TIP3    H234595   2.048   5.058   1.994 -3.4278 -1.7241  0.5338
 4346TIP3   OH234596   0.301   5.212   8.517  0.1476  0.1247 -0.2900
 4346TIP3    H134597   0.264   5.133   8.558  0.2213  1.5582  2.8164
 4346TIP3    H234598   0.392   5.214   8.547  0.0243  1.5704  0.0512
 4347TIP3   OH234599   6.446   5.324   8.106  0.0067 -0.0164  0.3605
 4347TIP3    H134600   6.353   5.324   8.081 -0.3200  1.6984  1.3945
 4347TIP3    H234601   6.493   5.317   8.023 -1.0435  0.0777 -0.2635
 4348TIP3   OH234602   6.793   6.323   6.512 -0.8177  0.4454 -0.6398
 4348TIP3    H134603   6.883   6.354   6.498 -0.6757  0.6813  0.6276
 4348TIP3    H234604   6.786   6.315   6.607 -2.9911  2.9892 -0.4809
 4349TIP3   OH234605   3.231   1.409   7.467 -0.7706 -0.2829  0.3616
 4349TIP3    H134606   3.188   1.384   7.386 -1.3711  0.0521  0.5752
 4349TIP3    H234607   3.274   1.328   7.497  0.5360 -0.0982 -0.9381
 4350TIP3   OH234608   1.696   0.104   0.717 -0.3532 -0.2624  0.4570
 4350TIP3    H134609   1.668   0.085   0.628  1.6076  1.2466 -0.5700
 4350TIP3    H234610   1.646   0.182   0.742  0.7360  0.7126 -0.2736
 4351TIP3   OH234611   4.483   1.633   0.219 -0.2800  0.1041  0.0388
 4351TIP3    H134612   4.490   1.625   0.314 -0.8331  0.1327  0.0859
 4351TIP3    H234613   4.471   1.727   0.203  2.2081  0.4369 -0.2389
 4352TIP3   OH234614   6.457   5.730   7.823 -0.1604 -0.4384 -0.1384
 4352TIP3    H134615   6.404   5.689   7.891 -1.1522  0.6805 -0.2072
 4352TIP3    H234616   6.468   5.660   7.757 -0.4968 -1.0598  0.4489
 4353TIP3   OH234617   5.356   3.965   7.578 -0.6191 -0.3709  0.0527
 4353TIP3    H134618   5.298   3.990   7.506 -1.1374 -1.3269  0.1220
 4353TIP3    H234619   5.440   3.947   7.536  0.8584  4.5633  0.3142
 4354TIP3   OH234620   5.908   6.201   0.002 -0.5376 -0.1456 -0.4390
 4354TIP3    H134621   5.966   6.263   0.047 -1.3125  0.6724 -0.5246
 4354TIP3    H234622   5.849   6.257  -0.048 -1.6527 -0.9354 -0.0466
 4355TIP3   OH234623   4.447   1.708   7.227  0.4348 -0.4420  0.3129
 4355TIP3    H134624   4.529   1.757   7.239  0.5406 -0.7236  0.7909
 4355TIP3    H234625   4.381   1.760   7.273  0.8171 -1.4569  2.1163
 4356TIP3   OH234626   3.585   3.858   8.462  0.7786 -0.0027  0.4254
 4356TIP3    H134627   3.545   3.825   8.542 -2.5279 -0.8063 -1.3818
 4356TIP3    H234628   3.666   3.807   8.453  0.6611 -0.6781  2.6510
 4357TIP3   OH234629   5.102   3.483   1.815 -0.4261 -0.5883  0.2709
 4357TIP3    H134630   5.098   3.446   1.904 -0.7383 -3.2563 -0.7460
 4357TIP3    H234631   5.027   3.444   1.770  0.2035  0.0452 -1.4052
 4358TIP3   OH234632   1.189   3.552   8.398  0.0825 -0.2515 -0.3795
 4358TIP3    H134633   1.210   3.615   8.467 -0.1160  0.2417 -0.7595
 4358TIP3    H234634   1.128   3.491   8.439  1.4842 -1.1509  0.4658
 4359TIP3   OH234635   4.318   6.716   8.460  0.4498 -0.3017  0.3721
 4359TIP3    H134636   4.330   6.728   8.554 -0.1284 -1.4515  0.6165
 4359TIP3    H234637   4.262   6.790   8.434 -2.3427 -1.8106  1.6415
 4360TIP3   OH234638   4.222   0.761   8.141 -0.6005  0.0387 -0.0209
 4360TIP3    H134639   4.308   0.721   8.153 -0.3547  0.2755 -0.9125
 4360TIP3    H234640   4.166   0.690   8.108 -0.5651  0.0472 -0.1008
 4361TIP3   OH234641   1.626   0.588   0.308  0.0040 -0.2215  0.0573
 4361TIP3    H134642   1.554   0.606   0.368  0.5025  0.8449  0.3738
 4361TIP3    H234643   1.629   0.493   0.301 -2.2266 -0.2866 -0.9680
 4362TIP3   OH234644   3.926   4.814   1.642 -0.4152  0.2751 -0.2722
 4362TIP3    H134645   3.963   4.868   1.572 -0.3112  0.3500 -0.1593
 4362TIP3    H234646   3.878   4.876   1.697  0.5714  0.4207  0.4442
 4363TIP3   OH234647   5.082   1.304   7.269 -0.5486  0.6021  0.0107
 4363TIP3    H134648   5.124   1.328   7.186 -1.4053  1.0994 -0.2968
 4363TIP3    H234649   5.046   1.387   7.302 -0.5868  0.3288  0.6716
 4364TIP3   OH234650   2.304   2.326   0.711  0.3272  0.3092 -0.3749
 4364TIP3    H134651   2.372   2.357   0.651  2.9044 -3.0424  0.4850
 4364TIP3    H234652   2.335   2.352   0.798  0.8679 -1.5638  0.0566
 4365TIP3   OH234653   0.921   6.281   8.492  0.0026  0.3723  0.0337
 4365TIP3    H134654   0.928   6.193   8.453  0.4681 -0.3196  1.6207
 4365TIP3    H234655   0.830   6.307   8.474  0.7545  1.0752 -3.4368
 4366TIP3   OH234656   4.244   0.203   8.581  0.1830 -0.4616  0.1754
 4366TIP3    H134657   4.340   0.208   8.586  0.1582  1.7220 -0.5857
 4366TIP3    H234658   4.227   0.135   8.516  1.2647  0.1461 -0.7803
 4367TIP3   OH234659   3.068   3.411   8.444 -0.5897 -0.2854 -0.0889
 4367TIP3    H134660   3.027   3.468   8.379 -0.6078 -0.4387 -0.2144
 4367TIP3    H234661   3.138   3.366   8.396 -0.0212  0.2561  0.2202
 4368TIP3   OH234662   4.282   1.526   0.947 -0.0188 -0.7237  0.1885
 4368TIP3    H134663   4.305   1.512   1.039  1.1029 -0.1425  0.0184
 4368TIP3    H234664   4.190   1.553   0.949 -0.3760 -1.9045  1.0208
 4369TIP3   OH234665   0.503   5.165   8.170  0.1538 -0.3433 -0.1129
 4369TIP3    H134666   0.447   5.143   8.245  1.7733 -0.7581  1.0270
 4369TIP3    H234667   0.498   5.260   8.164 -0.5136 -0.3616  0.1071
 4370TIP3   OH234668   1.803   6.039   2.442  0.2743 -0.1339  0.2858
 4370TIP3    H134669   1.781   6.132   2.432 -1.0346 -0.4895 -0.4003
 4370TIP3    H234670   1.727   6.001   2.486  1.5550 -0.5720  2.2432
 4371TIP3   OH234671   0.297   4.803   2.075 -0.2383 -0.1928  0.0627
 4371TIP3    H134672   0.301   4.738   2.145 -0.2236 -1.8682 -1.4307
 4371TIP3    H234673   0.387   4.812   2.044 -0.3236  0.1147 -0.1057
 4372TIP3   OH234674   0.606   0.208   1.430  0.6373 -0.1082  0.6564
 4372TIP3    H134675   0.673   0.241   1.371 -0.0062 -1.3685 -0.8499
 4372TIP3    H234676   0.598   0.276   1.497  1.8848  1.0485 -0.2959
 4373TIP3   OH234677   3.675   3.857   2.138 -0.2436 -0.5971 -0.6351
 4373TIP3    H134678   3.623   3.937   2.132 -1.7724 -1.5859 -1.0424
 4373TIP3    H234679   3.673   3.834   2.231  2.0004  0.9311 -0.1242
 4374TIP3   OH234680   3.939   1.597   1.144  0.0597  0.6089 -0.5371
 4374TIP3    H134681   4.013   1.656   1.147  0.4996  0.0319  0.7362
 4374TIP3    H234682   3.869   1.647   1.100  1.3442  0.9401 -2.3221
 4375TIP3   OH234683   1.692   0.615   0.663  0.0147  0.8945 -0.0810
 4375TIP3    H134684   1.779   0.614   0.701  0.6133  0.3266 -1.3993
 4375TIP3    H234685   1.698   0.555   0.588 -2.0064 -0.6979  0.9082
 4376TIP3   OH234686   6.890   6.243   0.812 -0.1874  0.3428 -0.1673
 4376TIP3    H134687   6.972   6.292   0.802 -0.7571  1.1291 -1.1917
 4376TIP3    H234688   6.911   6.155   0.783  0.5813  0.2341  0.6730
 4377TIP3   OH234689   4.398   3.109   7.735  0.4345 -0.2035 -0.3491
 4377TIP3    H134690   4.429   3.195   7.763 -0.3459 -0.1314  0.3444
 4377TIP3    H234691   4.467   3.076   7.678  1.5210  0.1780  0.6971
 4378TIP3   OH234692   4.037   0.044   7.757  0.0598  0.1194 -0.0800
 4378TIP3    H134693   4.047   0.106   7.830 -1.9010  0.5503 -0.1210
 4378TIP3    H234694   4.115   0.059   7.702  1.6101 -0.2354  1.8855
 4379TIP3   OH234695   4.922   0.804   7.994 -0.4979  0.7700  0.2644
 4379TIP3    H134696   4.877   0.879   8.034  0.1591  1.5360 -0.3870
 4379TIP3    H234697   4.890   0.802   7.904  0.1965  0.8631  0.0075
 4380TIP3   OH234698   0.562   2.917   8.362  0.9801 -0.0159  1.0419
 4380TIP3    H134699   0.520   2.901   8.278  0.7134  0.4596  1.0839
 4380TIP3    H234700   0.614   2.838   8.378 -1.1040 -1.3315  1.7256
 4381TIP3   OH234701   6.569   6.240   0.192  0.0087 -0.0996  0.4496
 4381TIP3    H134702   6.640   6.235   0.128  0.1794  0.5166  0.5876
 4381TIP3    H234703   6.594   6.311   0.251 -0.0848 -0.7260  1.2774
 4382TIP3   OH234704   2.873   0.886   1.469 -0.2231  0.4505 -0.1381
 4382TIP3    H134705   2.838   0.797   1.470 -1.5411  0.9323 -0.9751
 4382TIP3    H234706   2.813   0.935   1.413  1.2024  1.5753 -0.7686
 4383TIP3   OH234707   3.608   6.602   2.506 -0.1855 -0.1352  0.2117
 4383TIP3    H134708   3.527   6.652   2.503 -0.0815  0.1234  1.2442
 4383TIP3    H234709   3.580   6.510   2.509 -0.4563 -0.0414  0.7068
 4384TIP3   OH234710   0.148   4.321   1.313 -0.1757  0.6524 -0.2106
 4384TIP3    H134711   0.200   4.242   1.296 -0.2482  0.7048 -0.7037
 4384TIP3    H234712   0.080   4.292   1.374  0.3746  0.5620  0.3616
 4385TIP3   OH234713   6.397   2.227   2.344  0.2519 -0.3941  0.4130
 4385TIP3    H134714   6.430   2.271   2.422 -1.3939  0.5656  0.6075
 4385TIP3    H234715   6.302   2.223   2.356  0.0201 -0.7998 -1.2517
 4386TIP3   OH234716   5.369   4.663   1.561 -0.6187  0.0845 -0.2602
 4386TIP3    H134717   5.284   4.620   1.547 -0.6955  0.2890 -0.4338
 4386TIP3    H234718   5.403   4.678   1.472  0.2814 -1.3361 -0.1756
 4387TIP3   OH234719   4.521   4.618   7.731 -0.0374  0.1949  0.7281
 4387TIP3    H134720   4.528   4.648   7.640  0.0761  0.0708  0.6957
 4387TIP3    H234721   4.610   4.591   7.754  0.1620  1.2401  1.2311
 4388TIP3   OH234722   3.255   4.439   7.609 -0.1524 -0.0991  0.1442
 4388TIP3    H134723   3.200   4.463   7.684  2.1048  1.1638  1.5326
 4388TIP3    H234724   3.309   4.367   7.642  1.2759  0.8532  0.0040
 4389TIP3   OH234725   3.900   0.292   6.849 -0.2148  0.1732 -0.4294
 4389TIP3    H134726   3.859   0.371   6.884  0.0301  0.2379 -0.2865
 4389TIP3    H234727   3.930   0.316   6.762 -0.7839  0.0257 -0.6705
 4390TIP3   OH234728   5.859   6.562   0.596  0.6296 -0.4848  0.0692
 4390TIP3    H134729   5.883   6.649   0.565 -1.0317 -0.2682 -0.7247
 4390TIP3    H234730   5.883   6.561   0.689  0.8598  0.7336  0.0311
 4391TIP3   OH234731   6.877   5.368   8.449  0.1176  0.1364 -0.1547
 4391TIP3    H134732   6.862   5.447   8.502 -0.3743 -0.7432  1.0612
 4391TIP3    H234733   6.882   5.400   8.359  2.5503  1.8926  0.5065
 4392TIP3   OH234734   5.301   2.387   8.582 -0.3036  0.0510  0.2216
 4392TIP3    H134735   5.267   2.457   8.526 -0.2774 -0.5142 -0.5106
 4392TIP3    H234736   5.324   2.431   8.664 -0.7734  0.8090 -0.0423
 4393TIP3   OH234737   3.965   3.191   2.329  0.2226 -0.0957  0.2563
 4393TIP3    H134738   3.891   3.146   2.370 -0.5688  0.7210 -0.2536
 4393TIP3    H234739   4.037   3.128   2.335  0.1560 -0.0266  2.8552
 4394TIP3   OH234740   0.583   2.980   2.277 -0.0892 -0.1394  0.3489
 4394TIP3    H134741   0.676   2.957   2.288  0.2839  0.5075 -1.1756
 4394TIP3    H234742   0.576   3.068   2.315  0.3317  0.5127 -1.0181
 4395TIP3   OH234743   6.377   4.098   2.077 -0.4620 -0.2104 -0.4074
 4395TIP3    H134744   6.347   4.125   2.164 -0.8437 -1.2828 -0.1949
 4395TIP3    H234745   6.418   4.176   2.041  2.5780 -0.5212  1.9719
 4396TIP3   OH234746   2.068   2.915   0.905  0.1943 -0.1453 -0.1509
 4396TIP3    H134747   2.075   2.821   0.891  0.3193 -0.0127 -1.0395
 4396TIP3    H234748   2.074   2.953   0.817 -0.4399  0.6536  0.1367
 4397TIP3   OH234749   3.601   6.791   0.370 -0.2398  0.2490 -0.0876
 4397TIP3    H134750   3.519   6.826   0.404  0.4506  1.0436  0.8110
 4397TIP3    H234751   3.594   6.799   0.275 -1.1754  0.3512 -0.0114
 4398TIP3   OH234752   0.737   6.775   1.568 -0.6317 -0.5498  0.5749
 4398TIP3    H134753   0.685   6.695   1.558 -0.3648 -1.1528  3.2036
 4398TIP3    H234754   0.823   6.744   1.597 -0.6443  0.6597  2.0326
 4399TIP3   OH234755   2.018   2.398   1.664  0.0815  0.4149 -0.2340
 4399TIP3    H134756   2.086   2.333   1.681 -0.6229 -0.3988 -0.4609
 4399TIP3    H234757   1.968   2.362   1.592  0.4728  1.8579 -1.2632
 4400TIP3   OH234758   0.464   0.170   7.937  0.0962 -0.0985 -0.7377
 4400TIP3    H134759   0.394   0.106   7.940 -0.5082  0.5806  1.2269
 4400TIP3    H234760   0.430   0.241   7.881 -1.7577  1.2037  1.8479
 4401TIP3   OH234761   1.144   5.684   8.449  0.1761 -0.4276  0.2372
 4401TIP3    H134762   1.198   5.680   8.370  1.6673 -0.6756  1.2533
 4401TIP3    H234763   1.098   5.600   8.451  0.5088 -0.6201 -0.1000
 4402TIP3   OH234764   3.298   3.953   6.505 -0.1075  0.0808 -0.0377
 4402TIP3    H134765   3.347   3.892   6.559 -3.9306 -1.9500  1.5173
 4402TIP3    H234766   3.319   3.927   6.415  0.4100 -1.8039  0.5768
 4403TIP3   OH234767   4.086   6.696   1.438 -0.0900 -0.2936  0.1862
 4403TIP3    H134768   4.058   6.621   1.490 -0.0036  0.5552  1.4924
 4403TIP3    H234769   4.008   6.721   1.389 -0.3267 -0.7736  0.3107
 4404TIP3   OH234770   4.301   0.461   0.116  0.0143  0.0763  0.0922
 4404TIP3    H134771   4.390   0.490   0.095 -0.1869 -0.3890 -1.4851
 4404TIP3    H234772   4.308   0.366   0.124 -0.1740  0.1249  0.9273
 4405TIP3   OH234773   2.235   4.649   1.879 -0.4761 -0.2502 -0.0214
 4405TIP3    H134774   2.300   4.582   1.900 -0.1666 -0.1750 -0.6929
 4405TIP3    H234775   2.152   4.602   1.872 -0.2101 -0.6205 -0.7829
 4406TIP3   OH234776   5.817   5.322   0.923  0.1373  0.6544  0.2851
 4406TIP3    H134777   5.734   5.359   0.891  0.9685  2.4990  0.1255
 4406TIP3    H234778   5.814   5.230   0.895 -2.2532  0.3825  1.1386
 4407TIP3   OH234779   0.744   3.938   0.668 -0.1237  0.3143  0.3482
 4407TIP3    H134780   0.674   3.968   0.727 -0.4940  0.1910 -0.0243
 4407TIP3    H234781   0.823   3.940   0.722 -0.0229  2.4208  0.2132
 4408TIP3   OH234782   6.811   6.042   8.426 -0.5578 -0.2389 -0.4064
 4408TIP3    H134783   6.799   6.134   8.447 -2.0571 -0.5563  0.2767
 4408TIP3    H234784   6.827   6.000   8.511  1.0087 -0.5116 -0.8022
 4409TIP3   OH234785   3.734   1.580   2.291  0.1338 -0.2256 -0.2891
 4409TIP3    H134786   3.765   1.632   2.217 -0.8295 -0.9801 -1.2348
 4409TIP3    H234787   3.650   1.619   2.315 -0.0130 -0.5834 -0.2113
 4410TIP3   OH234788   1.934   0.653   7.303  0.2939 -0.7776  0.6790
 4410TIP3    H134789   1.987   0.645   7.382 -0.8025 -2.8395  1.2725
 4410TIP3    H234790   1.989   0.619   7.233  0.4490 -1.1165  0.9656
 4411TIP3   OH234791   4.700   4.267   8.496  0.1471  0.1634 -0.4701
 4411TIP3    H134792   4.769   4.332   8.480 -1.2265  1.6035 -0.7642
 4411TIP3    H234793   4.735   4.186   8.459  1.8729  0.7293 -0.1807
 4412TIP3   OH234794   4.913   1.228   8.316 -0.5810  0.3186 -0.5233
 4412TIP3    H134795   4.987   1.211   8.258 -0.3955  0.8103 -0.4369
 4412TIP3    H234796   4.847   1.165   8.289  0.0993 -0.5644 -0.1714
 4413TIP3   OH234797   0.757   0.673   1.465 -0.3952 -0.3117 -0.6004
 4413TIP3    H134798   0.776   0.581   1.483 -0.2958 -0.0277  0.7873
 4413TIP3    H234799   0.661   0.676   1.454 -0.3358 -0.6705 -1.3021
 4414TIP3   OH234800   3.338   6.151   6.788  0.0374  0.0650 -0.1275
 4414TIP3    H134801   3.373   6.214   6.724 -0.1090 -0.4217 -0.6992
 4414TIP3    H234802   3.268   6.106   6.740 -1.7172  1.3254  1.1100
 4415TIP3   OH234803   4.195   6.820   1.933 -0.3560  0.3868  0.0238
 4415TIP3    H134804   4.196   6.749   1.998 -1.4892  0.7939  0.4990
 4415TIP3    H234805   4.258   6.883   1.966  0.1728 -0.0857 -0.0584
 4416TIP3   OH234806   1.547   3.582   7.445  0.1256  0.0839  0.3855
 4416TIP3    H134807   1.587   3.613   7.364  1.4304  0.4936  1.1450
 4416TIP3    H234808   1.620   3.578   7.507 -0.7597 -0.6590  1.4159
 4417TIP3   OH234809   5.904   1.783   1.263 -0.2729 -0.2561  0.0918
 4417TIP3    H134810   5.860   1.829   1.334 -0.9361 -0.4020 -0.2248
 4417TIP3    H234811   5.977   1.738   1.306 -0.0584  0.4795  0.5166
 4418TIP3   OH234812   0.402   5.387   7.889  0.5482 -0.4910 -0.1817
 4418TIP3    H134813   0.340   5.393   7.816 -0.6499 -0.6158  0.7993
 4418TIP3    H234814   0.369   5.314   7.942  1.6505 -0.6768  0.2676
 4419TIP3   OH234815   3.879   1.598   0.125 -0.8110  0.2087 -0.3681
 4419TIP3    H134816   3.820   1.662   0.084 -0.7593  0.3440 -0.2325
 4419TIP3    H234817   3.897   1.535   0.055 -1.7202 -0.2558 -0.2017
 4420TIP3   OH234818   2.417   2.639   1.921  0.1296  0.2099 -0.0185
 4420TIP3    H134819   2.431   2.560   1.973 -0.7983  0.4209  0.5854
 4420TIP3    H234820   2.323   2.638   1.900  0.7400 -0.7789 -3.2413
 4421TIP3   OH234821   0.392   5.172   2.021  0.1372 -0.1940 -0.1071
 4421TIP3    H134822   0.398   5.245   2.082  1.3302  0.4431 -0.9501
 4421TIP3    H234823   0.319   5.195   1.963  0.2254  0.1177 -0.0957
 4422TIP3   OH234824   1.342   4.666   0.234  0.2130 -0.5962  0.1803
 4422TIP3    H134825   1.266   4.650   0.290 -0.3915  0.7912 -0.2131
 4422TIP3    H234826   1.308   4.715   0.160  1.5125  0.1763  0.0619
 4423TIP3   OH234827   6.646   3.906   7.075 -0.2483  0.4719  0.0666
 4423TIP3    H134828   6.674   3.968   7.008  0.4582  0.0382 -0.0495
 4423TIP3    H234829   6.556   3.933   7.097 -0.1598  1.1658 -0.3999
 4424TIP3   OH234830   1.095   0.791   0.633 -0.3261 -0.4163  0.0958
 4424TIP3    H134831   1.102   0.834   0.719  0.4062  2.1925 -1.1773
 4424TIP3    H234832   1.185   0.770   0.610 -0.5252 -1.1345 -0.0476
 4425TIP3   OH234833   2.464   4.359   7.147 -0.1130 -0.1205  0.1332
 4425TIP3    H134834   2.395   4.403   7.098  2.2453  1.3979 -2.1275
 4425TIP3    H234835   2.462   4.269   7.115 -1.4759 -0.3013  0.6664
 4426TIP3   OH234836   0.952   0.587   7.906  0.2081 -0.0402  0.0589
 4426TIP3    H134837   0.931   0.494   7.910 -1.6256  0.3730  1.3700
 4426TIP3    H234838   1.036   0.595   7.952  0.6267 -1.0874 -0.4979
 4427TIP3   OH234839   1.662   1.631   2.796  0.3568 -0.2664  0.0415
 4427TIP3    H134840   1.667   1.546   2.753  0.9435  0.0455 -0.5126
 4427TIP3    H234841   1.729   1.628   2.864  1.2251  0.2035 -0.7864
 4428TIP3   OH234842   1.198   4.114   0.758 -0.0769  0.9513  0.3125
 4428TIP3    H134843   1.244   4.182   0.807  1.8331 -0.2826  0.3333
 4428TIP3    H234844   1.255   4.096   0.683 -0.1059 -1.1890  0.7462
 4429TIP3   OH234845   2.618   4.850   0.611 -0.2060  0.0506 -0.0482
 4429TIP3    H134846   2.641   4.940   0.589  1.1795 -0.5911 -1.4551
 4429TIP3    H234847   2.524   4.843   0.594 -0.4344  1.3483  0.6051
 4430TIP3   OH234848   5.090   4.115   2.382  0.1831 -0.1293 -0.0659
 4430TIP3    H134849   5.021   4.160   2.429  0.5962  0.0036  0.4203
 4430TIP3    H234850   5.076   4.138   2.290  0.9535  1.7874  0.2495
 4431TIP3   OH234851   2.697   0.860   0.408  0.2817 -0.1279  0.6618
 4431TIP3    H134852   2.700   0.793   0.476 -0.3695  0.3625  1.1886
 4431TIP3    H234853   2.642   0.822   0.339 -0.6947  0.1371  1.2767
 4432TIP3   OH234854   4.588   6.608   8.372 -0.5739 -0.2362  0.0366
 4432TIP3    H134855   4.644   6.683   8.391  0.3128 -1.1072  1.0032
 4432TIP3    H234856   4.504   6.629   8.415  0.0580 -0.3144  1.3655
 4433TIP3   OH234857   3.151   3.843   1.740 -0.3690 -0.1003  0.1909
 4433TIP3    H134858   3.086   3.822   1.807 -1.0487 -0.3439 -0.5362
 4433TIP3    H234859   3.181   3.931   1.763 -1.4486  0.2930  0.1551
 4434TIP3   OH234860   4.893   0.732   0.144 -0.1229 -0.3089  0.8142
 4434TIP3    H134861   4.940   0.814   0.154  0.5799 -0.6869  0.6813
 4434TIP3    H234862   4.940   0.670   0.200  1.2852 -1.3840 -1.4038
 4435TIP3   OH234863   0.205   2.728   8.023  0.2904 -0.3397  0.4313
 4435TIP3    H134864   0.280   2.725   7.964 -0.5791 -0.7164 -0.6715
 4435TIP3    H234865   0.141   2.784   7.978 -1.5775 -3.0244 -0.4669
 4436TIP3   OH234866   1.666   5.683   2.479  0.5217 -0.1380  0.6247
 4436TIP3    H134867   1.605   5.626   2.526 -0.9169  1.7650  1.1808
 4436TIP3    H234868   1.619   5.766   2.471  3.1738  1.5259  1.3631
 4437TIP3   OH234869   1.796   4.567   7.784 -0.0026 -0.2898 -0.8531
 4437TIP3    H134870   1.787   4.650   7.831  0.0925  0.6468 -2.4095
 4437TIP3    H234871   1.890   4.550   7.783 -0.0386 -0.5561 -0.3423
 4438TIP3   OH234872   6.607   4.585   2.053  0.1068  0.0765 -0.4343
 4438TIP3    H134873   6.644   4.629   2.130 -2.0928  2.0142 -0.3524
 4438TIP3    H234874   6.647   4.630   1.979 -1.6054  1.9144 -0.3453
 4439TIP3   OH234875   1.929   6.627   7.279  0.5295 -0.1071  0.2227
 4439TIP3    H134876   1.934   6.714   7.319  0.8695 -0.6194  1.3079
 4439TIP3    H234877   1.856   6.634   7.217 -0.0559  0.6846  0.9723
 4440TIP3   OH234878   3.799   2.638   7.730 -0.6961  0.2674 -0.3194
 4440TIP3    H134879   3.894   2.637   7.731 -0.6227  2.6381 -0.3571
 4440TIP3    H234880   3.775   2.637   7.637 -0.6593  0.8368 -0.3381
 4441TIP3   OH234881   5.776   2.441   8.406  0.3716  0.4926  0.2127
 4441TIP3    H134882   5.710   2.510   8.412 -0.0481  0.0943  0.2784
 4441TIP3    H234883   5.728   2.365   8.371  0.8372  0.2538  0.0888
 4442TIP3   OH234884   1.794   4.429   8.138  0.0861 -0.1898 -0.0759
 4442TIP3    H134885   1.845   4.469   8.068 -0.6338 -0.6159 -0.8630
 4442TIP3    H234886   1.703   4.435   8.108  0.0384 -4.7562 -1.5967
 4443TIP3   OH234887   3.986   2.392   8.345  0.5380 -0.2325  0.0544
 4443TIP3    H134888   3.894   2.380   8.369  0.6006  1.4865  1.3711
 4443TIP3    H234889   3.988   2.381   8.250 -0.7649 -1.6684  0.1601
 4444TIP3   OH234890   5.825   3.494   0.388 -0.0864 -0.2414 -0.0524
 4444TIP3    H134891   5.894   3.433   0.365 -0.1305 -0.2534 -0.1535
 4444TIP3    H234892   5.868   3.580   0.389 -0.0428 -0.2643  0.0088
 4445TIP3   OH234893   1.095   6.469   0.984  0.2907  0.4058 -0.6326
 4445TIP3    H134894   1.008   6.486   0.947 -0.0634  3.0237  1.1651
 4445TIP3    H234895   1.154   6.524   0.933  0.6825 -0.1528 -0.8001
 4446TIP3   OH234896   2.761   0.587   0.545  0.2826  0.0561  0.0623
 4446TIP3    H134897   2.696   0.535   0.591 -0.1976  0.4478 -0.1699
 4446TIP3    H234898   2.808   0.634   0.614  0.9605 -0.9452  0.3025
 4447TIP3   OH234899   1.242   2.651   7.345  0.3112 -0.4588 -0.8481
 4447TIP3    H134900   1.277   2.593   7.278 -0.4680 -0.8559 -0.9169
 4447TIP3    H234901   1.260   2.606   7.428  0.5937 -0.3258 -0.8359
 4448TIP3   OH234902   5.591   0.124   0.320  0.0786 -0.2749 -0.1423
 4448TIP3    H134903   5.620   0.075   0.243  1.5978 -0.2684  0.3797
 4448TIP3    H234904   5.591   0.215   0.292 -1.1130 -0.4148 -0.6323
 4449TIP3   OH234905   1.860   3.061   8.178 -0.6424 -0.2609 -0.5701
 4449TIP3    H134906   1.846   2.968   8.161 -0.5971 -0.4423  0.3673
 4449TIP3    H234907   1.778   3.091   8.217 -0.7057  0.1333 -0.9873
 4450TIP3   OH234908   2.038   0.912   0.281  0.1431 -0.8283 -0.3274
 4450TIP3    H134909   2.117   0.860   0.294  0.9766  1.0480  3.4016
 4450TIP3    H234910   2.070   0.996   0.246 -0.3892 -0.5973 -0.2741
 4451TIP3   OH234911   3.379   5.563   8.090 -0.0184  0.3708  0.8921
 4451TIP3    H134912   3.374   5.566   7.994 -0.6413 -0.5230  0.8779
 4451TIP3    H234913   3.324   5.635   8.120 -1.5258 -0.5818  0.5668
 4452TIP3   OH234914   6.835   2.978   0.307 -0.0443 -0.1327  0.1411
 4452TIP3    H134915   6.773   2.944   0.243 -1.8599  1.6079  0.8694
 4452TIP3    H234916   6.882   3.048   0.262  1.2135 -1.2081 -0.2957
 4453TIP3   OH234917   5.237   4.413   2.328  0.4807  0.4146  0.1927
 4453TIP3    H134918   5.318   4.364   2.335  0.9890  1.3042  0.7179
 4453TIP3    H234919   5.230   4.462   2.410  0.2641  1.6156 -0.5062
 4454TIP3   OH234920   2.219   0.697   1.264  0.0801  0.3150 -0.4223
 4454TIP3    H134921   2.291   0.684   1.201  0.7850  1.0839  0.2062
 4454TIP3    H234922   2.248   0.650   1.342  0.2643  1.2694  0.0962
 4455TIP3   OH234923   3.700   6.320   1.941  0.1789 -0.4023 -0.5684
 4455TIP3    H134924   3.654   6.236   1.949 -1.3056  0.4427  0.2470
 4455TIP3    H234925   3.791   6.299   1.961 -0.4108 -1.5795  1.1395
 4456TIP3   OH234926   4.374   6.492   7.487  0.1129  0.6070 -0.0548
 4456TIP3    H134927   4.451   6.548   7.481  0.3620  0.3673  0.7322
 4456TIP3    H234928   4.326   6.525   7.562 -0.1601  0.2840 -0.0833
 4457TIP3   OH234929   4.632   6.248   7.371  0.0810 -0.1613  0.1496
 4457TIP3    H134930   4.579   6.182   7.415  0.7493  0.2495  1.6060
 4457TIP3    H234931   4.719   6.209   7.364  0.2404  0.1910  0.1418
 4458TIP3   OH234932   2.795   3.851   0.280  0.1860 -0.3935  0.1154
 4458TIP3    H134933   2.888   3.863   0.295  0.7590 -2.2057 -1.5126
 4458TIP3    H234934   2.787   3.832   0.186 -1.3092 -3.6760  0.7237
 4459TIP3   OH234935   0.316   3.746   0.082 -0.0209  0.1533  0.2435
 4459TIP3    H134936   0.392   3.788   0.122  0.0924  2.1123 -1.8039
 4459TIP3    H234937   0.339   3.738  -0.011 -2.1974  0.6139 -0.4001
 4460TIP3   OH234938   1.534   6.867   7.571  0.4271 -0.3342 -0.1295
 4460TIP3    H134939   1.602   6.928   7.544 -0.7119 -0.3329 -3.3851
 4460TIP3    H234940   1.581   6.787   7.595  1.6773  0.3886 -0.1025
 4461TIP3   OH234941   2.044   2.771   8.226  0.2360  0.2808  0.3124
 4461TIP3    H134942   1.996   2.694   8.256 -1.8539  1.6394  0.6708
 4461TIP3    H234943   2.070   2.816   8.306  0.2747  0.6256  0.1087
 4462TIP3   OH234944   6.817   5.430   1.984  0.1641  0.4039 -0.3657
 4462TIP3    H134945   6.888   5.437   2.048  1.6185 -0.0348 -1.8596
 4462TIP3    H234946   6.754   5.370   2.025  0.7672  0.6062  0.8966
 4463TIP3   OH234947   3.805   4.488   1.821 -0.0719 -0.3421  0.3614
 4463TIP3    H134948   3.736   4.437   1.779  1.4143 -0.1578 -2.5369
 4463TIP3    H234949   3.821   4.444   1.904 -2.4009 -1.4253  0.2982
 4464TIP3   OH234950   3.637   4.768   1.460 -0.1570 -0.5063 -0.9346
 4464TIP3    H134951   3.599   4.766   1.372 -0.4784 -0.1928 -0.8041
 4464TIP3    H234952   3.568   4.805   1.515  0.1192 -0.5044 -0.5872
 4465TIP3   OH234953   6.707   2.380   0.887 -0.1808  0.7877  0.8419
 4465TIP3    H134954   6.682   2.452   0.945  1.1536  2.5145 -0.5812
 4465TIP3    H234955   6.780   2.337   0.931  0.3660  1.6357  0.7758
 4466TIP3   OH234956   5.622   6.260   7.009  0.2992 -0.3158  0.1050
 4466TIP3    H134957   5.566   6.337   7.013 -0.3650 -0.8408  1.4493
 4466TIP3    H234958   5.707   6.290   7.041  0.4315  0.1670 -0.6814
 4467TIP3   OH234959   4.058   1.036   6.360 -0.0233 -0.1224  0.2334
 4467TIP3    H134960   4.123   1.104   6.344  0.5529 -0.3415  1.5022
 4467TIP3    H234961   3.981   1.083   6.392 -0.3977  0.1097 -0.9751
 4468TIP3   OH234962   1.488   4.724   0.822  0.0703 -0.2328 -0.0938
 4468TIP3    H134963   1.558   4.777   0.784  0.7924 -1.2068 -0.1564
 4468TIP3    H234964   1.427   4.788   0.858 -0.4563  0.7525 -2.4971
 4469TIP3   OH234965   1.488   1.277   1.515 -0.4349 -0.3386 -0.2717
 4469TIP3    H134966   1.458   1.210   1.453 -0.5167  1.0976 -1.8880
 4469TIP3    H234967   1.582   1.286   1.497 -0.5585  0.4465 -0.5892
 4470TIP3   OH234968   1.610   0.112   2.918 -0.7367  0.3852  0.3790
 4470TIP3    H134969   1.649   0.170   2.853  0.9160 -0.3826  0.6285
 4470TIP3    H234970   1.648   0.138   3.001  0.6128 -1.4505  0.4024
 4471TIP3   OH234971   1.686   1.626   6.767 -0.0094  0.1817  0.4118
 4471TIP3    H134972   1.729   1.561   6.711  1.1841  0.3737  1.0699
 4471TIP3    H234973   1.754   1.690   6.786 -0.6421  0.5951  1.3558
 4472TIP3   OH234974   5.978   4.515   6.921  0.1032 -0.6100  0.6257
 4472TIP3    H134975   6.052   4.565   6.889  1.2369 -1.5083  1.7519
 4472TIP3    H234976   5.916   4.514   6.848  1.0986  0.3189 -0.2606
 4473TIP3   OH234977   1.548   4.449   7.694  0.6909  0.0818  0.0814
 4473TIP3    H134978   1.575   4.452   7.786 -0.5536  0.8051  0.4567
 4473TIP3    H234979   1.590   4.526   7.654  1.6239 -0.5023 -0.0880
 4474TIP3   OH234980   0.939   1.271   1.543  0.0370  0.1790  0.1324
 4474TIP3    H134981   0.907   1.239   1.459 -0.2661  0.7804  0.0099
 4474TIP3    H234982   1.034   1.277   1.531  0.0075  0.1442 -0.1295
 4475TIP3   OH234983   2.612   2.156   7.105 -0.2130  0.5446  0.2802
 4475TIP3    H134984   2.520   2.163   7.082 -0.6836 -0.4569  1.7423
 4475TIP3    H234985   2.653   2.231   7.061 -1.5379  0.5058 -1.1203
 4476TIP3   OH234986   1.443   5.742   8.341 -0.1217 -0.5765  0.0285
 4476TIP3    H134987   1.534   5.748   8.312 -0.7119  2.3201 -1.6099
 4476TIP3    H234988   1.406   5.671   8.288  0.2098  1.0809 -2.6544
 4477TIP3   OH234989   6.392   5.281   0.237 -0.4827  0.1625 -0.1960
 4477TIP3    H134990   6.476   5.276   0.192  1.6261  2.3667  3.0657
 4477TIP3    H234991   6.352   5.361   0.204 -0.3444  0.1971 -0.2799
 4478TIP3   OH234992   4.261   5.467   7.838 -0.4262 -0.1530 -0.2561
 4478TIP3    H134993   4.304   5.398   7.786 -0.1293 -0.5774  0.5399
 4478TIP3    H234994   4.332   5.528   7.860 -0.9347  1.2556 -2.2222
 4479TIP3   OH234995   5.122   1.795   7.956 -0.4530 -0.1643  0.2558
 4479TIP3    H134996   5.094   1.875   7.911  1.2662  0.5709  0.4395
 4479TIP3    H234997   5.052   1.779   8.019 -2.3102 -0.5383 -1.7740
 4480TIP3   OH234998   0.471   3.484   7.375  0.3283  0.0160  0.4483
 4480TIP3    H134999   0.495   3.572   7.406 -1.6161  0.8651 -0.3221
 4480TIP3    H235000   0.533   3.466   7.304  0.4881  0.9397  0.3422
 4481TIP3   OH235001   0.298   2.646   8.309 -0.0061 -0.3631 -0.0988
 4481TIP3    H135002   0.314   2.559   8.345  1.2503 -0.6631 -1.3105
 4481TIP3    H235003   0.318   2.638   8.216  2.0277  1.6548  0.0779
 4482TIP3   OH235004   4.606   4.450   2.544  0.5751 -0.2967  0.1446
 4482TIP3    H135005   4.638   4.365   2.514 -3.5245 -1.7821 -0.6875
 4482TIP3    H235006   4.577   4.494   2.464  1.5048  1.4365  0.7078
 4483TIP3   OH235007   5.639   5.661   8.579 -0.1216  0.8371 -0.4274
 4483TIP3    H135008   5.572   5.711   8.533  0.1405  1.4840 -0.1189
 4483TIP3    H235009   5.603   5.573   8.587  0.1695  0.4554 -2.6196
 4484TIP3   OH235010   5.337   5.761   1.704 -0.5045  0.1701 -0.1760
 4484TIP3    H135011   5.274   5.711   1.756  0.7438 -1.0632  0.1990
 4484TIP3    H235012   5.307   5.852   1.712 -1.4998 -0.2284  1.0324
 4485TIP3   OH235013   6.883   1.601   7.251 -0.2566  0.1796  0.1381
 4485TIP3    H135014   6.903   1.670   7.188 -1.1096 -0.4532 -0.8730
 4485TIP3    H235015   6.967   1.582   7.293  0.5862 -0.0910 -1.5624
 4486TIP3   OH235016   0.023   0.718   0.961  0.2276  0.3668 -0.3237
 4486TIP3    H135017   0.081   0.773   0.909  2.2437  0.7174  2.1142
 4486TIP3    H235018   0.082   0.663   1.012 -1.5070  1.3064  2.9217
 4487TIP3   OH235019   2.676   6.098   6.833  0.8062  0.3872  0.4445
 4487TIP3    H135020   2.743   6.081   6.766 -0.6159 -1.7275 -0.5391
 4487TIP3    H235021   2.607   6.146   6.787  0.4284  0.1543  0.7635
 4488TIP3   OH235022   0.985   3.101   6.813 -0.3690  0.3191 -1.5903
 4488TIP3    H135023   1.015   3.148   6.736  0.7470 -1.2544 -2.1676
 4488TIP3    H235024   1.046   3.028   6.823 -1.1120 -0.1351  0.1634
 4489TIP3   OH235025   2.539   1.483   7.902 -0.0025 -0.1895  0.1619
 4489TIP3    H135026   2.531   1.432   7.822  1.8950  0.6945 -0.6623
 4489TIP3    H235027   2.550   1.573   7.872  2.5549 -0.0297  1.2731
 4490TIP3   OH235028   2.810   6.023   0.447  0.3011 -0.3222 -0.0337
 4490TIP3    H135029   2.756   6.102   0.446  1.9694  0.8675 -0.6093
 4490TIP3    H235030   2.749   5.953   0.470 -0.9716  1.3056  1.9461
 4491TIP3   OH235031   1.435   0.859   0.733  0.1509  0.1895  0.0374
 4491TIP3    H135032   1.382   0.894   0.805 -0.9124  2.4013 -1.7035
 4491TIP3    H235033   1.525   0.881   0.757 -0.3179  2.3948 -0.0187
 4492TIP3   OH235034   0.350   0.116   0.686 -0.5667  0.0918 -0.0100
 4492TIP3    H135035   0.357   0.097   0.593 -0.6398  1.6702 -0.3644
 4492TIP3    H235036   0.304   0.040   0.723 -1.9432  0.1418 -1.5249
 4493TIP3   OH235037   4.982   0.679   1.700  0.6735  0.2217  0.4959
 4493TIP3    H135038   4.908   0.648   1.751  0.2570 -0.4347 -0.4780
 4493TIP3    H235039   4.949   0.756   1.653  0.8439  0.4078  0.6819
 4494TIP3   OH235040   6.101   2.454   8.299 -0.3124 -0.6948  0.1985
 4494TIP3    H135041   6.125   2.539   8.262 -0.6019 -0.4166  0.6494
 4494TIP3    H235042   6.180   2.400   8.288 -0.3841 -0.6195 -0.8109
 4495TIP3   OH235043   2.899   2.509   7.274 -0.5053  0.1494  0.5468
 4495TIP3    H135044   2.806   2.495   7.256 -0.4617  0.0144  0.4229
 4495TIP3    H235045   2.941   2.428   7.245 -0.2660  0.4741 -0.0347
 4496TIP3   OH235046   1.101   3.770   7.821 -0.2714  0.0963 -0.3728
 4496TIP3    H135047   1.189   3.760   7.858  0.0030  0.1408 -0.9954
 4496TIP3    H235048   1.063   3.844   7.868 -0.1311 -0.1804  0.1883
 4497TIP3   OH235049   0.109   0.824   8.259 -0.2083 -0.0129 -0.1649
 4497TIP3    H135050   0.043   0.809   8.327 -1.3320  0.1678 -1.1606
 4497TIP3    H235051   0.145   0.910   8.279  1.5686 -1.1127  1.8153
 4498TIP3   OH235052   5.859   6.844   7.540 -0.7982  0.2503  0.2704
 4498TIP3    H135053   5.900   6.801   7.615 -1.1756  2.1249  1.6407
 4498TIP3    H235054   5.917   6.918   7.520 -1.9700  1.2404  0.3758
 4499TIP3   OH235055   4.874   6.706   6.574 -0.3735 -0.0490  0.1707
 4499TIP3    H135056   4.785   6.714   6.542 -0.7075 -1.6016  0.6305
 4499TIP3    H235057   4.868   6.643   6.647  0.9153  0.6455  0.9207
 4500TIP3   OH235058   0.463   4.607   7.592  0.4824 -0.0912 -0.4981
 4500TIP3    H135059   0.527   4.648   7.532 -0.6642  0.6981 -1.2201
 4500TIP3    H235060   0.442   4.676   7.655  0.0297 -0.2198 -0.5103
 4501TIP3   OH235061   2.626   6.649   1.271 -0.2398 -0.0285 -0.3188
 4501TIP3    H135062   2.662   6.561   1.278 -1.7310 -0.5942  0.6030
 4501TIP3    H235063   2.576   6.648   1.190  1.4460  0.6582 -1.4261
 4502TIP3   OH235064   2.173   1.010   0.592 -0.0179 -0.0562 -0.0988
 4502TIP3    H135065   2.233   0.937   0.580  0.9226  0.8556 -1.2004
 4502TIP3    H235066   2.186   1.038   0.683  1.7244  0.5137 -0.4875
 4503TIP3   OH235067   3.065   3.736   8.363  0.6177  0.3660 -0.0456
 4503TIP3    H135068   2.970   3.743   8.354  0.2973  0.2675  2.4435
 4503TIP3    H235069   3.100   3.808   8.310 -0.8514  0.5679 -0.7760
 4504TIP3   OH235070   1.730   6.872   2.066 -0.6706 -0.0691 -0.0922
 4504TIP3    H135071   1.774   6.798   2.024 -1.2629  0.0010 -0.8602
 4504TIP3    H235072   1.773   6.950   2.030 -1.4237  0.0011 -0.8840
 4505TIP3   OH235073   2.049   2.923   1.278 -0.2761  0.0355 -0.6479
 4505TIP3    H135074   1.985   2.892   1.342  0.9511  1.9680  1.6780
 4505TIP3    H235075   2.084   2.843   1.238 -2.5176 -1.1323 -0.4006
 4506TIP3   OH235076   1.997   3.661   0.163  0.2158  0.0691 -0.6698
 4506TIP3    H135077   1.982   3.693   0.252  0.6502 -2.7162  0.5393
 4506TIP3    H235078   2.083   3.694   0.140  0.5588 -0.0280  0.3964
 4507TIP3   OH235079   5.176   6.119   0.215  0.3438  0.5860 -0.3020
 4507TIP3    H135080   5.218   6.123   0.129 -0.1775  1.3630 -0.5369
 4507TIP3    H235081   5.090   6.081   0.198  0.6572 -0.3268  0.0658
 4508TIP3   OH235082   6.817   1.194   8.194 -0.8448  0.2991 -0.0016
 4508TIP3    H135083   6.806   1.232   8.281 -0.8238 -2.1624  1.1608
 4508TIP3    H235084   6.731   1.158   8.173 -0.5001 -0.3370 -0.3573
 4509TIP3   OH235085   3.757   0.623   0.356 -0.3715 -0.8303 -0.2100
 4509TIP3    H135086   3.691   0.578   0.304  0.6297 -0.5425 -1.7784
 4509TIP3    H235087   3.833   0.565   0.354  0.5207  0.3426 -1.2253
 4510TIP3   OH235088   4.797   2.421   1.464 -0.5899  0.2330 -0.2002
 4510TIP3    H135089   4.742   2.485   1.509 -0.6101  0.4302 -0.5005
 4510TIP3    H235090   4.735   2.366   1.416 -0.8205 -1.7966  2.2344
 4511TIP3   OH235091   1.141   3.533   7.677  0.9322 -0.3534 -0.2112
 4511TIP3    H135092   1.106   3.617   7.705 -0.7484 -0.9464 -0.4165
 4511TIP3    H235093   1.221   3.555   7.629  0.0813  1.2111 -0.9921
 4512TIP3   OH235094   0.598   0.162   1.120  0.3437 -0.2478  0.3601
 4512TIP3    H135095   0.575   0.073   1.091  0.9527 -0.5250  0.6939
 4512TIP3    H235096   0.521   0.192   1.168  0.4883 -0.9767  1.0763
 4513TIP3   OH235097   1.388   0.918   8.500  0.7628 -0.6557  0.2682
 4513TIP3    H135098   1.467   0.957   8.537  0.0093  2.0338 -0.7058
 4513TIP3    H235099   1.394   0.825   8.522  4.3435 -0.6322 -0.0643
 4514TIP3   OH235100   5.547   1.734   8.505  0.0656 -0.1679 -0.3862
 4514TIP3    H135101   5.496   1.666   8.550  1.0393 -2.1238 -2.0719
 4514TIP3    H235102   5.548   1.706   8.413  1.4208  1.5729 -0.9458
 4515TIP3   OH235103   2.921   4.012   7.151  0.2574  0.2487  0.4315
 4515TIP3    H135104   3.001   4.008   7.099  0.0168  0.4221  0.0413
 4515TIP3    H235105   2.851   3.994   7.088  0.1483 -2.4139  1.2236
 4516TIP3   OH235106   2.499   2.070   1.932  0.6250 -0.1851 -0.5867
 4516TIP3    H135107   2.594   2.069   1.918  0.4994  0.3361 -1.5254
 4516TIP3    H235108   2.488   2.116   2.015  1.1180  1.0425 -1.1812
 4517TIP3   OH235109   2.164   1.934   1.678 -0.1846  0.9501  0.4107
 4517TIP3    H135110   2.116   1.962   1.601  1.4945  2.0048 -0.3159
 4517TIP3    H235111   2.211   1.855   1.650  0.4182  1.3283  0.3331
 4518TIP3   OH235112   3.276   4.175   0.397  0.0499  0.1902  0.1362
 4518TIP3    H135113   3.287   4.254   0.450  0.9461  0.0530  0.1801
 4518TIP3    H235114   3.182   4.162   0.392 -0.1406  1.6653 -0.4718
 4519TIP3   OH235115   0.373   4.577   8.383 -0.0110 -0.1679  0.1816
 4519TIP3    H135116   0.352   4.559   8.291  1.1548  0.3006 -0.2059
 4519TIP3    H235117   0.437   4.510   8.407  0.2597  0.1643  0.4075
 4520TIP3   OH235118   4.198   4.741   2.666 -0.9534 -0.2959 -0.4376
 4520TIP3    H135119   4.151   4.789   2.598  1.5201  0.3708 -1.7964
 4520TIP3    H235120   4.217   4.655   2.627  0.5586  0.1198 -0.6687
 4521TIP3   OH235121   3.883   3.677   8.252  0.2084  0.2531  0.2977
 4521TIP3    H135122   3.934   3.597   8.242  1.9195  1.2081  1.0042
 4521TIP3    H235123   3.847   3.673   8.340 -1.3553 -0.5953 -0.3238
 4522TIP3   OH235124   2.720   1.841   0.242 -0.1051 -0.2051 -0.0845
 4522TIP3    H135125   2.697   1.751   0.267  0.4544  0.2155  2.0996
 4522TIP3    H235126   2.816   1.840   0.235 -0.1331  0.1087 -0.6075
 4523TIP3   OH235127   3.006   0.181   1.676 -0.3817 -0.2033  0.2584
 4523TIP3    H135128   2.972   0.124   1.607  0.3405 -0.1259 -0.1679
 4523TIP3    H235129   3.046   0.121   1.739  0.4683 -0.1753 -0.2405
 4524TIP3   OH235130   4.093   4.747   8.016 -0.9409 -0.4359  0.3853
 4524TIP3    H135131   4.172   4.709   7.976 -1.0991  0.6998 -1.0921
 4524TIP3    H235132   4.106   4.736   8.110  0.3805 -1.4234  0.1177
 4525TIP3   OH235133   0.417   4.952   6.651  0.0895  0.2856  0.5645
 4525TIP3    H135134   0.493   4.894   6.641 -0.1071  0.2705 -1.0683
 4525TIP3    H235135   0.346   4.906   6.605 -0.3675  1.2610  0.2739
 4526TIP3   OH235136   3.512   4.520   0.031  0.1293 -0.6133 -0.5006
 4526TIP3    H135137   3.524   4.506  -0.063 -0.1076 -1.1862 -0.4519
 4526TIP3    H235138   3.595   4.492   0.070  1.0780  1.7136 -0.7038
 4527TIP3   OH235139   0.731   5.494   0.601 -1.0108 -0.4857 -0.4999
 4527TIP3    H135140   0.812   5.449   0.577  0.3805  0.8734  1.3326
 4527TIP3    H235141   0.709   5.547   0.524  0.9029  0.5269 -0.3902
 4528TIP3   OH235142   2.867   1.047   1.730  0.0594  0.6241 -0.1704
 4528TIP3    H135143   2.869   0.997   1.649 -0.9496  0.6704 -0.2361
 4528TIP3    H235144   2.884   0.982   1.799 -0.4436  0.3384 -0.3158
 4529TIP3   OH235145   3.528   6.804   7.938 -0.4896 -0.5322 -0.5387
 4529TIP3    H135146   3.496   6.793   8.028 -1.1356 -4.2803 -1.0717
 4529TIP3    H235147   3.618   6.835   7.949 -0.7793 -0.1897  1.3326
 4530TIP3   OH235148   5.026   0.424   0.395 -0.3086  0.0619 -0.2411
 4530TIP3    H135149   5.049   0.513   0.422  0.2100 -0.3011  0.5322
 4530TIP3    H235150   5.088   0.368   0.441 -0.9176 -0.7357 -0.3747
 4531TIP3   OH235151   6.529   1.381   8.368 -0.2827 -0.3804  0.0652
 4531TIP3    H135152   6.453   1.427   8.404 -0.2589  1.2239 -1.8195
 4531TIP3    H235153   6.510   1.372   8.275  2.6481  1.9190 -0.8933
 4532TIP3   OH235154   5.793   3.517   7.281 -0.4488  0.1660  0.6356
 4532TIP3    H135155   5.799   3.438   7.228 -0.4537  0.2991  0.4376
 4532TIP3    H235156   5.829   3.491   7.366 -1.3950 -0.3367  0.8960
 4533TIP3   OH235157   2.183   4.020   8.027 -0.5793 -0.2385  0.1409
 4533TIP3    H135158   2.223   4.099   8.063 -2.2431  1.5271 -1.6208
 4533TIP3    H235159   2.109   4.002   8.085 -0.8710  0.1864 -0.0953
 4534TIP3   OH235160   3.887   0.809   6.858  0.2390 -0.2956  0.3402
 4534TIP3    H135161   3.830   0.767   6.794 -3.2342  1.4101  2.0818
 4534TIP3    H235162   3.964   0.835   6.807 -1.1456 -1.3394 -2.5099
 4535TIP3   OH235163   0.558   5.032   8.424 -0.0459 -0.1826  0.3378
 4535TIP3    H135164   0.581   5.007   8.334 -2.2830 -0.7631 -0.1267
 4535TIP3    H235165   0.477   4.984   8.442 -0.0056  0.4631  2.4355
 4536TIP3   OH235166   0.989   2.548   8.525  0.0557  0.0269 -0.2735
 4536TIP3    H135167   1.083   2.568   8.520  0.5220 -0.9573  2.4112
 4536TIP3    H235168   0.985   2.452   8.518 -0.6356 -0.0101  0.4790
 4537TIP3   OH235169   3.747   4.971   1.832  0.3497 -0.5041  0.1160
 4537TIP3    H135170   3.724   5.048   1.780 -2.3288 -0.5567  1.0615
 4537TIP3    H235171   3.693   4.979   1.911  1.1150 -2.5900  0.9099
 4538TIP3   OH235172   4.350   5.279   7.590 -0.3335 -0.3154  0.1427
 4538TIP3    H135173   4.404   5.207   7.557  0.7158  0.3170  0.4275
 4538TIP3    H235174   4.273   5.237   7.628  0.0210 -1.2464 -0.1620
 4539TIP3   OH235175   1.146   5.270   1.181 -0.3695 -0.0682  0.3243
 4539TIP3    H135176   1.125   5.209   1.252 -0.6274 -1.1990 -0.6943
 4539TIP3    H235177   1.167   5.352   1.226 -4.0407  0.3459  1.6165
 4540TIP3   OH235178   1.376   3.425   8.016  0.1701  0.4073 -0.0367
 4540TIP3    H135179   1.304   3.372   7.984  1.4962 -1.3702 -0.2579
 4540TIP3    H235180   1.373   3.415   8.111  0.7673 -0.6055 -0.1084
 4541TIP3   OH235181   2.095   6.253   8.550  0.6444  0.0345  0.8228
 4541TIP3    H135182   2.136   6.223   8.469  0.7804  0.1102  0.8631
 4541TIP3    H235183   2.157   6.226   8.619  0.5790  0.0623  0.8925
 4542TIP3   OH235184   3.597   2.108   0.171  0.4847 -0.0528 -0.1418
 4542TIP3    H135185   3.627   2.138   0.086 -0.4191  2.4136  0.3382
 4542TIP3    H235186   3.515   2.061   0.153 -1.8454  3.7277 -0.4529
 4543TIP3   OH235187   0.261   0.482   7.258 -0.3758 -0.5317  0.1410
 4543TIP3    H135188   0.327   0.431   7.304  0.9115  1.1310  0.2483
 4543TIP3    H235189   0.184   0.478   7.315  0.1541 -1.1510  0.8337
 4544TIP3   OH235190   2.423   3.487   1.450 -0.6311  0.3085  0.0693
 4544TIP3    H135191   2.450   3.429   1.521  1.8112  1.4814  0.2066
 4544TIP3    H235192   2.426   3.433   1.371 -0.5910 -0.3088  0.4951
 4545TIP3   OH235193   5.714   6.813   1.731 -0.4137 -0.2162 -0.8771
 4545TIP3    H135194   5.623   6.822   1.761 -0.2932 -1.3864 -0.1220
 4545TIP3    H235195   5.720   6.874   1.657 -0.9206  2.3321  1.0098
 4546TIP3   OH235196   4.958   3.097   0.486  0.3987 -0.4954 -0.0513
 4546TIP3    H135197   4.921   3.025   0.538  0.5362  0.5916  1.6283
 4546TIP3    H235198   4.881   3.146   0.457  0.3742 -0.2369  0.4421
 4547TIP3   OH235199   0.834   5.142   1.705  0.2700  0.0884 -0.1237
 4547TIP3    H135200   0.854   5.190   1.624  1.7276 -1.3811 -0.7131
 4547TIP3    H235201   0.752   5.097   1.686  1.2288 -1.2673 -1.3619
 4548TIP3   OH235202   2.987   6.847   6.902  0.3048 -0.0853  0.4547
 4548TIP3    H135203   2.975   6.865   6.995 -1.1232  1.8649 -0.0458
 4548TIP3    H235204   2.900   6.820   6.871  0.1615  1.5976 -0.7405
 4549TIP3   OH235205   6.371   0.163   0.403 -0.3891  0.0526  0.1376
 4549TIP3    H135206   6.340   0.249   0.432 -0.8942 -0.1303  0.1429
 4549TIP3    H235207   6.351   0.105   0.477 -0.5600 -0.1762 -0.0866
 4550TIP3   OH235208   3.471   2.110   7.981 -0.0720  0.0691 -1.1261
 4550TIP3    H135209   3.515   2.121   8.066 -0.2952 -0.4866 -0.9322
 4550TIP3    H235210   3.542   2.087   7.921  0.7206  3.9477 -1.9330
 4551TIP3   OH235211   6.631   5.697   7.379  0.2114  0.1978  0.1599
 4551TIP3    H135212   6.581   5.768   7.420  0.4852  0.1599  0.5593
 4551TIP3    H235213   6.665   5.735   7.299 -2.1295 -0.3348 -1.1952
 4552TIP3   OH235214   6.731   5.885   0.378  0.3455  0.3365  0.0997
 4552TIP3    H135215   6.648   5.928   0.399  0.3813  1.7283 -2.2569
 4552TIP3    H235216   6.785   5.898   0.457 -0.6564  2.0768  0.5646
 4553TIP3   OH235217   5.233   6.364   0.329 -0.3012  0.5213  0.0857
 4553TIP3    H135218   5.244   6.406   0.244  0.1160  0.9423  0.3429
 4553TIP3    H235219   5.217   6.272   0.309  2.9982 -0.0657 -0.3727
 4554TIP3   OH235220   0.104   0.583   7.671 -0.2063  0.3373  0.1663
 4554TIP3    H135221   0.032   0.567   7.732 -0.5698 -0.3725 -0.4187
 4554TIP3    H235222   0.117   0.498   7.627  0.6190  0.6037 -0.1289
 4555TIP3   OH235223   2.572   6.395   2.045 -0.6697  0.4314 -0.0147
 4555TIP3    H135224   2.599   6.487   2.048  0.6015  0.0864 -0.3450
 4555TIP3    H235225   2.622   6.353   2.115 -0.0214 -0.3100 -0.9050
 4556TIP3   OH235226   5.529   6.589   0.770  0.3298  0.0360  0.6194
 4556TIP3    H135227   5.578   6.640   0.705  0.2955 -0.4131  0.2395
 4556TIP3    H235228   5.438   6.598   0.744  0.0676  1.6903  1.8920
 4557TIP3   OH235229   4.380   0.324   1.102 -0.4506 -0.0311 -0.0680
 4557TIP3    H135230   4.442   0.387   1.066 -0.5456 -0.6942 -1.4783
 4557TIP3    H235231   4.296   0.347   1.063 -0.0472 -2.5507 -2.8478
 4558TIP3   OH235232   3.355   2.066   7.684  0.1811  0.6429 -0.4399
 4558TIP3    H135233   3.268   2.036   7.710  0.0971  1.4204  0.2129
 4558TIP3    H235234   3.413   2.033   7.751  0.1656  1.4120 -0.0301
 4559TIP3   OH235235   5.655   1.589   2.184 -0.0078  0.1751 -0.4867
 4559TIP3    H135236   5.692   1.507   2.217 -1.1766  0.6319  2.2551
 4559TIP3    H235237   5.702   1.658   2.233 -2.4921  0.8533  1.1280
 4560TIP3   OH235238   3.146   2.149   7.266  0.4770  0.1795 -0.5134
 4560TIP3    H135239   3.158   2.123   7.357  0.4745 -0.2195 -0.6228
 4560TIP3    H235240   3.214   2.100   7.219  3.8575  3.9993 -0.1656
 4561TIP3   OH235241   0.622   1.427   0.364 -0.2093 -0.3893  0.2594
 4561TIP3    H135242   0.553   1.444   0.428  1.9156  1.0920  2.3677
 4561TIP3    H235243   0.652   1.514   0.339  2.2174 -0.9048  1.0578
 4562TIP3   OH235244   1.473   3.965   0.667 -0.0915 -0.3592 -0.1588
 4562TIP3    H135245   1.423   3.899   0.619  0.2402 -0.1840 -0.7552
 4562TIP3    H235246   1.468   3.937   0.759 -2.7177  0.5502  0.0816
 4563TIP3   OH235247   3.073   2.431   6.264  0.1993  0.2499  0.0815
 4563TIP3    H135248   3.005   2.393   6.209  0.7404 -1.3854  0.4774
 4563TIP3    H235249   3.126   2.356   6.292  1.0331  1.2530  1.3163
 4564TIP3   OH235250   2.589   3.259   1.022  0.5830  0.2004 -0.2789
 4564TIP3    H135251   2.510   3.258   0.968  0.0556 -1.4732  0.4346
 4564TIP3    H235252   2.638   3.335   0.992 -0.7517  0.6109 -1.5435
 4565TIP3   OH235253   6.862   5.191   1.705  0.1791 -0.5464  0.0030
 4565TIP3    H135254   6.910   5.225   1.781  0.1521 -0.0012 -0.2138
 4565TIP3    H235255   6.770   5.208   1.726  0.0949 -1.3668  0.3112
 4566TIP3   OH235256   0.254   1.093   8.317 -0.1767 -0.4202  0.1658
 4566TIP3    H135257   0.238   1.176   8.363  0.2926 -0.2018 -0.0646
 4566TIP3    H235258   0.347   1.095   8.294 -0.9746  0.9954 -3.6712
 4567TIP3   OH235259   1.741   4.739   8.126  0.2345  0.3346 -0.4057
 4567TIP3    H135260   1.671   4.795   8.160 -1.1891 -0.2292 -2.2449
 4567TIP3    H235261   1.783   4.704   8.204  0.1098  2.6388  0.7881
 4568TIP3   OH235262   4.472   6.419   7.209 -0.2061 -0.1034 -0.2916
 4568TIP3    H135263   4.409   6.460   7.267  0.0564  2.0037 -1.4025
 4568TIP3    H235264   4.522   6.360   7.266  0.5448  2.3787  1.8557
 4569TIP3   OH235265   3.488   3.511   1.751  0.4828  0.1655  0.2247
 4569TIP3    H135266   3.559   3.530   1.689 -0.3202  0.4800 -0.6245
 4569TIP3    H235267   3.505   3.421   1.779  1.4726  0.3906  0.3893
 4570TIP3   OH235268   5.343   4.919   8.579 -0.3438 -0.0382  0.6396
 4570TIP3    H135269   5.268   4.914   8.639  0.6459 -1.9667  1.8330
 4570TIP3    H235270   5.406   4.974   8.624 -0.0312 -0.5927  0.8989
 4571TIP3   OH235271   6.795   5.328   7.826  0.0841 -0.3983  0.3488
 4571TIP3    H135272   6.802   5.301   7.917 -0.9416  1.7155  1.1435
 4571TIP3    H235273   6.869   5.287   7.782  0.5077 -1.5923  2.0953
 4572TIP3   OH235274   0.270   0.764   1.986  0.2136 -0.0234 -0.2819
 4572TIP3    H135275   0.336   0.740   2.051  1.4198  1.6736 -0.8003
 4572TIP3    H235276   0.234   0.847   2.018 -0.2868  0.0468 -1.0011
 4573TIP3   OH235277   3.159   6.817   8.181 -0.0139 -0.0676  0.1541
 4573TIP3    H135278   3.187   6.782   8.266 -1.3579  0.2344  0.7532
 4573TIP3    H235279   3.124   6.741   8.134 -2.6287  0.2893  1.3282
 4574TIP3   OH235280   3.756   3.539   2.256 -0.2339  0.2436  0.1757
 4574TIP3    H135281   3.711   3.616   2.291  1.1681  1.0601  0.2339
 4574TIP3    H235282   3.708   3.518   2.176  0.4309  2.2902 -0.8270
 4575TIP3   OH235283   5.738   6.145   2.757 -0.0300 -0.9200 -0.1593
 4575TIP3    H135284   5.661   6.174   2.708 -0.0366  0.5769  0.6995
 4575TIP3    H235285   5.808   6.146   2.692  0.1057  1.6967 -0.0624
 4576TIP3   OH235286   4.299   6.843   1.361 -0.1540 -0.0702 -0.3863
 4576TIP3    H135287   4.240   6.916   1.344 -1.5299 -0.7679  1.1835
 4576TIP3    H235288   4.242   6.767   1.373  1.2060 -1.3466 -1.4614
 4577TIP3   OH235289   4.281   3.599   1.804  0.6325  0.3079 -0.1176
 4577TIP3    H135290   4.337   3.521   1.806  0.0411 -0.3625 -3.8533
 4577TIP3    H235291   4.213   3.580   1.869  1.0575 -1.8634 -0.2170
 4578TIP3   OH235292   0.191   3.423   0.787  0.6764  0.2858  0.8154
 4578TIP3    H135293   0.210   3.505   0.831  0.0789  1.1118 -0.3985
 4578TIP3    H235294   0.233   3.431   0.701  0.8641 -0.8030  0.7854
 4579TIP3   OH235295   5.924   6.071   7.051 -0.1441 -0.1317 -0.0504
 4579TIP3    H135296   5.987   6.110   6.989  0.0130  1.0660  0.8107
 4579TIP3    H235297   5.845   6.058   7.000  0.5532 -0.9122 -0.9600
 4580TIP3   OH235298   4.191   2.680   1.068  0.1025  0.7791  0.0600
 4580TIP3    H135299   4.243   2.719   0.998 -0.0792  0.1708 -0.4230
 4580TIP3    H235300   4.255   2.640   1.127  0.2455  1.1023  0.1242
 4581TIP3   OH235301   5.060   0.098   7.561  0.7513  0.2359  0.0720
 4581TIP3    H135302   5.077   0.004   7.565 -2.0639 -0.3893 -0.8965
 4581TIP3    H235303   5.120   0.131   7.494  2.1284 -0.7215  0.7781
 4582TIP3   OH235304   6.527   1.535   2.187 -0.3290  0.2777 -0.0628
 4582TIP3    H135305   6.587   1.474   2.231  1.8366  0.3450 -2.6675
 4582TIP3    H235306   6.460   1.554   2.253  1.6821 -0.9824  2.5509
 4583TIP3   OH235307   6.338   1.226   2.198  0.4183 -0.0704  0.4746
 4583TIP3    H135308   6.311   1.284   2.270  2.8017 -0.7259  2.0362
 4583TIP3    H235309   6.392   1.281   2.142  0.4733 -0.1301  0.4695
 4584TIP3   OH235310   0.375   6.534   8.386  0.1696 -0.0131 -0.3805
 4584TIP3    H135311   0.412   6.601   8.329 -1.9468  1.5104 -0.0855
 4584TIP3    H235312   0.328   6.583   8.453 -1.4768 -1.7805 -0.1443
 4585TIP3   OH235313   5.586   3.153   1.043 -0.6838 -0.6018  0.1046
 4585TIP3    H135314   5.662   3.109   1.081 -0.5718 -1.1162 -0.7028
 4585TIP3    H235315   5.606   3.246   1.051 -0.1963 -0.7238  0.3624
 4586TIP3   OH235316   2.352   6.643   0.373  0.1173 -0.2462 -0.0571
 4586TIP3    H135317   2.287   6.711   0.356 -0.3275 -0.8511 -0.8694
 4586TIP3    H235318   2.408   6.644   0.295  0.0385 -0.8779 -0.1246
 4587TIP3   OH235319   5.446   5.270   6.917  0.1369 -0.2726  0.0518
 4587TIP3    H135320   5.509   5.338   6.941 -0.8319  1.4044 -1.9497
 4587TIP3    H235321   5.496   5.210   6.861  0.3612  0.1464 -0.2000
 4588TIP3   OH235322   2.081   2.145   8.265 -0.2665 -0.4038  0.6847
 4588TIP3    H135323   1.992   2.120   8.289 -1.2782  0.0258 -2.2726
 4588TIP3    H235324   2.079   2.157   8.170  2.0151  3.2383  0.8695
 4589TIP3   OH235325   3.567   1.145   8.436 -0.3214 -0.2901 -0.1201
 4589TIP3    H135326   3.618   1.083   8.384  0.7406  0.8131 -0.4401
 4589TIP3    H235327   3.530   1.205   8.371  1.7352  1.6391  0.3536
 4590TIP3   OH235328   2.422   2.183   0.210 -0.8043 -0.2282  0.0604
 4590TIP3    H135329   2.507   2.148   0.186 -0.6069  0.7627 -0.7563
 4590TIP3    H235330   2.359   2.128   0.164 -0.4999  0.4674 -1.2315
 4591TIP3   OH235331   6.213   2.909   2.171  0.4157 -0.1262  0.7747
 4591TIP3    H135332   6.198   2.977   2.237  2.3467  1.8604 -0.6742
 4591TIP3    H235333   6.234   2.830   2.221  1.3643  1.1947  2.5586
 4592TIP3   OH235334   2.487   1.497   7.317 -0.5665  0.3476 -0.2678
 4592TIP3    H135335   2.506   1.404   7.328  1.2775  1.0046  4.0296
 4592TIP3    H235336   2.394   1.505   7.339 -0.2288 -0.3012  1.5894
 4593TIP3   OH235337   6.258   0.649   7.354 -0.0998 -0.6095 -0.5772
 4593TIP3    H135338   6.283   0.741   7.364  0.0239 -0.6944 -0.0753
 4593TIP3    H235339   6.201   0.648   7.277 -2.3344  0.3266  0.9510
 4594TIP3   OH235340   6.225   4.647   6.832 -0.3380  0.2535  0.3024
 4594TIP3    H135341   6.271   4.730   6.825 -0.5626  0.3733  0.2724
 4594TIP3    H235342   6.290   4.582   6.806 -0.9476  0.6163 -2.3419
 4595TIP3   OH235343   0.562   0.454   1.277  0.0470  0.0461  0.5335
 4595TIP3    H135344   0.491   0.418   1.223 -0.4023  1.3276  0.2307
 4595TIP3    H235345   0.641   0.439   1.226 -0.2608  0.4012 -0.0562
 4596TIP3   OH235346   4.178   2.743   8.402 -0.2319 -0.1377  0.3087
 4596TIP3    H135347   4.094   2.706   8.428  0.1289 -1.0504  0.2001
 4596TIP3    H235348   4.241   2.672   8.415  0.5050  0.5025  0.2916
 4597TIP3   OH235349   4.797   0.086   7.678 -0.2953  0.0161 -0.2427
 4597TIP3    H135350   4.890   0.097   7.694 -0.5842  2.7900  0.0344
 4597TIP3    H235351   4.791   0.051   7.589  0.9849 -1.1180  0.0920
 4598TIP3   OH235352   1.533   4.296   1.790 -0.3217 -0.0132 -0.1785
 4598TIP3    H135353   1.527   4.259   1.878  0.0513  0.2616 -0.0384
 4598TIP3    H235354   1.569   4.384   1.803  1.1918 -0.5275 -0.7454
 4599TIP3   OH235355   0.974   1.332   0.963  0.0712  0.3864  0.2641
 4599TIP3    H135356   0.893   1.298   0.925  1.0698  1.4356 -3.1667
 4599TIP3    H235357   0.962   1.427   0.963  0.5890  0.4751  1.5997
 4600TIP3   OH235358   4.070   4.189   0.641  0.0893 -0.0543 -0.7081
 4600TIP3    H135359   4.061   4.278   0.677 -1.1235 -1.9275  4.4819
 4600TIP3    H235360   3.984   4.170   0.603 -1.3053 -0.3909  2.3258
 4601TIP3   OH235361   1.976   4.337   2.921  0.4297 -0.0886  0.0360
 4601TIP3    H135362   2.042   4.403   2.900  0.8496 -0.0724  1.3467
 4601TIP3    H235363   1.905   4.387   2.961  0.6190 -0.3838  0.7510
 4602TIP3   OH235364   4.458   4.474   6.897  0.2006 -0.1335 -0.2796
 4602TIP3    H135365   4.371   4.513   6.903  0.2226  0.2303 -1.9441
 4602TIP3    H235366   4.491   4.475   6.987 -1.7991 -0.9896  0.5265
 4603TIP3   OH235367   1.153   1.168   1.093  0.3162  0.7477  0.1169
 4603TIP3    H135368   1.074   1.204   1.052 -0.1309 -0.2420  0.0757
 4603TIP3    H235369   1.187   1.240   1.146 -0.4339  1.2940 -0.1228
 4604TIP3   OH235370   0.150   6.559   2.502 -0.3892  0.2403  0.2386
 4604TIP3    H135371   0.148   6.652   2.521 -1.2416  0.1566  0.5823
 4604TIP3    H235372   0.152   6.517   2.588 -1.5327 -0.0837  0.1254
 4605TIP3   OH235373   4.259   0.657   1.143 -0.1709  0.1742 -0.8933
 4605TIP3    H135374   4.180   0.709   1.132 -1.0435 -0.7273  0.8355
 4605TIP3    H235375   4.301   0.692   1.222  0.0739 -0.6725 -0.6347
 4606TIP3   OH235376   0.899   0.556   8.310  0.3093 -0.3295  0.5626
 4606TIP3    H135377   0.918   0.622   8.377 -0.5424 -0.7866  1.2703
 4606TIP3    H235378   0.980   0.506   8.302 -0.0385 -1.2841  2.4243
 4607TIP3   OH235379   4.542   5.739   0.868 -0.1371 -0.1820 -0.1528
 4607TIP3    H135380   4.512   5.649   0.878  0.1427 -0.2801 -0.1953
 4607TIP3    H235381   4.572   5.764   0.956 -0.5995  0.0103 -0.0465
 4608TIP3   OH235382   0.869   3.640   8.581 -0.1223  0.3905  1.2239
 4608TIP3    H135383   0.912   3.554   8.581 -1.2916 -0.2238  2.1458
 4608TIP3    H235384   0.792   3.628   8.526  0.2800  1.1793  0.4665
 4609TIP3   OH235385   2.601   2.383   8.513  0.4258 -0.3052  0.0458
 4609TIP3    H135386   2.552   2.311   8.553 -0.2332  0.5327  0.7993
 4609TIP3    H235387   2.692   2.363   8.533  0.2216 -0.7282  0.6128
 4610TIP3   OH235388   0.640   5.149   7.762 -0.1324 -0.6612 -0.2406
 4610TIP3    H135389   0.558   5.197   7.748  0.2142 -0.6932 -2.8988
 4610TIP3    H235390   0.628   5.067   7.713  0.1287 -2.3873  2.3966
 4611TIP3   OH235391   3.945   3.413   7.310 -0.3653 -0.0849 -0.2940
 4611TIP3    H135392   3.941   3.323   7.343 -1.3041 -0.2330 -0.7688
 4611TIP3    H235393   3.951   3.404   7.215  2.0379  0.3483 -0.2429
 4612TIP3   OH235394   6.032   5.354   1.796 -0.2052 -0.0636 -0.5182
 4612TIP3    H135395   5.993   5.434   1.760  0.7624 -0.3309 -2.3078
 4612TIP3    H235396   6.112   5.383   1.839 -0.3974  0.0514 -0.2395
 4613TIP3   OH235397   4.157   6.343   8.033 -0.2321  0.1040  0.4112
 4613TIP3    H135398   4.082   6.287   8.051  1.3013 -2.0610  0.3664
 4613TIP3    H235399   4.183   6.376   8.119  0.0100 -0.8087  0.6963
 4614TIP3   OH235400   4.642   0.349   0.446  0.4557  0.1029 -0.0320
 4614TIP3    H135401   4.611   0.397   0.369  1.3226 -0.5826 -0.8342
 4614TIP3    H235402   4.564   0.338   0.500 -0.2957  0.1483 -1.0661
 4615TIP3   OH235403   5.043   3.809   6.840 -0.1313  0.0375  0.0197
 4615TIP3    H135404   4.960   3.801   6.792 -0.3729  1.2723  0.1994
 4615TIP3    H235405   5.078   3.894   6.813  0.7385 -0.1689  0.4765
 4616TIP3   OH235406   3.182   6.456   1.685  0.1474 -0.4706  0.1909
 4616TIP3    H135407   3.141   6.487   1.605 -0.3730 -1.1271  0.1994
 4616TIP3    H235408   3.136   6.375   1.707 -0.1701  0.0444  1.5213
 4617TIP3   OH235409   3.214   6.035   7.003  0.3944  0.5317  0.0857
 4617TIP3    H135410   3.279   6.092   6.961  1.7166 -1.5746 -0.8841
 4617TIP3    H235411   3.240   6.034   7.095  0.7553  0.9543 -0.0060
 4618TIP3   OH235412   6.219   6.751   7.466 -0.2925  0.5780 -0.1097
 4618TIP3    H135413   6.214   6.837   7.507  0.1574  1.2735 -1.4424
 4618TIP3    H235414   6.207   6.768   7.372  1.4090 -0.5869 -0.6010
 4619TIP3   OH235415   0.620   2.619   1.654  0.0046 -0.6063  0.1517
 4619TIP3    H135416   0.544   2.677   1.649 -0.0397 -0.7647 -1.6486
 4619TIP3    H235417   0.586   2.538   1.690 -0.2952 -0.0856  1.0682
 4620TIP3   OH235418   6.186   3.076   7.140  0.1504 -0.6724  0.0927
 4620TIP3    H135419   6.169   3.056   7.048  1.1141 -0.3013 -0.1810
 4620TIP3    H235420   6.160   2.997   7.187 -0.6185 -0.7639 -0.4637
 4621TIP3   OH235421   1.998   4.060   1.067 -0.5770  0.0567 -0.2460
 4621TIP3    H135422   2.012   4.028   1.156  1.7654  0.2868 -0.4791
 4621TIP3    H235423   1.971   4.151   1.078 -0.1942  0.1145  0.2217
 4622TIP3   OH235424   4.586   4.286   7.777  0.4563  0.1695  0.2319
 4622TIP3    H135425   4.514   4.228   7.800  0.5930 -0.7858 -1.5467
 4622TIP3    H235426   4.545   4.358   7.728  0.5534  0.3790  0.4558
 4623TIP3   OH235427   3.265   2.884   6.700  0.0883  0.0137 -0.2933
 4623TIP3    H135428   3.220   2.816   6.751 -0.5748  0.1787 -0.6515
 4623TIP3    H235429   3.297   2.838   6.623  3.8449 -0.9729  1.6267
 4624TIP3   OH235430   4.887   3.383   8.196 -0.4847 -0.0811  0.4945
 4624TIP3    H135431   4.816   3.350   8.141 -0.3996  1.9881 -0.9478
 4624TIP3    H235432   4.954   3.412   8.134  1.7736 -2.1015  1.8111
 4625TIP3   OH235433   2.566   2.776   1.714 -0.3191  0.2247 -0.4719
 4625TIP3    H135434   2.574   2.869   1.738 -1.7867  0.4847 -0.8841
 4625TIP3    H235435   2.501   2.742   1.776 -1.2943 -0.0166 -1.5968
 4626TIP3   OH235436   1.668   4.953   8.328 -0.0241  0.6257  0.0828
 4626TIP3    H135437   1.651   4.983   8.417 -1.4866  3.1219 -0.9026
 4626TIP3    H235438   1.726   5.021   8.291  0.1025 -0.0557 -1.0196
 4627TIP3   OH235439   0.820   2.293   1.828 -0.1680 -0.2227 -0.4277
 4627TIP3    H135440   0.786   2.214   1.787  0.3664 -0.0372 -1.2632
 4627TIP3    H235441   0.813   2.360   1.760  0.9661  0.0375 -0.3096
 4628TIP3   OH235442   4.397   4.942   2.303 -0.0375  0.2196  0.0423
 4628TIP3    H135443   4.488   4.916   2.320  0.0519 -0.2797 -1.1275
 4628TIP3    H235444   4.361   4.871   2.250 -0.1527  1.8396 -2.1940
 4629TIP3   OH235445   4.776   6.818   8.495 -0.3088 -0.4743 -0.0440
 4629TIP3    H135446   4.837   6.869   8.442 -1.3567  1.1143  0.2020
 4629TIP3    H235447   4.832   6.772   8.558  0.7095  0.3039 -0.3416
 4630TIP3   OH235448   0.549   4.930   2.017 -0.2997 -0.6109  0.5681
 4630TIP3    H135449   0.635   4.971   2.008 -1.2021  0.8313 -4.6654
 4630TIP3    H235450   0.488   5.003   2.028 -1.1324 -1.3661  1.0995
 4631TIP3   OH235451   1.379   2.374   2.093 -0.2444 -0.1933  0.2495
 4631TIP3    H135452   1.396   2.324   2.013  0.5899  0.5574 -0.0542
 4631TIP3    H235453   1.292   2.344   2.122 -0.6113 -0.3918 -0.9947
 4632TIP3   OH235454   3.749   1.597   0.801  0.3835 -0.2987 -0.0570
 4632TIP3    H135455   3.842   1.586   0.781  0.0172 -0.0885 -2.0443
 4632TIP3    H235456   3.705   1.592   0.716 -1.3236  0.6887  0.7173
 4633TIP3   OH235457   3.683   4.254   7.796  0.2328  0.2241  0.0731
 4633TIP3    H135458   3.689   4.164   7.766 -0.9387 -0.3204  1.3700
 4633TIP3    H235459   3.697   4.249   7.891  1.5540  1.5890 -0.0079
 4634TIP3   OH235460   2.526   2.960   1.220 -0.3140  0.3178 -0.3427
 4634TIP3    H135461   2.522   2.900   1.294 -1.6776  1.7041  0.7837
 4634TIP3    H235462   2.493   2.910   1.146 -2.0485 -0.1658  0.7046
 4635TIP3   OH235463   2.722   0.521   2.336  0.4223 -0.2889 -0.2344
 4635TIP3    H135464   2.750   0.431   2.353  1.7971 -0.0305 -1.0090
 4635TIP3    H235465   2.666   0.513   2.258 -1.7835 -0.8064  1.3242
 4636TIP3   OH235466   3.447   5.024   7.350  0.3249 -0.1985 -0.4412
 4636TIP3    H135467   3.440   5.022   7.446  2.4762 -0.6075 -0.2374
 4636TIP3    H235468   3.490   5.107   7.331 -1.0391  0.3602 -1.1625
 4637TIP3   OH235469   2.202   3.144   7.283  0.0877 -0.7058  0.3069
 4637TIP3    H135470   2.214   3.078   7.214 -0.6133  0.5522 -1.0996
 4637TIP3    H235471   2.285   3.148   7.329  0.4244 -1.9140 -0.1695
 4638TIP3   OH235472   4.532   5.833   2.378 -0.4244  0.0401  0.2700
 4638TIP3    H135473   4.557   5.863   2.466  0.2528 -0.1032  0.1243
 4638TIP3    H235474   4.518   5.914   2.329 -0.3391  0.1199  0.3768
 4639TIP3   OH235475   3.305   3.835   0.557 -0.2827 -0.2410 -0.7480
 4639TIP3    H135476   3.210   3.838   0.574 -0.3074 -1.6310 -0.5485
 4639TIP3    H235477   3.312   3.812   0.465 -0.2714 -5.1343  0.1716
 4640TIP3   OH235478   1.189   6.019   0.367  0.5494  0.5392  0.2697
 4640TIP3    H135479   1.273   5.983   0.396  1.1767  1.5148 -0.3044
 4640TIP3    H235480   1.124   5.953   0.393  1.5163 -0.3353  0.4923
 4641TIP3   OH235481   4.468   6.093   7.811  0.4949 -0.5364 -0.0494
 4641TIP3    H135482   4.531   6.121   7.877  0.2980 -1.9447  0.7897
 4641TIP3    H235483   4.403   6.163   7.809  0.5538 -0.4093  1.2043
 4642TIP3   OH235484   4.520   6.215   0.709 -0.6652 -0.0708  0.0980
 4642TIP3    H135485   4.503   6.125   0.678  0.3889 -0.5592  0.8667
 4642TIP3    H235486   4.606   6.236   0.672 -0.5856  0.3418  0.5219
 4643TIP3   OH235487   6.661   1.559   7.421  0.0246 -0.2763 -0.0933
 4643TIP3    H135488   6.740   1.597   7.384  0.1587  0.0813  0.5523
 4643TIP3    H235489   6.692   1.493   7.483 -0.1790 -0.0441  0.2589
 4644TIP3   OH235490   0.722   1.772   7.649  0.4981  0.3712 -0.2170
 4644TIP3    H135491   0.701   1.682   7.674 -0.7608  1.1213  1.5818
 4644TIP3    H235492   0.791   1.763   7.583 -0.2396 -1.9308 -0.7427
 4645TIP3   OH235493   1.873   0.398   1.737 -0.2971 -0.0463 -0.0109
 4645TIP3    H135494   1.858   0.471   1.677 -0.7610  0.3050  0.5163
 4645TIP3    H235495   1.968   0.390   1.744 -0.2471  0.4402 -0.1484
 4646TIP3   OH235496   6.374   4.849   7.359 -0.2528 -0.6636  0.4159
 4646TIP3    H135497   6.355   4.797   7.280  1.0426 -0.1114 -0.2833
 4646TIP3    H235498   6.428   4.921   7.327  0.4266 -0.5236  1.8474
 4647TIP3   OH235499   5.295   5.900   0.545  0.3402  0.7465  0.1341
 4647TIP3    H135500   5.262   5.844   0.475 -1.5911  2.3464 -0.3382
 4647TIP3    H235501   5.367   5.949   0.506  0.1392  0.6695 -0.3303
 4648TIP3   OH235502   2.562   1.144   0.184  0.0933 -0.1599  0.4569
 4648TIP3    H135503   2.594   1.224   0.225  2.2360 -0.0049 -1.3387
 4648TIP3    H235504   2.498   1.174   0.119 -0.5294 -0.0913  1.0945
 4649TIP3   OH235505   3.985   4.263   2.322  0.0178 -0.6157 -0.4314
 4649TIP3    H135506   3.937   4.180   2.332 -0.0439 -0.4252  1.1133
 4649TIP3    H235507   3.925   4.329   2.358  0.7790 -0.1592  0.0225
 4650TIP3   OH235508   6.815   4.896   1.589 -0.1675  0.1127 -0.0867
 4650TIP3    H135509   6.773   4.947   1.521 -0.0022  0.8715  0.3736
 4650TIP3    H235510   6.831   4.958   1.660 -0.6951 -0.7473  0.8040
 4651TIP3   OH235511   4.489   3.879   1.845  0.1440 -0.0817 -0.0422
 4651TIP3    H135512   4.474   3.796   1.800 -1.4287 -0.0647  0.4064
 4651TIP3    H235513   4.532   3.855   1.927  0.1397 -0.4061 -0.1352
 4652TIP3   OH235514   5.326   1.253   7.421 -0.0777  0.0600 -0.3221
 4652TIP3    H135515   5.365   1.307   7.353 -1.5834  0.5716 -0.8326
 4652TIP3    H235516   5.259   1.202   7.376  0.1828 -0.9938  0.4548
 4653TIP3   OH235517   5.855   6.631   0.226  0.2482 -0.7424  0.6486
 4653TIP3    H135518   5.914   6.606   0.154  0.0157 -0.4640  0.3550
 4653TIP3    H235519   5.785   6.565   0.223 -0.8249  0.3694 -0.6804
 4654TIP3   OH235520   3.984   1.163   7.385 -0.0203 -0.3215 -0.1344
 4654TIP3    H135521   3.892   1.140   7.381 -0.2259  0.5998 -0.9749
 4654TIP3    H235522   4.018   1.147   7.297  0.4032  0.1913 -0.0753
 4655TIP3   OH235523   1.144   4.267   0.117  0.3773  0.7140 -0.0040
 4655TIP3    H135524   1.193   4.235   0.040 -1.8675  1.3222 -1.7953
 4655TIP3    H235525   1.182   4.353   0.135  1.4437  0.2400  0.0894
 4656TIP3   OH235526   3.831   3.235   2.039  0.3078 -0.1020  0.5905
 4656TIP3    H135527   3.803   3.185   2.116 -2.3839 -1.2795 -0.9850
 4656TIP3    H235528   3.787   3.320   2.048  1.2349  0.3471  1.0512
 4657TIP3   OH235529   0.473   2.124   3.024 -0.3366  0.6731 -0.6115
 4657TIP3    H135530   0.456   2.033   2.999 -0.2265  0.0830  1.3086
 4657TIP3    H235531   0.558   2.143   2.986 -0.6688  0.2187 -1.6273
 4658TIP3   OH235532   2.223   1.510   0.304 -0.2920  0.1929 -0.1149
 4658TIP3    H135533   2.137   1.479   0.335 -0.5147  2.3578  1.6785
 4658TIP3    H235534   2.204   1.594   0.263  0.7491 -0.2357 -1.5282
 4659TIP3   OH235535   6.017   1.561   7.233 -0.0019 -0.0566  0.0439
 4659TIP3    H135536   5.974   1.477   7.247 -0.4931  0.2396  0.3508
 4659TIP3    H235537   6.031   1.565   7.138  0.7439 -0.8240  0.1125
 4660TIP3   OH235538   6.466   0.904   0.369  0.4533 -0.0621 -0.2169
 4660TIP3    H135539   6.389   0.876   0.320  0.4659  0.6055 -0.6413
 4660TIP3    H235540   6.539   0.887   0.309  0.2810  2.8475 -1.4448
 4661TIP3   OH235541   0.028   2.518   7.167  0.6230 -0.1534  0.4811
 4661TIP3    H135542   0.017   2.541   7.075  0.0953 -0.0436  0.5687
 4661TIP3    H235543  -0.043   2.457   7.186  1.2452 -0.8555  0.5946
 4662TIP3   OH235544   1.184   3.943   8.258 -0.3512  0.3862 -0.0456
 4662TIP3    H135545   1.122   3.921   8.328  1.7544  1.9167  2.4472
 4662TIP3    H235546   1.140   4.012   8.208 -1.8114 -0.6043 -0.2143
 4663TIP3   OH235547   3.962   1.323   1.059 -0.4812 -0.0076 -0.7995
 4663TIP3    H135548   3.908   1.304   0.982 -2.1752 -0.6298  0.4993
 4663TIP3    H235549   3.942   1.414   1.081 -0.9017 -0.1975 -0.3945
 4664TIP3   OH235550   0.974   3.670   0.662  0.3043 -0.0751 -0.0132
 4664TIP3    H135551   0.976   3.762   0.689 -0.2176  0.2381 -1.0166
 4664TIP3    H235552   0.944   3.671   0.572  0.4350 -1.2305 -0.0934
 4665TIP3   OH235553   3.048   6.050   7.298  0.4325  0.1317  0.4651
 4665TIP3    H135554   3.131   6.072   7.340  0.4868  1.3021 -0.2300
 4665TIP3    H235555   3.069   5.975   7.242  0.9483  0.2193  0.5325
 4666TIP3   OH235556   1.464   3.856   8.583  0.4579 -0.3616 -0.3201
 4666TIP3    H135557   1.395   3.797   8.614  1.4489 -1.5232 -0.2349
 4666TIP3    H235558   1.512   3.880   8.662  1.4828 -1.3576 -0.6045
 4667TIP3   OH235559   2.867   2.580   8.235  0.0563 -0.0517 -0.2023
 4667TIP3    H135560   2.878   2.569   8.329  0.7744  1.1373 -0.1324
 4667TIP3    H235561   2.772   2.580   8.221 -0.0764  0.7942  0.6538
 4668TIP3   OH235562   6.698   0.689   0.456 -0.0461  0.1402 -0.0851
 4668TIP3    H135563   6.624   0.641   0.420  0.5312 -0.7706 -0.0978
 4668TIP3    H235564   6.716   0.645   0.540  0.7836  0.0271 -0.3153
 4669TIP3   OH235565   2.800   4.602   1.735  0.1512 -0.1243 -0.1607
 4669TIP3    H135566   2.842   4.558   1.809  2.1879  2.3739  0.3140
 4669TIP3    H235567   2.808   4.539   1.663  2.3374 -0.8268  0.6084
 4670TIP3   OH235568   2.180   0.363   0.893  0.1940  0.1250  0.4936
 4670TIP3    H135569   2.135   0.279   0.888 -2.5539  1.5651 -2.4892
 4670TIP3    H235570   2.146   0.404   0.973 -1.4837 -0.1138 -0.0524
 4671TIP3   OH235571   6.152   0.583   1.822  0.1051  0.2364 -0.0966
 4671TIP3    H135572   6.149   0.602   1.728 -0.1476 -0.1145 -0.1647
 4671TIP3    H235573   6.154   0.669   1.864  0.4703  0.3937 -0.4296
 4672TIP3   OH235574   0.571   6.508   0.594  0.2497  0.3101 -0.0323
 4672TIP3    H135575   0.632   6.579   0.573 -2.7273  2.1169 -4.0721
 4672TIP3    H235576   0.607   6.431   0.551  1.4445  0.3805  0.8076
 4673TIP3   OH235577   6.587   3.623   7.787  0.1858  0.3846 -0.3086
 4673TIP3    H135578   6.502   3.616   7.742  0.8889 -1.3092 -1.4709
 4673TIP3    H235579   6.650   3.641   7.718  1.0812 -0.6764  0.1914
 4674TIP3   OH235580   4.712   6.406   8.247 -0.1871 -0.2960 -0.8970
 4674TIP3    H135581   4.757   6.329   8.282  2.1320  0.3688 -2.1747
 4674TIP3    H235582   4.759   6.480   8.285 -2.0925  0.5298 -0.0430
 4675TIP3   OH235583   6.063   3.153   7.537 -0.5468  0.2784  0.0540
 4675TIP3    H135584   6.116   3.089   7.489 -1.2593  0.0112 -0.3941
 4675TIP3    H235585   5.977   3.149   7.495 -2.0889 -1.9448  3.0610
 4676TIP3   OH235586   4.902   6.578   7.340  0.0456 -0.0787 -0.4068
 4676TIP3    H135587   4.961   6.507   7.364  0.0383 -0.0340 -0.2512
 4676TIP3    H235588   4.850   6.544   7.267 -0.6853 -0.6096  0.3463
 4677TIP3   OH235589   3.492   1.463   1.621 -0.1222 -0.1561  0.0168
 4677TIP3    H135590   3.562   1.407   1.656 -0.1307 -0.6530 -0.7386
 4677TIP3    H235591   3.467   1.518   1.695 -1.2208 -2.2312  1.3030
 4678TIP3   OH235592   1.909   5.185   0.751 -0.0403 -0.6070  0.0097
 4678TIP3    H135593   1.897   5.201   0.657 -0.2207 -1.5401 -0.1357
 4678TIP3    H235594   1.982   5.241   0.775  1.2422 -1.7384 -1.0965
 4679TIP3   OH235595   1.636   5.268   0.382  0.1224  0.1150  0.0569
 4679TIP3    H135596   1.560   5.307   0.338 -0.3145 -1.8465 -1.0543
 4679TIP3    H235597   1.609   5.178   0.400  1.8320 -0.3271  0.5583
 4680TIP3   OH235598   5.092   5.889   8.097 -0.8441 -0.6882 -0.2688
 4680TIP3    H135599   5.180   5.865   8.067 -1.0757  0.4825 -2.0005
 4680TIP3    H235600   5.098   5.888   8.193  0.8254 -1.3856 -0.3482
 4681TIP3   OH235601   0.676   0.944   7.920  0.3378 -0.5424 -0.3231
 4681TIP3    H135602   0.771   0.950   7.915  0.4800 -1.5357  0.8454
 4681TIP3    H235603   0.648   1.026   7.961  0.5321  0.3698 -1.9063
 4682TIP3   OH235604   6.859   5.564   0.072  0.2030 -0.4129 -0.0163
 4682TIP3    H135605   6.866   5.579   0.166 -0.7061 -1.7192  0.2789
 4682TIP3    H235606   6.769   5.590   0.050  0.7901  1.1169 -0.7950
 4683TIP3   OH235607   6.720   4.744   2.260  0.0201 -0.5480  0.0285
 4683TIP3    H135608   6.666   4.689   2.316  1.7651 -0.6518  1.6998
 4683TIP3    H235609   6.688   4.833   2.276 -0.5692 -0.7284 -0.1038
 4684TIP3   OH235610   4.482   3.916   2.302 -0.4443  0.2445 -0.6557
 4684TIP3    H135611   4.465   3.975   2.376 -4.1745 -1.6853  0.2887
 4684TIP3    H235612   4.446   3.962   2.226  0.4805  0.8725 -0.7342
 4685TIP3   OH235613   4.851   5.607   2.569 -0.2870  0.3155  0.0564
 4685TIP3    H135614   4.784   5.611   2.500  1.6037  0.8999 -1.8544
 4685TIP3    H235615   4.817   5.542   2.631 -1.3669 -1.5269 -2.2796
 4686TIP3   OH235616   1.883   1.227   0.050  0.4026  0.6277 -0.0324
 4686TIP3    H135617   1.934   1.290   0.100  1.4883 -0.4321  0.2204
 4686TIP3    H235618   1.930   1.218  -0.033 -1.3717  2.3662 -1.3302
 4687TIP3   OH235619   5.574   4.941   8.061  0.3165 -0.2501  0.0478
 4687TIP3    H135620   5.528   4.934   7.978 -2.1272 -2.5870  1.4371
 4687TIP3    H235621   5.516   4.993   8.117  0.1613 -1.6871  1.2939
 4688TIP3   OH235622   2.510   3.333   0.477  0.4787  0.1232 -0.1646
 4688TIP3    H135623   2.482   3.415   0.437  2.2888  0.8303 -0.0433
 4688TIP3    H235624   2.429   3.297   0.514 -0.4398  1.6065 -0.6130
 4689TIP3   OH235625   6.770   2.895   2.136 -0.0226  0.6060  0.1402
 4689TIP3    H135626   6.690   2.930   2.096  1.1741  0.4046 -2.6818
 4689TIP3    H235627   6.742   2.862   2.221 -2.2082  3.7966  0.8493
 4690TIP3   OH235628   5.208   5.065   0.889 -0.3643 -0.4627 -0.0204
 4690TIP3    H135629   5.272   5.082   0.819  0.5039  1.1560  1.0766
 4690TIP3    H235630   5.164   4.984   0.863  1.5259 -1.1626 -1.2796
 4691TIP3   OH235631   3.318   0.062   1.757 -0.7962 -0.4991  0.2895
 4691TIP3    H135632   3.283   0.138   1.803 -0.7139 -0.2175 -0.1146
 4691TIP3    H235633   3.252  -0.006   1.769 -2.5894  0.6420 -2.3400
 4692TIP3   OH235634   3.034   5.265   2.739 -0.0867  0.0865 -0.0049
 4692TIP3    H135635   2.992   5.228   2.661  1.1314 -0.3700 -0.4679
 4692TIP3    H235636   3.001   5.212   2.811  1.5585 -1.9336 -0.6479
 4693TIP3   OH235637   4.933   3.504   6.787 -0.9390  0.4188 -0.1937
 4693TIP3    H135638   4.928   3.438   6.718 -1.6120 -1.2878  1.4091
 4693TIP3    H235639   4.842   3.529   6.804 -0.6981  1.7380 -0.7199
 4694TIP3   OH235640   2.613   4.224   1.728  0.5361 -0.4047 -0.0651
 4694TIP3    H135641   2.627   4.235   1.634 -0.3276 -1.2159 -0.3010
 4694TIP3    H235642   2.525   4.258   1.743  0.7241 -0.1499  0.4820
 4695TIP3   OH235643   3.423   5.679   2.879  0.2372 -0.3318  0.6808
 4695TIP3    H135644   3.334   5.699   2.908  0.2931 -0.1587  0.7355
 4695TIP3    H235645   3.417   5.592   2.840 -0.2935  0.3322 -0.7865
 4696TIP3   OH235646   4.952   1.501   0.676  0.3100 -0.3081 -0.2670
 4696TIP3    H135647   5.040   1.472   0.701  1.2453  1.2281 -1.5773
 4696TIP3    H235648   4.899   1.484   0.754  1.8446 -0.9107  0.7066
 4697TIP3   OH235649   4.271   5.444   7.388  0.1275  0.1854 -0.2339
 4697TIP3    H135650   4.337   5.437   7.457 -1.0954 -0.7567  0.8687
 4697TIP3    H235651   4.263   5.539   7.373  1.1998  0.3481  0.0975
 4698TIP3   OH235652   6.019   4.306   2.085 -0.4068 -0.4834  0.3295
 4698TIP3    H135653   6.085   4.306   2.155  2.1377  1.3708 -1.8730
 4698TIP3    H235654   6.010   4.398   2.061  0.2998 -1.1441 -2.9876
 4699TIP3   OH235655   4.828   2.757   0.234 -0.1553 -0.5012 -0.2530
 4699TIP3    H135656   4.815   2.823   0.303 -0.9482  0.6403 -1.4434
 4699TIP3    H235657   4.834   2.674   0.281 -0.9948  0.2102  1.1797
 4700TIP3   OH235658   1.798   6.247   7.801 -0.7198  0.7066 -0.3629
 4700TIP3    H135659   1.723   6.275   7.853 -1.2991  0.4591 -1.0551
 4700TIP3    H235660   1.812   6.156   7.825 -1.7886  0.2011 -1.5436
 4701TIP3   OH235661   2.906   2.156   8.300 -0.5134 -0.1133  0.0993
 4701TIP3    H135662   2.983   2.186   8.251  0.3228 -1.2731  0.6441
 4701TIP3    H235663   2.942   2.106   8.373 -1.7351 -3.3460 -1.3030
 4702TIP3   OH235664   0.017   3.901   6.827 -0.0354  0.5454  0.5129
 4702TIP3    H135665   0.009   3.891   6.732 -2.4544 -2.5498  0.8961
 4702TIP3    H235666  -0.061   3.949   6.853 -0.8246 -1.0435  1.1667
 4703TIP3   OH235667   6.621   6.594   2.243 -0.1939  0.0785  0.0602
 4703TIP3    H135668   6.629   6.556   2.156  0.8595 -0.0837  0.2171
 4703TIP3    H235669   6.564   6.533   2.291 -1.0819  0.3621 -0.6058
 4704TIP3   OH235670   2.755   1.296   1.367  0.3121  0.2449  0.2479
 4704TIP3    H135671   2.776   1.260   1.454  0.2796 -0.1083  0.1108
 4704TIP3    H235672   2.831   1.349   1.345  1.0645 -0.9860 -0.2186
 4705TIP3   OH235673   4.522   3.967   7.584 -0.1478  1.1826 -0.1078
 4705TIP3    H135674   4.501   3.959   7.677 -1.9126  2.1704 -0.3742
 4705TIP3    H235675   4.532   3.876   7.555 -0.8147  0.7911  0.7972
 4706TIP3   OH235676   3.793   3.783   2.925 -0.0931  0.2619  0.4637
 4706TIP3    H135677   3.699   3.800   2.927 -0.0344  2.4907 -4.0031
 4706TIP3    H235678   3.832   3.859   2.969 -0.3061  0.2153  0.7384
 4707TIP3   OH235679   1.522   2.177   0.317  0.2296 -0.5187  0.6581
 4707TIP3    H135680   1.496   2.255   0.267 -0.9738 -1.6523 -0.5952
 4707TIP3    H235681   1.597   2.205   0.368  0.5904  1.1398 -0.6816
 4708TIP3   OH235682   3.149   1.184   1.718  0.0916 -0.9506 -0.1423
 4708TIP3    H135683   3.086   1.118   1.691 -0.4672 -0.9810  1.1849
 4708TIP3    H235684   3.117   1.217   1.802 -1.5899  3.5202 -2.2154
 4709TIP3   OH235685   3.229   3.275   1.447  0.7644 -0.1920 -0.0367
 4709TIP3    H135686   3.270   3.190   1.431 -0.8939 -2.1190  4.3199
 4709TIP3    H235687   3.178   3.293   1.368  3.0225 -1.9784 -2.0334
 4710TIP3   OH235688   6.679   0.589   8.306  0.3788  0.0390 -0.2144
 4710TIP3    H135689   6.759   0.606   8.256  1.1996 -0.7643  0.7696
 4710TIP3    H235690   6.643   0.510   8.266  0.1471  0.3160 -0.5613
 4711TIP3   OH235691   0.792   0.884   7.248  0.7098  0.3049  0.2829
 4711TIP3    H135692   0.809   0.803   7.295 -0.7977 -1.3030 -1.7725
 4711TIP3    H235693   0.831   0.952   7.304 -1.5428 -1.2982  4.2501
 4712TIP3   OH235694   2.767   5.436   8.287 -0.5702 -0.2119 -0.1921
 4712TIP3    H135695   2.673   5.447   8.274 -0.0657  1.4254 -4.0451
 4712TIP3    H235696   2.796   5.520   8.323 -0.3309  0.3292 -1.5734
 4713TIP3   OH235697   6.640   2.025   2.275 -0.1906 -0.0703  0.2281
 4713TIP3    H135698   6.636   2.051   2.368  0.6869  1.3534 -0.1081
 4713TIP3    H235699   6.728   2.050   2.247 -0.1109 -1.3824 -0.7592
 4714TIP3   OH235700   6.202   6.335   7.700  0.9027  0.4485  0.5223
 4714TIP3    H135701   6.179   6.263   7.641 -1.6670  2.5237 -1.2328
 4714TIP3    H235702   6.184   6.300   7.788 -0.1532 -1.0851 -0.2495
 4715TIP3   OH235703   5.313   3.036   8.362 -0.1204  0.3246 -0.2069
 4715TIP3    H135704   5.375   3.107   8.376 -0.5519  0.3813  1.5951
 4715TIP3    H235705   5.237   3.059   8.415 -0.5184 -1.1790 -0.0668
 4716TIP3   OH235706   3.275   5.245   3.041 -0.9053  0.4429 -0.0853
 4716TIP3    H135707   3.318   5.292   2.969 -0.5107 -2.6249 -2.0181
 4716TIP3    H235708   3.185   5.277   3.040 -0.3775  2.0259 -0.4529
 4717TIP3   OH235709   3.762   5.070   1.419 -0.1184 -0.0629  0.4471
 4717TIP3    H135710   3.788   5.094   1.330  0.4797  0.2874  0.7036
 4717TIP3    H235711   3.737   4.978   1.413 -0.8655  0.1798 -0.2382
 4718TIP3   OH235712   4.130   0.640   0.520 -0.4823  0.3502 -0.1381
 4718TIP3    H135713   4.096   0.727   0.500 -0.2022  0.2520 -1.1118
 4718TIP3    H235714   4.092   0.583   0.454 -0.3691 -0.2041  0.2658
 4719TIP3   OH235715   1.816   0.256   6.803  0.3053 -0.1557 -0.2554
 4719TIP3    H135716   1.748   0.189   6.795 -1.9801  1.9380  0.4681
 4719TIP3    H235717   1.862   0.253   6.720  0.0744 -2.3515 -0.3814
 4720TIP3   OH235718   2.071   3.123   7.984 -0.0611  0.2670  0.2810
 4720TIP3    H135719   1.992   3.131   8.038 -0.9267 -1.4025 -0.6707
 4720TIP3    H235720   2.051   3.052   7.923  2.6046 -0.9500  0.7196
 4721TIP3   OH235721   3.290   2.947   6.363 -0.4719 -0.4949 -0.4270
 4721TIP3    H135722   3.207   2.985   6.391 -1.8051 -1.7764 -2.4038
 4721TIP3    H235723   3.268   2.857   6.338  1.5598 -0.9289 -0.8404
 4722TIP3   OH235724   2.913   3.920   7.406 -0.0794  0.0165 -0.1417
 4722TIP3    H135725   2.918   3.961   7.319  2.5420  1.5513  0.6124
 4722TIP3    H235726   2.868   3.984   7.460 -1.0972 -0.6461 -0.1753
 4723TIP3   OH235727   0.573   4.888   6.985 -0.2317 -0.7253  0.6700
 4723TIP3    H135728   0.607   4.868   6.898  0.2346 -0.8264  0.8766
 4723TIP3    H235729   0.636   4.949   7.023 -0.7886 -0.1447  0.6771
 4724TIP3   OH235730   5.769   3.155   0.552 -0.4402  0.3022 -0.6187
 4724TIP3    H135731   5.700   3.143   0.618 -0.0659  2.2866  0.2026
 4724TIP3    H235732   5.836   3.207   0.597 -0.0422  1.4685 -2.4746
 4725TIP3   OH235733   0.630   1.517   8.004  0.2858  0.1932  0.5077
 4725TIP3    H135734   0.705   1.489   8.057  0.9891  1.2753  0.1025
 4725TIP3    H235735   0.554   1.490   8.055  0.9466 -0.2673  1.2771
 4726TIP3   OH235736   0.444   4.103   1.345 -0.3997  0.1928  0.0227
 4726TIP3    H135737   0.515   4.147   1.393 -0.2239  0.3371 -0.3602
 4726TIP3    H235738   0.434   4.019   1.389 -1.3440  0.9403  1.3433
 4727TIP3   OH235739   6.209   5.692   7.497  0.1791  0.0720 -0.4458
 4727TIP3    H135740   6.142   5.680   7.429  0.9977 -2.3438 -0.9255
 4727TIP3    H235741   6.199   5.616   7.554  1.0753  0.8346  0.7773
 4728TIP3   OH235742   5.480   2.330   1.562  0.2633 -0.1276 -0.4581
 4728TIP3    H135743   5.406   2.361   1.510 -0.2684 -0.3508  0.1568
 4728TIP3    H235744   5.450   2.336   1.652  0.6924 -1.0181 -0.2464
 4729TIP3   OH235745   4.074   2.372   1.621 -0.8485  0.2004  0.2422
 4729TIP3    H135746   4.092   2.286   1.585  0.6898  0.9448 -0.8635
 4729TIP3    H235747   4.134   2.380   1.696 -0.2400  0.6992 -0.2911
 4730TIP3   OH235748   5.422   0.736   7.268  0.3446  0.4250 -0.0909
 4730TIP3    H135749   5.437   0.663   7.328 -0.5516 -0.0223 -0.3946
 4730TIP3    H235750   5.440   0.699   7.181  1.8189  1.1184 -0.1172
 4731TIP3   OH235751   5.128   5.472   2.074  0.1452 -0.2547 -0.2568
 4731TIP3    H135752   5.198   5.407   2.080  0.1012 -0.5099 -2.0349
 4731TIP3    H235753   5.053   5.429   2.116  0.9346 -0.1023  1.3758
 4732TIP3   OH235754   3.049   2.368   8.124  0.4992 -0.2129  0.3328
 4732TIP3    H135755   3.003   2.442   8.164 -0.9200 -0.4079 -0.8623
 4732TIP3    H235756   3.141   2.383   8.145  0.3703  2.4003 -0.6436
 4733TIP3   OH235757   4.090   4.501   0.429  0.8429 -0.7463 -0.3031
 4733TIP3    H135758   4.081   4.483   0.522  1.2775 -1.2855 -0.3576
 4733TIP3    H235759   4.125   4.590   0.424 -1.4197  0.2296 -0.0209
 4734TIP3   OH235760   3.388   3.134   7.187 -0.0879  0.0081  0.2452
 4734TIP3    H135761   3.354   3.170   7.104 -0.9803 -0.7796  0.2495
 4734TIP3    H235762   3.419   3.046   7.164  0.9229  0.2894  0.4847
 4735TIP3   OH235763   6.498   5.706   6.451 -0.1276 -0.1350  0.2833
 4735TIP3    H135764   6.518   5.694   6.544 -0.3077  2.0430  0.6528
 4735TIP3    H235765   6.576   5.750   6.416 -0.7328  0.5740 -0.2004
 4736TIP3   OH235766   3.042   3.307   6.285  0.2857  0.3127  0.1621
 4736TIP3    H135767   2.996   3.388   6.307  0.0795  0.4260 -0.6505
 4736TIP3    H235768   3.006   3.242   6.345  0.4196  0.8083  0.7900
 4737TIP3   OH235769   5.474   0.691   6.995  0.2120 -0.2827  0.1317
 4737TIP3    H135770   5.417   0.626   6.952  0.5698  0.1301 -1.0183
 4737TIP3    H235771   5.538   0.713   6.928  0.6698  0.5511  0.8391
 4738TIP3   OH235772   0.700   1.381   2.560  0.0808 -0.5723  0.0052
 4738TIP3    H135773   0.614   1.411   2.592 -0.3005 -2.2196  0.6299
 4738TIP3    H235774   0.679   1.320   2.490  0.8290  0.3241 -1.0277
 4739TIP3   OH235775   4.204   4.191   7.002 -0.1347  0.0797  0.5303
 4739TIP3    H135776   4.278   4.133   6.983 -0.6249 -0.6920  0.9391
 4739TIP3    H235777   4.232   4.242   7.078 -0.3039 -0.7500  1.1625
 4740TIP3   OH235778   0.749   6.878   1.317 -0.5292 -0.6755 -0.4641
 4740TIP3    H135779   0.769   6.874   1.411 -2.6275 -1.7963 -0.0082
 4740TIP3    H235780   0.671   6.933   1.311  0.4699  0.6821 -1.7696
 4741TIP3   OH235781   6.085   0.450   1.060 -0.4591  0.0904 -0.0906
 4741TIP3    H135782   6.139   0.520   1.096 -0.5125  0.0722  0.0255
 4741TIP3    H235783   6.010   0.444   1.119  0.6115 -1.5667  1.2008
 4742TIP3   OH235784   1.293   6.588   8.159  0.9992  0.3337 -0.2809
 4742TIP3    H135785   1.242   6.566   8.237 -0.3667 -0.0246 -1.2224
 4742TIP3    H235786   1.262   6.527   8.092  1.4529  1.2221 -1.3464
 4743TIP3   OH235787   0.264   4.980   1.609 -0.9573 -0.3151 -0.2096
 4743TIP3    H135788   0.291   4.929   1.533  1.0153 -0.0520  0.2546
 4743TIP3    H235789   0.225   5.060   1.573 -0.1781 -0.2590 -0.9532
 4744TIP3   OH235790   3.861   2.811   1.774 -0.1140  0.3496 -0.3529
 4744TIP3    H135791   3.842   2.887   1.828 -2.1668 -1.7898  2.2602
 4744TIP3    H235792   3.946   2.780   1.804  0.4412  1.2112 -0.9957
 4745TIP3   OH235793   4.280   5.966   7.253  0.1879 -0.0398 -0.1982
 4745TIP3    H135794   4.368   5.948   7.221 -0.6974 -0.7410 -2.4211
 4745TIP3    H235795   4.258   6.051   7.215 -0.2215 -0.0501  0.0115
 4746TIP3   OH235796   6.465   5.957   1.030 -0.1864 -0.4484 -0.1030
 4746TIP3    H135797   6.514   5.907   1.095 -0.4009 -1.2166 -0.5094
 4746TIP3    H235798   6.510   5.939   0.947  0.3821  0.9155 -0.1080
 4747TIP3   OH235799   2.914   0.388   7.807 -0.1570 -0.3431 -0.4697
 4747TIP3    H135800   2.861   0.444   7.865 -1.0348 -0.7623 -0.8505
 4747TIP3    H235801   2.954   0.324   7.866 -1.0102 -0.7405 -0.3106
 4748TIP3   OH235802   3.205   2.218   7.912  0.4083 -0.1198  0.1619
 4748TIP3    H135803   3.282   2.170   7.943  0.4825  0.5177  0.9936
 4748TIP3    H235804   3.228   2.310   7.924 -0.0371  0.1064 -0.6892
 4749TIP3   OH235805   6.881   0.652   1.361  0.0904  0.0774 -0.1192
 4749TIP3    H135806   6.869   0.595   1.437  1.2629 -0.8794 -0.6163
 4749TIP3    H235807   6.817   0.622   1.297  1.0843 -1.1381 -0.6008
 4750TIP3   OH235808   5.055   0.571   8.449 -0.5560  0.1502 -0.1224
 4750TIP3    H135809   5.129   0.610   8.496 -1.0207  0.6274  0.2151
 4750TIP3    H235810   5.043   0.626   8.372  0.3174 -0.7335 -0.9227
 4751TIP3   OH235811   0.566   2.120   1.200  0.0147 -0.0676  0.3162
 4751TIP3    H135812   0.518   2.178   1.259  1.6542 -0.8367  2.5346
 4751TIP3    H235813   0.595   2.176   1.128 -3.1979  0.6291 -0.6148
 4752TIP3   OH235814   6.745   3.512   0.035 -0.6918  0.2639 -0.2225
 4752TIP3    H135815   6.658   3.502  -0.005  0.2745 -1.8278 -1.9830
 4752TIP3    H235816   6.727   3.551   0.121 -3.3189  0.2125 -0.6476
 4753TIP3   OH235817   6.620   3.826   1.542 -0.3087 -0.0618  0.2776
 4753TIP3    H135818   6.691   3.772   1.509  0.2828 -0.2353  1.7418
 4753TIP3    H235819   6.579   3.864   1.464  3.6243  3.0056 -0.5983
 4754TIP3   OH235820   4.913   2.319   6.630  0.4861 -0.4263  0.2645
 4754TIP3    H135821   4.857   2.306   6.553  1.5647 -1.8357 -0.3215
 4754TIP3    H235822   4.928   2.230   6.664  3.0062 -0.1955 -0.0885
 4755TIP3   OH235823   6.462   6.733   0.313 -0.0484  0.0532  0.2506
 4755TIP3    H135824   6.460   6.743   0.408  0.4497 -0.7183  0.3585
 4755TIP3    H235825   6.552   6.705   0.295 -0.0753  0.4292 -0.4724
 4756TIP3   OH235826   0.906   5.787   2.153 -0.2796  0.3590 -0.6475
 4756TIP3    H135827   0.961   5.751   2.083  0.0922 -2.3987  0.9197
 4756TIP3    H235828   0.963   5.787   2.230 -1.5480  0.4600  0.3166
 4757TIP3   OH235829   5.091   4.195   1.782  0.2456  0.1023 -0.1733
 4757TIP3    H135830   5.025   4.216   1.848 -0.4965  0.4405 -0.9965
 4757TIP3    H235831   5.174   4.225   1.819 -0.3717  1.7176 -0.0439
 4758TIP3   OH235832   3.460   1.107   1.163 -0.1055 -0.1622  0.1813
 4758TIP3    H135833   3.432   1.107   1.254  0.0730 -0.7428  0.2412
 4758TIP3    H235834   3.534   1.168   1.161 -0.0325 -0.2417  0.4498
 4759TIP3   OH235835   2.468   5.437   1.125 -0.3579  0.6216 -0.2351
 4759TIP3    H135836   2.462   5.374   1.197 -2.1407  1.0816  0.0653
 4759TIP3    H235837   2.537   5.498   1.152  0.3486 -0.3354  0.1581
 4760TIP3   OH235838   2.920   1.332   0.329 -0.4593  0.0316  0.2535
 4760TIP3    H135839   2.869   1.358   0.253  0.3487  0.0813 -0.2798
 4760TIP3    H235840   2.882   1.248   0.355 -0.5151 -0.1528 -0.4085
 4761TIP3   OH235841   6.827   5.196   2.365 -0.5406 -0.1346  0.2849
 4761TIP3    H135842   6.908   5.234   2.332 -0.0032  0.8073  2.5136
 4761TIP3    H235843   6.784   5.268   2.412 -1.6895 -1.1363  0.8221
 4762TIP3   OH235844   0.511   5.499   8.508 -0.3437 -0.4166 -0.3046
 4762TIP3    H135845   0.432   5.547   8.532 -0.1152  0.6475 -1.5733
 4762TIP3    H235846   0.516   5.427   8.572 -1.0910  0.8190  1.2051
 4763TIP3   OH235847   2.695   5.190   1.936  0.9154  0.6273  0.2096
 4763TIP3    H135848   2.724   5.254   1.871  2.2632 -0.4254 -0.2898
 4763TIP3    H235849   2.611   5.158   1.903  0.6794  1.4553 -0.0164
 4764TIP3   OH235850   4.297   1.381   8.460 -0.0572 -0.1451  0.7804
 4764TIP3    H135851   4.326   1.385   8.551  1.3582 -0.4548  0.3571
 4764TIP3    H235852   4.257   1.294   8.451  0.2807 -0.3195  0.9648
 4765TIP3   OH235853   4.656   5.987   8.250 -0.0089 -0.8255 -0.0420
 4765TIP3    H135854   4.643   6.012   8.341  3.9372 -0.7207  0.6803
 4765TIP3    H235855   4.704   6.061   8.212 -1.5179 -0.8956 -2.2279
 4766TIP3   OH235856   6.121   3.333   7.740  0.3905  0.2818  0.1824
 4766TIP3    H135857   6.039   3.363   7.779  0.1395  1.4441 -1.1686
 4766TIP3    H235858   6.094   3.287   7.661  0.9134 -1.7748  1.1107
 4767TIP3   OH235859   3.416   6.414   8.156 -0.6929  0.1252  0.3525
 4767TIP3    H135860   3.506   6.448   8.157  0.0169 -1.6725  1.2685
 4767TIP3    H235861   3.382   6.441   8.071  0.9098  0.3352 -0.2633
 4768TIP3   OH235862   3.029   0.665   0.950  0.2636 -0.0157  0.0127
 4768TIP3    H135863   3.024   0.583   0.998  1.0575 -0.3727 -0.4962
 4768TIP3    H235864   3.123   0.685   0.946  0.1154  0.6654 -0.2892
 4769TIP3   OH235865   1.755   1.146   1.660 -0.2170  0.2352 -0.1635
 4769TIP3    H135866   1.819   1.109   1.721  0.0740  1.2011  0.1432
 4769TIP3    H235867   1.691   1.190   1.716 -0.3841  0.4573 -0.5251
 4770TIP3   OH235868   1.596   5.564   0.566  0.4585 -0.3265  0.3748
 4770TIP3    H135869   1.554   5.606   0.491  0.6520 -0.7037  0.0485
 4770TIP3    H235870   1.583   5.470   0.551  0.1852 -0.3942  1.0032
 4771TIP3   OH235871   5.287   2.856   0.889 -0.3275  0.5837  0.4660
 4771TIP3    H135872   5.238   2.934   0.916 -1.2766  0.7163 -1.4566
 4771TIP3    H235873   5.378   2.877   0.907 -0.3926  2.7666 -1.2498
 4772TIP3   OH235874   0.464   5.031   0.226  0.0707  0.5272 -0.8092
 4772TIP3    H135875   0.427   5.059   0.309  0.0742  0.6840 -0.8603
 4772TIP3    H235876   0.458   4.936   0.228  0.4583  0.5090 -0.4539
 4773TIP3   OH235877   2.033   2.130   0.376 -0.1942 -0.1142  0.0253
 4773TIP3    H135878   1.997   2.218   0.386 -0.0324 -0.1428  0.9212
 4773TIP3    H235879   2.020   2.109   0.283  1.0449  1.4023 -0.5206
 4774TIP3   OH235880   3.633   3.006   8.393 -0.6952  0.1589 -0.0594
 4774TIP3    H135881   3.686   2.936   8.358  0.7943  0.2646  1.8233
 4774TIP3    H235882   3.671   3.086   8.357  0.5540  0.2382  1.3274
 4775TIP3   OH235883   0.509   4.342   7.663  0.5927 -0.3675 -0.2157
 4775TIP3    H135884   0.550   4.305   7.585 -0.9372 -1.5404 -0.5134
 4775TIP3    H235885   0.485   4.431   7.637  0.9632 -0.4191 -0.7598
 4776TIP3   OH235886   5.084   6.845   0.560 -0.1306 -0.3256  0.6176
 4776TIP3    H135887   5.009   6.805   0.516  0.4382 -0.9085  0.1804
 4776TIP3    H235888   5.117   6.909   0.498 -0.0229 -0.3447  0.6554
 4777TIP3   OH235889   4.912   0.102   0.743 -0.4114  0.4968  0.4804
 4777TIP3    H135890   4.954   0.084   0.659 -0.1501  1.6118  0.3572
 4777TIP3    H235891   4.965   0.172   0.782 -1.6834  1.4029  0.6611
 4778TIP3   OH235892   1.913   6.188   6.862  0.7796  0.3436  0.8235
 4778TIP3    H135893   1.862   6.266   6.840 -0.6728 -0.2681  1.8444
 4778TIP3    H235894   1.919   6.190   6.958  0.5207 -0.8979  0.8833
 4779TIP3   OH235895   6.891   2.351   0.477  0.1331  0.4644 -0.7048
 4779TIP3    H135896   6.846   2.267   0.484 -0.2612  0.8393  2.5344
 4779TIP3    H235897   6.824   2.417   0.495  0.5364  1.5180 -2.7442
 4780TIP3   OH235898   5.328   6.789   8.034 -0.1129  0.1992 -0.4675
 4780TIP3    H135899   5.351   6.794   7.941  2.7621 -0.7505  0.0811
 4780TIP3    H235900   5.404   6.825   8.080 -0.8497 -0.6630  1.5604
 4781TIP3   OH235901   3.046   6.735   6.623 -0.5598  0.0555 -0.2566
 4781TIP3    H135902   2.968   6.684   6.645  0.7452 -1.1952  1.7677
 4781TIP3    H235903   3.103   6.674   6.577  0.7052 -0.1455  1.5098
 4782TIP3   OH235904   2.640   5.618   8.108 -0.0701  0.5595  0.3805
 4782TIP3    H135905   2.716   5.575   8.068 -0.7153 -0.4968  0.2462
 4782TIP3    H235906   2.575   5.548   8.117 -0.1351  0.8418  2.8680
 4783TIP3   OH235907   4.697   0.198   8.330 -0.9426  0.1251 -0.1848
 4783TIP3    H135908   4.726   0.174   8.242 -1.3893 -1.2777  0.0185
 4783TIP3    H235909   4.778   0.219   8.378 -0.7188  1.1279 -0.9750
 4784TIP3   OH235910   3.603   5.558   7.196  0.6914  0.8554  0.2475
 4784TIP3    H135911   3.669   5.588   7.258  1.4374 -0.7179  0.2421
 4784TIP3    H235912   3.648   5.557   7.111  0.8228 -0.6644  0.3164
 4785TIP3   OH235913   4.731   6.049   2.413  0.3451  0.7860 -0.3273
 4785TIP3    H135914   4.694   6.109   2.477  2.6663  0.6641  1.2355
 4785TIP3    H235915   4.721   6.094   2.329  1.5177  3.1402  0.7187
 4786TIP3   OH235916   2.531   6.523   1.550  0.0820  0.5506  0.0507
 4786TIP3    H135917   2.461   6.513   1.615  0.9206  2.3252  1.3146
 4786TIP3    H235918   2.486   6.545   1.469 -0.9533 -1.0930  0.1275
 4787TIP3   OH235919   2.728   6.588   0.282  0.3746  0.2260 -0.3233
 4787TIP3    H135920   2.764   6.529   0.215  1.1431  0.7307 -0.3733
 4787TIP3    H235921   2.755   6.549   0.365  1.9422  1.1194 -0.3745
 4788TIP3   OH235922   0.641   0.180   0.691 -0.1443  0.2728 -0.2572
 4788TIP3    H135923   0.672   0.124   0.762  1.1615  0.5625 -0.5761
 4788TIP3    H235924   0.548   0.161   0.684  0.4213 -2.5893 -1.0307
 4789TIP3   OH235925   0.513   1.344   2.293 -0.4149 -0.3623  0.4557
 4789TIP3    H135926   0.546   1.290   2.365 -0.8072 -0.6119  0.4480
 4789TIP3    H235927   0.480   1.423   2.336 -0.5559 -0.4681  0.5437
 4790TIP3   OH235928   2.553   1.446   1.472 -0.8162 -0.5806 -0.2415
 4790TIP3    H135929   2.522   1.404   1.553  3.1341  0.3853  2.0348
 4790TIP3    H235930   2.612   1.382   1.433  0.8097  0.5735  0.1940
 4791TIP3   OH235931   0.166   3.016   0.937 -0.2676  0.6061 -0.1033
 4791TIP3    H135932   0.171   3.109   0.959  2.8901  0.2346  1.3930
 4791TIP3    H235933   0.213   3.008   0.854  1.1025  0.1944  0.6754
 4792TIP3   OH235934   3.353   1.876   8.132 -0.0217  0.6914  0.0436
 4792TIP3    H135935   3.312   1.961   8.145  0.5437  0.9644  0.0484
 4792TIP3    H235936   3.341   1.858   8.038  0.6247  1.1865 -0.1478
 4793TIP3   OH235937   6.104   5.069   0.712 -0.0872  0.1824  0.2948
 4793TIP3    H135938   6.174   5.039   0.654 -0.6128  0.0567 -0.2887
 4793TIP3    H235939   6.119   5.024   0.794 -0.8613 -1.7090 -0.5531
 4794TIP3   OH235940   0.875   1.295   1.921  0.3149 -0.4394  0.3500
 4794TIP3    H135941   0.839   1.322   2.005 -1.5663  0.9563 -0.8114
 4794TIP3    H235942   0.798   1.269   1.869  1.4168 -1.3316 -0.9379
 4795TIP3   OH235943   3.997   6.667   7.680  0.3231  0.0709 -0.4047
 4795TIP3    H135944   3.974   6.577   7.705  1.5418 -0.3750 -0.8128
 4795TIP3    H235945   4.039   6.704   7.758  0.2771  0.1139 -0.4002
 4796TIP3   OH235946   2.587   3.133   0.712 -0.0640 -0.0570 -0.2155
 4796TIP3    H135947   2.598   3.041   0.685  3.3035  0.3552 -0.6333
 4796TIP3    H235948   2.650   3.145   0.783 -0.4160  1.9491 -0.1853
 4797TIP3   OH235949   5.880   3.493   1.737  0.2667  0.6332  0.0550
 4797TIP3    H135950   5.929   3.503   1.655 -1.5119  2.3682 -0.8916
 4797TIP3    H235951   5.896   3.575   1.784  0.5318  0.0235  1.0356
 4798TIP3   OH235952   3.772   0.424   1.294  0.3369  0.5524 -0.0396
 4798TIP3    H135953   3.763   0.509   1.250  1.7044  0.9529  0.4151
 4798TIP3    H235954   3.865   0.405   1.291  0.0375 -1.0707 -0.3415
 4799TIP3   OH235955   2.140   1.363   2.115  0.8120  0.1399  0.1895
 4799TIP3    H135956   2.210   1.427   2.127 -0.3641  1.6313 -0.5363
 4799TIP3    H235957   2.133   1.353   2.020 -0.1105  0.2152  0.2402
 4800TIP3   OH235958   3.648   1.814   8.081 -0.2554  0.2106  0.3461
 4800TIP3    H135959   3.554   1.804   8.093 -0.1088 -1.7991  0.1082
 4800TIP3    H235960   3.662   1.797   7.987  0.2578  1.3853  0.1958
 4801TIP3   OH235961   0.763   5.333   0.244 -0.3122 -0.2007  0.0298
 4801TIP3    H135962   0.842   5.299   0.201  1.0112  0.2339  1.9356
 4801TIP3    H235963   0.738   5.408   0.192 -0.0320 -0.8944 -1.1451
 4802TIP3   OH235964   5.749   4.414   0.563  0.6300  0.2708  0.0359
 4802TIP3    H135965   5.825   4.421   0.504 -1.5528  0.3292 -3.0012
 4802TIP3    H235966   5.741   4.320   0.580  1.0244  0.2042 -0.1373
 4803TIP3   OH235967   5.454   6.240   1.155 -0.6534  0.4596 -0.6435
 4803TIP3    H135968   5.516   6.311   1.137  1.1235 -0.9071 -0.1389
 4803TIP3    H235969   5.393   6.242   1.082 -0.9169  2.7470 -0.4432
 4804TIP3   OH235970   0.532   2.249   7.299  0.0306 -0.2318 -0.2408
 4804TIP3    H135971   0.584   2.187   7.350  0.4553 -0.1515 -0.5741
 4804TIP3    H235972   0.548   2.224   7.208 -0.6428 -0.3086 -0.3411
 4805TIP3   OH235973   1.208   3.278   7.295 -0.1987 -0.3717  0.6265
 4805TIP3    H135974   1.280   3.315   7.346  0.2220 -0.9870  0.4919
 4805TIP3    H235975   1.229   3.184   7.288 -2.1017 -1.0013  2.4218
 4806TIP3   OH235976   3.450   3.668   0.043  0.4854 -0.0685 -0.0646
 4806TIP3    H135977   3.463   3.611   0.119  1.4055  0.9994  0.6196
 4806TIP3    H235978   3.440   3.608  -0.031  0.6152 -1.1223  0.7444
 4807TIP3   OH235979   3.828   1.343   2.378 -0.0580  0.0506 -0.0540
 4807TIP3    H135980   3.753   1.299   2.418  0.2112 -0.5203 -0.1711
 4807TIP3    H235981   3.793   1.425   2.345 -0.4992  0.0698  0.4538
 4808TIP3   OH235982   5.122   0.606   7.797  0.2743 -0.4144  0.4654
 4808TIP3    H135983   5.192   0.545   7.821  0.4624 -0.2313  0.3860
 4808TIP3    H235984   5.107   0.590   7.704  1.3086  0.6325  0.0853
 4809TIP3   OH235985   0.346   3.557   8.451  0.3177  0.1110  0.1119
 4809TIP3    H135986   0.270   3.506   8.479  1.0046 -0.2904  1.3569
 4809TIP3    H235987   0.324   3.587   8.363 -0.9968 -0.5438  0.1874
 4810TIP3   OH235988   3.161   0.796   7.728 -0.3663 -0.3907 -0.1672
 4810TIP3    H135989   3.176   0.800   7.634  0.7147 -0.4276 -0.0095
 4810TIP3    H235990   3.217   0.725   7.759 -0.0582  0.1749  0.6182
 4811TIP3   OH235991   3.316   3.533   1.027  0.6024 -0.3200  0.5684
 4811TIP3    H135992   3.312   3.454   1.081 -2.1356 -1.2499 -0.8138
 4811TIP3    H235993   3.318   3.605   1.090  1.2538 -1.4243  1.8611
 4812TIP3   OH235994   1.231   4.545   1.106  0.6222 -0.3750 -0.2065
 4812TIP3    H135995   1.235   4.452   1.085 -1.1322 -0.6029  0.2734
 4812TIP3    H235996   1.211   4.587   1.023 -0.2881 -0.6285 -0.1283
 4813TIP3   OH235997   0.249   2.332   7.359 -0.1563  0.1818  0.2512
 4813TIP3    H135998   0.260   2.299   7.270  0.8704  0.7252  0.1655
 4813TIP3    H235999   0.193   2.267   7.402 -0.1099 -0.4269 -0.5890
 4814TIP3   OH236000   5.736   0.982   0.170  0.3195 -0.0239 -0.5020
 4814TIP3    H136001   5.796   0.911   0.146 -0.4394 -0.0406 -2.4902
 4814TIP3    H236002   5.778   1.061   0.137  2.5952  1.0843  4.1068
 4815TIP3   OH236003   4.010   0.895   1.989  0.0625  0.2644 -0.0113
 4815TIP3    H136004   4.027   0.820   1.932  2.4081  0.5335  0.2134
 4815TIP3    H236005   3.969   0.960   1.932  1.5455  0.2027 -1.2239
 4816TIP3   OH236006   1.106   2.389   1.640 -0.1152  0.0667  0.2164
 4816TIP3    H136007   1.070   2.406   1.553  0.0623  1.2096  0.3455
 4816TIP3    H236008   1.187   2.341   1.623  0.1084  0.6052 -0.2801
 4817TIP3   OH236009   2.201   4.851   6.899 -0.4390  0.0109  0.3347
 4817TIP3    H136010   2.141   4.792   6.854 -2.1267  1.3077  0.7600
 4817TIP3    H236011   2.208   4.814   6.987  1.3298 -1.4446 -0.3438
 4818TIP3   OH236012   1.123   0.713   7.336 -0.0515 -0.1277 -0.1210
 4818TIP3    H136013   1.072   0.778   7.385  2.0628  0.7221  1.0994
 4818TIP3    H236014   1.061   0.677   7.273 -1.8621  1.5869  0.5532
 4819TIP3   OH236015   0.432   3.065   1.154  0.0256 -0.6212  0.4078
 4819TIP3    H136016   0.481   3.023   1.082  1.0244  0.5263  0.3881
 4819TIP3    H236017   0.359   3.108   1.111  0.7436  0.2498  0.0332
 4820TIP3   OH236018   1.781   6.443   7.480 -0.7447 -0.2145 -0.3196
 4820TIP3    H136019   1.829   6.489   7.411 -1.9658 -0.2030 -1.2128
 4820TIP3    H236020   1.848   6.412   7.540  0.3451  0.0483 -1.3570
 4821TIP3   OH236021   4.295   1.014   7.965 -0.1843 -0.3699 -0.9496
 4821TIP3    H136022   4.283   0.942   7.903  0.2822 -2.1288  0.8543
 4821TIP3    H236023   4.339   0.973   8.040 -3.0862  0.9036  1.6993
 4822TIP3   OH236024   3.340   6.013   0.621 -0.2638 -0.1565  0.0177
 4822TIP3    H136025   3.327   5.986   0.712 -0.2690  0.2217  0.1322
 4822TIP3    H236026   3.268   5.974   0.574  0.9489 -2.2336 -0.2265
 4823TIP3   OH236027   4.189   0.470   2.314 -0.6415 -0.1999  0.0164
 4823TIP3    H136028   4.244   0.516   2.251 -1.3905  0.5654 -0.1015
 4823TIP3    H236029   4.241   0.395   2.342  0.6323  0.7303  0.2258
 4824TIP3   OH236030   4.620   4.963   0.078  0.2102 -0.5052  0.5857
 4824TIP3    H136031   4.568   4.998   0.006  2.2515  1.7654  0.0876
 4824TIP3    H236032   4.606   5.026   0.149 -0.0213 -1.5104  1.4570
 4825TIP3   OH236033   5.758   6.514   1.205 -0.0467  0.3417 -0.3442
 4825TIP3    H136034   5.695   6.585   1.215 -0.9166 -0.4701  0.1025
 4825TIP3    H236035   5.713   6.450   1.149 -0.0684 -0.7238  0.8463
 4826TIP3   OH236036   6.503   6.461   7.334 -0.2523 -0.3499  0.1765
 4826TIP3    H136037   6.497   6.469   7.239  1.9279  1.4046  0.1195
 4826TIP3    H236038   6.424   6.411   7.359  0.4473 -3.2604 -2.7737
 4827TIP3   OH236039   0.453   6.358   1.354 -0.4542  0.0619  0.0168
 4827TIP3    H136040   0.456   6.301   1.277 -1.4361  0.5269 -0.3707
 4827TIP3    H236041   0.525   6.420   1.339 -0.5608  0.0770 -0.4649
 4828TIP3   OH236042   6.055   6.370   0.166  0.2583 -0.3181  0.4385
 4828TIP3    H136043   6.088   6.437   0.106  0.2036 -0.2805  0.4497
 4828TIP3    H236044   6.031   6.419   0.245 -0.2815 -0.2726  0.2533
 4829TIP3   OH236045   2.449   1.596   0.560  0.2885  0.3158  0.3582
 4829TIP3    H136046   2.394   1.673   0.548 -0.0079  0.0788  0.1801
 4829TIP3    H236047   2.390   1.531   0.600  0.0934 -0.3608 -0.9949
 4830TIP3   OH236048   0.059   3.781   7.746  0.1499 -0.1525  0.3656
 4830TIP3    H136049   0.138   3.731   7.726  1.2460  0.1903  3.4688
 4830TIP3    H236050   0.078   3.870   7.715  0.6268 -0.2603  0.3414
 4831TIP3   OH236051   1.691   5.201   6.550  0.0410  0.1361  0.0213
 4831TIP3    H136052   1.725   5.268   6.610 -0.1499 -0.2965  0.6234
 4831TIP3    H236053   1.618   5.244   6.506 -1.5865 -0.3446  2.0848
 4832TIP3   OH236054   1.049   2.066   1.375 -0.1620 -0.1832 -0.9143
 4832TIP3    H136055   1.043   2.073   1.471 -0.4006 -0.4153 -0.9106
 4832TIP3    H236056   0.962   2.035   1.349 -0.3043  0.4798 -1.2628
 4833TIP3   OH236057   6.843   0.798   7.026 -0.2355 -0.5122  0.3051
 4833TIP3    H136058   6.842   0.852   6.947 -0.4122 -2.7355 -1.3293
 4833TIP3    H236059   6.930   0.810   7.063  0.7605 -1.2691 -1.6502
 4834TIP3   OH236060   1.214   3.546   2.369 -0.0334 -0.5503 -0.3177
 4834TIP3    H136061   1.222   3.451   2.382  0.5019 -0.4220  0.3270
 4834TIP3    H236062   1.287   3.583   2.419 -1.2840  0.3140  0.9370
 4835TIP3   OH236063   1.410   4.036   1.556 -0.6352  0.4153  0.4332
 4835TIP3    H136064   1.327   3.991   1.539 -0.4896 -0.5228  2.0477
 4835TIP3    H236065   1.389   4.101   1.622  0.0191 -0.2445  1.3094
 4836TIP3   OH236066   6.196   2.522   0.923  0.4072  1.1999  0.4204
 4836TIP3    H136067   6.127   2.583   0.897  1.0045  2.0185  0.7335
 4836TIP3    H236068   6.215   2.473   0.844 -0.2590  1.2319  0.2291
 4837TIP3   OH236069   0.528   5.450   1.343  0.4750  0.5801  0.2049
 4837TIP3    H136070   0.617   5.439   1.308  0.3506 -2.5437  0.6389
 4837TIP3    H236071   0.530   5.407   1.428 -1.4950  0.3576  0.1827
 4838TIP3   OH236072   2.197   1.685   6.803  0.4222  0.5053  0.0916
 4838TIP3    H136073   2.208   1.780   6.805 -1.8794  0.8501 -0.7532
 4838TIP3    H236074   2.108   1.672   6.770  0.3670 -1.9363  1.0398
 4839TIP3   OH236075   3.403   0.231   7.134 -0.3841 -0.0208 -0.2349
 4839TIP3    H136076   3.318   0.237   7.178 -1.2902 -0.5707 -1.8385
 4839TIP3    H236077   3.382   0.205   7.044  1.4847 -0.1443 -0.6767
 4840TIP3   OH236078   4.606   4.071   1.273  0.0326  0.1816  0.7902
 4840TIP3    H136079   4.636   3.990   1.315  2.2230 -0.3732 -1.5839
 4840TIP3    H236080   4.563   4.042   1.192 -1.0397  1.3438  0.8998
 4841TIP3   OH236081   4.401   2.481   0.064  0.4122  0.8475 -0.5114
 4841TIP3    H136082   4.472   2.530   0.023  0.0956  2.2713  0.5680
 4841TIP3    H236083   4.336   2.471  -0.005  0.4870  1.9776 -0.7670
 4842TIP3   OH236084   1.313   0.408   1.645 -0.6010  0.5144 -0.1015
 4842TIP3    H136085   1.327   0.502   1.632 -1.8001  0.4705 -1.9524
 4842TIP3    H236086   1.339   0.368   1.562 -0.9781 -0.7041  0.3508
 4843TIP3   OH236087   3.787   2.325   0.475  0.1077 -0.3114  0.7883
 4843TIP3    H136088   3.706   2.304   0.428  1.2715  0.3352 -1.6230
 4843TIP3    H236089   3.857   2.290   0.421  1.6449  2.3119  0.8811
 4844TIP3   OH236090   3.090   2.706   0.964  0.3321 -0.2654 -0.5105
 4844TIP3    H136091   2.996   2.726   0.960  0.2499 -0.8369 -1.8110
 4844TIP3    H236092   3.131   2.787   0.995 -0.5695  0.0362 -0.0715
 4845TIP3   OH236093   5.806   2.209   7.817 -0.5536  0.1351 -0.2495
 4845TIP3    H136094   5.842   2.295   7.840  1.9248 -0.3848 -1.8238
 4845TIP3    H236095   5.754   2.185   7.894 -1.1146  2.8889  0.3521
 4846TIP3   OH236096   5.683   1.299   7.355  0.0619  0.1888  0.8462
 4846TIP3    H136097   5.618   1.262   7.297 -0.0496  0.7999  0.5706
 4846TIP3    H236098   5.682   1.242   7.433  0.2304 -0.6431  0.2489
 4847TIP3   OH236099   5.762   6.572   1.596  0.0680  0.1412 -0.2277
 4847TIP3    H136100   5.812   6.649   1.569  0.7728  0.3580  1.5543
 4847TIP3    H236101   5.691   6.608   1.649  1.3420 -0.4548  2.0191
 4848TIP3   OH236102   2.853   2.807   1.442  0.7088 -0.2683  0.5614
 4848TIP3    H136103   2.880   2.724   1.481  2.1552 -0.9074 -1.5861
 4848TIP3    H236104   2.838   2.786   1.349  3.9395  2.3163 -0.7621
 4849TIP3   OH236105   0.630   6.538   1.821 -1.1366  0.5641  0.1716
 4849TIP3    H136106   0.545   6.492   1.821 -0.4720 -0.7098  0.2981
 4849TIP3    H236107   0.655   6.542   1.728 -1.8472  1.9748  0.0127
 4850TIP3   OH236108   3.372   5.112   6.768 -0.6914 -0.3488 -0.3209
 4850TIP3    H136109   3.359   5.028   6.725  1.4230  0.0812 -1.9423
 4850TIP3    H236110   3.419   5.092   6.849 -0.2177 -0.7238 -0.6897
 4851TIP3   OH236111   6.174   6.676   0.863  0.1657  0.5202 -0.3377
 4851TIP3    H136112   6.187   6.621   0.785 -2.1327 -0.9379  0.2058
 4851TIP3    H236113   6.261   6.683   0.902  0.8115 -1.5376 -1.2477
 4852TIP3   OH236114   1.716   4.257   7.536 -0.2463  0.0332 -0.0006
 4852TIP3    H136115   1.806   4.288   7.544 -0.0839 -0.5366  0.4326
 4852TIP3    H236116   1.665   4.317   7.590  0.0005 -0.1649  0.4573
 4853TIP3   OH236117   6.335   2.223   7.890 -0.4296 -0.0655 -0.3370
 4853TIP3    H136118   6.248   2.244   7.856 -0.9784 -1.1450  0.3494
 4853TIP3    H236119   6.380   2.307   7.894 -1.0639  0.3755 -1.7156
 4854TIP3   OH236120   2.486   0.152   1.571 -0.1911 -0.1779 -0.0428
 4854TIP3    H136121   2.407   0.098   1.565 -0.0410 -0.3653 -0.3764
 4854TIP3    H236122   2.494   0.173   1.664 -0.6193 -0.1784 -0.0024
 4855TIP3   OH236123   6.236   6.099   1.018 -0.1424  0.5842 -0.3005
 4855TIP3    H136124   6.321   6.058   1.000  0.7393  2.1453  0.1630
 4855TIP3    H236125   6.172   6.037   0.983  1.1816 -0.5922 -0.7348
 4856TIP3   OH236126   4.502   0.181   7.860  0.2665  0.3439 -0.2828
 4856TIP3    H136127   4.453   0.152   7.936  1.4888 -0.9448  0.0469
 4856TIP3    H236128   4.495   0.277   7.862 -1.5415  0.2314  0.1700
 4857TIP3   OH236129   6.262   6.608   1.478  0.3182 -0.1272 -0.2738
 4857TIP3    H136130   6.269   6.604   1.382 -0.5267  2.7966 -0.5795
 4857TIP3    H236131   6.313   6.686   1.502  1.8725 -1.7123  1.8991
 4858TIP3   OH236132   3.661   4.176   0.799 -0.3875  0.3577 -0.8296
 4858TIP3    H136133   3.747   4.139   0.818 -0.3455  0.2185 -1.2824
 4858TIP3    H236134   3.670   4.216   0.713 -0.0483  2.6267  0.1862
 4859TIP3   OH236135   1.244   4.536   6.491 -0.2513 -0.2758 -0.2821
 4859TIP3    H136136   1.255   4.450   6.533 -0.4999  0.1297  0.6376
 4859TIP3    H236137   1.231   4.597   6.564  1.3697  0.7874 -0.8235
 4860TIP3   OH236138   0.738   3.087   1.739 -0.3259  0.0219 -0.6550
 4860TIP3    H136139   0.771   3.155   1.798  2.3120 -0.6839 -1.1911
 4860TIP3    H236140   0.696   3.023   1.797 -0.5141  0.8311  0.1231
 4861TIP3   OH236141   3.672   3.106   1.047 -0.4304  0.0097 -0.1205
 4861TIP3    H136142   3.767   3.106   1.063 -0.4951 -1.5183  0.5074
 4861TIP3    H236143   3.634   3.082   1.132 -1.2665 -1.0267 -0.7702
 4862TIP3   OH236144   5.580   5.449   0.882 -0.9597  0.5796  0.3351
 4862TIP3    H136145   5.608   5.540   0.885 -2.0028  0.9038  1.4262
 4862TIP3    H236146   5.491   5.450   0.917 -0.9267 -0.8830  0.5544
 4863TIP3   OH236147   2.359   3.117   0.876 -0.2600 -0.2757  0.0549
 4863TIP3    H136148   2.437   3.110   0.821 -1.1174 -1.8848 -1.0639
 4863TIP3    H236149   2.372   3.049   0.942 -0.6202 -0.4227 -0.0266
 4864TIP3   OH236150   0.676   4.665   2.119  0.2473  0.3654 -0.8158
 4864TIP3    H136151   0.637   4.744   2.082 -2.1190 -1.7980 -3.3981
 4864TIP3    H236152   0.714   4.620   2.044  2.6019 -0.4631  0.7723
 4865TIP3   OH236153   2.011   6.889   7.342  0.6033 -0.2241  0.2866
 4865TIP3    H136154   2.092   6.907   7.295 -0.5159  1.1043 -1.2448
 4865TIP3    H236155   2.027   6.919   7.431  1.2507  1.6631 -0.4196
 4866TIP3   OH236156   5.654   1.674   0.198  0.0062 -0.5001 -0.2980
 4866TIP3    H136157   5.614   1.708   0.278 -0.3165  2.1827 -1.4799
 4866TIP3    H236158   5.582   1.634   0.150 -0.6707  1.2718 -0.8673
 4867TIP3   OH236159   1.183   3.092   0.420  0.5370 -0.0528 -0.7483
 4867TIP3    H136160   1.144   3.165   0.469  0.4376  0.5455 -1.6831
 4867TIP3    H236161   1.125   3.081   0.345  1.8150  0.4426 -1.8384
 4868TIP3   OH236162   2.317   4.909   7.603 -0.7443 -0.6807  0.0187
 4868TIP3    H136163   2.383   4.850   7.565 -1.2478 -1.9973  1.1006
 4868TIP3    H236164   2.322   4.987   7.548  0.9107 -1.1774 -0.6413
 4869TIP3   OH236165   2.132   1.744   7.458  0.3033  0.0330  0.4440
 4869TIP3    H136166   2.177   1.672   7.415  1.0141 -0.3789  1.8043
 4869TIP3    H236167   2.106   1.803   7.387 -1.4526 -2.1594 -0.8451
 4870TIP3   OH236168   0.026   0.391   0.161 -0.0027 -0.1346 -0.0474
 4870TIP3    H136169   0.085   0.454   0.119  0.0408 -1.8160 -2.7420
 4870TIP3    H236170  -0.039   0.446   0.205  0.7314  1.8104 -1.2514
 4871TIP3   OH236171   5.651   3.473   0.154 -0.1061 -0.0881  0.1763
 4871TIP3    H136172   5.713   3.534   0.193  2.4832 -1.6617 -1.2226
 4871TIP3    H236173   5.661   3.484   0.060 -2.8378  0.3621 -0.1674
 4872TIP3   OH236174   1.131   4.201   1.855 -0.3770  0.3653  0.3869
 4872TIP3    H136175   1.041   4.180   1.827  0.2422 -0.5166 -1.0438
 4872TIP3    H236176   1.168   4.117   1.881  0.4950  0.4620 -0.4768
 4873TIP3   OH236177   5.039   0.426   1.140  0.0303  0.2783  0.3383
 4873TIP3    H136178   4.952   0.464   1.158 -0.0862  0.0569  0.2468
 4873TIP3    H236179   5.085   0.494   1.091 -1.8314 -1.3702 -4.1701
 4874TIP3   OH236180   1.344   6.746   7.872 -0.4786  0.3025 -0.7615
 4874TIP3    H136181   1.392   6.823   7.842 -0.3547  0.3642 -0.4075
 4874TIP3    H236182   1.404   6.700   7.930 -0.0910 -0.7512 -1.9541
 4875TIP3   OH236183   2.053   5.996   1.991 -0.6556  0.0911  0.1350
 4875TIP3    H136184   2.058   6.055   2.066  0.2455 -0.8508  0.8328
 4875TIP3    H236185   1.963   6.005   1.960 -1.0577  0.4553  1.3591
 4876TIP3   OH236186   4.901   6.361   8.007  0.8598 -0.3840 -0.1733
 4876TIP3    H136187   4.894   6.266   8.018 -1.0750 -0.4746 -1.5701
 4876TIP3    H236188   4.875   6.396   8.092 -2.0163 -1.1418 -0.5997
 4877TIP3   OH236189   5.183   0.890   6.666 -0.6377 -0.1192  0.2116
 4877TIP3    H136190   5.190   0.825   6.737  0.5053  0.9799  1.1518
 4877TIP3    H236191   5.267   0.886   6.621 -0.2286  1.2513  0.7995
 4878TIP3   OH236192   1.646   3.769   1.887  0.0688 -0.3798  0.3978
 4878TIP3    H136193   1.650   3.808   1.799 -1.3088  1.2856  1.0051
 4878TIP3    H236194   1.555   3.740   1.895 -0.5470  1.7846  2.1380
 4879TIP3   OH236195   6.374   5.766   8.215 -0.0007 -0.0997  0.5089
 4879TIP3    H136196   6.319   5.704   8.263  0.8450 -1.4853 -0.2533
 4879TIP3    H236197   6.441   5.712   8.174  1.0501  1.3869  0.1890
 4880TIP3   OH236198   2.174   6.271   6.743 -0.1322 -0.1006  0.1475
 4880TIP3    H136199   2.100   6.221   6.778 -0.6203  1.1270  0.9524
 4880TIP3    H236200   2.136   6.325   6.673  0.4091 -0.9014 -0.7944
 4881TIP3   OH236201   0.387   2.424   8.077  0.2309 -0.3218 -0.1761
 4881TIP3    H136202   0.318   2.378   8.029  1.2861 -3.0897  0.7397
 4881TIP3    H236203   0.444   2.459   8.009  0.7282 -2.6387 -1.0655
 4882TIP3   OH236204   6.386   4.849   1.595 -0.2551  0.4918 -0.1724
 4882TIP3    H136205   6.389   4.942   1.618  0.8713  0.2882  0.5812
 4882TIP3    H236206   6.339   4.808   1.667  1.4246  0.1560  0.7973
 4883TIP3   OH236207   1.263   2.173   2.599 -0.6261  0.2337 -0.0554
 4883TIP3    H136208   1.261   2.160   2.694  1.2311 -0.0362 -0.0195
 4883TIP3    H236209   1.171   2.163   2.572 -1.3250  1.1694  1.7922
 4884TIP3   OH236210   1.988   0.699   7.017  0.6673  0.1429 -0.2637
 4884TIP3    H136211   2.072   0.656   7.001  1.4533  1.5420 -0.0762
 4884TIP3    H236212   2.009   0.793   7.021 -0.8302  0.4906  0.2431
 4885TIP3   OH236213   0.824   5.561   2.008 -0.2209  0.0512 -0.4358
 4885TIP3    H136214   0.900   5.609   1.977 -1.3500  3.6084  1.7435
 4885TIP3    H236215   0.758   5.574   1.940  0.1855 -0.5741 -0.9702
 4886TIP3   OH236216   0.386   0.906   0.153 -0.2380  0.0712  0.2254
 4886TIP3    H136217   0.295   0.915   0.125 -0.2635 -0.6593  0.0394
 4886TIP3    H236218   0.416   0.826   0.109  0.1346 -0.3468  1.2045
 4887TIP3   OH236219   4.480   2.521   7.728 -0.3997  0.3615  0.0054
 4887TIP3    H136220   4.522   2.468   7.795 -0.1297 -2.1126 -1.9755
 4887TIP3    H236221   4.517   2.609   7.741 -0.0727 -0.0977  2.7704
 4888TIP3   OH236222   5.226   0.775   8.495  0.0764  0.5547  0.2598
 4888TIP3    H136223   5.254   0.812   8.411  1.4742  0.2700  0.5704
 4888TIP3    H236224   5.155   0.832   8.524  0.5428  1.5224 -0.4419
 4889TIP3   OH236225   1.267   2.020   8.444 -0.1415 -0.1663  0.3576
 4889TIP3    H136226   1.242   1.968   8.368  0.6829 -0.7484  0.4709
 4889TIP3    H236227   1.356   1.991   8.465 -0.4815 -0.2835  1.7574
 4890TIP3   OH236228   1.791   6.515   0.231 -0.2236  0.4563  0.4008
 4890TIP3    H136229   1.759   6.592   0.185  0.5511  0.3976 -0.2488
 4890TIP3    H236230   1.819   6.455   0.162 -1.4902 -0.7271  0.8592
 4891TIP3   OH236231   4.489   3.707   6.559  1.0571  0.3550 -0.4951
 4891TIP3    H136232   4.524   3.700   6.471  2.5423  2.5944 -0.1844
 4891TIP3    H236233   4.424   3.778   6.554 -0.3207 -0.8385 -0.1612
 4892TIP3   OH236234   5.084   0.635   8.186 -0.3961  0.2079 -0.1296
 4892TIP3    H136235   5.163   0.683   8.160 -0.2694  0.2315  0.2881
 4892TIP3    H236236   5.012   0.683   8.146 -0.2395  0.5031 -0.0570
 4893TIP3   OH236237   1.547   0.309   6.972  0.2375  0.1879 -0.5020
 4893TIP3    H136238   1.580   0.219   6.970  1.1137  0.4901 -2.0622
 4893TIP3    H236239   1.470   0.307   6.916 -0.3789  0.1980  0.3383
 4894TIP3   OH236240   5.831   4.977   7.515 -0.8880 -0.3849 -0.0566
 4894TIP3    H136241   5.918   5.012   7.533  0.2479 -3.0055  0.0741
 4894TIP3    H236242   5.779   5.052   7.488  1.2551  1.3503  0.4123
 4895TIP3   OH236243   3.874   1.210   6.954 -0.2500  0.0302  0.0690
 4895TIP3    H136244   3.898   1.300   6.933 -0.4614  0.5126  1.7693
 4895TIP3    H236245   3.887   1.162   6.872  0.6975  1.4250 -0.6306
 4896TIP3   OH236246   0.991   6.871   0.350 -0.0171 -0.1786  0.1021
 4896TIP3    H136247   1.041   6.913   0.420 -0.4779 -0.8474  0.8411
 4896TIP3    H236248   1.044   6.796   0.324 -1.4183 -2.0303  2.1963
 4897TIP3   OH236249   3.909   2.169   7.140  0.2810 -0.1434  0.3428
 4897TIP3    H136250   3.850   2.094   7.140  0.2585 -0.1431 -0.6178
 4897TIP3    H236251   3.904   2.203   7.051  2.1872 -0.5098  0.0589
 4898TIP3   OH236252   4.038   2.676   6.512 -0.3889  0.2532  0.5016
 4898TIP3    H136253   4.079   2.749   6.558 -0.7661  0.1005  1.0959
 4898TIP3    H236254   4.109   2.615   6.496 -0.3530  0.0194  1.4691
 4899TIP3   OH236255   0.898   3.425   8.238 -0.2498 -0.0126 -0.1493
 4899TIP3    H136256   0.969   3.370   8.206 -0.3945 -0.2963  0.0105
 4899TIP3    H236257   0.935   3.513   8.243 -0.1786  0.0016 -0.9207
 4900TIP3   OH236258   2.716   5.556   6.633  0.0899 -0.5608 -0.5206
 4900TIP3    H136259   2.682   5.553   6.544  0.6932  0.9689 -0.8399
 4900TIP3    H236260   2.664   5.623   6.677 -0.2851 -1.3857  0.3396
 4901TIP3   OH236261   4.202   1.379   0.375  0.4133  0.1049  0.1754
 4901TIP3    H136262   4.260   1.449   0.405 -1.2082  1.7423 -0.3136
 4901TIP3    H236263   4.149   1.357   0.452 -1.0255  1.4867 -0.3758
 4902TIP3   OH236264   2.350   6.569   2.216 -0.0421  0.1330 -0.3267
 4902TIP3    H136265   2.271   6.518   2.232  0.2260 -0.3684 -0.5707
 4902TIP3    H236266   2.382   6.540   2.131  1.0621 -0.5538  0.2886
 4903TIP3   OH236267   0.404   3.988   7.469 -0.2565 -0.2150  0.1630
 4903TIP3    H136268   0.326   3.951   7.510 -1.0518 -2.3074 -2.9103
 4903TIP3    H236269   0.371   4.065   7.422  0.3665  1.2630  2.0306
 4904TIP3   OH236270   1.290   5.552   1.868  0.2983 -0.1436 -0.0307
 4904TIP3    H136271   1.294   5.491   1.794  1.4151  0.7799 -0.7559
 4904TIP3    H236272   1.365   5.528   1.922 -1.7519 -2.3145  2.0750
 4905TIP3   OH236273   0.212   3.077   7.168 -1.2665  0.2252  0.2258
 4905TIP3    H136274   0.186   3.017   7.098  3.6259 -0.3570 -1.4965
 4905TIP3    H236275   0.207   3.164   7.127 -0.7890  0.1440 -0.0091
 4906TIP3   OH236276   3.570   3.184   7.372  0.2877 -0.0415 -0.1878
 4906TIP3    H136277   3.508   3.161   7.303 -1.2298  1.0381  0.7762
 4906TIP3    H236278   3.532   3.147   7.451  1.5253 -0.4258  0.2464
 4907TIP3   OH236279   5.547   4.999   0.991  0.1463 -0.0787 -0.4435
 4907TIP3    H136280   5.606   5.044   0.932  0.1387 -0.9982 -1.1734
 4907TIP3    H236281   5.597   4.988   1.072  0.3276  0.7490 -0.4404
 4908TIP3   OH236282   4.336   1.161   6.966 -0.3993 -0.2571  0.5062
 4908TIP3    H136283   4.248   1.154   7.003 -1.9207  2.5303 -2.1347
 4908TIP3    H236284   4.329   1.118   6.881  1.1289 -0.8245  0.6404
 4909TIP3   OH236285   3.612   5.203   0.445  0.2803 -0.0844 -0.1052
 4909TIP3    H136286   3.682   5.228   0.505 -0.3196 -0.4703  0.7646
 4909TIP3    H236287   3.552   5.277   0.445  0.2908 -0.0753 -0.2510
 4910TIP3   OH236288   0.765   0.795   1.180  0.5001  0.2968 -0.3101
 4910TIP3    H136289   0.833   0.795   1.248 -0.1417  0.2610  0.3538
 4910TIP3    H236290   0.736   0.886   1.176 -0.6533  0.0089  0.7184
 4911TIP3   OH236291   6.109   3.736   8.526  0.1084  0.2563 -0.4478
 4911TIP3    H136292   6.106   3.658   8.582 -1.2162  0.6303  0.0329
 4911TIP3    H236293   6.153   3.802   8.580  1.7502 -0.2773 -1.0600
 4912TIP3   OH236294   5.352   1.458   2.176  0.0699  0.0275 -0.2975
 4912TIP3    H136295   5.432   1.480   2.225 -0.0194  0.7379 -0.4542
 4912TIP3    H236296   5.361   1.365   2.155  0.3928 -0.1379  0.5439
 4913TIP3   OH236297   6.609   3.069   8.355  0.1206  0.0421 -0.0311
 4913TIP3    H136298   6.651   3.010   8.292  0.5225  1.2662 -0.9343
 4913TIP3    H236299   6.522   3.086   8.317  0.8443  1.8269 -0.9679
 4914TIP3   OH236300   6.496   6.191   1.251 -0.4696  0.0122 -0.1192
 4914TIP3    H136301   6.497   6.286   1.256 -0.5032  0.1519 -1.9647
 4914TIP3    H236302   6.542   6.171   1.170 -0.8682 -1.5301  0.0025
 4915TIP3   OH236303   3.837   1.812   1.004  0.5123  0.3716 -0.0328
 4915TIP3    H136304   3.766   1.868   1.036 -1.5991 -2.6008  0.8486
 4915TIP3    H236305   3.805   1.778   0.921  1.4060 -0.1422 -0.1761
 4916TIP3   OH236306   5.338   2.003   0.800  0.1472  0.4320  0.0119
 4916TIP3    H136307   5.246   1.990   0.821 -0.3315  0.2159 -2.0549
 4916TIP3    H236308   5.377   2.033   0.883 -1.5251 -0.5444  1.2163
 4917TIP3   OH236309   1.109   4.781   0.964  0.2210  0.4276  0.4174
 4917TIP3    H136310   1.026   4.785   0.916 -0.1260 -0.8085  0.8777
 4917TIP3    H236311   1.152   4.865   0.945 -0.6106  0.6124 -0.7596
 4918TIP3   OH236312   2.511   6.399   7.647 -0.6591 -0.4350  0.3192
 4918TIP3    H136313   2.526   6.329   7.711 -0.5293 -0.7796 -0.0860
 4918TIP3    H236314   2.460   6.464   7.695  0.3540 -0.2002  1.0884
 4919TIP3   OH236315   4.495   0.451   0.740 -0.2871 -0.1153 -0.1375
 4919TIP3    H136316   4.577   0.427   0.781 -0.2970 -0.5123 -0.3470
 4919TIP3    H236317   4.456   0.515   0.799 -0.3764 -0.7947  0.5465
 4920TIP3   OH236318   6.358   0.365   7.035 -0.0570  0.1606 -0.1575
 4920TIP3    H136319   6.286   0.333   6.980 -0.5587  1.5856 -0.3693
 4920TIP3    H236320   6.436   0.321   7.000 -0.6983 -0.7668 -0.4620
 4921TIP3   OH236321   5.599   0.320   8.492  0.0834 -0.0042 -0.2923
 4921TIP3    H136322   5.585   0.408   8.456 -0.1388  0.3513  0.6554
 4921TIP3    H236323   5.524   0.269   8.460 -1.4797  0.9447  1.6627
 4922TIP3   OH236324   4.469   0.096   1.686  0.1174  0.3855  0.5868
 4922TIP3    H136325   4.390   0.046   1.665 -0.0597  1.1753 -0.8278
 4922TIP3    H236326   4.510   0.049   1.758 -1.5580 -0.1391  1.2537
 4923TIP3   OH236327   5.056   2.443   1.009  0.7727 -0.2341  0.5529
 4923TIP3    H136328   5.129   2.504   0.995  0.2928  0.4309  0.8566
 4923TIP3    H236329   5.020   2.468   1.094  0.5095 -0.8943  0.6397
 4924TIP3   OH236330   1.927   3.772   1.716 -0.2853 -0.3863  0.1639
 4924TIP3    H136331   1.922   3.677   1.705  0.0649 -0.5768  1.5105
 4924TIP3    H236332   1.851   3.806   1.670 -0.5844 -1.3420 -0.0637
 4925TIP3   OH236333   2.160   1.293   7.259 -0.0188 -0.4325 -0.4183
 4925TIP3    H136334   2.097   1.294   7.188  0.0116 -1.0132 -0.4623
 4925TIP3    H236335   2.238   1.250   7.222  0.3795  0.2077 -0.3445
 4926TIP3   OH236336   6.284   1.892   6.965 -0.3877 -0.0786 -0.1855
 4926TIP3    H136337   6.211   1.831   6.955 -0.8798  0.6308 -1.0876
 4926TIP3    H236338   6.268   1.936   7.048  0.1913 -1.4273  0.6794
 4927TIP3   OH236339   1.107   6.678   2.199 -0.4088  0.3443  0.4311
 4927TIP3    H136340   1.104   6.763   2.154  1.0998 -0.5889 -1.6168
 4927TIP3    H236341   1.016   6.654   2.211 -0.9085  0.9298 -1.7106
 4928TIP3   OH236342   4.858   2.437   7.454  0.4519  0.0907  0.0044
 4928TIP3    H136343   4.952   2.418   7.448  0.2506 -1.1207  0.4721
 4928TIP3    H236344   4.852   2.510   7.515  1.0712  0.0122  0.1617
 4929TIP3   OH236345   3.531   2.956   6.523 -0.5857  0.0770  0.3324
 4929TIP3    H136346   3.474   2.968   6.447 -0.3179  0.5031  0.1954
 4929TIP3    H236347   3.558   2.865   6.519  0.1644  0.3204 -0.6171
 4930TIP3   OH236348   2.903   4.284   2.748  0.1183 -0.0925 -0.2877
 4930TIP3    H136349   2.849   4.324   2.680  0.1731 -0.4890 -0.5672
 4930TIP3    H236350   2.881   4.191   2.745  0.0442 -0.0939  0.3134
 4931TIP3   OH236351   4.227   6.295   0.989 -0.3339 -0.1736 -0.6046
 4931TIP3    H136352   4.286   6.230   0.952 -0.2984  0.0595 -0.9673
 4931TIP3    H236353   4.142   6.277   0.949  0.0723  1.1604 -2.1751
 4932TIP3   OH236354   5.830   2.671   8.286  0.0712 -0.4347 -0.5290
 4932TIP3    H136355   5.769   2.720   8.341  2.1412  1.4968  0.1908
 4932TIP3    H236356   5.817   2.579   8.311 -1.2002  0.1094  0.9233
 4933TIP3   OH236357   2.794   1.134   0.451  0.0504  1.2812  0.4475
 4933TIP3    H136358   2.727   1.173   0.508  0.6717  3.0945  0.0274
 4933TIP3    H236359   2.751   1.060   0.409 -2.1190  3.0996 -0.7488
 4934TIP3   OH236360   3.157   2.092   1.800  0.5345 -0.1698 -0.2315
 4934TIP3    H136361   3.086   2.102   1.736  0.9132  1.3385 -0.4447
 4934TIP3    H236362   3.116   2.049   1.875  0.1073 -2.1240 -1.5094
 4935TIP3   OH236363   4.458   3.424   7.786  0.2348 -0.5850  0.0609
 4935TIP3    H136364   4.392   3.487   7.816  1.5370  1.3778 -1.0176
 4935TIP3    H236365   4.495   3.388   7.866  1.1719  1.9120  0.8461
 4936TIP3   OH236366   5.843   1.446   7.822  0.7657  0.3302 -0.2340
 4936TIP3    H136367   5.810   1.449   7.732  0.9607 -1.5455 -0.4074
 4936TIP3    H236368   5.821   1.532   7.858 -1.4357  0.3192 -1.3439
 4937TIP3   OH236369   0.457   6.130   0.572 -0.4481 -0.0670  0.2619
 4937TIP3    H136370   0.402   6.051   0.574 -1.0182  0.3460  2.1619
 4937TIP3    H236371   0.466   6.156   0.664  0.4303  1.6198 -0.2621
 4938TIP3   OH236372   2.724   4.692   2.155 -0.0098 -0.2558 -0.1676
 4938TIP3    H136373   2.692   4.743   2.230  0.2890  1.0139 -0.8878
 4938TIP3    H236374   2.794   4.745   2.118 -0.0364 -0.9581 -1.2563
 4939TIP3   OH236375   0.103   1.101   1.146  0.1097  0.2698 -0.0671
 4939TIP3    H136376   0.124   1.012   1.119  0.3100  0.6395 -1.1933
 4939TIP3    H236377   0.010   1.098   1.169 -0.0461 -0.0930 -0.7233
 4940TIP3   OH236378   4.506   2.896   1.651 -0.8707 -0.2913 -0.5815
 4940TIP3    H136379   4.520   2.804   1.672  1.0465  0.0709 -0.0902
 4940TIP3    H236380   4.493   2.939   1.735 -0.6044  0.0658 -0.7217
 4941TIP3   OH236381   0.648   3.017   2.956 -0.2949  0.1841  0.1924
 4941TIP3    H136382   0.686   2.946   2.904 -1.0998  0.5322 -0.9035
 4941TIP3    H236383   0.555   2.997   2.962 -0.6703  1.4827 -0.7502
 4942TIP3   OH236384   4.898   6.714   0.423 -0.3076 -0.2857 -0.0409
 4942TIP3    H136385   4.895   6.728   0.329 -0.6017  1.2689  0.1784
 4942TIP3    H236386   4.813   6.675   0.444 -0.6742  0.3714 -0.2816
 4943TIP3   OH236387   2.248   5.754   8.038  0.0334 -0.1763  0.4850
 4943TIP3    H136388   2.294   5.670   8.039  0.0080 -0.1927  0.3283
 4943TIP3    H236389   2.314   5.818   8.063  0.6789  0.0601 -1.6346
 4944TIP3   OH236390   1.394   3.015   6.808  0.3460  0.1708  0.0331
 4944TIP3    H136391   1.359   3.034   6.720  1.6481 -1.0548 -0.7939
 4944TIP3    H236392   1.382   2.921   6.818  0.3037  0.2846  1.1612
 4945TIP3   OH236393   1.919   4.072   7.343  0.1847  0.2862 -0.0024
 4945TIP3    H136394   1.880   4.056   7.429  0.3969  1.5956  0.3639
 4945TIP3    H236395   1.879   4.154   7.314  1.3600  0.7236 -0.4068
 4946TIP3   OH236396   0.970   1.812   0.395  0.5145  0.5733  0.0436
 4946TIP3    H136397   1.024   1.830   0.318 -0.1304  0.5368 -0.4230
 4946TIP3    H236398   1.032   1.813   0.468  1.0202  1.3553 -0.3766
 4947TIP3   OH236399   0.259   1.527   8.529 -0.5967 -0.2759  0.2004
 4947TIP3    H136400   0.352   1.547   8.522 -0.3313 -0.9701  1.3808
 4947TIP3    H236401   0.215   1.606   8.498  0.3972  0.4511  0.5897
 4948TIP3   OH236402   1.351   0.436   1.916 -0.4271 -0.5365 -0.1144
 4948TIP3    H136403   1.326   0.423   1.825 -1.2217  0.0947 -0.0017
 4948TIP3    H236404   1.408   0.513   1.915 -1.2187  0.0683  0.0218
 4949TIP3   OH236405   1.898   4.779   0.818 -0.3249 -0.3507  0.2397
 4949TIP3    H136406   1.848   4.752   0.741  0.8980  0.2656 -0.8138
 4949TIP3    H236407   1.929   4.697   0.857 -0.9787 -0.6686  0.1002
 4950TIP3   OH236408   5.519   3.456   1.735 -0.3896 -0.1017  0.1786
 4950TIP3    H136409   5.459   3.523   1.768 -0.9352 -1.0693  1.2409
 4950TIP3    H236410   5.592   3.458   1.797  0.7095  1.0777 -1.1150
 4951TIP3   OH236411   1.453   3.497   1.114 -0.3343  0.1729  0.2289
 4951TIP3    H136412   1.469   3.406   1.089  1.6910  0.0863  1.5981
 4951TIP3    H236413   1.515   3.548   1.060 -0.3443  0.5886  0.6041
 4952TIP3   OH236414   3.487   1.159   7.970  0.2013 -0.0762  0.6852
 4952TIP3    H136415   3.450   1.187   8.053  0.3049 -0.8212  0.9887
 4952TIP3    H236416   3.416   1.109   7.928 -0.5598  1.9139 -0.5694
 4953TIP3   OH236417   5.772   5.050   0.834  0.1644  0.5959  0.5083
 4953TIP3    H136418   5.755   4.977   0.774  1.8969  0.9964 -0.5382
 4953TIP3    H236419   5.855   5.027   0.876 -0.5194  0.8178  2.0052
 4954TIP3   OH236420   4.287   4.978   0.617 -0.2985 -0.3276 -0.0432
 4954TIP3    H136421   4.239   5.060   0.632 -0.7772 -0.3422 -1.3908
 4954TIP3    H236422   4.342   4.997   0.540  1.3829 -0.5178  1.0646
 4955TIP3   OH236423   0.922   2.296   2.086  0.4795 -0.3719 -0.2543
 4955TIP3    H136424   0.872   2.297   2.004  1.9114  0.0167 -1.1725
 4955TIP3    H236425   0.886   2.368   2.137  1.2245  1.0690 -1.6447
 4956TIP3   OH236426   5.036   0.161   1.109  0.3734 -0.3875  0.7855
 4956TIP3    H136427   5.039   0.257   1.105  0.2113 -0.3882  0.6108
 4956TIP3    H236428   5.072   0.133   1.025  0.0436 -0.4723  0.6708
 4957TIP3   OH236429   4.918   6.106   8.115 -0.2133 -0.1615 -0.2646
 4957TIP3    H136430   4.980   6.034   8.105  0.8765  0.2434  2.6077
 4957TIP3    H236431   4.928   6.134   8.206 -2.6843  1.7443 -0.4622
 4958TIP3   OH236432   3.827   1.454   6.565 -0.2232 -0.2523 -0.4673
 4958TIP3    H136433   3.862   1.531   6.521 -0.0582 -0.7234 -1.1764
 4958TIP3    H236434   3.885   1.383   6.538  0.7191 -0.3514  1.5790
 4959TIP3   OH236435   5.780   1.085   8.428 -0.4255  0.0062 -0.4390
 4959TIP3    H136436   5.712   1.061   8.365 -0.2027  1.8716 -1.4573
 4959TIP3    H236437   5.733   1.132   8.497 -0.5698 -1.4303  0.4740
 4960TIP3   OH236438   0.066   3.363   0.423 -0.0965 -0.3045 -0.5218
 4960TIP3    H136439   0.131   3.293   0.434  0.1641  0.1876  1.4753
 4960TIP3    H236440   0.019   3.365   0.507  0.3091  2.3189 -0.2755
 4961TIP3   OH236441   3.382   0.223   8.414  0.1731  0.1552  0.1920
 4961TIP3    H136442   3.467   0.201   8.452  0.7480 -0.5016 -1.3944
 4961TIP3    H236443   3.378   0.319   8.418  0.9204  0.1833  0.4259
 4962TIP3   OH236444   2.154   0.240   1.399  0.6847 -0.2054 -0.4923
 4962TIP3    H136445   2.208   0.161   1.392 -0.2585 -0.8622 -0.5240
 4962TIP3    H236446   2.124   0.241   1.489  1.9590  0.9954 -0.0398
 4963TIP3   OH236447   1.531   2.071   7.709  0.0681 -0.1496 -0.1732
 4963TIP3    H136448   1.461   2.048   7.771 -0.4495  0.4204 -0.5301
 4963TIP3    H236449   1.494   2.049   7.623  1.1848 -1.9749 -0.2514
 4964TIP3   OH236450   3.055   3.124   7.669  0.2872  0.3552 -0.2680
 4964TIP3    H136451   3.119   3.116   7.599  2.3865  4.0751  0.9421
 4964TIP3    H236452   3.001   3.199   7.643 -0.9669 -0.1705  0.6792
 4965TIP3   OH236453   3.072   4.156   1.327 -0.1726  0.6938  0.6865
 4965TIP3    H136454   3.121   4.102   1.388 -0.2416 -0.9297 -0.6298
 4965TIP3    H236455   2.981   4.125   1.335  0.0403 -0.6217 -1.2469
 4966TIP3   OH236456   5.090   4.079   7.346  0.2884 -0.1835  0.0935
 4966TIP3    H136457   5.055   4.044   7.428 -2.2536  3.0036  0.5525
 4966TIP3    H236458   5.100   4.002   7.290 -1.4307 -2.0594  2.1634
 4967TIP3   OH236459   6.073   0.044   7.738 -0.2022 -0.2801  0.0851
 4967TIP3    H136460   6.148   0.100   7.717 -0.2664 -0.5741 -1.0281
 4967TIP3    H236461   6.112  -0.034   7.778 -0.2188  1.1740  3.2158
 4968TIP3   OH236462   6.335   2.109   1.241  0.0353  0.0937 -0.1535
 4968TIP3    H136463   6.248   2.088   1.276 -0.0698 -1.2202 -1.1599
 4968TIP3    H236464   6.383   2.026   1.243  0.2079  0.0654 -2.5669
 4969TIP3   OH236465   1.607   5.969   6.765 -0.4444  0.1499  0.2747
 4969TIP3    H136466   1.560   5.981   6.848  0.8758  0.1802  1.0338
 4969TIP3    H236467   1.605   6.055   6.724 -3.7873 -0.4932 -1.2555
 4970TIP3   OH236468   1.219   5.668   0.677 -0.4084 -0.5048 -0.3421
 4970TIP3    H136469   1.191   5.751   0.640  0.2194 -0.0174  0.2466
 4970TIP3    H236470   1.188   5.671   0.768 -1.0781 -1.2616 -0.5377
 4971TIP3   OH236471   1.647   6.624   7.632 -0.0422  0.0847  0.2532
 4971TIP3    H136472   1.670   6.554   7.571 -0.8480  0.3904 -0.4219
 4971TIP3    H236473   1.716   6.623   7.698  0.5027 -0.6659 -0.3226
 4972TIP3   OH236474   0.197   1.206   1.386  0.4678 -0.0028  0.3134
 4972TIP3    H136475   0.108   1.227   1.417  0.1527  1.0265 -1.2008
 4972TIP3    H236476   0.183   1.152   1.308  1.1793 -0.0900  0.2427
 4973TIP3   OH236477   1.156   5.986   1.917  0.2323  0.1371 -0.3955
 4973TIP3    H136478   1.135   5.956   1.828  1.5985  1.3748 -1.1981
 4973TIP3    H236479   1.223   5.925   1.947  1.4300  1.0252 -1.1629
 4974TIP3   OH236480   2.988   5.090   7.748 -0.7785  0.1204  0.0003
 4974TIP3    H136481   3.010   5.065   7.658 -0.1156  0.3436  0.0931
 4974TIP3    H236482   2.976   5.185   7.744  1.5205  0.5031  0.5552
 4975TIP3   OH236483   1.847   5.429   7.694 -0.1296 -0.3410  0.3298
 4975TIP3    H136484   1.849   5.433   7.598 -0.5300  3.4461  0.2992
 4975TIP3    H236485   1.767   5.477   7.718  0.0227 -1.1036  2.5843
 4976TIP3   OH236486   6.836   4.897   0.466 -0.1684  0.8277  0.1420
 4976TIP3    H136487   6.925   4.908   0.500  0.1579  0.8345 -0.7093
 4976TIP3    H236488   6.844   4.905   0.371 -0.7974 -1.0092 -0.1038
 4977TIP3   OH236489   4.950   3.078   1.292 -0.0302  0.2111  0.1432
 4977TIP3    H136490   4.993   3.103   1.374 -1.1534  0.1758  0.7662
 4977TIP3    H236491   5.015   3.025   1.246  0.7309  0.4960  0.8758
 4978TIP3   OH236492   2.160   3.310   1.796  0.0994 -0.0588  0.3431
 4978TIP3    H136493   2.183   3.372   1.727 -0.7774  1.9137  1.7319
 4978TIP3    H236494   2.234   3.249   1.799 -0.2437 -0.8307 -2.9123
 4979TIP3   OH236495   0.578   5.300   1.571  0.7719  0.4061  0.4173
 4979TIP3    H136496   0.603   5.209   1.586  0.0098 -0.1473 -1.4383
 4979TIP3    H236497   0.493   5.309   1.615  0.4610 -0.0184 -0.0951
 4980TIP3   OH236498   3.352   3.894   6.250 -0.5154  0.1770 -0.3275
 4980TIP3    H136499   3.413   3.958   6.215 -1.3030  1.2166  0.1250
 4980TIP3    H236500   3.395   3.810   6.238  1.2984  0.9222  0.6157
 4981TIP3   OH236501   6.285   3.904   0.523 -0.5059  0.1476 -0.0632
 4981TIP3    H136502   6.221   3.922   0.455 -2.5361 -1.6934  1.2271
 4981TIP3    H236503   6.341   3.982   0.525 -2.4243  1.6601 -1.5291
 4982TIP3   OH236504   5.725   0.104   1.475  0.5326  0.5691 -0.1930
 4982TIP3    H136505   5.630   0.114   1.472  0.6533  2.2149  0.3555
 4982TIP3    H236506   5.758   0.178   1.425  1.5384  0.2902  0.0408
 4983TIP3   OH236507   0.756   4.512   8.420 -0.3051  0.0720  0.7321
 4983TIP3    H136508   0.695   4.439   8.408  0.6193 -1.0173  2.3029
 4983TIP3    H236509   0.842   4.472   8.415  0.2445  1.2321  0.6904
 4984TIP3   OH236510   5.140   3.668   2.484 -0.3100 -0.2718  0.1949
 4984TIP3    H136511   5.091   3.604   2.536  0.7007 -1.5248 -0.3431
 4984TIP3    H236512   5.089   3.676   2.403 -0.7663  0.0866  0.5108
 4985TIP3   OH236513   0.562   5.740   1.556  0.0918  0.1865 -0.0280
 4985TIP3    H136514   0.474   5.709   1.576 -0.1393  0.7103 -0.2300
 4985TIP3    H236515   0.576   5.715   1.465  0.7784 -1.3394  0.4614
 4986TIP3   OH236516   5.761   4.298   7.790 -0.0440  0.4844  0.2123
 4986TIP3    H136517   5.825   4.336   7.729  0.8306 -0.2031  0.6839
 4986TIP3    H236518   5.778   4.204   7.788 -1.0039  0.2913  0.4082
 4987TIP3   OH236519   2.956   0.958   7.344  0.0475  0.1634 -0.2124
 4987TIP3    H136520   2.983   1.021   7.277  1.3866 -0.2431 -0.0775
 4987TIP3    H236521   2.874   0.921   7.310 -0.0480  0.9881 -0.9275
 4988TIP3   OH236522   1.433   3.609   6.344  0.3943  0.3340  0.1866
 4988TIP3    H136523   1.438   3.675   6.414 -1.2657 -1.4375  2.1417
 4988TIP3    H236524   1.504   3.548   6.364  1.2811  0.9409 -1.0133
 4989TIP3   OH236525   5.069   2.994   6.693  0.3925  0.1278  0.0045
 4989TIP3    H136526   5.015   2.955   6.624  0.6389  2.8321 -1.8756
 4989TIP3    H236527   5.145   2.936   6.700  0.8970  0.2992 -2.8282
 4990TIP3   OH236528   2.940   2.345   7.489 -0.0168  0.0499 -0.1020
 4990TIP3    H136529   2.989   2.415   7.447 -0.7052  0.2686 -0.5490
 4990TIP3    H236530   2.909   2.291   7.417 -0.8591  0.1978  0.1417
 4991TIP3   OH236531   2.312   2.431   1.472  0.9152  0.3799 -0.1934
 4991TIP3    H136532   2.286   2.520   1.493  1.3081  0.4243  0.1309
 4991TIP3    H236533   2.230   2.384   1.457  0.7430  1.0376 -1.3861
 4992TIP3   OH236534   4.642   3.156   0.705  0.2163  0.2695 -0.4753
 4992TIP3    H136535   4.555   3.196   0.705  0.4129  0.7537  1.1062
 4992TIP3    H236536   4.677   3.176   0.618 -0.8814  0.8939 -0.7980
 4993TIP3   OH236537   5.356   3.213   8.118  0.1811 -0.1950  0.3729
 4993TIP3    H136538   5.363   3.123   8.148 -1.8389 -0.5934 -0.1462
 4993TIP3    H236539   5.306   3.207   8.036  1.2564  1.2769 -0.4383
 4994TIP3   OH236540   0.653   5.614   2.636 -0.6255 -0.3017 -0.4779
 4994TIP3    H136541   0.654   5.524   2.604 -0.1258  0.1094 -1.6642
 4994TIP3    H236542   0.568   5.623   2.680 -1.0034 -1.1206 -1.0158
 4995TIP3   OH236543   1.094   1.782   6.957 -0.2752 -0.2135 -0.2785
 4995TIP3    H136544   1.142   1.851   6.912 -1.6215  1.9088  1.3217
 4995TIP3    H236545   1.158   1.742   7.015 -0.1224  2.1333  1.3453
 4996TIP3   OH236546   0.501   6.060   0.189 -0.0875 -0.1499 -0.5026
 4996TIP3    H136547   0.529   6.026   0.103 -2.5222  1.6146 -2.1164
 4996TIP3    H236548   0.580   6.101   0.225  1.4138 -2.3615 -1.0732
 4997TIP3   OH236549   5.483   6.619   8.288  0.0473  0.0914  0.3380
 4997TIP3    H136550   5.430   6.634   8.210 -0.7127  0.4147  0.9022
 4997TIP3    H236551   5.488   6.704   8.330 -2.6208 -0.6798  2.5230
 4998TIP3   OH236552   2.657   3.649   0.078  0.6505  0.2816  0.7839
 4998TIP3    H136553   2.574   3.602   0.078  0.5979  0.3715  0.5851
 4998TIP3    H236554   2.632   3.741   0.082  0.6875  0.3801 -0.7419
 4999TIP3   OH236555   3.798   5.993   0.640 -0.1741  0.6382  0.5185
 4999TIP3    H136556   3.804   5.916   0.696 -2.4416  0.2022  0.2351
 4999TIP3    H236557   3.879   5.991   0.588  0.4915 -0.6995  1.5454
 5000TIP3   OH236558   0.669   0.891   8.423  0.2042  0.4134 -0.0739
 5000TIP3    H136559   0.621   0.973   8.411 -2.7036 -1.2222 -0.8631
 5000TIP3    H236560   0.747   0.900   8.369  0.2664  2.8401  0.3427
 5001TIP3   OH236561   1.906   2.368   7.642  0.3848 -0.2961 -0.6071
 5001TIP3    H136562   1.994   2.333   7.631  0.1545 -1.7907  1.5629
 5001TIP3    H236563   1.859   2.343   7.563  0.8973 -2.9570 -0.1492
 5002TIP3   OH236564   0.541   1.821   6.803 -0.4816 -0.0121 -0.3004
 5002TIP3    H136565   0.567   1.912   6.816  0.8547 -0.2790 -0.8947
 5002TIP3    H236566   0.612   1.783   6.749 -1.9902 -0.8773 -1.7722
 5003TIP3   OH236567   4.940   2.428   8.582 -0.1294 -0.1075  0.0449
 5003TIP3    H136568   4.933   2.336   8.556 -1.4721  0.1515 -0.5841
 5003TIP3    H236569   5.009   2.429   8.648 -0.9370 -1.7678  0.9674
 5004TIP3   OH236570   0.753   3.400   7.553 -0.4003  0.3454  0.1658
 5004TIP3    H136571   0.723   3.419   7.464 -0.3767 -0.2369  0.0345
 5004TIP3    H236572   0.844   3.373   7.542 -0.4940 -0.0407  0.3352
 5005TIP3   OH236573   3.356   0.683   0.620  0.3575 -0.4368 -0.0270
 5005TIP3    H136574   3.337   0.708   0.710 -0.0384 -1.4507  0.1869
 5005TIP3    H236575   3.451   0.672   0.618  0.5267  0.8372 -0.0835
 5006TIP3   OH236576   0.820   6.000   8.375 -0.1824 -0.0702  0.0758
 5006TIP3    H136577   0.804   5.907   8.388 -2.2313  0.0657 -1.1343
 5006TIP3    H236578   0.900   6.003   8.322  0.4082 -1.0846  0.8794
 5007TIP3   OH236579   3.814   0.993   1.464 -0.2270  0.5631 -0.1900
 5007TIP3    H136580   3.835   1.018   1.554  0.7458 -0.0135 -0.2443
 5007TIP3    H236581   3.811   0.897   1.466  2.3968  0.3832 -1.2869
 5008TIP3   OH236582   2.365   0.648   7.271  0.3722 -0.5837 -0.0139
 5008TIP3    H136583   2.435   0.659   7.336  1.4602 -1.2449 -1.0350
 5008TIP3    H236584   2.409   0.613   7.194 -0.7210  0.9759 -1.4252
 5009TIP3   OH236585   2.797   2.140   7.363  0.1693  0.4922  0.3652
 5009TIP3    H136586   2.782   2.074   7.431 -0.4630  0.1860 -0.0609
 5009TIP3    H236587   2.736   2.116   7.293 -0.4289  1.8326  0.4131
 5010TIP3   OH236588   0.900   3.273   7.296 -0.1194 -0.9395  0.5821
 5010TIP3    H136589   0.899   3.186   7.255  1.5150 -0.5009 -0.4677
 5010TIP3    H236590   0.990   3.283   7.327 -0.0697  0.7087 -0.0394
 5011TIP3   OH236591   2.259   2.738   2.322 -0.4581  0.2233 -0.3485
 5011TIP3    H136592   2.189   2.674   2.311 -0.1457  0.0438 -1.3384
 5011TIP3    H236593   2.337   2.686   2.339  0.1940  0.1667 -3.0492
 5012TIP3   OH236594   0.991   3.925   0.808  0.6397  0.6560  0.1338
 5012TIP3    H136595   0.971   3.926   0.902 -1.1732  0.3145 -0.2059
 5012TIP3    H236596   1.073   3.974   0.800  0.7248  0.8601  1.8649
 5013TIP3   OH236597   5.248   0.500   1.974  0.0398 -0.1992 -0.8391
 5013TIP3    H136598   5.173   0.495   2.034 -0.9741  2.8924 -1.6856
 5013TIP3    H236599   5.311   0.557   2.018  0.2064  0.3561 -1.7680
 5014TIP3   OH236600   1.958   5.931   0.674 -0.7590  0.4834 -0.4993
 5014TIP3    H136601   1.911   5.849   0.657  1.4214 -0.8786 -0.3971
 5014TIP3    H236602   1.914   5.968   0.750 -1.6524 -0.7437 -0.3912
 5015TIP3   OH236603   5.424   1.654   0.909 -0.5119 -0.2615 -0.4177
 5015TIP3    H136604   5.332   1.628   0.911 -0.6004  0.0626  0.9564
 5015TIP3    H236605   5.421   1.750   0.911 -0.1702 -0.2514  0.8167
 5016TIP3   OH236606   4.799   0.759   7.742 -0.4917 -0.3455 -0.2766
 5016TIP3    H136607   4.828   0.845   7.712 -0.5987 -0.2257 -0.0374
 5016TIP3    H236608   4.771   0.714   7.662  1.8507 -1.0594 -0.7749
 5017TIP3   OH236609   2.038   4.450   1.809 -0.5474  0.3783  0.3025
 5017TIP3    H136610   1.987   4.389   1.862 -1.5722 -0.7073 -1.8092
 5017TIP3    H236611   2.020   4.423   1.719  1.7852  1.5957 -0.5867
 5018TIP3   OH236612   0.594   2.076   8.496  0.3265 -0.0887  0.0749
 5018TIP3    H136613   0.652   2.015   8.540 -0.6894 -1.5895 -0.5666
 5018TIP3    H236614   0.519   2.086   8.556 -0.6526 -1.4570 -0.8540
 5019TIP3   OH236615   2.433   3.313   1.234  0.3101 -0.8025  0.1409
 5019TIP3    H136616   2.516   3.287   1.193 -0.0375 -1.5130 -0.1310
 5019TIP3    H236617   2.366   3.284   1.173 -0.1305  0.1498  0.1613
 5020TIP3   OH236618   4.845   6.875   7.383  0.1003 -0.3400 -0.6411
 5020TIP3    H136619   4.915   6.932   7.416 -0.8188  1.2395 -1.2994
 5020TIP3    H236620   4.878   6.843   7.300  0.6840 -0.9156 -0.2025
 5021TIP3   OH236621   6.087   1.906   7.827  0.2519 -0.1410 -0.0297
 5021TIP3    H136622   6.124   1.823   7.857  1.9700  0.5224 -0.1759
 5021TIP3    H236623   6.037   1.883   7.749  1.6104 -0.9070 -0.7084
 5022TIP3   OH236624   1.225   1.032   0.154 -0.2522 -0.0537 -0.0551
 5022TIP3    H136625   1.291   1.062   0.091  1.1748 -1.6115  0.6144
 5022TIP3    H236626   1.161   0.984   0.102 -1.0238  1.6474 -0.7444
 5023TIP3   OH236627   2.073   0.592   8.216  0.3889  0.1190 -0.0233
 5023TIP3    H136628   2.128   0.658   8.173 -0.4629  0.8726  0.0191
 5023TIP3    H236629   2.034   0.637   8.291  1.0406 -0.8954  0.9560
 5024TIP3   OH236630   1.345   4.149   0.356  0.3594 -0.1317  0.1829
 5024TIP3    H136631   1.415   4.214   0.352  0.8173 -0.6718 -1.6818
 5024TIP3    H236632   1.270   4.192   0.313  0.0451 -0.1241  0.7340
 5025TIP3   OH236633   5.791   5.823   1.781 -0.6370  0.0802 -0.1209
 5025TIP3    H136634   5.866   5.880   1.763 -0.2999 -0.1771  0.4316
 5025TIP3    H236635   5.802   5.749   1.722  0.5728 -0.8580  1.2026
 5026TIP3   OH236636   5.034   0.564   6.626  0.6980 -0.0311  0.0264
 5026TIP3    H136637   5.041   0.475   6.659 -0.4160 -0.4221 -0.7324
 5026TIP3    H236638   5.120   0.583   6.588  0.8303 -0.9118 -0.1274
 5027TIP3   OH236639   2.738   1.436   6.929  0.6578  0.1113  0.0367
 5027TIP3    H136640   2.654   1.401   6.899 -0.7048  1.0284  2.4713
 5027TIP3    H236641   2.794   1.360   6.940 -0.3367 -0.6779 -0.2819
 5028TIP3   OH236642   1.354   3.183   0.139  0.1265 -0.8134  0.3306
 5028TIP3    H136643   1.342   3.088   0.148 -2.1048 -0.5623  0.4808
 5028TIP3    H236644   1.355   3.198   0.045  1.4004 -1.0505  0.2854
 5029TIP3   OH236645   4.073   6.186   7.702 -0.1566  0.0952 -0.3563
 5029TIP3    H136646   4.031   6.263   7.663  1.1513  0.9566 -0.1219
 5029TIP3    H236647   4.154   6.219   7.740 -0.2664 -1.1373  1.0692
 5030TIP3   OH236648   5.875   2.983   1.901  0.4187  0.4465 -0.5060
 5030TIP3    H136649   5.803   2.934   1.943  0.5402  1.9837  1.6505
 5030TIP3    H236650   5.835   3.066   1.875  1.2790  1.1453  0.3357
 5031TIP3   OH236651   0.691   6.376   6.973  0.2422  0.3865 -0.2453
 5031TIP3    H136652   0.782   6.408   6.978  0.2943  0.1926  0.0579
 5031TIP3    H236653   0.667   6.359   7.064  0.4617 -1.1119 -0.4388
 5032TIP3   OH236654   3.903   5.072   7.724  0.4051  0.4717 -0.2600
 5032TIP3    H136655   3.859   5.062   7.809 -1.0361 -1.6838 -1.1618
 5032TIP3    H236656   3.836   5.110   7.667 -0.0043 -1.7348 -1.3532
 5033TIP3   OH236657   3.811   5.268   0.633  0.5330  0.9181  0.0490
 5033TIP3    H136658   3.891   5.267   0.685 -0.5744  0.3898  1.8460
 5033TIP3    H236659   3.756   5.200   0.673 -1.4676  2.4177 -0.0049
 5034TIP3   OH236660   2.569   3.538   7.316  0.6315 -0.0920  0.6378
 5034TIP3    H136661   2.587   3.460   7.264 -2.8244 -0.5623 -0.0959
 5034TIP3    H236662   2.483   3.522   7.354  1.5508  1.7067  3.8310
 5035TIP3   OH236663   6.522   5.642   6.720  0.1887 -0.0591  0.3938
 5035TIP3    H136664   6.463   5.587   6.771 -0.2182 -0.1767 -0.1963
 5035TIP3    H236665   6.534   5.721   6.774  0.1699 -0.3932  0.8949
 5036TIP3   OH236666   2.213   1.395   0.563  0.2373  0.4368  0.0509
 5036TIP3    H136667   2.248   1.335   0.497  1.5155  0.9468  0.2305
 5036TIP3    H236668   2.125   1.362   0.581 -0.1558  0.2927 -1.8926
 5037TIP3   OH236669   5.979   4.566   2.053  0.3593 -0.0740  0.4150
 5037TIP3    H136670   5.932   4.591   1.973  1.1626  0.5928  0.1393
 5037TIP3    H236671   5.991   4.648   2.101 -0.2308 -0.4868  1.2980
 5038TIP3   OH236672   2.236   1.989   1.932 -0.0067 -0.2310 -0.0023
 5038TIP3    H136673   2.207   1.948   1.851 -1.4431  0.4461  0.1473
 5038TIP3    H236674   2.329   2.006   1.918  0.3918 -2.4640 -0.4841
 5039TIP3   OH236675   1.723   2.026   8.141  0.3427 -0.5056 -0.0604
 5039TIP3    H136676   1.747   2.037   8.232  0.7396 -1.3911 -0.0501
 5039TIP3    H236677   1.805   2.034   8.093  0.0181  0.8766 -0.4455
 5040TIP3   OH236678   3.948   2.631   8.542 -0.2839  0.1576  0.4131
 5040TIP3    H136679   4.019   2.590   8.592 -0.8752 -2.0091 -0.3954
 5040TIP3    H236680   3.869   2.612   8.594 -0.8285 -1.6156 -0.9451
 5041TIP3   OH236681   3.830   5.907   7.799  0.6214 -0.4967 -0.7355
 5041TIP3    H136682   3.751   5.944   7.838  0.7234 -0.7905 -0.2428
 5041TIP3    H236683   3.812   5.814   7.792  1.4008 -0.7655  0.5733
 5042TIP3   OH236684   6.600   5.069   0.461  0.3162  0.0408 -0.2487
 5042TIP3    H136685   6.638   5.156   0.448  3.1889 -1.2717 -1.4506
 5042TIP3    H236686   6.675   5.010   0.461 -1.3936 -2.3714  1.8249
 5043TIP3   OH236687   5.063   3.611   0.669  0.1378  0.4314 -0.0696
 5043TIP3    H136688   5.000   3.668   0.712  0.9673  0.3201  1.3419
 5043TIP3    H236689   5.029   3.523   0.682 -0.1820  0.4652 -0.6331
 5044TIP3   OH236690   6.534   2.508   1.527 -0.2597 -0.5134 -0.0439
 5044TIP3    H136691   6.504   2.582   1.579  1.2559  1.0010 -1.2267
 5044TIP3    H236692   6.465   2.496   1.461 -0.1494  0.3761 -0.3348
 5045TIP3   OH236693   3.464   3.793   0.907  0.3048 -0.5555 -0.1409
 5045TIP3    H136694   3.525   3.779   0.834  1.2899  1.2537  0.2919
 5045TIP3    H236695   3.452   3.706   0.944  1.5523 -1.1721 -1.0908
 5046TIP3   OH236696   2.720   2.585   0.492 -0.1094  0.3645 -0.3963
 5046TIP3    H136697   2.667   2.542   0.425 -0.6247 -1.5270  1.1531
 5046TIP3    H236698   2.658   2.644   0.536 -0.6493 -0.8886  0.5717
 5047TIP3   OH236699   0.925   3.680   2.027  0.2989  0.5042  0.0746
 5047TIP3    H136700   0.922   3.766   1.985  1.8341 -0.6666 -2.7753
 5047TIP3    H236701   1.011   3.676   2.068  0.3347  0.2818 -0.0147
 5048TIP3   OH236702   5.149   0.967   0.129  0.0399 -0.8040 -0.1937
 5048TIP3    H136703   5.076   0.966   0.192 -1.2690 -1.1198 -1.6369
 5048TIP3    H236704   5.182   1.056   0.132 -1.7960 -0.0377 -0.9618
 5049TIP3   OH236705   2.908   6.207   0.631  0.4420  0.0430  0.1412
 5049TIP3    H136706   2.989   6.206   0.682 -1.0998  0.7424  2.8135
 5049TIP3    H236707   2.895   6.116   0.605  0.9291 -0.5166  1.7144
 5050TIP3   OH236708   2.660   5.119   2.695 -0.7174  0.2594  0.1895
 5050TIP3    H136709   2.564   5.124   2.694 -0.9029 -1.1912  2.5886
 5050TIP3    H236710   2.679   5.030   2.724  1.3734  0.6926  0.3202
 5051TIP3   OH236711   1.704   3.271   7.500  0.6787 -0.1619 -0.1207
 5051TIP3    H136712   1.711   3.364   7.524 -0.7309 -0.4374  1.5546
 5051TIP3    H236713   1.794   3.242   7.490  1.6013  0.1625  4.6425
 5052TIP3   OH236714   1.138   0.595   1.282 -0.1741  0.2875  0.0990
 5052TIP3    H136715   1.200   0.549   1.225  1.4189  0.4204  1.6314
 5052TIP3    H236716   1.139   0.685   1.250  2.2622  0.8335  1.4571
 5053TIP3   OH236717   5.568   5.033   7.686  0.3548  0.0365 -0.1067
 5053TIP3    H136718   5.565   5.026   7.590  1.3289 -1.9951 -0.0548
 5053TIP3    H236719   5.504   5.100   7.707 -0.4101  0.0378 -2.1408
 5054TIP3   OH236720   5.420   5.387   7.368 -0.1833  0.4110  0.1394
 5054TIP3    H136721   5.367   5.312   7.339 -0.0228  0.7592 -1.0962
 5054TIP3    H236722   5.434   5.438   7.289  1.3309  0.7516  0.6050
 5055TIP3   OH236723   2.571   1.328   7.663 -0.0505 -0.2389  0.0992
 5055TIP3    H136724   2.604   1.253   7.713 -0.4264 -0.4346  0.0570
 5055TIP3    H236725   2.531   1.289   7.586 -1.0096 -0.0520  0.4977
 5056TIP3   OH236726   6.771   1.302   7.284  0.5076 -0.1499 -0.2720
 5056TIP3    H136727   6.772   1.257   7.199 -0.7171 -1.7939  0.5350
 5056TIP3    H236728   6.856   1.281   7.323  0.8895  0.2290 -0.8791
 5057TIP3   OH236729   6.280   4.194   0.847  0.1422 -0.1753  0.4280
 5057TIP3    H136730   6.326   4.113   0.825 -3.0568 -2.1581  0.3659
 5057TIP3    H236731   6.274   4.193   0.942  1.7702  1.0851  0.5863
 5058TIP3   OH236732   5.431   3.412   2.978  0.3768 -0.5966  0.1133
 5058TIP3    H136733   5.429   3.319   3.002 -0.2784 -0.2516  1.5549
 5058TIP3    H236734   5.505   3.447   3.028  0.1903 -0.2203  0.1244
 5059TIP3   OH236735   3.823   5.899   1.878 -0.4280 -0.5340  0.3537
 5059TIP3    H136736   3.766   5.900   1.801 -0.7492 -0.0459  0.5852
 5059TIP3    H236737   3.904   5.941   1.849 -1.6188  2.5254  1.0210
 5060TIP3   OH236738   3.570   1.150   6.703  0.0357 -0.0737 -0.1836
 5060TIP3    H136739   3.612   1.115   6.625 -0.2331 -0.9994  0.0816
 5060TIP3    H236740   3.565   1.076   6.764 -0.4957  0.4312  0.4073
 5061TIP3   OH236741   3.638   3.752   2.388 -0.4150 -0.3151 -0.0923
 5061TIP3    H136742   3.614   3.827   2.442  2.4036 -0.7265  1.9433
 5061TIP3    H236743   3.567   3.690   2.401 -1.4002  0.8749  0.4578
 5062TIP3   OH236744   5.117   6.042   7.731  0.0252 -0.6614  0.4655
 5062TIP3    H136745   5.161   5.970   7.685  0.8506 -0.1517  0.4376
 5062TIP3    H236746   5.184   6.110   7.739 -0.8694  0.2905  0.0910
 5063TIP3   OH236747   5.183   6.884   0.901  0.3878  0.2133 -0.7140
 5063TIP3    H136748   5.190   6.879   0.806  0.8832  1.0290 -0.7304
 5063TIP3    H236749   5.273   6.876   0.932  0.1797 -0.6206 -0.2680
 5064TIP3   OH236750   5.575   2.484   2.626 -0.2055  0.1288 -0.0776
 5064TIP3    H136751   5.499   2.517   2.579  0.4996 -2.0918 -3.1522
 5064TIP3    H236752   5.541   2.415   2.682 -0.7726  1.1356  0.8464
 5065TIP3   OH236753   6.275   1.139   1.419 -0.6807  0.1860 -0.3972
 5065TIP3    H136754   6.280   1.170   1.510 -1.5010 -0.9413  0.0557
 5065TIP3    H236755   6.320   1.206   1.368  1.8161 -0.2194  1.0988
 5066TIP3   OH236756   6.596   3.126   7.803 -0.3807 -0.4727 -0.3113
 5066TIP3    H136757   6.611   3.048   7.749 -1.6473 -0.5249 -0.6231
 5066TIP3    H236758   6.517   3.165   7.767  0.7778  1.5428 -0.7906
 5067TIP3   OH236759   1.630   4.000   0.203 -0.2384 -0.1374 -0.2780
 5067TIP3    H136760   1.609   4.012   0.296 -0.6678 -0.8114 -0.2773
 5067TIP3    H236761   1.618   4.086   0.164 -1.9174 -0.2275 -0.0579
 5068TIP3   OH236762   0.311   1.332   0.615  0.8375 -0.1002 -0.0926
 5068TIP3    H136763   0.379   1.396   0.637 -1.2372  2.1747  0.1340
 5068TIP3    H236764   0.288   1.351   0.524  0.4683 -0.8362 -0.1602
 5069TIP3   OH236765   1.604   5.918   2.170  0.3700  0.7187 -0.5362
 5069TIP3    H136766   1.668   5.986   2.192  0.2060  0.1725  1.9085
 5069TIP3    H236767   1.641   5.838   2.206 -1.1454  0.1911 -0.0674
 5070TIP3   OH236768   2.517   0.018   8.529 -0.3589 -0.2895  0.3720
 5070TIP3    H136769   2.522   0.049   8.619 -1.9600  0.4357  0.2468
 5070TIP3    H236770   2.471   0.087   8.482  0.0744 -0.8452 -0.9202
 5071TIP3   OH236771   5.753   6.006   1.460  0.2343 -0.0381 -0.1092
 5071TIP3    H136772   5.849   6.011   1.462  0.3052  0.2651 -2.4292
 5071TIP3    H236773   5.725   6.080   1.514  1.2846  0.0779  0.3152
 5072TIP3   OH236774   6.487   5.014   7.784  0.2078 -0.4157  0.3818
 5072TIP3    H136775   6.472   5.102   7.819 -1.6878  0.5006 -2.4101
 5072TIP3    H236776   6.568   5.022   7.735 -0.9771  0.4203 -1.5381
 5073TIP3   OH236777   1.873   3.846   7.187 -0.2367 -0.0143  0.6124
 5073TIP3    H136778   1.856   3.934   7.221 -0.6295  0.2078 -0.1478
 5073TIP3    H236779   1.899   3.795   7.264 -2.2897  0.1581  1.4720
 5074TIP3   OH236780   4.806   0.122   0.371  0.6641 -0.4108  0.3732
 5074TIP3    H136781   4.719   0.082   0.372  0.5494 -0.3180 -1.5285
 5074TIP3    H236782   4.801   0.192   0.436  0.4395 -2.5429  2.7750
 5075TIP3   OH236783   1.149   2.523   0.519 -0.4094 -0.5348 -0.0836
 5075TIP3    H136784   1.101   2.601   0.547 -2.4565 -1.7253 -0.1621
 5075TIP3    H236785   1.190   2.549   0.436 -0.1423  0.7843  0.4327
 5076TIP3   OH236786   6.870   6.393   1.930  0.0507 -0.1692  0.0100
 5076TIP3    H136787   6.798   6.456   1.926  0.8217  0.8820  1.5141
 5076TIP3    H236788   6.834   6.319   1.980 -0.2531 -0.0436 -0.0224
 5077TIP3   OH236789   0.758   6.100   0.300  0.7549 -0.2797  0.0884
 5077TIP3    H136790   0.749   6.047   0.379  0.5948 -1.2181 -0.5556
 5077TIP3    H236791   0.826   6.056   0.249  1.7954  1.0361  0.2605
 5078TIP3   OH236792   5.038   3.980   0.896 -0.5385  0.1752  0.1438
 5078TIP3    H136793   5.020   3.906   0.953  1.1901  0.6158  1.3629
 5078TIP3    H236794   5.104   3.948   0.834 -0.3958  0.4545  0.1479
 5079TIP3   OH236795   1.038   5.049   7.097  0.0339  0.0808 -0.1500
 5079TIP3    H136796   1.102   5.077   7.031 -0.2397  0.7763 -0.1294
 5079TIP3    H236797   1.001   4.968   7.062  0.4834  0.0011 -0.4520
 5080TIP3   OH236798   4.444   1.891   0.125  0.0609  0.4105  0.2211
 5080TIP3    H136799   4.476   1.935   0.046 -3.0656  1.8022 -0.4292
 5080TIP3    H236800   4.430   1.962   0.188  0.1304 -0.3745  1.1454
 5081TIP3   OH236801   4.335   3.704   7.824  0.1874 -0.0287 -0.1625
 5081TIP3    H136802   4.386   3.785   7.826 -1.0636  0.7730  0.3970
 5081TIP3    H236803   4.255   3.728   7.777 -0.1645 -0.9640 -0.0507
 5082TIP3   OH236804   4.309   6.122   1.439 -0.1963  0.0834  0.9151
 5082TIP3    H136805   4.376   6.111   1.507 -0.5854  2.7567  1.8425
 5082TIP3    H236806   4.353   6.169   1.369 -0.3616 -0.7736  0.2206
 5083TIP3   OH236807   1.634   1.426   8.055 -0.5450  0.0571  0.5082
 5083TIP3    H136808   1.714   1.478   8.047 -0.8529  0.2249 -2.3915
 5083TIP3    H236809   1.664   1.336   8.062 -0.0884  0.1586 -0.0982
 5084TIP3   OH236810   2.493   1.016   6.789  0.8423  0.2111  0.4089
 5084TIP3    H136811   2.473   0.923   6.798  0.0139  0.5035  1.9004
 5084TIP3    H236812   2.487   1.033   6.695  0.0263 -1.0481  0.2127
 5085TIP3   OH236813   3.582   0.999   7.729 -0.0643  0.2987 -0.9686
 5085TIP3    H136814   3.523   0.977   7.801  0.7465  2.1203  0.3481
 5085TIP3    H236815   3.539   0.965   7.651 -1.3131 -1.1404  0.2969
 5086TIP3   OH236816   0.565   4.802   8.293  0.3793  0.0811 -0.0410
 5086TIP3    H136817   0.653   4.808   8.331 -0.2521  0.3932  1.4295
 5086TIP3    H236818   0.522   4.733   8.343 -0.8988  1.3708  0.7180
 5087TIP3   OH236819   5.982   6.070   1.751 -0.2860 -0.3401  0.4711
 5087TIP3    H136820   6.061   6.083   1.804 -1.3909  2.0709  1.6658
 5087TIP3    H236821   6.014   6.066   1.661  1.1398  1.6679  0.8245
 5088TIP3   OH236822   5.312   5.657   2.142  0.2599  0.3671  0.4204
 5088TIP3    H136823   5.272   5.669   2.228 -4.5192  2.7236 -1.7231
 5088TIP3    H236824   5.278   5.574   2.111  1.1221  0.0193  0.3902
 5089TIP3   OH236825   6.034   4.538   0.414 -0.1731  0.0682 -0.1273
 5089TIP3    H136826   6.003   4.628   0.416 -1.4358 -0.3379  0.1862
 5089TIP3    H236827   6.044   4.517   0.322 -1.6362 -0.0070 -0.2962
 5090TIP3   OH236828   4.025   2.333   7.601  0.3263  0.3096 -0.2623
 5090TIP3    H136829   3.971   2.261   7.632  0.2283  0.8832  0.9505
 5090TIP3    H236830   4.109   2.292   7.580  0.0891 -0.2497 -0.1447
 5091TIP3   OH236831   3.805   4.102   6.868 -0.1035  0.6487 -0.3023
 5091TIP3    H136832   3.818   4.191   6.838  1.4779 -0.1618 -2.1942
 5091TIP3    H236833   3.753   4.061   6.799  0.8248 -0.3873 -0.4107
 5092TIP3   OH236834   5.602   6.747   6.646 -0.3258 -0.3388 -0.5802
 5092TIP3    H136835   5.656   6.668   6.640  1.2247  0.7076 -0.8452
 5092TIP3    H236836   5.514   6.714   6.664  0.2608 -2.1312 -0.7921
 5093TIP3   OH236837   4.277   4.742   8.383 -1.0062  0.0038 -0.2109
 5093TIP3    H136838   4.197   4.795   8.385 -0.2166  1.2137  0.3187
 5093TIP3    H236839   4.343   4.796   8.426 -0.3539 -1.7686  1.1426
 5094TIP3   OH236840   1.769   1.369   2.746 -0.1835  0.2290 -0.5302
 5094TIP3    H136841   1.846   1.416   2.776 -1.5479  0.9716  2.1744
 5094TIP3    H236842   1.775   1.283   2.789 -1.6402  0.9144  1.1606
 5095TIP3   OH236843   1.881   5.085   7.354  0.3234 -0.4112  0.6479
 5095TIP3    H136844   1.845   5.130   7.430 -1.4745 -1.0842  0.2437
 5095TIP3    H236845   1.866   5.145   7.281  1.4967 -0.0260  0.6984
 5096TIP3   OH236846   4.589   4.549   0.996 -0.0114  0.2122  0.0419
 5096TIP3    H136847   4.501   4.565   1.030  0.4464  1.1869  0.8206
 5096TIP3    H236848   4.577   4.483   0.928 -1.2640 -0.0785  0.5230
 5097TIP3   OH236849   4.466   1.794   7.881  0.0613  1.0901  0.1493
 5097TIP3    H136850   4.451   1.733   7.808  0.2290  1.4443 -0.1808
 5097TIP3    H236851   4.442   1.743   7.959  0.2181  0.5923 -0.1196
 5098TIP3   OH236852   1.382   3.671   1.928 -0.3446  0.4418  0.0203
 5098TIP3    H136853   1.338   3.611   1.988  1.8718 -1.0893  0.2496
 5098TIP3    H236854   1.357   3.640   1.841  1.1531 -1.2212  0.1255
 5099TIP3   OH236855   6.871   5.456   8.164 -0.4155 -0.1349  0.1364
 5099TIP3    H136856   6.798   5.470   8.104 -0.8554  1.1351  0.9418
 5099TIP3    H236857   6.921   5.538   8.161 -0.5862  0.0507  1.6698
 5100TIP3   OH236858   6.058   0.796   0.886  0.0548  0.0015  0.2343
 5100TIP3    H136859   6.056   0.883   0.847  0.6917  0.5244  1.3026
 5100TIP3    H236860   6.152   0.779   0.900  0.2237 -2.1378 -2.6609
 5101TIP3   OH236861   3.089   3.324   1.228 -0.1874  0.1646  0.0748
 5101TIP3    H136862   3.006   3.296   1.189 -0.8980  0.6429  1.2215
 5101TIP3    H236863   3.066   3.394   1.289  0.5569 -1.8870  2.9357
 5102TIP3   OH236864   3.153   4.872   8.181  1.0501 -0.1995  0.0693
 5102TIP3    H136865   3.059   4.857   8.196  1.0140  0.9270  1.1115
 5102TIP3    H236866   3.160   4.880   8.086 -0.1797  1.1847  0.0537
 5103TIP3   OH236867   0.182   4.303   7.554 -0.2192 -0.3792 -0.2157
 5103TIP3    H136868   0.193   4.395   7.529  3.8198  0.2465  2.8021
 5103TIP3    H236869   0.217   4.254   7.479  0.8688  0.7687 -0.4935
 5104TIP3   OH236870   0.571   4.207   7.242  0.3406 -0.4018 -0.0914
 5104TIP3    H136871   0.577   4.302   7.246  0.4259 -0.4116  0.0134
 5104TIP3    H236872   0.600   4.177   7.328  0.4150 -0.5287 -0.1606
 5105TIP3   OH236873   2.221   3.589   1.664 -0.1350  0.4953 -0.6532
 5105TIP3    H136874   2.158   3.659   1.653 -0.6272  0.1601 -0.0152
 5105TIP3    H236875   2.209   3.533   1.587 -0.3008  0.6747 -0.7570
 5106TIP3   OH236876   0.327   0.401   7.788  0.1615  0.1231 -0.5353
 5106TIP3    H136877   0.309   0.466   7.856 -0.7880  0.3523 -0.9943
 5106TIP3    H236878   0.263   0.332   7.804  3.2092 -2.3899  2.0164
 5107TIP3   OH236879   4.033   5.973   1.102 -0.5301 -0.4789 -0.0404
 5107TIP3    H136880   4.124   5.949   1.117  0.2047  2.7519  1.6994
 5107TIP3    H236881   3.997   5.988   1.189 -1.7639  1.2049 -0.7691
 5108TIP3   OH236882   2.646   4.165   6.752  0.1256  0.2226  0.2438
 5108TIP3    H136883   2.678   4.209   6.831  0.9816  1.8973 -0.9820
 5108TIP3    H236884   2.723   4.158   6.696 -0.5254 -0.7229 -0.5547
 5109TIP3   OH236885   5.098   0.086   0.040 -0.3406  0.1902  0.5675
 5109TIP3    H136886   5.056   0.094  -0.046  0.8831  0.4330 -0.0296
 5109TIP3    H236887   5.083   0.171   0.081 -1.1977 -0.0319  0.7304
 5110TIP3   OH236888   5.736   5.084   1.995 -0.0326 -0.4575  0.4012
 5110TIP3    H136889   5.676   5.125   1.932  0.2485 -2.4481 -1.2987
 5110TIP3    H236890   5.700   5.104   2.081 -1.4441  0.8851 -0.4714
 5111TIP3   OH236891   1.848   2.940   8.539  0.8346 -0.3224  0.5438
 5111TIP3    H136892   1.875   2.951   8.630 -0.6298  1.0749  0.8471
 5111TIP3    H236893   1.910   2.993   8.489  1.0942 -0.3722  0.8121
 5112TIP3   OH236894   5.607   2.283   0.695  0.0282 -0.1952  0.4589
 5112TIP3    H136895   5.527   2.334   0.682  0.5025  0.5040  0.2500
 5112TIP3    H236896   5.628   2.295   0.788  0.8056  0.9939  0.1441
 5113TIP3   OH236897   6.470   0.510   1.626 -0.1822  0.6087  0.5676
 5113TIP3    H136898   6.554   0.487   1.665 -0.8230 -2.8422  0.2231
 5113TIP3    H236899   6.490   0.529   1.535  0.3088  0.6308  0.6788
 5114TIP3   OH236900   0.812   6.393   2.229 -0.2194 -0.1396  0.0537
 5114TIP3    H136901   0.826   6.371   2.321  2.6466 -2.3092 -0.7438
 5114TIP3    H236902   0.845   6.482   2.220  1.8357 -0.7792  0.7295
 5115TIP3   OH236903   3.332   3.846   3.171 -0.4208  0.2031 -0.0307
 5115TIP3    H136904   3.283   3.920   3.135 -1.4531 -0.3408  0.2165
 5115TIP3    H236905   3.265   3.786   3.203  0.4225  0.1175  1.7233
 5116TIP3   OH236906   6.800   6.298   7.923 -0.4637 -0.1454 -0.4873
 5116TIP3    H136907   6.753   6.262   7.998  0.3315 -2.0424 -0.8308
 5116TIP3    H236908   6.890   6.268   7.935 -0.2473 -0.2073 -2.0233
 5117TIP3   OH236909   5.083   2.001   0.923  0.4967 -0.3347 -0.3723
 5117TIP3    H136910   5.085   2.041   0.836  2.0736  0.5110  0.0129
 5117TIP3    H236911   5.032   2.062   0.977  0.7246 -0.1393 -0.3777
 5118TIP3   OH236912   3.486   0.323   1.632  0.2176 -0.1133 -0.1817
 5118TIP3    H136913   3.563   0.312   1.577 -0.4641  0.5242 -1.2965
 5118TIP3    H236914   3.445   0.237   1.634  0.5454 -0.2696 -0.2089
 5119TIP3   OH236915   1.128   4.780   1.241  0.9738 -0.4513  0.1664
 5119TIP3    H136916   1.203   4.723   1.227  0.2065 -1.1549 -1.3062
 5119TIP3    H236917   1.103   4.810   1.153 -0.2931 -0.0215  0.6416
 5120TIP3   OH236918   1.923   0.375   8.035  0.3938 -0.0321 -0.2366
 5120TIP3    H136919   1.980   0.444   8.000 -0.0823  0.8879  0.7535
 5120TIP3    H236920   1.983   0.312   8.075  0.7523  0.6812  0.3626
 5121TIP3   OH236921   0.553   2.750   1.091 -0.0120  0.5153  0.3257
 5121TIP3    H136922   0.619   2.694   1.051  1.5647  1.9976  0.7110
 5121TIP3    H236923   0.535   2.817   1.024 -1.8151 -0.3474 -0.1104
 5122TIP3   OH236924   1.797   4.577   0.643  0.4447  0.0556 -0.4249
 5122TIP3    H136925   1.705   4.586   0.616  0.6518  0.8942 -0.8790
 5122TIP3    H236926   1.824   4.493   0.606  0.1119  0.2223 -1.0641
 5123TIP3   OH236927   0.920   1.185   7.337  0.1761 -0.1876 -0.0213
 5123TIP3    H136928   0.865   1.253   7.376  1.2055 -1.1156  3.4927
 5123TIP3    H236929   0.981   1.232   7.280  0.0931  1.7288  1.3761
 5124TIP3   OH236930   5.643   1.570   1.382 -0.6093 -0.5106 -0.2872
 5124TIP3    H136931   5.722   1.608   1.420 -0.5835  0.6883 -1.4623
 5124TIP3    H236932   5.603   1.521   1.454  0.9684 -0.7940  0.4389
 5125TIP3   OH236933   0.756   6.684   0.478 -0.3901 -0.2173  0.0958
 5125TIP3    H136934   0.750   6.773   0.442  0.8968 -0.5571 -1.0606
 5125TIP3    H236935   0.764   6.628   0.401 -0.6871 -1.2952  0.8330
 5126TIP3   OH236936   5.260   6.369   0.884 -0.9827  0.4981 -0.1123
 5126TIP3    H136937   5.317   6.309   0.835  0.3932 -0.7757  2.7369
 5126TIP3    H236938   5.315   6.446   0.901 -1.5013  1.0031 -0.6745
 5127TIP3   OH236939   3.118   4.323   0.736 -0.1653  0.5557  0.4495
 5127TIP3    H136940   3.036   4.340   0.689  0.4615  0.9722 -0.5359
 5127TIP3    H236941   3.183   4.374   0.688  0.8288 -0.4612  0.6825
 5128TIP3   OH236942   3.597   2.899   0.882  0.0897 -0.4401  0.7242
 5128TIP3    H136943   3.536   2.866   0.948 -1.5251  1.6132  0.3427
 5128TIP3    H236944   3.630   2.981   0.918 -0.6065  0.5730 -0.8435
 5129TIP3   OH236945   4.056   3.478   8.186 -0.3114  0.3379  0.1143
 5129TIP3    H136946   4.017   3.398   8.152 -0.4840 -0.1554  1.4082
 5129TIP3    H236947   4.126   3.499   8.124  1.4511 -2.2761  1.0371
 5130TIP3   OH236948   5.348   3.666   2.288 -0.3211  0.4959  0.1051
 5130TIP3    H136949   5.334   3.756   2.259 -0.5863 -0.1994 -2.2119
 5130TIP3    H236950   5.317   3.663   2.378 -1.1008  2.5200 -0.0572
 5131TIP3   OH236951   6.127   4.513   0.152  0.0530 -0.2935 -0.4134
 5131TIP3    H136952   6.073   4.540   0.078  0.5531  0.5365 -0.4886
 5131TIP3    H236953   6.216   4.514   0.118  0.4206  1.3264  0.5125
 5132TIP3   OH236954   5.462   6.887   1.010 -0.6505  0.5483 -0.3678
 5132TIP3    H136955   5.431   6.965   1.057 -0.6886  0.5233 -0.3516
 5132TIP3    H236956   5.547   6.914   0.975  0.3853 -0.0880  1.4787
 5133TIP3   OH236957   3.102   3.568   1.798  0.1219 -0.2981 -0.4532
 5133TIP3    H136958   3.067   3.518   1.724 -1.4179  0.4222 -0.2516
 5133TIP3    H236959   3.034   3.633   1.817 -0.0316 -1.1675  2.3257
 5134TIP3   OH236960   4.032   0.553   8.064  0.2938  0.2238 -0.1459
 5134TIP3    H136961   3.978   0.486   8.022  0.4993  0.9849 -1.6911
 5134TIP3    H236962   3.977   0.589   8.133  0.1494 -1.4595  0.6749
 5135TIP3   OH236963   4.282   2.623   1.581  0.3281 -0.1277  0.4641
 5135TIP3    H136964   4.338   2.552   1.609  1.7666  0.4035 -0.9002
 5135TIP3    H236965   4.232   2.587   1.507 -0.6072 -0.3788  1.2071
 5136TIP3   OH236966   2.580   5.924   7.067 -0.2149  0.2928 -0.6157
 5136TIP3    H136967   2.537   5.982   7.130  0.1333  0.3899 -0.4665
 5136TIP3    H236968   2.621   5.983   7.004 -0.5626  0.1949 -0.9345
 5137TIP3   OH236969   3.545   2.015   6.947  0.2685  0.5110  0.0568
 5137TIP3    H136970   3.462   1.976   6.918  2.1017 -2.0738 -2.1803
 5137TIP3    H236971   3.595   2.029   6.867  1.8443  2.5522  1.2871
 5138TIP3   OH236972   0.719   4.182   7.502 -0.3919 -0.4618 -0.0937
 5138TIP3    H136973   0.737   4.096   7.541  0.8348  0.0418  0.5199
 5138TIP3    H236974   0.803   4.210   7.466 -1.1456 -0.2121 -1.7626
 5139TIP3   OH236975   3.943   6.807   2.379  1.0845 -0.0290 -0.4997
 5139TIP3    H136976   3.934   6.861   2.300 -0.8007 -0.0970 -0.3961
 5139TIP3    H236977   3.855   6.807   2.417  2.3454  1.9311  2.8889
 5140TIP3   OH236978   2.239   2.241   7.663  0.2433 -0.0027  0.2632
 5140TIP3    H136979   2.255   2.288   7.581  0.9856 -1.3375 -0.3861
 5140TIP3    H236980   2.219   2.310   7.726  0.6738  1.1331 -0.7985
 5141TIP3   OH236981   4.692   2.005   1.220 -0.1523 -0.0258 -0.4483
 5141TIP3    H136982   4.633   1.935   1.246  1.3721 -2.1285 -2.2492
 5141TIP3    H236983   4.779   1.964   1.218  0.9241  2.1069 -0.8765
 5142TIP3   OH236984   2.509   4.482   6.813 -0.0920  0.3441 -0.3206
 5142TIP3    H136985   2.475   4.422   6.747  0.4733  1.4803 -1.6920
 5142TIP3    H236986   2.604   4.470   6.810 -0.0644  0.3208  0.3927
 5143TIP3   OH236987   4.267   1.080   8.325 -0.3511 -0.2080  0.5623
 5143TIP3    H136988   4.180   1.119   8.319  0.2714  1.0702 -0.4935
 5143TIP3    H236989   4.280   1.065   8.419 -0.8787  1.5656  0.9559
 5144TIP3   OH236990   1.066   3.493   7.983 -0.1016 -0.5450 -0.2996
 5144TIP3    H136991   1.065   3.559   8.052 -1.7527 -0.0261 -0.7795
 5144TIP3    H236992   1.142   3.515   7.930 -0.5257  0.8969 -0.3546
 5145TIP3   OH236993   2.970   5.605   7.972 -0.1548  0.0836  0.6519
 5145TIP3    H136994   2.895   5.626   7.917  1.6419  0.3056 -1.8922
 5145TIP3    H236995   2.947   5.522   8.015 -2.0996  0.5334  0.5483
 5146TIP3   OH236996   0.380   4.327   1.552  0.2510 -0.1603  0.1201
 5146TIP3    H136997   0.334   4.274   1.487 -0.4434 -1.0631  1.3050
 5146TIP3    H236998   0.319   4.335   1.625  1.2867  0.1562  0.9919
 5147TIP3   OH236999   5.387   4.077   1.470  0.0814 -0.4370 -0.2860
 5147TIP3    H137000   5.390   4.121   1.385  0.1778  0.1988  0.0446
 5147TIP3    H237001   5.421   3.989   1.452 -0.3024 -0.4470 -0.9900
 5148TIP3   OH237002   1.870   5.919   6.842  0.6946  0.2850  0.3091
 5148TIP3    H137003   1.783   5.952   6.818 -0.1179 -0.8555  1.5434
 5148TIP3    H237004   1.923   5.997   6.854 -0.4769  1.0535  0.6659
 5149TIP3   OH237005   5.261   6.544   0.122  0.1311  0.2107  0.2676
 5149TIP3    H137006   5.293   6.623   0.165  0.2802  1.2954 -1.7077
 5149TIP3    H237007   5.324   6.528   0.052 -0.0923 -1.4727  0.4219
 5150TIP3   OH237008   4.436   1.153   1.833 -0.3330 -0.3577  0.2414
 5150TIP3    H137009   4.384   1.234   1.827 -0.1083 -0.2401 -0.1249
 5150TIP3    H237010   4.502   1.172   1.900 -1.1441 -0.7248  1.1704
 5151TIP3   OH237011   3.067   0.272   7.113 -0.3188 -0.2369 -0.1337
 5151TIP3    H137012   2.972   0.259   7.116 -0.7626  2.1137 -1.4069
 5151TIP3    H237013   3.084   0.337   7.182  0.2260  0.0120 -0.4978
 5152TIP3   OH237014   5.564   0.889   0.953  0.0103  0.0531 -0.1365
 5152TIP3    H137015   5.566   0.904   0.858  0.6417 -0.4972 -0.2220
 5152TIP3    H237016   5.656   0.878   0.977  0.0168  1.8878  0.8372
 5153TIP3   OH237017   6.433   3.856   1.320  0.1990  0.2904  0.0468
 5153TIP3    H137018   6.476   3.876   1.237  1.0363 -0.2054  0.3441
 5153TIP3    H237019   6.358   3.802   1.296 -0.6220  1.6325 -0.5302
 5154TIP3   OH237020   2.125   0.130   2.454  0.4588  0.2865 -1.0352
 5154TIP3    H137021   2.179   0.208   2.441 -1.6916  1.5870 -2.8250
 5154TIP3    H237022   2.095   0.136   2.545  0.4389  1.4841 -1.1033
 5155TIP3   OH237023   6.117   6.828   1.760  0.3227 -0.3532  0.1801
 5155TIP3    H137024   6.202   6.855   1.725  0.1120 -0.1258 -0.1609
 5155TIP3    H237025   6.109   6.874   1.843  0.7204 -0.7077  0.4240
 5156TIP3   OH237026   4.694   5.977   0.432  0.2629  0.5556 -0.5179
 5156TIP3    H137027   4.636   6.002   0.360  0.1800 -1.7229 -1.3412
 5156TIP3    H237028   4.635   5.960   0.505 -0.0095 -0.2993 -0.9157
 5157TIP3   OH237029   4.340   4.022   1.565  0.0886 -0.8130  0.6476
 5157TIP3    H137030   4.330   4.008   1.471  3.6324 -1.0527  0.1635
 5157TIP3    H237031   4.310   3.940   1.604 -1.2836 -0.7704 -0.2285
 5158TIP3   OH237032   6.239   6.096   7.531  0.0802  0.4477 -0.1444
 5158TIP3    H137033   6.182   6.035   7.578  1.4272  1.0182  2.3608
 5158TIP3    H237034   6.236   6.066   7.440 -0.8278 -2.1162  0.6605
 5159TIP3   OH237035   2.515   1.748   0.839  0.5330 -0.5006  0.4024
 5159TIP3    H137036   2.439   1.757   0.897  1.2663  2.1495  1.0886
 5159TIP3    H237037   2.485   1.785   0.756  0.8467 -0.0504  0.4836
 5160TIP3   OH237038   0.994   5.678   7.938 -0.0206  0.0770  0.2647
 5160TIP3    H137039   1.011   5.637   7.853  1.9364  2.8290 -0.8153
 5160TIP3    H237040   0.921   5.738   7.920 -0.2426 -0.0376  0.7835
 5161TIP3   OH237041   1.259   3.446   1.317 -0.4548  0.0846  0.8977
 5161TIP3    H137042   1.337   3.489   1.282 -0.6025 -1.4915 -1.5305
 5161TIP3    H237043   1.292   3.387   1.385  0.4463 -0.4132  0.0358
 5162TIP3   OH237044   5.842   4.035   7.823  0.4422 -0.0141 -0.1345
 5162TIP3    H137045   5.888   3.995   7.749 -0.9990 -0.3018 -0.9205
 5162TIP3    H237046   5.753   4.000   7.817 -0.8026  2.9170 -0.6047
 5163TIP3   OH237047   1.759   2.481   2.244 -0.2576  0.0921  0.0228
 5163TIP3    H137048   1.677   2.524   2.269 -0.2043 -0.1911  0.6985
 5163TIP3    H237049   1.738   2.388   2.245  0.4065 -0.0704  1.5022
 5164TIP3   OH237050   4.792   2.195   7.083  0.2424 -0.1700 -0.0618
 5164TIP3    H137051   4.701   2.185   7.110 -0.3270  2.3037 -0.7813
 5164TIP3    H237052   4.803   2.131   7.013 -0.8022 -0.8067  0.3354
 5165TIP3   OH237053   6.693   6.395   0.374 -0.5646 -0.1864 -0.5324
 5165TIP3    H137054   6.671   6.424   0.463 -0.0342 -1.3588  0.0206
 5165TIP3    H237055   6.754   6.322   0.388 -0.6759 -0.5609 -1.8654
 5166TIP3   OH237056   3.237   4.254   7.901  0.2425 -0.9892 -0.2657
 5166TIP3    H137057   3.211   4.346   7.893 -0.7076 -1.0636  1.6408
 5166TIP3    H237058   3.279   4.235   7.817 -0.7405  0.7869 -1.2318
 5167TIP3   OH237059   1.703   0.726   1.340 -0.4693 -0.7259 -0.5230
 5167TIP3    H137060   1.729   0.816   1.361  0.6784 -1.3663  0.9649
 5167TIP3    H237061   1.626   0.736   1.284  0.3285  1.1881 -1.3459
 5168TIP3   OH237062   3.672   6.655   6.866  0.3127 -0.0258  0.2410
 5168TIP3    H137063   3.596   6.636   6.811 -0.1371 -0.0870  0.8782
 5168TIP3    H237064   3.666   6.749   6.885 -0.6186 -0.3632  1.7729
 5169TIP3   OH237065   0.267   6.845   7.918  0.5085  0.2771  0.3430
 5169TIP3    H137066   0.282   6.766   7.970  0.0452  0.9299  1.5128
 5169TIP3    H237067   0.233   6.813   7.834  0.4676 -0.7625  0.7483
 5170TIP3   OH237068   3.486   0.412   1.012 -0.1339  0.2510 -0.0108
 5170TIP3    H137069   3.454   0.501   1.021  0.1462  0.4000 -0.4443
 5170TIP3    H237070   3.564   0.420   0.958  1.0486 -0.0156  1.5784
 5171TIP3   OH237071   2.835   2.842   8.403 -0.2057 -0.6659 -0.1505
 5171TIP3    H137072   2.851   2.800   8.319  0.0007  0.1332 -0.5271
 5171TIP3    H237073   2.920   2.879   8.429 -0.5991  0.4493 -0.3745
 5172TIP3   OH237074   2.914   4.693   8.488 -0.2431 -0.1237  0.0803
 5172TIP3    H137075   2.991   4.657   8.443  1.2418  0.0517  2.3401
 5172TIP3    H237076   2.944   4.711   8.577 -2.5459  1.2745  0.6589
 5173TIP3   OH237077   2.230   4.995   0.449  0.0890  0.0270  0.4117
 5173TIP3    H137078   2.246   5.083   0.414  1.5678 -0.3464  0.0962
 5173TIP3    H237079   2.258   5.000   0.540  2.1101 -0.6104 -0.1240
 5174TIP3   OH237080   2.456   2.427   8.076 -0.1933  0.7719  0.1336
 5174TIP3    H137081   2.381   2.485   8.064  0.1681  1.3265  0.4705
 5174TIP3    H237082   2.512   2.444   8.000  0.0696  1.1289  0.3964
 5175TIP3   OH237083   0.554   3.276   1.699 -0.5991 -0.4235 -0.3563
 5175TIP3    H137084   0.640   3.239   1.716 -0.2265  0.6424  0.1764
 5175TIP3    H237085   0.571   3.357   1.650 -1.1919  0.4326  0.7892
 5176TIP3   OH237086   2.471   0.854   8.162  0.1841  0.1990  0.5402
 5176TIP3    H137087   2.496   0.887   8.248  1.8253 -0.4869  0.3719
 5176TIP3    H237088   2.533   0.895   8.101 -0.2502 -0.1621 -0.1628
 5177TIP3   OH237089   6.766   4.875   0.195 -0.4499  0.5692 -0.4482
 5177TIP3    H137090   6.812   4.797   0.162  0.2657  1.0277 -0.5484
 5177TIP3    H237091   6.677   4.844   0.211 -0.1696 -0.2846 -0.4501
 5178TIP3   OH237092   1.773   0.110   7.521 -0.1425  0.2794 -0.2704
 5178TIP3    H137093   1.858   0.073   7.542  0.5932  1.9311 -0.2168
 5178TIP3    H237094   1.781   0.203   7.541 -2.0658  0.4249  0.0609
 5179TIP3   OH237095   6.578   4.669   0.413  0.4739  0.0298  0.0519
 5179TIP3    H137096   6.526   4.708   0.343  1.1602 -0.6360 -0.8565
 5179TIP3    H237097   6.514   4.621   0.467 -0.0177  0.2818 -0.3009
 5180TIP3   OH237098   3.270   3.623   7.768 -0.4926  0.5611  0.3841
 5180TIP3    H137099   3.227   3.689   7.713  0.5128 -0.1146 -1.2737
 5180TIP3    H237100   3.345   3.593   7.716  0.8784  0.3205  2.3761
 5181TIP3   OH237101   5.147   1.679   0.935  0.2888  0.3522  0.5043
 5181TIP3    H137102   5.069   1.649   0.981  1.0313 -0.5903  1.1808
 5181TIP3    H237103   5.132   1.772   0.920  0.2594  0.8184  3.1265
 5182TIP3   OH237104   6.622   2.880   1.170  0.0751 -0.8527  0.4534
 5182TIP3    H137105   6.534   2.916   1.173  0.1392 -0.3651 -1.9051
 5182TIP3    H237106   6.610   2.786   1.187 -0.6308 -0.5051  2.0530
 5183TIP3   OH237107   2.589   5.929   8.362 -0.1444  0.1325 -0.0119
 5183TIP3    H137108   2.578   5.850   8.413  0.9938 -1.0917 -1.5612
 5183TIP3    H237109   2.615   5.996   8.426  2.6783 -1.6785  0.9100
 5184TIP3   OH237110   1.470   2.246   8.261 -0.1090 -0.4550 -0.2756
 5184TIP3    H137111   1.384   2.288   8.264  0.2952  0.3823  1.5470
 5184TIP3    H237112   1.489   2.236   8.168 -2.2691 -0.9077 -0.7211
 5185TIP3   OH237113   4.509   2.224   2.096 -0.3538  0.0537 -0.0457
 5185TIP3    H137114   4.483   2.182   2.014  1.2045  0.4562 -0.7843
 5185TIP3    H237115   4.503   2.154   2.162 -1.8518 -0.2083 -0.4250
 5186TIP3   OH237116   2.565   4.042   7.191 -0.3648 -0.3055 -0.4703
 5186TIP3    H137117   2.471   4.055   7.183 -0.4307  0.3273  0.9710
 5186TIP3    H237118   2.574   3.960   7.241 -0.2638  1.1348  2.0144
 5187TIP3   OH237119   1.524   6.635   1.064  0.0084  0.0671  0.1380
 5187TIP3    H137120   1.433   6.655   1.045 -0.1823 -1.3850 -0.5916
 5187TIP3    H237121   1.574   6.683   0.998 -0.1909  1.0617  0.6921
 5188TIP3   OH237122   4.064   2.648   1.332  0.2650  0.2232 -0.4633
 5188TIP3    H137123   3.982   2.597   1.335  1.4969 -1.8693 -0.1819
 5188TIP3    H237124   4.101   2.628   1.246  1.5349 -0.7040  0.2615
 5189TIP3   OH237125   3.107   5.682   8.215 -0.0274  0.0596 -0.1949
 5189TIP3    H137126   3.095   5.588   8.201 -1.4246  0.2766 -0.6017
 5189TIP3    H237127   3.021   5.721   8.196  0.0951  1.2560  1.3936
 5190TIP3   OH237128   0.907   1.073   7.739 -0.0190  0.0993 -1.0717
 5190TIP3    H137129   0.952   1.025   7.807 -1.5167 -1.4789 -1.1327
 5190TIP3    H237130   0.969   1.142   7.713  1.7012 -1.0276 -0.1399
 5191TIP3   OH237131   1.508   2.294   0.813 -0.0041 -0.1840  0.1810
 5191TIP3    H137132   1.552   2.368   0.771 -0.2228 -0.8864 -1.3486
 5191TIP3    H237133   1.417   2.301   0.784 -0.5655  0.2642  1.9231
 5192TIP3   OH237134   4.963   4.354   8.154  0.1027  1.1182  0.0915
 5192TIP3    H137135   4.887   4.310   8.118  0.0801  0.8751  0.4387
 5192TIP3    H237136   5.018   4.373   8.077 -0.0920  0.8886 -0.1056
 5193TIP3   OH237137   4.579   0.719   1.159 -0.0926  0.1754 -0.9213
 5193TIP3    H137138   4.507   0.715   1.096 -1.3187 -0.9676  0.4781
 5193TIP3    H237139   4.550   0.781   1.226  0.1563 -0.3691 -0.2926
 5194TIP3   OH237140   0.057   1.687   8.417  0.2181  0.3842 -0.3596
 5194TIP3    H137141  -0.018   1.691   8.475  0.1227  0.9261 -0.5093
 5194TIP3    H237142   0.035   1.747   8.345  0.3580 -0.2235 -0.9206
 5195TIP3   OH237143   4.649   0.407   0.997  0.8227 -0.3697 -0.9779
 5195TIP3    H137144   4.716   0.474   0.985  1.1211 -0.7256 -1.3482
 5195TIP3    H237145   4.685   0.330   0.952  1.5931 -1.5147  1.4340
 5196TIP3   OH237146   0.593   5.673   8.242 -0.6306 -0.4280 -0.2846
 5196TIP3    H137147   0.504   5.707   8.251 -0.1832  1.0686 -1.1171
 5196TIP3    H237148   0.628   5.673   8.330 -0.9109  0.5714 -0.1645
 5197TIP3   OH237149   2.928   3.656   1.521  0.1859  0.4059 -0.0994
 5197TIP3    H137150   2.979   3.667   1.441 -0.3899 -2.5621 -0.9971
 5197TIP3    H237151   2.943   3.565   1.547 -1.3891  0.6429  1.9342
 5198TIP3   OH237152   0.464   6.356   7.910  0.2675  0.2209  0.3283
 5198TIP3    H137153   0.410   6.351   7.989 -1.4348 -0.6803 -0.8298
 5198TIP3    H237154   0.462   6.449   7.886 -2.0971  0.0027 -0.5223
 5199TIP3   OH237155   2.360   5.079   6.581  0.0443 -0.0129  0.1762
 5199TIP3    H137156   2.378   5.074   6.487 -1.5894 -0.3253 -0.1540
 5199TIP3    H237157   2.428   5.024   6.621  1.4330  1.0013 -0.6939
 5200TIP3   OH237158   0.069   2.069   1.547 -0.3515  0.2838  0.9373
 5200TIP3    H137159   0.023   1.989   1.574 -0.2041 -1.0020 -2.1669
 5200TIP3    H237160   0.061   2.069   1.451  1.7959  2.7182  0.6723
 5201TIP3   OH237161   2.050   6.707   2.618 -0.3692  0.4694  0.1861
 5201TIP3    H137162   1.979   6.651   2.651 -0.4598  0.8355  0.6331
 5201TIP3    H237163   2.129   6.672   2.659  0.3836 -2.3553 -3.1785
 5202TIP3   OH237164   5.831   6.799   0.443 -0.0536 -0.0567 -0.4661
 5202TIP3    H137165   5.850   6.883   0.403 -2.6395  0.1813 -1.3778
 5202TIP3    H237166   5.854   6.734   0.377  0.4999  0.0095 -0.3435
 5203TIP3   OH237167   6.281   5.528   0.139  0.0860  0.2657 -0.2722
 5203TIP3    H137168   6.281   5.599   0.203  1.3404 -0.6187  0.7540
 5203TIP3    H237169   6.192   5.526   0.105 -0.3603  1.3353  0.7886
 5204TIP3   OH237170   4.413   3.461   6.693 -0.0614 -0.0175  0.9544
 5204TIP3    H137171   4.451   3.533   6.644  0.6061 -0.2068  1.1773
 5204TIP3    H237172   4.355   3.417   6.630 -0.8615  0.9878  0.9579
 5205TIP3   OH237173   5.104   1.037   8.102 -0.0559  0.0632 -0.2625
 5205TIP3    H137174   5.188   1.079   8.081  0.2365  0.6860  1.8795
 5205TIP3    H237175   5.102   0.959   8.047  1.4753  0.5536 -1.0790
 5206TIP3   OH237176   3.827   4.357   1.488  0.4464  0.2148 -0.0638
 5206TIP3    H137177   3.840   4.272   1.530 -3.9946  0.6436  2.9188
 5206TIP3    H237178   3.876   4.419   1.541  0.9544 -0.1076 -0.1591
 5207TIP3   OH237179   1.119   5.032   7.358  0.2483  0.3227 -0.1453
 5207TIP3    H137180   1.145   5.042   7.267  0.6857 -0.1023 -0.0763
 5207TIP3    H237181   1.053   5.099   7.373  1.2822  1.4160 -0.3439
 5208TIP3   OH237182   4.881   6.190   8.378 -0.0339  0.6197  0.1191
 5208TIP3    H137183   4.934   6.228   8.447 -1.7745  1.2027  1.1989
 5208TIP3    H237184   4.846   6.110   8.416  0.0932  0.2235 -0.5858
 5209TIP3   OH237185   3.873   0.705   2.456  0.1164 -0.9423  0.0045
 5209TIP3    H137186   3.889   0.610   2.461  2.6793 -0.7582 -2.3145
 5209TIP3    H237187   3.959   0.744   2.469 -0.3296  0.9000 -2.1177
 5210TIP3   OH237188   6.480   5.714   1.807 -0.2308  0.0681  0.2982
 5210TIP3    H137189   6.416   5.786   1.805  1.3609  1.6607  2.3262
 5210TIP3    H237190   6.545   5.737   1.741 -0.4436 -0.2810 -0.0408
 5211TIP3   OH237191   2.625   1.460   0.720 -0.3310 -0.1218 -0.2666
 5211TIP3    H137192   2.591   1.544   0.688 -0.1195  0.0928  0.0549
 5211TIP3    H237193   2.691   1.435   0.656 -2.9316 -1.9419 -2.4610
 5212TIP3   OH237194   0.314   4.113   0.013 -0.1708 -0.2000  0.3905
 5212TIP3    H137195   0.369   4.177   0.057  0.0456  0.3302 -0.6129
 5212TIP3    H237196   0.272   4.064   0.084  0.8834 -0.0091  1.1709
 5213TIP3   OH237197   4.768   0.300   7.223 -1.0140 -0.0815 -0.0356
 5213TIP3    H137198   4.721   0.218   7.238 -1.9125  0.5872  0.8680
 5213TIP3    H237199   4.704   0.358   7.182 -1.1386  0.9765  1.5825
 5214TIP3   OH237200   5.710   2.720   7.772  0.3473  0.0498  0.0673
 5214TIP3    H137201   5.718   2.630   7.801 -2.1233 -0.3602 -0.3243
 5214TIP3    H237202   5.628   2.723   7.722  0.0217  2.6230  0.5820
 5215TIP3   OH237203   0.310   2.728   1.211 -0.2472  0.1758  0.2793
 5215TIP3    H137204   0.276   2.648   1.172  0.0295  0.2030 -0.0200
 5215TIP3    H237205   0.391   2.745   1.163 -0.9103  1.2978 -0.4777
 5216TIP3   OH237206   2.979   2.250   2.596 -0.1482 -0.4252  0.2046
 5216TIP3    H137207   2.929   2.209   2.666  0.6934 -1.2529  0.3454
 5216TIP3    H237208   3.066   2.266   2.635 -0.0390  0.2187 -0.2837
 5217TIP3   OH237209   3.923   1.119   6.697  0.0538 -0.4842  0.4583
 5217TIP3    H137210   3.952   1.197   6.650 -1.2334  1.4008  2.5722
 5217TIP3    H237211   3.867   1.073   6.635 -0.3041  1.0541 -0.4070
 5218TIP3   OH237212   3.558   1.558   7.313 -0.2587 -0.1128  0.0967
 5218TIP3    H137213   3.511   1.478   7.288 -0.3380 -0.0644  0.0890
 5218TIP3    H237214   3.504   1.596   7.383  0.0966 -0.3833  0.5237
 5219TIP3   OH237215   5.764   1.355   8.193  0.2801 -0.4397 -0.2019
 5219TIP3    H137216   5.726   1.434   8.232  0.6287  0.0108 -0.7628
 5219TIP3    H237217   5.858   1.374   8.187  0.7669 -1.8182  1.8683
 5220TIP3   OH237218   5.071   4.629   8.228 -0.0349  0.3372 -0.2762
 5220TIP3    H137219   5.054   4.544   8.188 -1.0349  0.4454 -0.1089
 5220TIP3    H237220   5.149   4.662   8.182 -0.6107  0.0574 -1.5006
 5221TIP3   OH237221   6.863   4.611   0.095 -0.6448 -0.3907 -0.3183
 5221TIP3    H137222   6.942   4.633   0.045 -1.8677  0.2120 -2.1036
 5221TIP3    H237223   6.893   4.549   0.161  1.9104  2.2114  1.1765
 5222TIP3   OH237224   2.390   3.391   3.066 -0.0573  0.2017 -0.2201
 5222TIP3    H137225   2.429   3.314   3.024 -0.4242  0.0234 -0.2361
 5222TIP3    H237226   2.362   3.446   2.993  0.7056  0.6101 -0.2115
 5223TIP3   OH237227   2.522   0.514   7.801 -0.1542  0.5800 -0.0575
 5223TIP3    H137228   2.466   0.535   7.876  1.1852  2.1359  0.5766
 5223TIP3    H237229   2.562   0.598   7.778  0.6326 -0.1752 -1.5570
 5224TIP3   OH237230   6.819   3.327   0.697 -0.1913 -0.1099  0.4672
 5224TIP3    H137231   6.777   3.312   0.782  0.1952  1.0038  0.8689
 5224TIP3    H237232   6.893   3.385   0.716 -0.5269  0.7465 -0.7207
 5225TIP3   OH237233   2.396   3.938   1.237  0.0187 -0.1288  0.2047
 5225TIP3    H137234   2.471   3.954   1.180  0.7612  1.3463  1.5287
 5225TIP3    H237235   2.320   3.943   1.179  0.5417  3.6328 -0.4127
 5226TIP3   OH237236   1.702   2.255   1.212  0.0825 -0.1292 -0.0373
 5226TIP3    H137237   1.628   2.198   1.231  0.4976 -1.4056 -1.9621
 5226TIP3    H237238   1.664   2.328   1.163  0.1309 -1.0579 -1.5037
 5227TIP3   OH237239   3.928   6.569   6.820  0.0916 -0.2467  0.5733
 5227TIP3    H137240   3.836   6.554   6.841  0.5046 -1.4796  1.6694
 5227TIP3    H237241   3.941   6.663   6.831 -1.1163 -0.0030  0.0241
 5228TIP3   OH237242   0.948   1.565   1.844 -0.1302  0.0161 -0.1217
 5228TIP3    H137243   0.893   1.488   1.860  0.4730 -0.5802 -0.8187
 5228TIP3    H237244   0.912   1.604   1.765  0.2938 -0.2483 -0.4528
 5229TIP3   OH237245   3.020   0.133   2.343 -0.2921 -0.4469  0.5551
 5229TIP3    H137246   3.081   0.092   2.405  0.6623  1.2442  0.8077
 5229TIP3    H237247   2.978   0.202   2.394 -1.2587 -0.5469 -0.0776
 5230TIP3   OH237248   6.807   2.356   0.072  0.1761 -0.1906 -0.0560
 5230TIP3    H137249   6.884   2.394   0.112 -0.3032 -1.3637  2.1126
 5230TIP3    H237250   6.789   2.412  -0.004  2.7759  0.4335 -0.2900
 5231TIP3   OH237251   4.700   1.516   7.935 -0.1133 -0.2386 -0.0504
 5231TIP3    H137252   4.722   1.514   8.028 -0.0150 -0.1270 -0.0716
 5231TIP3    H237253   4.668   1.427   7.916 -2.6057  0.4104  0.6860
 5232TIP3   OH237254   4.720   0.986   7.473 -0.5873  0.0061 -1.1996
 5232TIP3    H137255   4.656   1.046   7.435 -0.2948 -0.7339 -2.9698
 5232TIP3    H237256   4.767   1.039   7.537 -3.5155  0.3285  0.8536
 5233TIP3   OH237257   3.204   6.298   0.994  0.2300 -0.4303 -0.2972
 5233TIP3    H137258   3.285   6.342   0.967  0.2067 -0.7989 -1.0177
 5233TIP3    H237259   3.203   6.305   1.089  0.9248 -0.0949 -0.3056
 5234TIP3   OH237260   4.702   6.840   8.046 -0.5608 -0.3257  0.0260
 5234TIP3    H137261   4.643   6.772   8.012 -0.3202 -0.9268  0.7859
 5234TIP3    H237262   4.756   6.795   8.110  0.5740  0.2773 -0.4850
 5235TIP3   OH237263   4.260   4.333   0.999 -0.8594  0.3189  0.8880
 5235TIP3    H137264   4.169   4.361   1.005 -0.9569 -0.0402  1.0980
 5235TIP3    H237265   4.288   4.323   1.091 -0.3217  1.3590  0.8540
 5236TIP3   OH237266   2.135   0.940   1.138 -0.0025  0.5387 -0.5970
 5236TIP3    H137267   2.153   0.868   1.198  1.3194 -0.3387 -1.9914
 5236TIP3    H237268   2.119   1.015   1.196 -1.7602 -0.8784  0.9073
 5237TIP3   OH237269   1.298   5.651   7.380  0.4114  0.3715 -0.1317
 5237TIP3    H137270   1.242   5.668   7.304  2.0515 -0.8576 -1.7070
 5237TIP3    H237271   1.379   5.698   7.362  1.7692 -1.9350 -0.4361
 5238TIP3   OH237272   5.619   5.813   0.727  0.1078  0.3304  0.9934
 5238TIP3    H137273   5.662   5.898   0.734  1.2827 -0.3262  2.5766
 5238TIP3    H237274   5.538   5.822   0.777 -0.0254  0.6473  0.7263
 5239TIP3   OH237275   2.025   3.730   8.318  0.3099 -0.2398 -0.7018
 5239TIP3    H137276   1.973   3.693   8.389  1.1916 -2.2887 -1.0431
 5239TIP3    H237277   1.974   3.804   8.285  0.0971  1.1020  2.3471
 5240TIP3   OH237278   2.982   5.317   0.515 -0.1640  0.1842 -0.8372
 5240TIP3    H137279   2.938   5.349   0.436  0.2345  2.1766 -0.3133
 5240TIP3    H237280   2.996   5.396   0.567  0.0819 -1.0186  0.9856
 5241TIP3   OH237281   3.223   2.950   1.025 -0.0170  0.0335 -0.4987
 5241TIP3    H137282   3.257   2.950   1.114 -0.8565 -0.9895 -0.1672
 5241TIP3    H237283   3.295   2.986   0.972 -0.1037  2.3378  0.7844
 5242TIP3   OH237284   1.563   6.755   8.450  0.3743  0.0917 -0.5730
 5242TIP3    H137285   1.621   6.801   8.390  1.1236 -0.1621 -0.0501
 5242TIP3    H237286   1.483   6.808   8.452  0.9089  0.9028 -0.6341
 5243TIP3   OH237287   1.558   4.175   7.315  0.3742  0.0327  0.7277
 5243TIP3    H137288   1.624   4.145   7.378  0.3010 -1.1257  0.2728
 5243TIP3    H237289   1.506   4.239   7.364  1.6392  0.7563  1.1768
 5244TIP3   OH237290   1.860   3.994   0.008 -0.7511 -0.3164 -0.0009
 5244TIP3    H137291   1.805   3.961   0.079 -3.7239  1.9094 -1.0591
 5244TIP3    H237292   1.858   3.924  -0.058 -1.5500 -0.6759  0.3817
 5245TIP3   OH237293   5.595   6.441   1.009  0.0708  0.3151 -0.2381
 5245TIP3    H137294   5.582   6.516   0.951  1.1140 -0.8270 -2.0460
 5245TIP3    H237295   5.640   6.376   0.954  1.5507 -0.6529  1.9886
 5246TIP3   OH237296   4.232   4.166   8.313 -0.1245 -0.4273  0.0820
 5246TIP3    H137297   4.235   4.248   8.362 -0.2995 -0.4123  0.0656
 5246TIP3    H237298   4.316   4.163   8.266  1.3759 -1.8086  2.5866
 5247TIP3   OH237299   6.718   5.985   7.723  0.1808  0.6131 -0.4067
 5247TIP3    H137300   6.724   5.981   7.627 -0.5682 -0.5054 -0.4371
 5247TIP3    H237301   6.720   6.078   7.744  2.0768  0.8540 -1.3702
 5248TIP3   OH237302   1.384   5.178   8.543  0.0439  0.7976  0.1008
 5248TIP3    H137303   1.321   5.121   8.499 -0.4526  0.7647  0.8301
 5248TIP3    H237304   1.347   5.266   8.533  0.4685  0.9167 -0.4486
 5249TIP3   OH237305   4.507   2.920   7.221  0.1389  0.6364  0.3158
 5249TIP3    H137306   4.503   2.888   7.130 -0.3838  0.6358  0.3398
 5249TIP3    H237307   4.532   2.843   7.272 -1.9087  0.0280  0.4822
 5250TIP3   OH237308   4.130   0.892   1.480  0.3441 -0.2228  0.3695
 5250TIP3    H137309   4.037   0.879   1.462  0.4387 -0.3404 -0.0509
 5250TIP3    H237310   4.136   0.898   1.575  0.0540 -1.3921  0.4796
 5251TIP3   OH237311   4.756   1.003   8.317 -0.4857  0.3480 -0.0370
 5251TIP3    H137312   4.784   0.983   8.406 -0.6109 -0.7934 -0.2371
 5251TIP3    H237313   4.670   0.960   8.309  0.0332 -0.5420 -1.0625
 5252TIP3   OH237314   1.403   3.331   7.457 -1.1334 -0.2056 -0.4581
 5252TIP3    H137315   1.479   3.273   7.454 -1.8088 -1.1104 -0.4367
 5252TIP3    H237316   1.439   3.416   7.483 -0.2601 -0.8293  0.4657
 5253TIP3   OH237317   5.341   6.645   6.683  0.2599  0.3420 -0.0636
 5253TIP3    H137318   5.296   6.729   6.673  0.4341  0.8703  2.9098
 5253TIP3    H237319   5.274   6.579   6.662 -0.8645  1.1784  0.8216
 5254TIP3   OH237320   1.983   4.120   3.128 -0.0191  0.4363 -0.2851
 5254TIP3    H137321   1.969   4.191   3.065 -1.3319  0.8449  0.4212
 5254TIP3    H237322   2.028   4.052   3.078  2.7469  2.3267 -0.5928
 5255TIP3   OH237323   1.839   5.669   1.294  0.3933 -0.7869  0.1287
 5255TIP3    H137324   1.815   5.760   1.309  2.3397 -0.4844  1.9923
 5255TIP3    H237325   1.853   5.662   1.200 -2.0851  0.1697 -0.3763
 5256TIP3   OH237326   6.727   1.050   0.863  0.5145 -0.3173  0.1385
 5256TIP3    H137327   6.691   1.014   0.782  0.0423 -2.4313  1.2163
 5256TIP3    H237328   6.735   1.144   0.846  0.1375 -0.6469 -2.2226
 5257TIP3   OH237329   3.727   4.781   7.739  0.6088  0.2914 -0.2617
 5257TIP3    H137330   3.707   4.688   7.727  2.3175  0.0694 -2.0310
 5257TIP3    H237331   3.817   4.790   7.708  0.3820  2.5954 -0.4438
 5258TIP3   OH237332   2.459   1.844   7.299  0.2437 -0.0803  0.1709
 5258TIP3    H137333   2.415   1.826   7.216  1.6454 -0.2930 -0.5542
 5258TIP3    H237334   2.427   1.777   7.358  2.3890 -2.6854 -1.4003
 5259TIP3   OH237335   0.482   4.055   8.392  0.0466  1.0225  0.7640
 5259TIP3    H137336   0.429   4.063   8.472 -1.1397 -1.2939  0.2731
 5259TIP3    H237337   0.429   4.004   8.332  1.2774  1.9696 -1.2531
 5260TIP3   OH237338   2.970   2.419   6.701  0.4916  0.8057  0.0789
 5260TIP3    H137339   2.908   2.353   6.732  0.5549  0.7756  0.1406
 5260TIP3    H237340   3.014   2.450   6.780  1.8278 -0.4516 -0.1411
 5261TIP3   OH237341   2.124   4.400   8.360  0.3785 -0.0329  0.0184
 5261TIP3    H137342   2.118   4.495   8.349  3.5937  0.2807 -0.1789
 5261TIP3    H237343   2.201   4.387   8.415 -0.1734 -2.5499  0.3372
 5262TIP3   OH237344   4.346   4.172   0.638  0.0287 -0.0904 -0.3641
 5262TIP3    H137345   4.390   4.187   0.554  0.3315  0.2129 -0.1515
 5262TIP3    H237346   4.253   4.164   0.615  0.1738 -0.6339 -0.8044
 5263TIP3   OH237347   0.884   4.062   1.806  0.1873 -0.0706  0.3039
 5263TIP3    H137348   0.801   4.067   1.853 -1.8276 -0.3121 -2.8650
 5263TIP3    H237349   0.923   3.980   1.836  0.1737  0.8208  3.0329
 5264TIP3   OH237350   5.239   3.006   2.106 -0.6431 -0.3809 -0.3982
 5264TIP3    H137351   5.167   2.945   2.122 -1.4273  0.8734  1.2434
 5264TIP3    H237352   5.199   3.078   2.057 -0.6051  0.4356  0.7348
 5265TIP3   OH237353   1.750   4.116   0.757  0.2902  0.6781 -0.0947
 5265TIP3    H137354   1.790   4.182   0.814 -0.9653  0.0395  1.5934
 5265TIP3    H237355   1.664   4.152   0.736  0.3215  0.4025 -0.7032
 5266TIP3   OH237356   4.763   5.128   2.766  0.0830 -0.5605 -0.1939
 5266TIP3    H137357   4.814   5.047   2.758 -0.3606 -0.7299 -1.5124
 5266TIP3    H237358   4.689   5.116   2.707 -1.7247 -0.4542  1.9656
 5267TIP3   OH237359   6.162   4.389   7.894  0.4337 -0.3369  0.5849
 5267TIP3    H137360   6.134   4.422   7.979  1.3827 -0.7562  1.0712
 5267TIP3    H237361   6.117   4.305   7.885 -0.9222  0.4213 -0.0579
 5268TIP3   OH237362   1.654   5.128   7.946  0.1017 -0.1338  0.3651
 5268TIP3    H137363   1.690   5.134   8.035 -1.1769 -0.3805  0.9212
 5268TIP3    H237364   1.600   5.207   7.937  0.3446 -0.0324 -0.2588
 5269TIP3   OH237365   0.193   5.069   6.441  0.5340 -0.0171  0.0229
 5269TIP3    H137366   0.173   4.992   6.494 -0.5742 -0.6138 -1.2134
 5269TIP3    H237367   0.253   5.037   6.374 -1.0382 -0.1795 -1.3672
 5270TIP3   OH237368   4.252   1.927   1.578  0.5617 -0.2703  0.3901
 5270TIP3    H137369   4.340   1.924   1.540 -0.3657 -0.0288 -1.9577
 5270TIP3    H237370   4.229   1.835   1.591  1.0150 -0.3517  0.6148
 5271TIP3   OH237371   6.313   0.544   8.346  0.4203 -0.4956  0.2137
 5271TIP3    H137372   6.344   0.455   8.364  3.4845  0.3177 -0.4029
 5271TIP3    H237373   6.328   0.555   8.252 -1.7417  0.0822 -0.0972
 5272TIP3   OH237374   2.227   0.621   6.963 -0.0340  0.0531  0.0642
 5272TIP3    H137375   2.307   0.593   7.008  0.0601 -0.3923 -0.3799
 5272TIP3    H237376   2.257   0.677   6.891 -0.0746 -0.6973 -0.5427
 5273TIP3   OH237377   0.574   0.762   7.504 -0.1460 -0.0806 -0.3819
 5273TIP3    H137378   0.484   0.777   7.531 -0.0741  0.3753 -0.3886
 5273TIP3    H237379   0.625   0.828   7.551 -0.0877  1.1159 -2.0157
 5274TIP3   OH237380   3.803   2.186   7.970 -0.6843 -0.3183 -0.5247
 5274TIP3    H137381   3.795   2.282   7.967  1.1248 -0.1504 -0.6186
 5274TIP3    H237382   3.857   2.169   8.047 -0.9085 -1.2711 -0.5720
 5275TIP3   OH237383   1.757   2.676   2.032  0.2733 -0.2429 -0.9186
 5275TIP3    H137384   1.826   2.613   2.053 -1.5115 -1.6194  1.3443
 5275TIP3    H237385   1.776   2.750   2.089  0.4955 -0.1465 -1.1153
 5276TIP3   OH237386   2.876   1.633   6.493  0.3150  0.5346  0.3128
 5276TIP3    H137387   2.843   1.713   6.453 -0.1330  0.4217  0.4504
 5276TIP3    H237388   2.798   1.586   6.521  0.6225  0.9769  2.0328
 5277TIP3   OH237389   3.869   1.023   0.119  0.5111  0.5877 -0.4775
 5277TIP3    H137390   3.862   0.971   0.200 -1.3468  0.2193 -0.8245
 5277TIP3    H237391   3.877   0.958   0.049 -2.5874  0.6084 -0.9930
 5278TIP3   OH237392   6.618   3.624   2.288 -0.6086  0.3749  0.1631
 5278TIP3    H137393   6.604   3.553   2.351 -0.6327  1.4588  1.4109
 5278TIP3    H237394   6.684   3.679   2.328 -0.3646  0.9129 -0.9394
 5279TIP3   OH237395   4.011   1.428   8.351 -0.4653  0.3018 -0.1490
 5279TIP3    H137396   3.979   1.377   8.426 -0.4508 -1.4784 -1.2762
 5279TIP3    H237397   3.942   1.492   8.335 -1.2287 -0.3466  0.4136
 5280TIP3   OH237398   1.394   2.838   7.744 -0.2666  0.5186 -0.0434
 5280TIP3    H137399   1.378   2.845   7.838  0.7266 -0.9231  0.2642
 5280TIP3    H237400   1.432   2.922   7.719 -0.2982  0.8118  0.8861
 5281TIP3   OH237401   1.830   6.581   7.846  0.1638  0.3791 -0.3178
 5281TIP3    H137402   1.874   6.625   7.919 -0.0911  0.4207 -0.1876
 5281TIP3    H237403   1.900   6.537   7.799  0.0991 -1.3875  1.1422
 5282TIP3   OH237404   1.030   6.526   8.540 -0.1650  0.3293  0.0379
 5282TIP3    H137405   1.000   6.438   8.519 -1.2384  0.1697  2.0279
 5282TIP3    H237406   0.953   6.581   8.528  0.0523  0.7266  0.4457
 5283TIP3   OH237407   2.498   1.373   1.750 -0.1209  0.7025 -0.1791
 5283TIP3    H137408   2.556   1.349   1.822 -0.7442 -1.6036 -0.3462
 5283TIP3    H237409   2.470   1.462   1.770  1.6264  1.0118  1.1192
 5284TIP3   OH237410   5.403   2.636   7.855 -0.1401  0.0635  0.0932
 5284TIP3    H137411   5.417   2.655   7.762  1.9871 -0.5721  0.2358
 5284TIP3    H237412   5.469   2.570   7.877 -0.8855 -0.1366  1.9570
 5285TIP3   OH237413   2.369   5.516   0.037 -0.8178  0.5052 -0.5068
 5285TIP3    H137414   2.348   5.552   0.123 -0.0897  1.7613 -0.8424
 5285TIP3    H237415   2.451   5.468   0.050 -1.4683 -0.5486 -0.1950
 5286TIP3   OH237416   0.130   4.589   7.815 -0.1144 -0.0322 -0.1983
 5286TIP3    H137417   0.080   4.516   7.778  0.9874 -0.2433 -1.3370
 5286TIP3    H237418   0.066   4.640   7.865 -2.2861  1.6281 -4.2498
 5287TIP3   OH237419   1.356   1.705   7.433 -0.6422 -0.0878 -0.2403
 5287TIP3    H137420   1.348   1.747   7.518 -0.5770  1.3202 -0.9118
 5287TIP3    H237421   1.355   1.611   7.453 -0.6957  0.2128  1.2934
 5288TIP3   OH237422   6.480   6.019   0.336  0.2791 -0.2440 -0.0214
 5288TIP3    H137423   6.499   6.091   0.276  0.0526 -0.0518  0.1390
 5288TIP3    H237424   6.452   6.061   0.417  0.2562 -0.5097  0.1112
 5289TIP3   OH237425   5.419   0.254   7.680  0.5722 -0.5751 -0.1897
 5289TIP3    H137426   5.425   0.234   7.586 -0.8515 -1.6948 -0.0607
 5289TIP3    H237427   5.499   0.304   7.698  0.1757  0.9942 -2.3067
 5290TIP3   OH237428   5.032   1.508   1.118 -0.1851 -0.0520  0.4224
 5290TIP3    H137429   4.998   1.466   1.197 -1.8556  1.6212  0.6468
 5290TIP3    H237430   5.123   1.528   1.139 -0.4964  0.0243  1.7857
 5291TIP3   OH237431   5.793   5.512   1.471  0.6391 -0.6917 -0.1345
 5291TIP3    H137432   5.879   5.476   1.489  1.1469  1.2265  1.6466
 5291TIP3    H237433   5.790   5.519   1.375  2.3801 -1.0019 -0.2484
 5292TIP3   OH237434   1.338   1.545   0.974 -0.0113 -0.1584  0.5308
 5292TIP3    H137435   1.268   1.583   1.027  1.0600  0.0976  1.7993
 5292TIP3    H237436   1.323   1.580   0.886 -1.3107  0.0858  0.8255
 5293TIP3   OH237437   2.259   1.966   0.362  0.9343  0.3627  0.5525
 5293TIP3    H137438   2.213   1.884   0.382  1.1114 -0.5640 -2.4175
 5293TIP3    H237439   2.190   2.033   0.365  0.3910 -0.1959  1.0324
 5294TIP3   OH237440   1.310   3.876   0.285 -0.1204  0.1164  0.3855
 5294TIP3    H137441   1.330   3.833   0.368 -0.0641  0.1667  0.3982
 5294TIP3    H237442   1.324   3.969   0.302  0.2104  0.0967  0.2289
 5295TIP3   OH237443   5.440   5.507   0.245 -0.1694  0.3921 -0.2007
 5295TIP3    H137444   5.514   5.528   0.302 -0.7006 -1.9367  1.5312
 5295TIP3    H237445   5.479   5.488   0.160  1.0929  0.4678  0.3471
 5296TIP3   OH237446   4.176   4.583   6.826  0.5037  0.0115  0.1797
 5296TIP3    H137447   4.136   4.660   6.784  3.2737  1.8612  0.6621
 5296TIP3    H237448   4.133   4.508   6.785 -1.1334  1.7969 -1.5648
 5297TIP3   OH237449   0.979   5.748   1.577 -0.5490  0.0932 -0.4182
 5297TIP3    H137450   0.973   5.666   1.627  0.2517  0.3205  0.0612
 5297TIP3    H237451   1.004   5.720   1.488  1.0345 -0.1122  0.0624
 5298TIP3   OH237452   3.979   0.179   1.013 -0.0005 -0.0450  0.2069
 5298TIP3    H137453   3.891   0.184   1.049  0.3492  1.7510  0.8936
 5298TIP3    H237454   3.970   0.210   0.923  0.1032  1.3281  0.6497
 5299TIP3   OH237455   4.781   4.700   0.489 -0.0437  0.1656  0.7227
 5299TIP3    H137456   4.744   4.644   0.557  1.5016 -0.4871  1.0783
 5299TIP3    H237457   4.706   4.743   0.449 -1.0549 -0.1402  2.2294
 5300TIP3   OH237458   6.004   0.651   1.568  0.2659 -0.3589 -0.4480
 5300TIP3    H137459   5.990   0.599   1.489 -0.9512 -2.7323  1.1852
 5300TIP3    H237460   6.071   0.715   1.543  0.8794 -1.8446 -3.0099
 5301TIP3   OH237461   0.749   6.213   7.640 -0.1363  0.2469 -0.6610
 5301TIP3    H137462   0.773   6.154   7.710 -2.5382  0.9238  0.8561
 5301TIP3    H237463   0.783   6.298   7.667  1.6121 -0.0042 -1.8917
 5302TIP3   OH237464   0.443   1.068   6.830 -0.5087 -0.1063  0.5638
 5302TIP3    H137465   0.514   1.126   6.803 -0.4771 -0.1638  0.5231
 5302TIP3    H237466   0.477   0.980   6.813 -0.8359 -0.1152 -0.0635
 5303TIP3   OH237467   2.580   0.213   1.840  0.5605  0.3443  0.1192
 5303TIP3    H137468   2.642   0.261   1.784  2.3666 -1.7396  0.1534
 5303TIP3    H237469   2.634   0.181   1.912 -0.7129 -0.9420  0.5505
 5304TIP3   OH237470   1.574   2.560   8.067 -0.1064 -0.0683  1.1349
 5304TIP3    H137471   1.640   2.596   8.008 -1.1853  1.7926  0.9893
 5304TIP3    H237472   1.543   2.481   8.023 -0.2674  0.7968 -0.3889
 5305TIP3   OH237473   6.779   4.636   8.174 -0.3130 -0.8665 -0.0742
 5305TIP3    H137474   6.689   4.607   8.188 -0.1688 -1.0795  0.4277
 5305TIP3    H237475   6.781   4.664   8.082 -0.5894 -1.9476 -0.4196
 5306TIP3   OH237476   0.634   3.680   0.593  0.3428  0.0581 -0.9121
 5306TIP3    H137477   0.678   3.749   0.542  2.5761 -0.0260  0.7604
 5306TIP3    H237478   0.657   3.599   0.548  0.4115  0.1425 -1.0308
 5307TIP3   OH237479   0.801   6.596   8.440 -0.0036 -0.3623 -0.1382
 5307TIP3    H137480   0.766   6.616   8.353  1.2399 -0.7768 -0.7688
 5307TIP3    H237481   0.748   6.522   8.471 -0.1936 -0.4819 -0.7351
 5308TIP3   OH237482   0.177   3.103   8.474  0.0731 -0.2739  0.4782
 5308TIP3    H137483   0.242   3.167   8.447 -0.1829 -0.1661  0.1063
 5308TIP3    H237484   0.178   3.038   8.404  0.4992 -0.8031  0.9695
 5309TIP3   OH237485   4.556   5.684   1.710  0.0376  0.2754  0.2066
 5309TIP3    H137486   4.524   5.743   1.642 -0.1211 -0.2709 -0.1965
 5309TIP3    H237487   4.553   5.597   1.670 -1.8458 -0.3259  1.4781
 5310TIP3   OH237488   3.931   6.413   7.158 -0.8866  0.3185  0.4510
 5310TIP3    H137489   3.835   6.421   7.161 -0.9208 -0.0450  0.3866
 5310TIP3    H237490   3.948   6.325   7.191 -0.6194  0.0839 -0.2969
 5311TIP3   OH237491   6.454   2.042   7.275  0.0631 -0.2405  0.5435
 5311TIP3    H137492   6.532   1.993   7.249  1.2819  1.9445 -0.1795
 5311TIP3    H237493   6.386   1.975   7.287  1.9109 -2.1749  0.7891
 5312TIP3   OH237494   1.000   2.455   1.371 -0.3634  0.6412  0.3601
 5312TIP3    H137495   0.961   2.522   1.427 -1.7036 -0.7229  1.1454
 5312TIP3    H237496   0.935   2.440   1.302 -0.2956 -0.1515  0.4545
 5313TIP3   OH237497   5.676   1.484   0.948  0.1561 -0.2235  0.4825
 5313TIP3    H137498   5.656   1.576   0.962  0.1163 -0.4265  1.9326
 5313TIP3    H237499   5.622   1.459   0.873 -0.2540  0.7845  0.4285
 5314TIP3   OH237500   5.450   4.393   7.593 -0.0477  0.6603  0.5445
 5314TIP3    H137501   5.378   4.350   7.640  0.7189  0.9326  2.0246
 5314TIP3    H237502   5.528   4.370   7.643  0.8502  0.7454 -0.7764
 5315TIP3   OH237503   4.932   4.416   7.268  0.4815  0.4284  0.9497
 5315TIP3    H137504   4.869   4.364   7.220  1.2457  0.2880  0.0751
 5315TIP3    H237505   4.892   4.503   7.276 -0.5016 -0.0890  1.8295
 5316TIP3   OH237506   3.321   0.607   1.700 -0.2239  0.3403 -0.0887
 5316TIP3    H137507   3.366   0.663   1.763  1.0889 -1.1336  0.3613
 5316TIP3    H237508   3.228   0.626   1.712  0.1371  1.7623  0.6310
 5317TIP3   OH237509   2.663   2.247   8.235  0.3698  0.2704  0.0990
 5317TIP3    H137510   2.705   2.228   8.151 -0.9244  0.4478 -0.6089
 5317TIP3    H237511   2.719   2.204   8.300  1.2493 -0.0856 -0.8687
 5318TIP3   OH237512   4.898   3.327   1.225  0.2539 -0.7887 -0.5191
 5318TIP3    H137513   4.858   3.317   1.139  0.2446  1.0367 -0.7618
 5318TIP3    H237514   4.936   3.241   1.244 -1.4845 -1.8078 -1.4290
 5319TIP3   OH237515   1.926   2.074   1.167  0.4776  0.0148  0.0228
 5319TIP3    H137516   1.955   2.139   1.103 -0.8278 -1.1713 -1.8863
 5319TIP3    H237517   1.857   2.118   1.216 -0.0645  0.2516 -0.9248
 5320TIP3   OH237518   5.724   2.882   0.448  0.0722 -0.3484  0.9141
 5320TIP3    H137519   5.655   2.928   0.401  1.9288 -1.4675 -3.4283
 5320TIP3    H237520   5.776   2.952   0.488 -0.5868  0.9219 -0.3342
 5321TIP3   OH237521   6.855   5.670   1.878  0.2802  0.1293  0.3614
 5321TIP3    H137522   6.946   5.683   1.903 -0.3846  1.3540  2.3534
 5321TIP3    H237523   6.823   5.602   1.937 -0.0740 -0.3752 -0.3979
 5322TIP3   OH237524   5.566   2.408   7.740  0.3681 -0.1319 -0.3647
 5322TIP3    H137525   5.509   2.427   7.665 -0.1703  1.8334  0.4563
 5322TIP3    H237526   5.546   2.318   7.764 -0.6714 -0.2391 -1.5483
 5323TIP3   OH237527   3.188   0.412   0.785 -0.3612  0.2160  0.0605
 5323TIP3    H137528   3.283   0.417   0.776 -0.0278 -0.2447  2.5886
 5323TIP3    H237529   3.155   0.408   0.695  2.1237 -1.9141 -0.8690
 5324TIP3   OH237530   1.605   6.425   1.602  0.0483  0.1851  0.3913
 5324TIP3    H137531   1.579   6.430   1.510 -1.5502 -1.1481  0.7148
 5324TIP3    H237532   1.546   6.485   1.647  0.8811  0.8949  0.5523
 5325TIP3   OH237533   2.944   6.579   7.306  0.0155  0.4003  0.0788
 5325TIP3    H137534   2.866   6.599   7.357  0.0365  0.8483 -0.0644
 5325TIP3    H237535   3.007   6.544   7.370 -0.4450 -0.3676  0.1253
 5326TIP3   OH237536   2.700   2.881   7.219 -0.0918  0.3476  0.0162
 5326TIP3    H137537   2.773   2.846   7.269  1.0083  0.5824 -1.3823
 5326TIP3    H237538   2.738   2.909   7.137 -2.0204 -1.1961 -1.5235
 5327TIP3   OH237539   6.477   2.258   7.449 -0.1547  0.1180 -0.3739
 5327TIP3    H137540   6.432   2.335   7.414  0.1783  0.2742 -0.4611
 5327TIP3    H237541   6.474   2.194   7.378 -0.3241  0.0942 -0.3457
 5328TIP3   OH237542   1.542   3.470   1.512 -0.1321 -0.4834  0.5927
 5328TIP3    H137543   1.575   3.413   1.582  2.1691 -0.1363 -0.1370
 5328TIP3    H237544   1.571   3.428   1.431  0.8927  1.2425  0.0205
 5329TIP3   OH237545   4.992   4.932   0.103  0.1141 -0.1007 -0.3618
 5329TIP3    H137546   4.938   4.971   0.034 -1.8298 -0.5586  0.8460
 5329TIP3    H237547   4.946   4.952   0.184  2.9778  1.5325  1.0281
 5330TIP3   OH237548   1.813   2.236   7.408  0.3029 -0.1240  0.1754
 5330TIP3    H137549   1.862   2.257   7.328  0.8086  1.0635  0.7661
 5330TIP3    H237550   1.796   2.142   7.402  3.0740 -0.7064  0.1461
 5331TIP3   OH237551   0.588   1.308   1.927  0.0942  0.3002  0.4659
 5331TIP3    H137552   0.507   1.357   1.945 -0.5199 -0.2830 -0.5412
 5331TIP3    H237553   0.608   1.330   1.836 -0.3989 -1.5502 -0.1290
 5332TIP3   OH237554   4.386   3.076   0.895 -0.2820  0.4971  0.0137
 5332TIP3    H137555   4.444   3.012   0.854  0.3570  0.5394  0.8409
 5332TIP3    H237556   4.300   3.055   0.859 -0.6182 -2.5728  2.2146
 5333TIP3   OH237557   4.861   2.226   0.474  0.4585 -0.2576 -0.6436
 5333TIP3    H137558   4.938   2.209   0.420  0.1049  0.8898 -1.5388
 5333TIP3    H237559   4.787   2.219   0.414 -0.2364 -1.8852  0.3029
 5334TIP3   OH237560   0.759   5.749   0.152  0.2034 -0.2708  0.4806
 5334TIP3    H137561   0.742   5.833   0.194 -0.4628 -1.2256  2.2643
 5334TIP3    H237562   0.804   5.698   0.220  0.7588 -1.2891 -0.6234
 5335TIP3   OH237563   6.047   3.517   6.988  0.1252 -0.2222 -0.0891
 5335TIP3    H137564   6.139   3.492   6.982  0.9842  2.6437 -0.2946
 5335TIP3    H237565   6.004   3.467   6.918  1.3757 -1.9769  0.3245
 5336TIP3   OH237566   3.620   0.825   1.683 -0.0010 -0.4279 -0.2298
 5336TIP3    H137567   3.696   0.859   1.730 -0.8858  0.1590  0.8303
 5336TIP3    H237568   3.564   0.787   1.751 -1.1887  0.2057 -0.8155
 5337TIP3   OH237569   1.245   4.739   0.558  0.4668  0.1226  0.4643
 5337TIP3    H137570   1.240   4.799   0.484 -0.2317 -0.8908 -0.3293
 5337TIP3    H237571   1.187   4.667   0.535  1.3343 -0.8988  1.3612
 5338TIP3   OH237572   4.180   6.102   1.675 -0.3984  0.1764 -0.9193
 5338TIP3    H137573   4.255   6.132   1.726 -0.6995 -2.0957  1.0418
 5338TIP3    H237574   4.206   6.114   1.584  1.6137  1.0789 -0.2687
 5339TIP3   OH237575   2.016   1.034   0.873  0.1344 -0.1583 -0.1305
 5339TIP3    H137576   1.987   0.948   0.843  1.9958 -1.1204  0.6620
 5339TIP3    H237577   2.060   1.017   0.956  0.1754  1.6248  0.2524
 5340TIP3   OH237578   5.205   2.379   8.039  0.6544 -0.1501  0.0408
 5340TIP3    H137579   5.238   2.293   8.067  1.3500  0.6800  1.8963
 5340TIP3    H237580   5.268   2.442   8.074 -0.8337  1.2352  0.3447
 5341TIP3   OH237581   6.309   1.845   0.354  0.3215  0.1504 -0.4460
 5341TIP3    H137582   6.235   1.895   0.319  2.2834  1.5330 -2.9398
 5341TIP3    H237583   6.286   1.754   0.339 -1.1306  0.5060 -0.5434
 5342TIP3   OH237584   3.709   5.349   8.493 -0.1108 -0.0342 -0.7311
 5342TIP3    H137585   3.803   5.365   8.482  0.1141 -0.7410  0.0537
 5342TIP3    H237586   3.671   5.372   8.409  0.3642  3.0082 -0.2480
 5343TIP3   OH237587   5.583   3.519   0.526  0.5949  0.3891 -0.0492
 5343TIP3    H137588   5.665   3.503   0.480 -0.4599 -3.4847 -0.9501
 5343TIP3    H237589   5.515   3.497   0.462 -1.2129  2.7295  0.9069
 5344TIP3   OH237590   3.097   4.977   0.918  0.1831 -0.1720  0.1229
 5344TIP3    H137591   3.122   4.984   1.010 -0.0600  1.6180  0.0819
 5344TIP3    H237592   3.172   5.010   0.870 -0.5829  1.2295 -0.1783
 5345TIP3   OH237593   0.445   3.505   1.290  0.1339  0.0778 -0.4485
 5345TIP3    H137594   0.512   3.441   1.266  0.2148  0.1026 -0.2906
 5345TIP3    H237595   0.372   3.486   1.232  0.4100  0.2770 -0.8738
 5346TIP3   OH237596   1.710   1.113   0.594 -0.2918 -0.0674  0.2023
 5346TIP3    H137597   1.621   1.146   0.607 -0.2480 -0.0530  0.4733
 5346TIP3    H237598   1.717   1.039   0.654 -0.1697 -0.1608  0.0733
 5347TIP3   OH237599   1.642   1.451   0.711  0.1342 -0.5168 -0.0325
 5347TIP3    H137600   1.692   1.390   0.657  1.3164  0.3571  0.0259
 5347TIP3    H237601   1.695   1.461   0.790 -0.7636 -0.5170  0.5846
 5348TIP3   OH237602   5.086   6.381   7.315 -0.1966 -0.6937 -0.1449
 5348TIP3    H137603   5.169   6.428   7.329 -0.7103  0.2037 -0.0568
 5348TIP3    H237604   5.095   6.344   7.227  0.1634 -0.2906 -0.2862
 5349TIP3   OH237605   5.166   0.914   7.296  0.1280 -0.5551 -0.5995
 5349TIP3    H137606   5.108   0.960   7.236 -2.7536 -0.8737  1.6719
 5349TIP3    H237607   5.241   0.888   7.243 -1.0359  1.3189 -3.3829
 5350TIP3   OH237608   0.900   3.905   7.992  0.0845  0.3568 -0.8308
 5350TIP3    H137609   0.838   3.965   7.952  2.2353  2.7137 -0.8716
 5350TIP3    H237610   0.910   3.936   8.082  1.9763  0.7581 -1.1391
 5351TIP3   OH237611   4.561   4.413   1.600 -0.0350 -0.6695 -0.1429
 5351TIP3    H137612   4.653   4.391   1.609 -0.7829 -3.9261  1.0222
 5351TIP3    H237613   4.540   4.391   1.509  0.0893 -1.1344 -0.0634
 5352TIP3   OH237614   4.776   2.210   7.584 -0.5908 -0.4321  0.2295
 5352TIP3    H137615   4.817   2.277   7.530 -0.8571  0.1064  0.6808
 5352TIP3    H237616   4.803   2.231   7.673  0.4176 -1.7221  0.2560
 5353TIP3   OH237617   1.681   2.796   2.467 -0.6174  0.2330 -0.2252
 5353TIP3    H137618   1.728   2.831   2.543  0.2393 -0.6195 -0.3443
 5353TIP3    H237619   1.631   2.722   2.502  0.5634 -0.8010 -0.6403
 5354TIP3   OH237620   2.215   3.247   0.232 -0.1904 -0.5965 -0.7499
 5354TIP3    H137621   2.220   3.227   0.138 -0.9343  0.3853 -1.0075
 5354TIP3    H237622   2.169   3.331   0.236  0.2606 -0.3999  0.4724
 5355TIP3   OH237623   5.294   6.670   0.612 -0.2873  0.2567  0.2767
 5355TIP3    H137624   5.344   6.660   0.531 -1.8068  1.6757 -0.9324
 5355TIP3    H237625   5.256   6.758   0.606 -0.9708  0.1459  2.2350
 5356TIP3   OH237626   3.085   2.613   0.286 -0.0527 -0.9420  0.4516
 5356TIP3    H137627   3.121   2.563   0.359 -1.6610  0.2718  2.1515
 5356TIP3    H237628   3.110   2.703   0.303 -0.3999 -0.6434 -0.5372
 5357TIP3   OH237629   0.494   2.951   8.101  0.0441  0.1810  0.2421
 5357TIP3    H137630   0.521   3.032   8.058  2.1666 -0.5514  0.1151
 5357TIP3    H237631   0.439   2.906   8.036  1.3706  0.1175 -0.8710
 5358TIP3   OH237632   2.001   0.367   0.562 -0.2391 -0.1886 -0.0837
 5358TIP3    H137633   2.007   0.447   0.509  0.5634  0.4541  0.9362
 5358TIP3    H237634   1.974   0.397   0.648 -1.0092 -1.1572  0.0271
 5359TIP3   OH237635   3.059   1.873   1.492 -0.2738 -0.4349  0.1232
 5359TIP3    H137636   3.149   1.843   1.510  0.4870  2.6218  2.1231
 5359TIP3    H237637   3.004   1.800   1.521  1.4824 -2.2822 -0.8634
 5360TIP3   OH237638   5.978   5.605   7.348  0.2156  0.3478 -0.0153
 5360TIP3    H137639   5.929   5.545   7.292 -0.4470  1.4036 -0.5830
 5360TIP3    H237640   5.926   5.612   7.428  0.6215 -0.3194  0.3193
 5361TIP3   OH237641   2.473   1.367   0.333 -0.1389 -0.1173 -0.2828
 5361TIP3    H137642   2.539   1.429   0.302  0.9506 -1.3381 -0.5017
 5361TIP3    H237643   2.390   1.402   0.302  0.1380  2.4600  1.5760
 5362TIP3   OH237644   5.235   6.630   7.759  0.6208  0.6933  0.1327
 5362TIP3    H137645   5.180   6.637   7.681 -0.2966  2.7129  0.8854
 5362TIP3    H237646   5.307   6.690   7.743  1.1445  0.1206  0.3046
 5363TIP3   OH237647   6.853   2.955   7.268 -0.3959 -0.0745 -0.9021
 5363TIP3    H137648   6.907   3.022   7.227  0.8303  1.9862  3.4457
 5363TIP3    H237649   6.916   2.888   7.295 -0.7154 -0.0671 -0.1144
 5364TIP3   OH237650   1.328   3.786   7.271  0.6284  0.1936  0.3626
 5364TIP3    H137651   1.249   3.733   7.267  0.7318  0.0812 -0.4032
 5364TIP3    H237652   1.391   3.732   7.318  0.4929 -0.0391  0.2764
 5365TIP3   OH237653   5.170   6.084   1.406 -0.1707  0.1286  0.6817
 5365TIP3    H137654   5.261   6.057   1.404 -0.7560 -2.0134  0.0487
 5365TIP3    H237655   5.171   6.176   1.381  1.5034 -0.8695 -3.7269
 5366TIP3   OH237656   1.552   3.692   6.754  0.4681 -0.3695 -0.3172
 5366TIP3    H137657   1.587   3.629   6.817 -0.5428 -0.2604  0.3799
 5366TIP3    H237658   1.547   3.774   6.802  1.2173  0.1195 -1.0447
 5367TIP3   OH237659   6.641   2.900   7.651  0.0584  0.3267 -0.2838
 5367TIP3    H137660   6.574   2.869   7.590  0.1021 -2.6367  1.0101
 5367TIP3    H237661   6.723   2.864   7.617  0.7260  2.0848 -0.6399
 5368TIP3   OH237662   0.268   1.107   0.754  0.0638  0.0187 -0.5465
 5368TIP3    H137663   0.340   1.049   0.728 -0.1478 -0.4705 -0.0622
 5368TIP3    H237664   0.269   1.177   0.689  0.9969  0.0314 -0.5394
 5369TIP3   OH237665   3.764   1.801   8.569 -0.6970 -0.4191 -0.0390
 5369TIP3    H137666   3.753   1.892   8.596 -2.8907 -0.9225  0.9872
 5369TIP3    H237667   3.783   1.806   8.475 -1.4693  1.0783 -0.1427
 5370TIP3   OH237668   1.825   3.073   1.986  0.0943  0.1604  0.5253
 5370TIP3    H137669   1.800   3.130   2.059  0.3325 -0.5653  1.1826
 5370TIP3    H237670   1.878   3.004   2.026 -1.3229 -1.3188 -0.0071
 5371TIP3   OH237671   3.947   1.659   7.036  0.0274  0.4033  0.1028
 5371TIP3    H137672   3.857   1.640   7.010 -0.3558  1.4885  0.5721
 5371TIP3    H237673   3.998   1.588   6.998 -0.7503  0.8549 -1.9027
 5372TIP3   OH237674   4.931   3.418   1.567 -0.0970  0.2475 -0.1699
 5372TIP3    H137675   4.955   3.507   1.543 -0.6327  0.4793  0.1179
 5372TIP3    H237676   4.852   3.400   1.515 -1.2591  0.7493  1.3354
 5373TIP3   OH237677   4.463   4.336   1.335  0.9997  0.1516 -0.0368
 5373TIP3    H137678   4.532   4.270   1.340 -0.4162 -1.3171  1.8035
 5373TIP3    H237679   4.392   4.292   1.289  1.1117  1.5190 -1.5959
 5374TIP3   OH237680   2.791   5.367   7.984  0.5455 -0.1000 -0.4180
 5374TIP3    H137681   2.768   5.313   7.908 -2.4000  2.4565 -1.5702
 5374TIP3    H237682   2.783   5.307   8.059 -2.6089 -1.3620 -1.6023
 5375TIP3   OH237683   3.987   5.263   8.573  0.4345  0.7720  0.4398
 5375TIP3    H137684   3.971   5.213   8.493  0.6875 -0.1880  0.9772
 5375TIP3    H237685   4.078   5.244   8.595 -0.2502 -0.8201  2.1747
 5376TIP3   OH237686   1.997   3.131   8.411  0.1810 -0.1746 -0.4249
 5376TIP3    H137687   2.080   3.176   8.398  0.3423 -0.1849  0.4983
 5376TIP3    H237688   1.952   3.139   8.327  0.4400  1.1962 -0.4572
 5377TIP3   OH237689   1.919   3.238   1.374 -0.3165  0.1162 -0.1110
 5377TIP3    H137690   1.870   3.176   1.429 -2.2077 -1.0140 -2.8482
 5377TIP3    H237691   1.853   3.275   1.315  1.4572  1.8655 -1.1225
 5378TIP3   OH237692   1.996   1.144   8.392 -0.2823  0.1087 -0.1205
 5378TIP3    H137693   2.024   1.170   8.304  0.3556 -1.0271 -0.2766
 5378TIP3    H237694   2.049   1.066   8.412 -0.5914  0.2032  1.1726
 5379TIP3   OH237695   4.437   1.436   7.443 -0.4201 -0.1228 -0.0293
 5379TIP3    H137696   4.405   1.460   7.530 -0.3607 -0.7886  0.1883
 5379TIP3    H237697   4.418   1.512   7.388 -1.2140 -0.0084  0.3859
 5380TIP3   OH237698   2.031   5.557   1.656  0.0848  0.3899 -0.4094
 5380TIP3    H137699   2.077   5.636   1.687 -0.2265  0.5590 -0.3750
 5380TIP3    H237700   1.948   5.590   1.621 -0.1247  0.0543 -0.2277
 5381TIP3   OH237701   3.836   6.723   0.527 -0.0684  0.0941  0.4742
 5381TIP3    H137702   3.751   6.739   0.485 -0.7387 -2.6417  0.5746
 5381TIP3    H237703   3.817   6.728   0.621 -0.5133 -1.8302  0.5359
 5382TIP3   OH237704   2.149   2.456   2.155  0.3677  0.2797 -0.1931
 5382TIP3    H137705   2.111   2.466   2.068 -0.3222 -0.8666 -0.0473
 5382TIP3    H237706   2.106   2.523   2.208  1.4089  1.5630 -0.8873
 5383TIP3   OH237707   3.555   6.581   1.631 -0.5670  0.0685 -0.3602
 5383TIP3    H137708   3.642   6.548   1.653 -0.5200  0.5799  0.2257
 5383TIP3    H237709   3.533   6.536   1.549  0.7031  0.7448 -1.0960
 5384TIP3   OH237710   3.406   6.724   7.690  0.5809  0.2773 -0.3531
 5384TIP3    H137711   3.450   6.761   7.767 -2.9847  0.1753  1.9915
 5384TIP3    H237712   3.322   6.770   7.686 -1.8899 -3.7661 -0.4681
 5385TIP3   OH237713   0.064   5.273   0.644  0.0475  0.3454 -0.2583
 5385TIP3    H137714   0.137   5.294   0.586 -0.4366  1.0377 -0.6211
 5385TIP3    H237715  -0.012   5.313   0.603 -0.2810  0.9780  0.9184
 5386TIP3   OH237716   4.041   5.505   1.102 -0.2607  0.2328  0.1460
 5386TIP3    H137717   4.080   5.532   1.185  1.5850 -0.5206 -0.4143
 5386TIP3    H237718   4.113   5.511   1.039 -1.6249  0.8409 -1.4301
 5387TIP3   OH237719   4.432   3.629   0.432 -0.3071  0.3896  0.0794
 5387TIP3    H137720   4.351   3.597   0.392 -0.0842 -0.5293  0.3429
 5387TIP3    H237721   4.502   3.594   0.376  0.0005 -0.7528  1.1373
 5388TIP3   OH237722   2.381   1.084   1.254  0.0693 -0.4235  0.2864
 5388TIP3    H137723   2.386   1.011   1.192 -0.4910  0.6331 -1.0827
 5388TIP3    H237724   2.404   1.046   1.338 -0.9872 -2.3660 -0.2207
 5389TIP3   OH237725   3.588   2.789   1.766 -0.3712  0.4276  1.4103
 5389TIP3    H137726   3.551   2.870   1.729 -0.5514  0.1265  0.9236
 5389TIP3    H237727   3.683   2.804   1.766 -0.4198  0.7499  1.5906
 5390TIP3   OH237728   4.752   4.655   7.136 -0.0026  0.4209  0.0309
 5390TIP3    H137729   4.714   4.734   7.097  1.1727  0.9504 -0.0699
 5390TIP3    H237730   4.699   4.584   7.101 -1.0987  1.1520  0.1445
 5391TIP3   OH237731   4.665   6.383   1.501  0.0690  0.1765  0.2455
 5391TIP3    H137732   4.697   6.447   1.565  1.1749  0.6916 -0.7771
 5391TIP3    H237733   4.719   6.305   1.516 -0.2212  0.0222  0.4782
 5392TIP3   OH237734   4.130   5.233   2.019  0.2970  0.6725 -0.1156
 5392TIP3    H137735   4.165   5.199   2.102 -1.2135  1.0626  0.7203
 5392TIP3    H237736   4.192   5.201   1.953 -0.0659 -2.2878  0.7990
 5393TIP3   OH237737   4.837   4.911   0.658 -0.5938 -0.2092  0.0424
 5393TIP3    H137738   4.821   4.851   0.585 -0.3194  0.1677 -0.3332
 5393TIP3    H237739   4.789   4.873   0.732 -0.5212 -0.8282 -0.2202
 5394TIP3   OH237740   4.387   0.972   2.091 -0.2480  0.1025  0.2004
 5394TIP3    H137741   4.480   0.974   2.066 -0.9190 -0.3793 -2.7087
 5394TIP3    H237742   4.356   0.887   2.058 -1.6507  0.0844  1.4838
 5395TIP3   OH237743   2.209   4.808   7.164 -0.0312  0.1884  0.6826
 5395TIP3    H137744   2.189   4.731   7.217  0.6276 -0.4321  0.0531
 5395TIP3    H237745   2.153   4.877   7.199 -1.3508 -0.8261  0.6147
 5396TIP3   OH237746   2.483   1.981   8.262  0.2935 -0.3858  0.9208
 5396TIP3    H137747   2.535   1.901   8.272  1.1476 -0.2136 -1.4291
 5396TIP3    H237748   2.540   2.040   8.213 -1.6339  0.3217 -0.5932
 5397TIP3   OH237749   5.406   5.603   2.523 -0.0052  0.7595  0.1562
 5397TIP3    H137750   5.439   5.514   2.533  1.6985  1.2082 -0.9920
 5397TIP3    H237751   5.312   5.593   2.509  0.0626 -0.8064  0.6644
 5398TIP3   OH237752   1.001   2.769   2.123  0.6653  0.0628 -0.0593
 5398TIP3    H137753   1.044   2.827   2.186  0.8266  0.5255 -0.5836
 5398TIP3    H237754   0.976   2.827   2.051 -0.8939 -0.1789  0.2487
 5399TIP3   OH237755   0.915   0.033   8.119  0.1189  0.1321 -0.3277
 5399TIP3    H137756   0.840   0.026   8.059 -0.8011 -1.4976  0.9412
 5399TIP3    H237757   0.988  -0.006   8.071  0.0493  1.1672 -1.3307
 5400TIP3   OH237758   5.655   0.387   7.805  0.0661 -0.7733  0.2630
 5400TIP3    H137759   5.747   0.381   7.781  0.1804 -0.8651  0.7157
 5400TIP3    H237760   5.641   0.480   7.825  0.5267 -1.0276  1.9672
 5401TIP3   OH237761   4.554   5.835   7.787 -0.4462 -0.0554  0.3102
 5401TIP3    H137762   4.486   5.781   7.826 -0.6577  0.2720  0.3905
 5401TIP3    H237763   4.522   5.925   7.795 -0.3182  0.0427 -0.2704
 5402TIP3   OH237764   2.921   5.940   8.563 -0.6643 -0.0361  0.3317
 5402TIP3    H137765   2.889   5.966   8.476 -1.6093  0.0020  0.6815
 5402TIP3    H237766   2.996   5.997   8.579 -1.7326  1.3988  0.4088
 5403TIP3   OH237767   2.444   3.597   2.816 -0.0409 -0.5316  0.2911
 5403TIP3    H137768   2.466   3.676   2.766  0.8510  1.2535  3.2610
 5403TIP3    H237769   2.516   3.537   2.800  1.4192  0.9165  1.1708
 5404TIP3   OH237770   6.493   3.092   6.940 -0.1186 -0.4005 -0.1086
 5404TIP3    H137771   6.491   3.188   6.936 -1.7860 -0.4279 -0.8668
 5404TIP3    H237772   6.401   3.066   6.932  0.3214 -2.0846 -0.0914
 5405TIP3   OH237773   2.952   3.156   8.498 -0.1791  0.2704 -0.2169
 5405TIP3    H137774   3.005   3.105   8.560  0.2988 -1.4219 -1.9177
 5405TIP3    H237775   2.988   3.245   8.504  2.2127 -0.5898 -0.5251
 5406TIP3   OH237776   3.375   6.503   6.170 -0.0709  0.3019  0.0904
 5406TIP3    H137777   3.399   6.581   6.220 -0.9798  1.0365 -0.5779
 5406TIP3    H237778   3.279   6.506   6.165 -0.1449 -0.9674  0.2047
 5407TIP3   OH237779   2.397   0.397   1.896  0.1329 -0.6281  0.0119
 5407TIP3    H137780   2.356   0.371   1.978  0.2568 -0.0666  0.2562
 5407TIP3    H237781   2.447   0.320   1.868 -1.3524 -1.4520 -0.4732
 5408TIP3   OH237782   5.176   5.165   1.156  0.0422 -0.2316  0.0109
 5408TIP3    H137783   5.200   5.129   1.070  1.2610  1.5023 -0.4165
 5408TIP3    H237784   5.231   5.242   1.166 -2.1052  1.2449  1.1314
 5409TIP3   OH237785   3.553   6.043   2.414  0.2757  0.4075 -0.1675
 5409TIP3    H137786   3.497   6.053   2.337 -0.7012 -0.2272  0.4404
 5409TIP3    H237787   3.539   5.953   2.442  0.8076  0.5645  0.6123
 5410TIP3   OH237788   5.108   1.277   0.273  0.0352  0.3173 -0.4848
 5410TIP3    H137789   5.132   1.311   0.187 -2.6407 -0.4218 -1.6031
 5410TIP3    H237790   5.184   1.298   0.328  1.2326  2.1062 -2.6310
 5411TIP3   OH237791   3.311   2.648   0.669  0.4019 -0.5587  0.2269
 5411TIP3    H137792   3.288   2.588   0.597 -1.7105 -0.1305  0.4739
 5411TIP3    H237793   3.253   2.622   0.740  0.2447  1.0522  0.7195
 5412TIP3   OH237794   4.531   2.714   0.282  0.3003  0.5780 -0.4031
 5412TIP3    H137795   4.502   2.771   0.211 -0.3127 -0.0854 -0.7026
 5412TIP3    H237796   4.603   2.662   0.243 -0.2638 -0.0277 -0.6598
 5413TIP3   OH237797   5.366   3.910   0.932 -0.4058  0.2769  0.1966
 5413TIP3    H137798   5.377   3.828   0.980 -1.1182  0.5035  0.7803
 5413TIP3    H237799   5.343   3.974   1.000 -3.0308  0.2815 -0.5718
 5414TIP3   OH237800   2.840   4.896   7.897 -0.9103 -0.2862 -0.3198
 5414TIP3    H137801   2.748   4.908   7.875 -0.5272  1.7506 -0.9852
 5414TIP3    H237802   2.887   4.955   7.839  0.7398 -0.4549  0.7604
 5415TIP3   OH237803   3.324   4.792   7.756  0.2758 -0.2952 -0.5365
 5415TIP3    H137804   3.362   4.712   7.792  0.9298 -0.2247 -1.0455
 5415TIP3    H237805   3.400   4.849   7.740 -0.1392  0.2336 -0.6467
 5416TIP3   OH237806   2.256   3.102   1.423 -0.1699 -0.0976  0.6731
 5416TIP3    H137807   2.207   3.094   1.342 -0.9339  0.0763  1.1148
 5416TIP3    H237808   2.341   3.137   1.396 -0.0474 -1.0236 -0.1664
 5417TIP3   OH237809   5.743   2.872   8.084  0.7227  0.2430 -0.1030
 5417TIP3    H137810   5.719   2.814   8.012 -0.7012  0.2172  0.3595
 5417TIP3    H237811   5.795   2.817   8.143  1.8523  0.2523 -1.0550
 5418TIP3   OH237812   2.044   0.832   2.241 -0.2266 -0.2031 -0.7856
 5418TIP3    H137813   2.065   0.745   2.275 -1.0667 -1.1398 -2.5342
 5418TIP3    H237814   2.005   0.878   2.315  0.5842 -1.1583  0.2724
 5419TIP3   OH237815   6.188   2.548   1.179  0.0125  0.2623 -0.5553
 5419TIP3    H137816   6.100   2.564   1.214 -0.1905 -1.2832 -0.2986
 5419TIP3    H237817   6.175   2.541   1.085 -0.1145  0.2510 -0.5383
 5420TIP3   OH237818   3.422   1.579   1.871  0.4590  0.0957 -0.3342
 5420TIP3    H137819   3.344   1.635   1.868  2.3638  2.9643 -1.8383
 5420TIP3    H237820   3.451   1.584   1.962  1.2205  2.7801 -0.6132
 5421TIP3   OH237821   2.912   3.685   0.532 -0.4785  0.0943 -0.1525
 5421TIP3    H137822   2.930   3.779   0.536 -0.6283  0.1082  0.2102
 5421TIP3    H237823   2.997   3.643   0.548 -0.6875  0.1600  1.2003
 5422TIP3   OH237824   5.070   0.318   0.817  0.1749 -0.1329 -0.2125
 5422TIP3    H137825   5.145   0.340   0.872  0.0718 -1.1042  0.3424
 5422TIP3    H237826   5.098   0.340   0.728  1.3925 -1.1196 -0.1031
 5423TIP3   OH237827   5.904   2.514   1.211  0.7307  0.5587  0.8194
 5423TIP3    H137828   5.824   2.540   1.257  0.8858  2.2417  0.2162
 5423TIP3    H237829   5.906   2.418   1.218 -2.1997  0.2870 -0.5403
 5424TIP3   OH237830   4.889   6.002   1.317  0.1003  0.0526 -0.2450
 5424TIP3    H137831   4.980   6.008   1.287 -0.0429 -0.2418 -0.7599
 5424TIP3    H237832   4.851   6.087   1.296 -0.2065 -0.4013 -1.6425
 5425TIP3   OH237833   5.214   4.764   8.038 -0.1069  0.1408 -0.1540
 5425TIP3    H137834   5.120   4.776   8.046 -0.3455 -0.5836 -1.6635
 5425TIP3    H237835   5.236   4.804   7.954  0.7343 -0.7798 -0.3834
 5426TIP3   OH237836   4.641   1.713   6.482 -0.4312 -0.3834  0.3545
 5426TIP3    H137837   4.711   1.683   6.539 -0.8675  0.8783  1.6223
 5426TIP3    H237838   4.672   1.695   6.394  0.0698 -2.8329  0.9603
 5427TIP3   OH237839   2.403   6.223   8.115 -0.0155  0.0854  0.2569
 5427TIP3    H137840   2.397   6.152   8.179  1.0581 -0.3685 -0.1271
 5427TIP3    H237841   2.490   6.213   8.075 -0.9544 -0.1443 -1.8561
 5428TIP3   OH237842   2.727   6.650   2.078 -0.8953 -0.5217 -0.3942
 5428TIP3    H137843   2.763   6.738   2.073  1.3629 -1.4557 -2.6294
 5428TIP3    H237844   2.747   6.621   2.167 -0.6748  0.7918  0.0095
 5429TIP3   OH237845   2.132   5.999   1.212 -0.1360  0.1623  0.3294
 5429TIP3    H137846   2.187   6.067   1.172  0.1919 -0.8808 -1.0515
 5429TIP3    H237847   2.108   5.942   1.139 -2.3163  0.0706  1.0687
 5430TIP3   OH237848   3.539   0.553   7.107 -0.4973 -0.6487  0.2396
 5430TIP3    H137849   3.551   0.595   7.022 -0.2283  1.0563  1.0761
 5430TIP3    H237850   3.610   0.489   7.114  0.9361  0.8752  0.1514
 5431TIP3   OH237851   0.851   5.742   0.884 -0.4509 -0.1283 -0.3608
 5431TIP3    H137852   0.789   5.670   0.879  0.1057 -0.6377 -0.0962
 5431TIP3    H237853   0.881   5.754   0.793 -1.5422  0.6783 -0.6292
 5432TIP3   OH237854   5.607   3.935   1.699 -0.3195 -0.2683  0.7390
 5432TIP3    H137855   5.590   4.028   1.712 -0.1218  0.0150 -0.8140
 5432TIP3    H237856   5.545   3.909   1.630  1.0349 -0.7621 -0.3459
 5433TIP3   OH237857   1.131   3.967   0.076  0.6935 -0.6617 -0.3666
 5433TIP3    H137858   1.184   3.918   0.139 -1.1215  0.1173  1.9541
 5433TIP3    H237859   1.136   4.058   0.108 -1.5445 -0.4897 -0.3194
 5434TIP3   OH237860   3.832   1.422   1.641 -0.2628 -0.2974 -0.3338
 5434TIP3    H137861   3.818   1.479   1.717 -1.1313 -0.2308 -0.5296
 5434TIP3    H237862   3.759   1.360   1.644 -1.2028  0.6569 -1.9679
 5435TIP3   OH237863   2.950   5.728   7.059 -0.8368  0.4900  0.3159
 5435TIP3    H137864   3.039   5.725   7.095 -0.0947  0.6678 -1.3767
 5435TIP3    H237865   2.937   5.820   7.036 -0.9086  0.2386 -0.6858
 5436TIP3   OH237866   6.871   5.944   8.176 -0.7938  0.5310  0.4237
 5436TIP3    H137867   6.871   5.953   8.271  0.6359  0.2137  0.4774
 5436TIP3    H237868   6.787   5.981   8.148 -1.4516  0.1669  1.8379
 5437TIP3   OH237869   1.639   6.462   8.254 -0.0271  0.3468 -0.4819
 5437TIP3    H137870   1.705   6.488   8.318 -0.5287  1.5714 -0.4407
 5437TIP3    H237871   1.593   6.543   8.232 -1.5482 -0.4705 -0.4831
 5438TIP3   OH237872   2.190   0.433   1.629 -0.7413 -0.1511 -0.6133
 5438TIP3    H137873   2.237   0.357   1.664 -1.3762 -0.3184 -0.0981
 5438TIP3    H237874   2.182   0.492   1.704  0.9966  1.0909 -1.3214
 5439TIP3   OH237875   5.347   3.031   2.379 -0.6494 -0.6340  0.2443
 5439TIP3    H137876   5.344   3.009   2.285  3.3736 -1.2523  0.0837
 5439TIP3    H237877   5.290   2.966   2.420 -2.4172 -0.4331 -1.6907
 5440TIP3   OH237878   5.796   4.044   2.570 -0.3435  0.3022  0.0389
 5440TIP3    H137879   5.739   4.111   2.607 -0.7194  0.1477 -0.2570
 5440TIP3    H237880   5.737   3.983   2.526 -0.3656 -2.0799  3.0779
 5441TIP3   OH237881   3.168   2.124   0.246  0.6476 -0.2883 -0.5570
 5441TIP3    H137882   3.234   2.086   0.189  0.9382  0.3281 -0.6428
 5441TIP3    H237883   3.209   2.126   0.332  0.3268 -0.9254 -0.3846
 5442TIP3   OH237884   5.975   5.536   0.934 -0.2785  0.1525  0.1190
 5442TIP3    H137885   5.929   5.453   0.945  0.9394 -0.4670  0.6990
 5442TIP3    H237886   5.928   5.580   0.863 -1.2073 -0.8233  0.0969
 5443TIP3   OH237887   1.766   0.559   1.553 -0.1241  0.2132  0.0620
 5443TIP3    H137888   1.727   0.607   1.625  0.8333  1.4076 -0.1746
 5443TIP3    H237889   1.751   0.614   1.476  0.9962  0.1624 -0.2152
 5444TIP3   OH237890   0.744   5.109   8.060  0.0576 -0.1113 -0.3265
 5444TIP3    H137891   0.749   5.141   8.150  0.1019 -1.4591  0.1713
 5444TIP3    H237892   0.651   5.097   8.044 -0.0619  1.4313 -0.9662
 5445TIP3   OH237893   0.553   3.585   1.702  0.2127  0.5101 -0.0242
 5445TIP3    H137894   0.647   3.599   1.707  0.6725 -1.7678 -1.0957
 5445TIP3    H237895   0.526   3.574   1.794  0.7806  2.0195  0.3633
 5446TIP3   OH237896   5.096   6.108   0.680 -0.4010  1.0795 -1.1049
 5446TIP3    H137897   5.057   6.173   0.738 -1.0135  0.4294 -0.7822
 5446TIP3    H237898   5.027   6.085   0.618 -1.0450 -1.0823  0.2953
 5447TIP3   OH237899   6.329   6.188   1.690 -0.3115  0.1739 -0.1291
 5447TIP3    H137900   6.400   6.179   1.626  0.6479  0.3285  0.8759
 5447TIP3    H237901   6.257   6.228   1.640  0.1724 -0.3103 -1.2569
 5448TIP3   OH237902   5.262   0.398   7.882  0.4957 -0.5160  0.4521
 5448TIP3    H137903   5.243   0.342   7.957  1.4294 -2.1979 -0.4857
 5448TIP3    H237904   5.331   0.351   7.834  0.1788  0.6610 -1.2611
 5449TIP3   OH237905   0.931   6.863   7.746  0.1314  0.4759  0.4632
 5449TIP3    H137906   0.909   6.791   7.687 -1.4844  0.6354  0.8281
 5449TIP3    H237907   0.953   6.936   7.687 -1.2915  0.5777  0.0211
 5450TIP3   OH237908   4.601   3.785   0.582 -0.3620  0.0693 -0.2483
 5450TIP3    H137909   4.577   3.707   0.532  2.0911  1.2557 -3.7567
 5450TIP3    H237910   4.565   3.858   0.530 -2.9720  1.4693  3.1302
 5451TIP3   OH237911   6.246   2.154   1.816  0.0928  0.4074 -0.6039
 5451TIP3    H137912   6.282   2.158   1.905  1.7228  1.2648 -1.2740
 5451TIP3    H237913   6.162   2.200   1.823 -0.8944 -1.4631  0.9411
 5452TIP3   OH237914   0.699   2.003   0.575 -0.4643 -0.0923  0.5556
 5452TIP3    H137915   0.650   2.085   0.577  0.4418  0.4816  0.0387
 5452TIP3    H237916   0.738   2.000   0.487 -1.5073 -1.7032  0.0898
 5453TIP3   OH237917   1.357   4.151   7.843  0.0733 -0.3891  0.4049
 5453TIP3    H137918   1.391   4.063   7.857  0.0473 -0.4449  0.1235
 5453TIP3    H237919   1.347   4.158   7.748 -0.3055 -0.2264  0.4541
 5454TIP3   OH237920   2.903   4.480   6.501  0.3227  0.1244  0.1226
 5454TIP3    H137921   2.902   4.429   6.419 -1.3205 -0.6961  0.6049
 5454TIP3    H237922   2.995   4.504   6.513  0.6822 -0.1684 -1.6965
 5455TIP3   OH237923   3.126   0.052   7.916  0.0983 -0.4632  0.1671
 5455TIP3    H137924   3.042   0.028   7.956 -0.2508  0.7584  0.2328
 5455TIP3    H237925   3.192   0.010   7.971 -0.4650 -1.9843 -0.2672
 5456TIP3   OH237926   3.523   5.551   0.199 -0.3482 -0.2281  0.4136
 5456TIP3    H137927   3.606   5.515   0.167  0.3522 -0.1163  2.0162
 5456TIP3    H237928   3.530   5.645   0.182  0.7737  0.0888  2.3852
 5457TIP3   OH237929   5.824   3.104   7.756 -0.2705 -0.5595  0.2109
 5457TIP3    H137930   5.862   3.078   7.672 -1.4402 -0.6542 -0.3129
 5457TIP3    H237931   5.889   3.078   7.821  0.9569  0.1400 -0.7092
 5458TIP3   OH237932   0.139   5.801   7.925 -0.0392 -0.2299  0.1532
 5458TIP3    H137933   0.044   5.807   7.937 -0.1582 -2.5517  0.9926
 5458TIP3    H237934   0.176   5.849   7.999 -0.4743  1.9694 -0.9772
 5459TIP3   OH237935   0.943   0.905   7.487  0.4929 -0.3070  0.6818
 5459TIP3    H137936   0.875   0.970   7.503 -0.3098 -0.4740 -1.6561
 5459TIP3    H237937   1.001   0.911   7.563 -2.0138 -0.0579  2.7070
 5460TIP3   OH237938   1.639   6.686   0.598 -0.3818  0.1344 -0.0100
 5460TIP3    H137939   1.730   6.706   0.622 -0.9443  2.4769  0.4309
 5460TIP3    H237940   1.640   6.593   0.575  1.8307 -0.2370  1.3072
 5461TIP3   OH237941   3.467   1.467   7.010  0.1199  0.2152 -0.0809
 5461TIP3    H137942   3.420   1.384   7.000 -0.0445  0.0448  1.7669
 5461TIP3    H237943   3.401   1.528   7.043  0.6363  0.6149  0.2232
 5462TIP3   OH237944   6.461   1.946   0.599  0.1846  0.6805 -0.0227
 5462TIP3    H137945   6.400   1.916   0.532  1.1247 -1.2892 -0.0982
 5462TIP3    H237946   6.418   2.020   0.641 -0.7431  1.5162 -2.3030
 5463TIP3   OH237947   2.642   0.982   8.004 -0.3379  0.1281  0.1261
 5463TIP3    H137948   2.721   0.998   8.055 -0.6555  0.2373  0.6014
 5463TIP3    H237949   2.653   1.033   7.924 -0.0674  0.3945  0.3327
 5464TIP3   OH237950   4.270   5.553   1.323  0.8199  0.0027 -0.2181
 5464TIP3    H137951   4.239   5.621   1.382 -0.8949 -0.0001 -1.0712
 5464TIP3    H237952   4.287   5.478   1.379  1.0139  0.5631  0.4906
 5465TIP3   OH237953   4.573   2.758   0.541 -0.2259 -0.0066  0.3655
 5465TIP3    H137954   4.548   2.736   0.451  0.2597 -0.7053  0.3904
 5465TIP3    H237955   4.583   2.673   0.584  3.3928  0.1277  0.0385
 5466TIP3   OH237956   1.024   1.543   0.307 -0.0480  1.0010 -0.2937
 5466TIP3    H137957   0.979   1.531   0.390  0.9707  1.9087  0.4063
 5466TIP3    H237958   1.111   1.505   0.320  0.7342  2.6758 -0.3322
 5467TIP3   OH237959   5.383   4.531   1.866  1.0803 -0.1848  0.2621
 5467TIP3    H137960   5.354   4.619   1.843  0.6023  0.2148  2.2442
 5467TIP3    H237961   5.478   4.539   1.878  0.9390  0.2429  1.1474
 5468TIP3   OH237962   4.466   4.412   8.459  0.2188  0.5659  0.1715
 5468TIP3    H137963   4.503   4.476   8.398  0.5415  0.3857  0.1762
 5468TIP3    H237964   4.542   4.363   8.490  0.1462  1.1308  1.2696
 5469TIP3   OH237965   2.292   0.931   7.157  0.7287  0.5182 -0.5807
 5469TIP3    H137966   2.206   0.928   7.115  1.6820  0.5694 -2.6592
 5469TIP3    H237967   2.304   0.843   7.192 -0.1243  0.4916 -0.3260
 5470TIP3   OH237968   6.738   5.217   8.074 -0.1656 -0.2462 -0.2859
 5470TIP3    H137969   6.645   5.235   8.084 -0.2726 -0.7905 -0.2961
 5470TIP3    H237970   6.777   5.247   8.156 -0.3054  0.2499 -0.3951
 5471TIP3   OH237971   3.160   4.544   7.855 -0.4782  0.0538 -0.7084
 5471TIP3    H137972   3.086   4.598   7.827 -0.3453  0.4719 -0.2669
 5471TIP3    H237973   3.182   4.576   7.942 -0.6515 -0.9854 -0.2602
 5472TIP3   OH237974   5.374   2.648   6.532  0.3904 -0.0552  0.1521
 5472TIP3    H137975   5.366   2.553   6.544 -2.0629  0.0453 -0.2865
 5472TIP3    H237976   5.464   2.668   6.559  0.1447 -2.0904  2.8806
 5473TIP3   OH237977   1.740   2.992   0.418 -0.2646  0.4227  0.1706
 5473TIP3    H137978   1.761   3.053   0.489 -0.1192  0.6680 -0.0794
 5473TIP3    H237979   1.653   2.959   0.439  0.9294 -1.7581  2.0412
 5474TIP3   OH237980   2.097   5.357   0.384  0.0524 -0.0286 -0.0091
 5474TIP3    H137981   2.076   5.434   0.438 -0.0586 -0.7622  1.0277
 5474TIP3    H237982   2.191   5.345   0.394  0.2662  0.6175 -1.0768
 5475TIP3   OH237983   3.261   2.291   1.143 -0.3509  0.7327 -0.3626
 5475TIP3    H137984   3.237   2.199   1.150 -0.0807  0.5775 -1.2917
 5475TIP3    H237985   3.263   2.323   1.233  0.5630 -0.4379  0.0578
 5476TIP3   OH237986   0.527   1.665   1.948 -0.1178  0.1586  0.0318
 5476TIP3    H137987   0.539   1.720   1.870 -0.4915 -0.4501 -0.4632
 5476TIP3    H237988   0.454   1.608   1.926 -1.1228  0.8928  1.3540
 5477TIP3   OH237989   4.603   6.138   0.969  0.5230  0.4125 -0.0549
 5477TIP3    H137990   4.585   6.218   0.919  0.1278  0.1055 -0.4160
 5477TIP3    H237991   4.679   6.099   0.926  0.4360  0.3632 -0.1667
 5478TIP3   OH237992   0.531   4.508   0.841 -0.4114 -0.1097 -0.0174
 5478TIP3    H137993   0.528   4.604   0.847  2.8181  0.1877 -1.3151
 5478TIP3    H237994   0.565   4.480   0.926 -1.6678 -0.1883  0.4836
 5479TIP3   OH237995   2.277   4.346   0.012  0.1075 -0.4173 -0.0610
 5479TIP3    H137996   2.261   4.409   0.083 -0.3967  0.8300 -1.2431
 5479TIP3    H237997   2.221   4.271   0.034 -2.3216  1.1220 -0.5920
 5480TIP3   OH237998   3.105   2.369   1.645  0.0066 -0.4889 -0.1164
 5480TIP3    H137999   3.086   2.290   1.594  0.0303 -0.6678  0.1502
 5480TIP3    H238000   3.060   2.356   1.728  2.1010 -1.4011  0.9401
 5481TIP3   OH238001   2.231   0.694   0.306 -0.8735  0.0814  0.1683
 5481TIP3    H138002   2.211   0.673   0.398 -0.0878 -1.5447 -0.0046
 5481TIP3    H238003   2.321   0.729   0.309 -0.5968 -0.6081 -0.0580
 5482TIP3   OH238004   5.719   4.340   7.176 -0.1363  0.2349  0.0055
 5482TIP3    H138005   5.644   4.368   7.229  0.4179 -0.3122  1.1241
 5482TIP3    H238006   5.700   4.248   7.156  0.1798  0.1217  0.2135
 5483TIP3   OH238007   2.493   0.962   2.019  0.1423 -0.5185 -0.0308
 5483TIP3    H138008   2.471   0.999   1.934 -0.6128 -0.1339  0.3229
 5483TIP3    H238009   2.412   0.969   2.070  1.3980  2.4322  1.8559
 5484TIP3   OH238010   6.510   4.166   8.494  0.2622  0.3744 -0.4733
 5484TIP3    H138011   6.521   4.261   8.482 -0.1823  0.4885  0.0294
 5484TIP3    H238012   6.599   4.134   8.511  0.2279  0.9107  0.8185
 5485TIP3   OH238013   3.229   4.277   6.117 -0.3501 -0.9465 -0.2397
 5485TIP3    H138014   3.178   4.197   6.128  0.4829 -1.3797  0.6970
 5485TIP3    H238015   3.302   4.267   6.179  0.3105  0.0934 -0.8225
 5486TIP3   OH238016   3.067   2.128   1.513 -0.3130  0.1346  0.1027
 5486TIP3    H138017   3.028   2.154   1.429 -2.4823 -0.4660  0.8522
 5486TIP3    H238018   3.068   2.032   1.509  2.2393  0.1188 -0.3258
 5487TIP3   OH238019   6.051   1.505   2.757  0.1023 -0.0560  0.1648
 5487TIP3    H138020   5.968   1.528   2.715  0.0937 -0.2012  0.1007
 5487TIP3    H238021   6.117   1.555   2.709 -0.1894  2.0257  1.7952
 5488TIP3   OH238022   5.564   0.944   7.966  0.3926  0.2681 -0.0017
 5488TIP3    H138023   5.629   1.009   7.994  0.4797 -0.5512  1.8179
 5488TIP3    H238024   5.604   0.901   7.891  1.6890  0.2257  0.6879
 5489TIP3   OH238025   5.014   3.007   0.202 -0.1350 -0.0863  0.3212
 5489TIP3    H138026   4.951   3.075   0.178 -0.3014 -0.8338 -1.4679
 5489TIP3    H238027   4.965   2.925   0.195  0.7252 -0.5861  0.0020
 5490TIP3   OH238028   3.907   2.152   2.519  0.3402 -0.2714 -0.4984
 5490TIP3    H138029   3.847   2.226   2.509  1.0509  0.1567 -1.8661
 5490TIP3    H238030   3.891   2.097   2.443  0.3929 -1.1230  0.0901
 5491TIP3   OH238031   6.438   6.525   0.124 -0.3275  0.4280 -0.1564
 5491TIP3    H138032   6.447   6.566   0.210  2.0183  0.5287 -0.3938
 5491TIP3    H238033   6.501   6.570   0.069 -2.0400  0.6095 -2.0773
 5492TIP3   OH238034   1.787   0.198   0.427 -0.1289  0.0124  0.2520
 5492TIP3    H138035   1.712   0.237   0.383  0.0780 -0.9908 -1.0450
 5492TIP3    H238036   1.853   0.267   0.430 -0.8139  0.6594  0.7074
 5493TIP3   OH238037   3.914   0.195   7.133  0.3882 -0.4135 -0.1085
 5493TIP3    H138038   3.915   0.232   7.044  1.5009 -2.5368 -1.0470
 5493TIP3    H238039   3.828   0.216   7.167  0.1173  0.8970 -1.4934
 5494TIP3   OH238040   2.499   5.348   1.691  0.0298  0.0793  0.0182
 5494TIP3    H138041   2.412   5.371   1.724  0.6842  1.2158  1.0194
 5494TIP3    H238042   2.551   5.428   1.703  1.9088 -1.3153  1.8659
 5495TIP3   OH238043   2.811   4.092   1.385 -0.2529  0.2236  0.9039
 5495TIP3    H138044   2.729   4.102   1.433 -1.7478 -0.0093 -1.4319
 5495TIP3    H238045   2.800   4.010   1.336  0.8673  0.7990 -0.3639
 5496TIP3   OH238046   5.869   1.713   7.411  0.0690 -0.2809 -0.1976
 5496TIP3    H138047   5.845   1.633   7.459 -0.4944  0.5643  0.9830
 5496TIP3    H238048   5.934   1.684   7.348  1.5059 -1.3355  1.6539
 5497TIP3   OH238049   3.483   1.658   7.754 -0.0690  0.2524 -0.3342
 5497TIP3    H138050   3.478   1.643   7.659 -0.3769  0.2825 -0.3246
 5497TIP3    H238051   3.515   1.575   7.790  0.6782  0.4521 -0.5270
 5498TIP3   OH238052   4.215   2.140   2.582  0.0920  0.6467  0.6063
 5498TIP3    H138053   4.222   2.218   2.637 -0.2655 -0.1193  1.7606
 5498TIP3    H238054   4.121   2.124   2.575  0.2118 -0.9226  2.1933
 5499TIP3   OH238055   0.726   5.771   2.430  0.8038  0.4016  0.1767
 5499TIP3    H138056   0.704   5.725   2.511  0.5825  0.9780  0.4410
 5499TIP3    H238057   0.644   5.812   2.402  1.0000  0.6279 -0.0715
 5500TIP3   OH238058   6.509   4.713   1.371  0.3614  0.2407 -0.2634
 5500TIP3    H138059   6.493   4.751   1.457  0.8702  1.7702 -0.8062
 5500TIP3    H238060   6.602   4.689   1.372 -0.2547 -2.3835  0.5558
 5501TIP3   OH238061   2.302   6.130   1.876  0.6705 -0.2357  0.1094
 5501TIP3    H138062   2.291   6.035   1.872 -0.6167 -0.1658  1.1418
 5501TIP3    H238063   2.289   6.151   1.969  0.0050  1.0441 -0.2577
 5502TIP3   OH238064   6.198   3.953   1.855 -0.0020  0.0721 -0.0964
 5502TIP3    H138065   6.164   3.891   1.791  1.0411 -1.1774  0.5188
 5502TIP3    H238066   6.224   4.030   1.803 -1.1305 -0.0668 -0.8833
 5503TIP3   OH238067   2.156   4.906   2.010  0.4616  0.4133  0.6525
 5503TIP3    H138068   2.239   4.930   2.050  0.4902 -0.4422  1.1291
 5503TIP3    H238069   2.171   4.817   1.977 -0.3199  0.1829  0.9080
 5504TIP3   OH238070   0.406   5.362   0.642  0.5883  0.7268 -0.2528
 5504TIP3    H138071   0.384   5.371   0.735 -0.2673 -1.7034 -0.1626
 5504TIP3    H238072   0.337   5.410   0.597  0.4517  1.0882  0.3261
 5505TIP3   OH238073   5.950   1.946   7.153  0.7054  0.1687 -0.0632
 5505TIP3    H138074   5.966   1.933   7.059 -1.7722  2.2258 -0.8859
 5505TIP3    H238075   5.857   1.926   7.164  0.9440 -0.0078  1.9941
 5506TIP3   OH238076   4.616   2.005   0.712  0.1087  0.0746 -0.2314
 5506TIP3    H138077   4.667   2.075   0.672  0.2520 -0.2760 -0.6718
 5506TIP3    H238078   4.604   2.033   0.803  0.1406  0.6796 -0.4048
 5507TIP3   OH238079   6.559   0.264   7.691  0.9080 -0.2243  0.1238
 5507TIP3    H138080   6.554   0.298   7.602  0.2429  2.4045  1.0502
 5507TIP3    H238081   6.469   0.272   7.725  1.4946  0.6087  1.5782
 5508TIP3   OH238082   2.702   4.101   8.314 -0.9192  0.1805  0.0161
 5508TIP3    H138083   2.621   4.050   8.310 -0.8280  0.1109 -1.6220
 5508TIP3    H238084   2.685   4.179   8.261  0.2124 -0.0690 -0.7660
 5509TIP3   OH238085   3.575   0.436   0.244 -0.1620 -0.5698 -0.2348
 5509TIP3    H138086   3.614   0.410   0.160  0.4798 -2.1310  0.4947
 5509TIP3    H238087   3.485   0.404   0.239  0.1693 -1.5794  0.0420
 5510TIP3   OH238088   2.679   5.152   0.729  0.2904 -0.1393 -0.0047
 5510TIP3    H138089   2.675   5.138   0.823 -1.0220  0.2263  0.0193
 5510TIP3    H238090   2.767   5.126   0.704  1.0504  0.8450  1.4985
 5511TIP3   OH238091   6.389   3.277   7.201  0.4201 -0.0616  0.3109
 5511TIP3    H138092   6.327   3.205   7.201  2.4659 -1.9123  0.8177
 5511TIP3    H238093   6.430   3.274   7.114  0.8980  0.1308  0.5242
 5512TIP3   OH238094   4.805   2.717   7.891 -0.7164  0.2637 -0.1990
 5512TIP3    H138095   4.804   2.749   7.981 -0.5146  0.0424 -0.1161
 5512TIP3    H238096   4.874   2.651   7.890 -1.0397 -0.0754 -0.3964
 5513TIP3   OH238097   3.350   1.515   8.055  0.0899  0.2437  0.0711
 5513TIP3    H138098   3.256   1.503   8.045  0.3713 -2.2418 -0.3197
 5513TIP3    H238099   3.359   1.577   8.127 -1.8196  0.6742 -0.0060
 5514TIP3   OH238100   1.071   4.224   7.076  0.4713 -0.1361 -0.0411
 5514TIP3    H138101   1.155   4.233   7.121  0.9747  1.4751 -1.2225
 5514TIP3    H238102   1.060   4.130   7.064  2.1797 -0.3689 -0.0071
 5515TIP3   OH238103   1.472   3.477   8.290 -0.3429 -0.2604  0.2751
 5515TIP3    H138104   1.397   3.536   8.281 -0.4126 -0.3693  0.1278
 5515TIP3    H238105   1.545   3.525   8.251 -0.1344  0.2140  1.2317
 5516TIP3   OH238106   6.410   4.756   7.865 -0.0219  0.6377 -0.1140
 5516TIP3    H138107   6.448   4.837   7.831 -0.1204  0.5789 -0.3642
 5516TIP3    H238108   6.440   4.688   7.805 -1.8325  0.7970 -1.2932
 5517TIP3   OH238109   4.964   4.689   8.550  0.1275  0.0240 -0.1232
 5517TIP3    H138110   4.994   4.773   8.583  0.9835 -0.9815  1.7872
 5517TIP3    H238111   5.041   4.633   8.552 -0.7516 -1.2210  0.0471
 5518TIP3   OH238112   3.091   0.774   0.560  0.4102 -0.9356  0.1188
 5518TIP3    H138113   3.169   0.725   0.583  1.4208  0.9288  0.8925
 5518TIP3    H238114   3.071   0.826   0.638  0.9217  1.7485 -1.4004
 5519TIP3   OH238115   4.334   1.761   2.153  0.0861 -0.4409  0.1661
 5519TIP3    H138116   4.369   1.679   2.185 -1.0887 -1.2007 -0.4084
 5519TIP3    H238117   4.349   1.759   2.058 -1.3523 -0.7473 -0.0833
 5520TIP3   OH238118   2.772   1.694   0.866 -0.3877 -0.0957  0.3591
 5520TIP3    H138119   2.805   1.767   0.919  0.4486  0.6319 -1.0743
 5520TIP3    H238120   2.679   1.714   0.854 -0.5206 -0.1184  1.2822
 5521TIP3   OH238121   3.374   5.170   2.344 -0.1845 -0.0993  0.0579
 5521TIP3    H138122   3.331   5.118   2.412  1.9801 -0.5336  1.1543
 5521TIP3    H238123   3.337   5.258   2.354  0.8624  0.1297  2.5839
 5522TIP3   OH238124   1.517   4.559   6.401  0.3725  0.4178  0.1310
 5522TIP3    H138125   1.436   4.566   6.451  0.8692  1.9019  0.7912
 5522TIP3    H238126   1.531   4.647   6.366  2.0120  0.3481  0.5253
 5523TIP3   OH238127   4.404   5.005   8.454 -0.0107  0.5353 -0.4131
 5523TIP3    H138128   4.448   5.029   8.372  2.3710  0.1738  0.6631
 5523TIP3    H238129   4.365   5.087   8.485  0.6959  1.1118 -1.0013
 5524TIP3   OH238130   5.018   4.204   7.732 -0.1259 -0.2714  0.5011
 5524TIP3    H138131   5.036   4.122   7.686 -3.4972 -1.9844  1.8714
 5524TIP3    H238132   5.040   4.272   7.668 -0.0749 -2.3469 -1.8544
 5525TIP3   OH238133   2.898   2.137   0.265 -0.5345 -0.0596  1.0125
 5525TIP3    H138134   2.899   2.224   0.305 -0.7634 -0.0680  1.0352
 5525TIP3    H238135   2.990   2.119   0.246 -0.7073  1.4675 -1.8085
 5526TIP3   OH238136   2.705   0.945   7.242  0.0329  0.0480 -0.2978
 5526TIP3    H138137   2.683   0.994   7.163 -0.9593  0.0529 -0.0323
 5526TIP3    H238138   2.690   0.853   7.218 -0.7991  0.0850  0.0280
 5527TIP3   OH238139   0.979   6.768   1.084  1.1248  0.0309  0.0444
 5527TIP3    H138140   0.984   6.843   1.144 -1.2569 -0.1583  0.5860
 5527TIP3    H238141   1.030   6.700   1.126 -0.6020 -0.1428  2.0299
 5528TIP3   OH238142   2.424   0.249   2.180 -0.6960  0.0501 -0.1741
 5528TIP3    H138143   2.473   0.332   2.177 -1.2035  0.3797  0.3305
 5528TIP3    H238144   2.332   0.276   2.176 -0.9117 -0.3909  1.3215
 5529TIP3   OH238145   2.518   0.102   0.232  0.0707 -0.1920  0.3001
 5529TIP3    H138146   2.588   0.043   0.258  0.9508 -0.7179 -2.8517
 5529TIP3    H238147   2.523   0.175   0.294  2.1903 -1.0873  1.2744
 5530TIP3   OH238148   4.522   0.157   2.534  0.0225  0.3966  0.3742
 5530TIP3    H138149   4.597   0.212   2.556  1.2499 -1.0056 -0.1792
 5530TIP3    H238150   4.559   0.071   2.518 -1.4510  0.0796 -1.8129
 5531TIP3   OH238151   3.646   6.509   7.128 -0.5545  0.6350 -0.2518
 5531TIP3    H138152   3.665   6.603   7.134 -0.9565  0.6582  0.8153
 5531TIP3    H238153   3.634   6.493   7.034 -1.2627  1.8146 -0.3858
 5532TIP3   OH238154   3.619   4.310   1.702  0.6357  0.0141 -0.0803
 5532TIP3    H138155   3.633   4.231   1.755 -0.7202 -0.4223 -0.3276
 5532TIP3    H238156   3.617   4.278   1.611  1.7346  0.5872 -0.3304
 5533TIP3   OH238157   0.502   0.429   0.677 -0.4246 -0.3469  0.4927
 5533TIP3    H138158   0.545   0.397   0.756 -0.3407 -0.1519  0.5274
 5533TIP3    H238159   0.537   0.517   0.665 -1.5055  0.1780  1.0374
 5534TIP3   OH238160   1.724   3.709   1.360 -0.2670 -0.3458  0.1206
 5534TIP3    H138161   1.819   3.723   1.361 -0.2066  0.3998 -3.4360
 5534TIP3    H238162   1.714   3.618   1.388  1.6282 -0.8166 -0.5244
 5535TIP3   OH238163   5.124   2.664   2.352 -0.0780 -0.4627  0.1089
 5535TIP3    H138164   5.148   2.736   2.410  0.6336 -1.2938  0.8849
 5535TIP3    H238165   5.037   2.638   2.382 -0.0510 -0.3638  0.2758
 5536TIP3   OH238166   6.272   4.609   2.236 -0.7840 -0.3762 -0.5536
 5536TIP3    H138167   6.202   4.672   2.221 -0.8703 -0.2785  0.2407
 5536TIP3    H238168   6.352   4.662   2.231 -0.8092 -0.3527 -0.7098
 5537TIP3   OH238169   4.422   3.111   1.484 -0.1126 -0.6866  0.6425
 5537TIP3    H138170   4.391   3.083   1.398 -0.6937 -0.3514  0.7417
 5537TIP3    H238171   4.415   3.033   1.539  2.7044 -1.6835 -0.2110
 5538TIP3   OH238172   3.850   5.830   1.525  0.0922 -0.4109 -0.1018
 5538TIP3    H138173   3.914   5.767   1.490 -1.3716 -1.6138 -0.7590
 5538TIP3    H238174   3.819   5.790   1.606  2.0382  1.4418  1.6789
 5539TIP3   OH238175   5.994   1.637   8.459 -0.1932 -0.0620 -0.1277
 5539TIP3    H138176   5.944   1.582   8.519  0.3798 -0.2443  0.1911
 5539TIP3    H238177   6.048   1.575   8.409 -0.6682  0.0880 -0.8300
 5540TIP3   OH238178   6.205   2.896   0.757  0.6704 -0.3017 -0.0211
 5540TIP3    H138179   6.276   2.842   0.792  1.2011 -0.6717 -1.6134
 5540TIP3    H238180   6.226   2.985   0.786  0.2772 -0.7653  1.8442
 5541TIP3   OH238181   0.728   5.022   0.907  0.0484  0.4070 -0.0815
 5541TIP3    H138182   0.817   4.996   0.931 -0.2974 -1.9058 -1.0249
 5541TIP3    H238183   0.740   5.089   0.840  1.0452  0.9970  0.6561
 5542TIP3   OH238184   1.932   5.373   1.015 -0.0409  0.3670  0.0015
 5542TIP3    H138185   2.002   5.418   0.967  2.0351 -0.6585  1.8783
 5542TIP3    H238186   1.935   5.283   0.983  1.0244 -0.2008  1.5760
 5543TIP3   OH238187   2.095   0.426   0.204 -0.0720  0.4371 -0.3182
 5543TIP3    H138188   2.045   0.444   0.124  0.7960 -0.0459 -0.9776
 5543TIP3    H238189   2.097   0.510   0.249 -1.4376  0.4842 -0.2908
 5544TIP3   OH238190   6.789   1.252   7.930  0.0114 -0.3563  0.6443
 5544TIP3    H138191   6.810   1.246   8.024 -0.7959 -1.8300  0.7554
 5544TIP3    H238192   6.822   1.170   7.893  1.9664  0.9451 -0.7545
 5545TIP3   OH238193   5.113   6.640   8.077  0.4595 -0.0487  0.0117
 5545TIP3    H138194   5.181   6.708   8.071 -0.3758  1.2914  3.3485
 5545TIP3    H238195   5.150   6.574   8.136 -0.6936  0.2420  1.1144
 5546TIP3   OH238196   2.088   3.623   0.719 -0.2184 -0.0285  0.5184
 5546TIP3    H138197   2.028   3.679   0.769 -0.8240 -0.7547  0.6148
 5546TIP3    H238198   2.174   3.645   0.753 -0.1756  2.3592 -0.8485
 5547TIP3   OH238199   0.582   3.275   1.364  0.0542  0.3135 -0.7957
 5547TIP3    H138200   0.529   3.218   1.420 -0.6978  0.9313 -0.8540
 5547TIP3    H238201   0.606   3.220   1.290 -1.4799  0.3039 -1.3295
 5548TIP3   OH238202   2.564   3.739   1.811  0.1967 -0.5534 -0.1151
 5548TIP3    H138203   2.484   3.693   1.836 -0.6130  0.9803  0.2372
 5548TIP3    H238204   2.556   3.753   1.716  0.4384 -1.1049 -0.2201
 5549TIP3   OH238205   2.951   0.106   0.422  0.1973 -0.2101  0.2226
 5549TIP3    H138206   2.890   0.043   0.383 -0.6199  0.4359  0.4219
 5549TIP3    H238207   3.013   0.052   0.471  2.2384 -1.1876 -3.1433
 5550TIP3   OH238208   3.004   6.596   1.452 -0.3376 -0.8894  0.0250
 5550TIP3    H138209   2.937   6.539   1.414 -2.3446 -0.0271  2.0511
 5550TIP3    H238210   3.048   6.635   1.377 -3.7024  0.3010 -1.5373
 5551TIP3   OH238211   3.530   1.585   0.957  0.6763  0.4124  0.1647
 5551TIP3    H138212   3.496   1.654   0.900 -0.9042 -1.4353 -1.2899
 5551TIP3    H238213   3.622   1.577   0.933  0.1311 -0.0740 -1.9826
 5552TIP3   OH238214   4.029   4.007   6.606  0.2154  0.6852  0.2716
 5552TIP3    H138215   3.968   4.079   6.590 -1.1794 -0.4961  0.0172
 5552TIP3    H238216   3.979   3.928   6.586  1.5014 -0.4006  1.1164
 5553TIP3   OH238217   0.063   2.940   0.556  0.1534 -0.1462  0.1545
 5553TIP3    H138218   0.030   2.977   0.474  0.0824 -2.0855 -0.7574
 5553TIP3    H238219   0.035   2.848   0.554  0.7020 -0.4040  2.0628
 5554TIP3   OH238220   1.700   4.052   2.216 -0.0441  0.1700 -0.2436
 5554TIP3    H138221   1.665   3.964   2.206 -0.1038 -0.0791  1.6490
 5554TIP3    H238222   1.787   4.049   2.177  0.7141 -1.2970  1.4215
 5555TIP3   OH238223   5.718   6.017   6.885  0.2231  0.6673  0.1872
 5555TIP3    H138224   5.677   6.103   6.875  0.4832  0.7152 -0.5920
 5555TIP3    H238225   5.675   5.963   6.818  1.7127  0.8426 -0.9681
 5556TIP3   OH238226   3.270   5.661   1.310 -0.6063  0.4469 -0.6581
 5556TIP3    H138227   3.252   5.604   1.385  1.6225  0.6501  0.1136
 5556TIP3    H238228   3.209   5.632   1.242 -3.2627  0.7817  1.4369
 5557TIP3   OH238229   0.665   3.290   8.264  0.2839  0.4773  0.7082
 5557TIP3    H138230   0.745   3.338   8.244 -0.0718  0.4088 -1.0319
 5557TIP3    H238231   0.595   3.344   8.226 -0.5037  0.5108  2.1515
 5558TIP3   OH238232   0.134   6.644   1.593 -0.2511 -0.3148 -0.4788
 5558TIP3    H138233   0.134   6.563   1.644  0.5666  0.3098  0.5558
 5558TIP3    H238234   0.224   6.653   1.562 -0.0660  0.6996  0.2838
 5559TIP3   OH238235   6.154   6.356   1.055  0.4519 -0.0367 -0.0585
 5559TIP3    H138236   6.168   6.269   1.018  2.2763  0.9435 -1.8862
 5559TIP3    H238237   6.158   6.414   0.979  1.0194  1.8070  1.3344
 5560TIP3   OH238238   4.572   6.865   0.675  0.2083  0.4389  0.4626
 5560TIP3    H138239   4.483   6.845   0.705  0.4532 -0.5005  0.5976
 5560TIP3    H238240   4.620   6.784   0.688  1.0390  0.8775  0.1861
 5561TIP3   OH238241   4.167   4.993   0.073  0.7379 -0.2603 -0.1461
 5561TIP3    H138242   4.112   5.029   0.142  0.7780 -0.5194  0.0255
 5561TIP3    H238243   4.116   4.921   0.036  1.3205 -1.1247  0.6508
 5562TIP3   OH238244   2.091   4.995   0.912 -0.4403 -0.2339 -0.2560
 5562TIP3    H138245   2.070   5.069   0.855 -1.6459 -1.3805 -1.3661
 5562TIP3    H238246   2.031   4.926   0.884  0.5347 -1.5788  0.8713
 5563TIP3   OH238247   1.220   5.996   2.319 -0.0311  0.1682  0.6191
 5563TIP3    H138248   1.173   6.028   2.396 -2.9834  0.3926 -1.1258
 5563TIP3    H238249   1.176   5.914   2.297  1.6320 -0.5738 -0.1148
 5564TIP3   OH238250   2.582   4.679   2.606  0.6763  0.3584 -0.3715
 5564TIP3    H138251   2.522   4.613   2.570  1.1084  0.0953 -0.6136
 5564TIP3    H238252   2.525   4.754   2.626  0.2152 -0.0063 -0.2905
 5565TIP3   OH238253   1.618   3.634   0.941  0.2106  0.5836 -0.5079
 5565TIP3    H138254   1.694   3.581   0.962 -0.0960 -0.2477 -1.3934
 5565TIP3    H238255   1.652   3.705   0.886  0.5853  1.1855  0.4816
 5566TIP3   OH238256   3.200   5.723   6.410 -0.0069 -0.3954 -0.4626
 5566TIP3    H138257   3.129   5.676   6.366 -0.4943  0.3538 -0.5002
 5566TIP3    H238258   3.156   5.775   6.477  0.5979 -0.5136  0.0318
 5567TIP3   OH238259   1.445   3.199   1.035  0.6455  0.7573  0.5604
 5567TIP3    H138260   1.525   3.149   1.055  0.0021 -0.9421 -0.8371
 5567TIP3    H238261   1.376   3.155   1.085  0.1240  0.3923 -0.4440
 5568TIP3   OH238262   4.876   5.200   8.557 -0.2553 -0.4547 -0.0199
 5568TIP3    H138263   4.936   5.207   8.631  1.0275 -1.8186 -0.8701
 5568TIP3    H238264   4.925   5.237   8.483 -1.4565  0.7533 -0.2573
 5569TIP3   OH238265   3.943   1.057   1.216 -0.0225 -0.4430  0.3358
 5569TIP3    H138266   3.910   1.045   1.305  0.2575  1.3494  0.7168
 5569TIP3    H238267   3.907   1.141   1.188  1.7534  0.1286 -0.3711
 5570TIP3   OH238268   3.071   4.099   6.479  0.1750  0.2366  0.7313
 5570TIP3    H138269   3.058   4.133   6.567 -0.0198 -0.5198  0.9993
 5570TIP3    H238270   3.148   4.043   6.486  1.5927  1.9574 -0.0933
 5571TIP3   OH238271   6.076   2.292   7.494  0.4156  0.1713  0.0060
 5571TIP3    H138272   6.149   2.247   7.452 -1.1615 -1.9719 -0.6229
 5571TIP3    H238273   6.081   2.263   7.586  1.1207  1.1161  0.2784
 5572TIP3   OH238274   6.295   6.714   8.477 -0.0984  0.4639  0.0752
 5572TIP3    H138275   6.384   6.686   8.494  0.0072  1.5942  1.5662
 5572TIP3    H238276   6.302   6.809   8.462 -0.4978  0.0074 -4.2204
 5573TIP3   OH238277   1.848   4.263   1.201 -0.1950 -0.0234 -0.0026
 5573TIP3    H138278   1.781   4.212   1.155  0.6908 -1.1131 -0.1105
 5573TIP3    H238279   1.798   4.322   1.258 -1.2472 -0.4478 -0.4610
 5574TIP3   OH238280   4.802   4.484   1.774 -0.0475  0.7789 -0.3146
 5574TIP3    H138281   4.788   4.426   1.849 -0.5568 -0.4686 -1.3302
 5574TIP3    H238282   4.880   4.449   1.732 -1.4188 -0.4127 -2.0015
 5575TIP3   OH238283   5.752   4.707   6.765  0.7940 -0.2888 -0.6046
 5575TIP3    H138284   5.771   4.617   6.740  0.6642 -0.6309  0.4955
 5575TIP3    H238285   5.695   4.700   6.841 -1.8981  0.7175 -2.3606
 5576TIP3   OH238286   5.932   1.461   2.213  0.2946  0.4294  0.2587
 5576TIP3    H138287   5.957   1.496   2.127  1.9024 -2.8079 -0.7351
 5576TIP3    H238288   5.987   1.508   2.275  1.6667  0.3941 -0.8838
 5577TIP3   OH238289   0.778   2.913   0.261  0.2750 -0.3515 -0.2019
 5577TIP3    H138290   0.737   2.853   0.199  0.6099 -0.6119 -0.1778
 5577TIP3    H238291   0.771   2.999   0.220 -0.2525 -0.3968 -0.2158
 5578TIP3   OH238292   5.914   0.868   1.750  0.0930 -0.0144 -0.2163
 5578TIP3    H138293   5.927   0.791   1.695  1.2200 -0.3807  0.5295
 5578TIP3    H238294   5.913   0.834   1.839  1.8302  0.9284  0.2147
 5579TIP3   OH238295   3.799   6.461   1.682 -0.6455 -0.3162 -0.1277
 5579TIP3    H138296   3.789   6.377   1.727 -0.4213  0.0864  0.6952
 5579TIP3    H238297   3.830   6.522   1.750 -0.9470  0.4687 -0.6729
 5580TIP3   OH238298   5.122   1.746   0.519  0.4891  0.2581 -0.4431
 5580TIP3    H138299   5.077   1.686   0.579  0.0649  0.0739 -0.9345
 5580TIP3    H238300   5.212   1.715   0.516  0.9884  1.3615  1.5082
 5581TIP3   OH238301   1.362   1.683   7.156 -0.1397  0.6623 -0.2624
 5581TIP3    H138302   1.359   1.727   7.241 -1.1200 -0.7783  0.4898
 5581TIP3    H238303   1.417   1.606   7.171 -2.0040 -0.7480 -0.3188
 5582TIP3   OH238304   5.376   1.180   6.950 -0.2585 -0.3156 -0.3246
 5582TIP3    H138305   5.440   1.192   6.879 -0.6166  0.6581 -0.4978
 5582TIP3    H238306   5.369   1.085   6.960  1.1897 -0.4456 -0.3226
 5583TIP3   OH238307   6.214   5.946   8.119 -0.1437 -0.1813  0.0862
 5583TIP3    H138308   6.268   5.996   8.058  0.1213  0.2989  0.7135
 5583TIP3    H238309   6.273   5.883   8.159  0.2212  1.0789  1.5928
 5584TIP3   OH238310   3.624   3.897   0.291 -0.0931  0.5512 -0.8745
 5584TIP3    H138311   3.653   3.808   0.310  1.8581  1.0324 -1.3585
 5584TIP3    H238312   3.575   3.924   0.369  1.6924  0.0285  0.4808
 5585TIP3   OH238313   1.753   6.011   1.915  0.2569 -0.0890  0.3485
 5585TIP3    H138314   1.745   6.039   2.006 -0.2832 -0.2434  0.3514
 5585TIP3    H238315   1.715   6.083   1.865  0.9931  0.2115  0.2096
 5586TIP3   OH238316   3.454   1.299   8.247  0.1570 -0.0834  0.3089
 5586TIP3    H138317   3.466   1.394   8.236 -0.3224 -0.1530 -1.1456
 5586TIP3    H238318   3.359   1.286   8.237  0.3754 -0.8525 -1.1388
 5587TIP3   OH238319   1.153   1.936   0.653 -0.2071 -0.1934 -0.5694
 5587TIP3    H138320   1.213   1.955   0.580  1.2015  0.3186  0.6764
 5587TIP3    H238321   1.200   1.965   0.731 -2.2540  0.6319  0.4444
 5588TIP3   OH238322   0.965   2.906   2.819  0.4647 -0.0302 -0.6498
 5588TIP3    H138323   0.972   2.941   2.908  0.2505  2.2671 -1.4605
 5588TIP3    H238324   0.890   2.847   2.823 -0.5819  1.2914  0.3731
 5589TIP3   OH238325   6.518   5.306   0.723  0.3115 -0.8037 -0.0612
 5589TIP3    H138326   6.430   5.341   0.735  0.5323 -0.3867  0.3776
 5589TIP3    H238327   6.535   5.315   0.629  0.2193 -0.0736 -0.0114
 5590TIP3   OH238328   3.359   1.649   7.498  0.1262 -0.0619  0.3508
 5590TIP3    H138329   3.297   1.576   7.504 -0.2619  0.2547  0.2113
 5590TIP3    H238330   3.316   1.713   7.442  1.4048 -0.6688 -1.4203
 5591TIP3   OH238331   3.700   4.232   8.091  0.0415  0.5369 -0.0540
 5591TIP3    H138332   3.661   4.168   8.150  2.0177  1.0213  1.9166
 5591TIP3    H238333   3.794   4.215   8.096  0.3193  0.9198 -2.7762
 5592TIP3   OH238334   6.270   2.200   6.901  0.7887  0.8801 -0.0016
 5592TIP3    H138335   6.312   2.122   6.937  1.0369  0.5304 -0.9884
 5592TIP3    H238336   6.194   2.167   6.854 -1.1158  1.5870  2.4166
 5593TIP3   OH238337   1.409   0.936   2.384  0.8366  0.2928  0.1886
 5593TIP3    H138338   1.368   0.891   2.458 -0.9524 -0.3194 -1.0832
 5593TIP3    H238339   1.379   1.026   2.392 -1.2439 -0.2185 -0.9270
 5594TIP3   OH238340   2.870   2.744   7.431 -0.2017  0.5994  0.0326
 5594TIP3    H138341   2.841   2.726   7.521 -2.2712  2.2681 -0.2099
 5594TIP3    H238342   2.886   2.658   7.393 -1.1108 -0.2338  1.4421
 5595TIP3   OH238343   3.254   4.688   1.884  0.2144 -0.3803  0.3457
 5595TIP3    H138344   3.171   4.642   1.872 -0.7795  1.5731 -0.7648
 5595TIP3    H238345   3.235   4.758   1.947  1.7494 -1.5063  2.1914
 5596TIP3   OH238346   6.613   6.598   0.695 -0.5842 -0.4299  0.3078
 5596TIP3    H138347   6.667   6.614   0.773  1.8822 -0.3888 -1.3212
 5596TIP3    H238348   6.600   6.503   0.693  0.5716 -0.5929  0.0267
 5597TIP3   OH238349   5.639   4.452   7.996  0.4151  0.5525 -0.2465
 5597TIP3    H138350   5.660   4.527   7.939  1.5154 -1.3373 -2.4794
 5597TIP3    H238351   5.670   4.376   7.948 -1.1949 -1.4399  1.6798
 5598TIP3   OH238352   5.576   5.110   1.759  0.9096 -0.2182 -0.1054
 5598TIP3    H138353   5.593   5.033   1.703 -0.3372 -0.3406 -0.3443
 5598TIP3    H238354   5.630   5.179   1.720  0.9876 -0.6165 -0.7358
 5599TIP3   OH238355   3.450   5.125   1.780  0.3060 -0.2324 -0.5068
 5599TIP3    H138356   3.508   5.198   1.803 -0.6907 -0.0972  1.9817
 5599TIP3    H238357   3.362   5.158   1.799 -0.3183 -1.4761 -1.1435
 5600TIP3   OH238358   5.374   5.593   7.568 -0.6104 -0.1300 -0.1287
 5600TIP3    H138359   5.431   5.544   7.510  1.6254 -0.3381  2.0787
 5600TIP3    H238360   5.319   5.526   7.610 -0.8899 -0.1825 -0.5717
 5601TIP3   OH238361   5.522   4.118   2.486  0.6003  0.6850 -0.1676
 5601TIP3    H138362   5.439   4.105   2.531  0.8315  0.4609  0.2036
 5601TIP3    H238363   5.570   4.179   2.542  1.0221  0.1452  0.0734
 5602TIP3   OH238364   5.917   3.713   1.143  0.5274  0.2248  0.3928
 5602TIP3    H138365   5.939   3.795   1.100 -0.0953  0.2497  0.1050
 5602TIP3    H238366   5.920   3.648   1.073 -0.2513  0.2250  0.3507
 5603TIP3   OH238367   5.382   6.838   2.367  0.6194 -0.4836  0.0487
 5603TIP3    H138368   5.369   6.918   2.316  0.8858  0.0285  0.7685
 5603TIP3    H238369   5.475   6.818   2.357  0.5639 -0.6883 -0.0902
 5604TIP3   OH238370   2.274   4.876   6.228  0.7719 -0.2667  0.6490
 5604TIP3    H138371   2.240   4.862   6.317  0.6170 -3.3671  0.1950
 5604TIP3    H238372   2.318   4.794   6.206 -1.2429 -0.5565 -3.0123
 5605TIP3   OH238373   0.221   2.456   1.398 -0.3737  0.2560  0.0002
 5605TIP3    H138374   0.249   2.494   1.481 -1.4619  0.5972  0.2221
 5605TIP3    H238375   0.133   2.491   1.383 -0.1192  0.3681 -1.3998
 5606TIP3   OH238376   2.363   3.053   8.436 -0.1190 -0.0007 -0.1408
 5606TIP3    H138377   2.298   2.984   8.427  0.0361 -0.2831  0.7577
 5606TIP3    H238378   2.424   3.038   8.365 -1.1860  0.4539 -1.1876
 5607TIP3   OH238379   3.329   6.029   0.290 -0.3911  0.3035  0.1348
 5607TIP3    H138380   3.410   6.036   0.340 -0.0604  2.7294 -0.6243
 5607TIP3    H238381   3.280   5.960   0.335  1.8420 -0.9064  0.9072
 5608TIP3   OH238382   4.720   4.894   7.010  0.3172 -0.1200  0.0209
 5608TIP3    H138383   4.813   4.917   7.014 -0.2090  2.1817  0.3926
 5608TIP3    H238384   4.684   4.951   6.942 -1.3259  1.2179  1.8626
 5609TIP3   OH238385   1.152   4.629   2.003  0.4739  0.1664 -0.7695
 5609TIP3    H138386   1.098   4.629   1.923  1.0463 -0.0367 -1.1650
 5609TIP3    H238387   1.208   4.552   1.993  0.3818  0.0045 -0.0509
 5610TIP3   OH238388   2.289   1.606   8.576 -0.4823 -0.2283 -0.0556
 5610TIP3    H138389   2.294   1.664   8.652 -2.0456 -0.1221 -0.0188
 5610TIP3    H238390   2.278   1.665   8.502  1.8736 -0.2756 -0.5261
 5611TIP3   OH238391   0.170   1.750   2.974 -0.3661 -0.4525 -0.3694
 5611TIP3    H138392   0.212   1.707   3.049 -1.4369  0.1613  0.6207
 5611TIP3    H238393   0.242   1.794   2.928  0.2627 -0.5091  0.5278
 5612TIP3   OH238394   0.307   2.289   1.191 -0.3067  0.3486 -0.4306
 5612TIP3    H138395   0.277   2.325   1.274 -2.4980 -0.8356 -0.6452
 5612TIP3    H238396   0.292   2.358   1.128 -1.9308  0.0613 -0.3914
 5613TIP3   OH238397   4.555   0.240   0.175 -0.5009 -0.8719 -0.1277
 5613TIP3    H138398   4.596   0.206   0.255 -0.8893 -1.2544 -0.0857
 5613TIP3    H238399   4.564   0.169   0.112  0.7185 -0.1896 -0.7515
 5614TIP3   OH238400   1.564   6.887   1.314 -0.1087  0.3125 -0.2567
 5614TIP3    H138401   1.605   6.807   1.282  1.2170  0.2896  1.3733
 5614TIP3    H238402   1.471   6.875   1.296 -0.0209 -1.8736  0.4895
 5615TIP3   OH238403   1.310   2.753   1.696 -0.1937  0.0589  0.0564
 5615TIP3    H138404   1.216   2.766   1.704 -0.2433  0.9363 -1.5283
 5615TIP3    H238405   1.329   2.677   1.751 -2.1660 -1.4515 -1.2168
 5616TIP3   OH238406   2.983   1.547   0.793  0.0067  0.1508 -0.2486
 5616TIP3    H138407   2.937   1.499   0.724 -0.6196 -1.6558  1.3215
 5616TIP3    H238408   2.919   1.611   0.824 -0.8059 -1.0325  0.6038
 5617TIP3   OH238409   4.206   5.477   8.468 -0.0663 -0.0659 -0.5998
 5617TIP3    H138410   4.219   5.570   8.448  1.5428  0.3293  1.8466
 5617TIP3    H238411   4.113   5.461   8.447 -0.3917  2.0871 -1.0511
 5618TIP3   OH238412   4.890   4.447   0.074  0.1920 -0.1313 -0.2903
 5618TIP3    H138413   4.894   4.536   0.108  0.3677  0.1921 -1.1160
 5618TIP3    H238414   4.907   4.457  -0.020 -0.5093 -0.9563 -0.5123
 5619TIP3   OH238415   2.306   3.432   2.564  0.3388  0.3120  0.5453
 5619TIP3    H138416   2.255   3.489   2.623  0.6755  1.1821  0.0204
 5619TIP3    H238417   2.386   3.414   2.612 -0.4942 -1.1964  1.4450
 5620TIP3   OH238418   2.823   3.153   7.378 -0.8509  0.3393  0.6180
 5620TIP3    H138419   2.894   3.095   7.352 -1.5805 -0.2640 -0.0770
 5620TIP3    H238420   2.817   3.218   7.308 -0.1827  1.1380  1.2839
 5621TIP3   OH238421   4.425   5.016   7.569  0.1768 -0.5344 -0.0880
 5621TIP3    H138422   4.350   4.959   7.549 -0.9372  1.1653 -0.9707
 5621TIP3    H238423   4.471   4.971   7.640 -0.3972 -2.7410 -1.0198
 5622TIP3   OH238424   3.466   3.824   1.630  0.1402  0.1883  0.3047
 5622TIP3    H138425   3.487   3.892   1.693 -3.5251  1.7419  0.0778
 5622TIP3    H238426   3.497   3.859   1.546  0.5800  0.3553  0.5313
 5623TIP3   OH238427   1.474   1.660   7.829  0.1869 -0.9535 -1.1485
 5623TIP3    H138428   1.560   1.694   7.855 -0.5722 -0.2927  0.6047
 5623TIP3    H238429   1.450   1.600   7.899 -0.7512 -1.2045 -1.6716
 5624TIP3   OH238430   1.188   3.573   0.813  0.5472  0.0550 -0.2332
 5624TIP3    H138431   1.115   3.618   0.771 -0.7067 -2.7133 -1.2462
 5624TIP3    H238432   1.154   3.551   0.901  0.4255 -0.5469 -0.4259
 5625TIP3   OH238433   5.838   6.302   7.159  0.4320  0.0175 -0.6009
 5625TIP3    H138434   5.926   6.336   7.148  0.4580  0.2253  0.2092
 5625TIP3    H238435   5.843   6.210   7.131  1.6343 -0.8810  2.2185
 5626TIP3   OH238436   0.526   6.784   7.664  0.1348 -0.2445  0.2813
 5626TIP3    H138437   0.552   6.877   7.661  1.0923 -0.5207 -0.9900
 5626TIP3    H238438   0.531   6.755   7.573  0.2985 -1.6647  0.7237
 5627TIP3   OH238439   6.313   5.426   8.476  0.5705 -0.1340 -0.4409
 5627TIP3    H138440   6.338   5.458   8.563 -0.1107  1.2530 -0.7196
 5627TIP3    H238441   6.294   5.334   8.489 -1.0821  0.3855  1.2437
 5628TIP3   OH238442   6.003   3.717   8.270  0.8068 -0.0500 -0.4055
 5628TIP3    H138443   6.085   3.702   8.224 -0.0578 -1.3484 -1.6211
 5628TIP3    H238444   6.029   3.745   8.358  2.5203 -0.1546 -0.8465
 5629TIP3   OH238445   2.264   6.543   1.131 -0.1960 -0.1845  1.3284
 5629TIP3    H138446   2.246   6.506   1.045  1.3716  0.4000  0.7088
 5629TIP3    H238447   2.356   6.522   1.147  0.5134  2.5521  1.3350
 5630TIP3   OH238448   5.004   3.868   8.089 -0.4728 -0.1413 -0.0143
 5630TIP3    H138449   4.944   3.807   8.132  0.4526 -1.7605 -0.9145
 5630TIP3    H238450   5.020   3.829   8.003  1.3499  0.5895 -0.0540
 5631TIP3   OH238451   6.371   2.439   6.526  0.4943 -0.1255 -0.4396
 5631TIP3    H138452   6.434   2.414   6.593 -0.3601  2.1007  1.3272
 5631TIP3    H238453   6.303   2.372   6.532 -0.4162  0.8874  2.2333
 5632TIP3   OH238454   5.606   6.557   2.016 -0.6631  0.3251 -0.8646
 5632TIP3    H138455   5.575   6.506   2.090 -1.1769 -0.5120 -1.6427
 5632TIP3    H238456   5.686   6.512   1.987  0.4045  1.5046  0.0795
 5633TIP3   OH238457   2.657   2.068   0.135 -0.3432 -0.1225 -0.1312
 5633TIP3    H138458   2.736   2.091   0.184 -0.8221  0.0785  0.5705
 5633TIP3    H238459   2.663   1.974   0.122 -0.1669 -0.1661  0.2472
 5634TIP3   OH238460   6.702   5.772   1.636  0.4702 -0.6003 -0.3590
 5634TIP3    H138461   6.741   5.685   1.634  1.1759 -0.3194  0.5849
 5634TIP3    H238462   6.752   5.820   1.701 -1.4372 -0.1928  0.8910
 5635TIP3   OH238463   4.925   1.762   1.598  0.4729  0.3690 -0.4987
 5635TIP3    H138464   4.834   1.743   1.618  0.2531 -1.4372 -2.7864
 5635TIP3    H238465   4.927   1.856   1.579 -0.8645  0.4572 -0.2754
 5636TIP3   OH238466   0.571   3.971   0.103  0.1595  0.2021  0.0822
 5636TIP3    H138467   0.560   4.066   0.113  1.0080  0.4078 -0.8015
 5636TIP3    H238468   0.622   3.961   0.023 -2.1811 -1.1282 -1.3541
 5637TIP3   OH238469   0.368   3.873   0.787  0.3889  0.3318  0.1349
 5637TIP3    H138470   0.455   3.908   0.808  0.6592 -0.2937  0.0673
 5637TIP3    H238471   0.363   3.879   0.691 -0.1969  1.6542  0.2261
 5638TIP3   OH238472   2.898   0.969   8.510 -0.0274  0.3889  0.4444
 5638TIP3    H138473   2.837   0.930   8.573 -0.1245  0.9035  0.6733
 5638TIP3    H238474   2.985   0.948   8.544 -0.0659  1.6027  1.3653
 5639TIP3   OH238475   2.804   5.104   8.417  0.6750 -0.2543 -0.0372
 5639TIP3    H138476   2.889   5.141   8.439  0.7289  0.5267 -1.4518
 5639TIP3    H238477   2.750   5.120   8.494  0.9925  1.9044 -0.2061
 5640TIP3   OH238478   4.671   3.763   2.047 -0.1251 -0.0387 -0.6588
 5640TIP3    H138479   4.691   3.782   2.138 -0.3892 -0.4344 -0.5145
 5640TIP3    H238480   4.646   3.671   2.046 -1.4021  0.2806 -0.8997
 5641TIP3   OH238481   0.195   1.699   7.609  0.4250  0.2899  0.1297
 5641TIP3    H138482   0.131   1.687   7.679 -0.8428  1.0823 -0.8418
 5641TIP3    H238483   0.278   1.713   7.654  0.3285 -2.5859  1.4088
 5642TIP3   OH238484   2.144   4.544   7.187 -0.2575 -0.4915 -0.3691
 5642TIP3    H138485   2.064   4.524   7.139 -0.2677 -0.6944 -0.2668
 5642TIP3    H238486   2.213   4.537   7.121 -0.5274  1.7315 -0.9610
 5643TIP3   OH238487   2.231   2.037   0.957  0.0350 -0.5544  0.1832
 5643TIP3    H138488   2.319   2.075   0.960 -0.3357  0.4510 -0.7903
 5643TIP3    H238489   2.243   1.946   0.981  1.5101 -0.6832 -0.9307
 5644TIP3   OH238490   3.796   4.229   8.438  0.6728  0.0782 -0.3865
 5644TIP3    H138491   3.721   4.246   8.495  0.7276 -1.2507  0.1262
 5644TIP3    H238492   3.852   4.305   8.448 -0.9510  1.4784 -1.3926
 5645TIP3   OH238493   5.354   1.991   1.800  0.3532  0.7879 -0.2286
 5645TIP3    H138494   5.320   1.947   1.723 -0.2000 -2.2249  1.5806
 5645TIP3    H238495   5.277   2.010   1.853  0.9600 -0.4528  1.1534
 5646TIP3   OH238496   4.890   1.200   0.648 -0.0772  0.0817  0.4719
 5646TIP3    H138497   4.901   1.105   0.651 -1.6077 -0.0860  1.9262
 5646TIP3    H238498   4.884   1.220   0.555  1.2715 -1.0879  0.0844
 5647TIP3   OH238499   6.673   6.721   1.167  0.2822 -0.1048  0.1221
 5647TIP3    H138500   6.717   6.693   1.087 -1.5071  1.8260 -1.6669
 5647TIP3    H238501   6.729   6.791   1.202 -0.1295  0.7144 -0.8217
 5648TIP3   OH238502   3.311   0.277   2.189 -0.0903 -0.3313 -0.0583
 5648TIP3    H138503   3.371   0.337   2.234  1.2678 -1.3348 -0.4582
 5648TIP3    H238504   3.323   0.193   2.233  2.0861 -1.6381 -2.8013
 5649TIP3   OH238505   2.876   0.703   7.566  0.3145 -0.3744 -0.3322
 5649TIP3    H138506   2.947   0.641   7.584  1.7779  0.9896 -1.1852
 5649TIP3    H238507   2.879   0.716   7.471  1.5398  2.6261  0.0012
 5650TIP3   OH238508   6.244   0.789   8.527  0.2924  0.1512  0.3400
 5650TIP3    H138509   6.164   0.825   8.487  0.2241  1.0842  1.2789
 5650TIP3    H238510   6.310   0.795   8.458 -0.0879  0.7475  0.0225
 5651TIP3   OH238511   4.806   4.179   7.153 -0.0526 -0.1998  0.0063
 5651TIP3    H138512   4.840   4.131   7.229 -1.4816 -0.5481  0.4495
 5651TIP3    H238513   4.818   4.120   7.079  0.2525 -0.3310  0.1601
 5652TIP3   OH238514   5.697   0.711   6.832  0.0402  0.1069  0.2358
 5652TIP3    H138515   5.767   0.747   6.886  0.7433  0.6046 -0.9813
 5652TIP3    H238516   5.704   0.758   6.749 -1.8807  0.3304  0.1576
 5653TIP3   OH238517   5.773   0.301   1.025  0.0479  0.4562 -0.0482
 5653TIP3    H138518   5.726   0.239   0.970 -1.5641  1.8298 -0.3233
 5653TIP3    H238519   5.760   0.268   1.114 -0.0545 -0.0601 -0.2515
 5654TIP3   OH238520   4.602   5.781   0.192 -0.2206 -0.0038 -0.4037
 5654TIP3    H138521   4.518   5.825   0.184 -0.7786 -1.0866 -0.7827
 5654TIP3    H238522   4.605   5.722   0.116  0.4264 -0.7163  0.1622
 5655TIP3   OH238523   4.175   0.882   7.732  0.2613 -0.2075 -0.5257
 5655TIP3    H138524   4.234   0.856   7.662  1.2464 -0.0163  0.1961
 5655TIP3    H238525   4.143   0.968   7.706  0.8203 -0.0271 -0.6239
 5656TIP3   OH238526   5.328   1.414   0.818  0.5888 -0.5020 -0.5595
 5656TIP3    H138527   5.238   1.391   0.844  0.0567  1.8091 -0.0934
 5656TIP3    H238528   5.380   1.399   0.897 -0.1166  1.6943  0.3914
 5657TIP3   OH238529   6.040   4.986   8.437  0.2466  0.1000 -0.1315
 5657TIP3    H138530   6.082   4.933   8.368  1.8151 -1.2702  1.7524
 5657TIP3    H238531   6.111   5.039   8.473 -0.8730  1.9651 -0.5362
 5658TIP3   OH238532   3.037   5.399   8.182  0.3968 -0.1035  0.8299
 5658TIP3    H138533   2.950   5.390   8.221 -0.0479 -0.0204 -0.1107
 5658TIP3    H238534   3.050   5.317   8.134  0.8914 -0.1646  1.0610
 5659TIP3   OH238535   0.240   0.990   2.185  0.1775  0.0703  0.0374
 5659TIP3    H138536   0.273   0.974   2.273 -1.3070  2.9490  1.2111
 5659TIP3    H238537   0.293   1.063   2.152 -1.4840  1.2824 -0.0666
 5660TIP3   OH238538   5.007   3.687   2.884 -0.0905 -0.5571  0.6453
 5660TIP3    H138539   5.012   3.592   2.870 -0.6132 -0.7174  1.4193
 5660TIP3    H238540   5.091   3.709   2.925 -0.2970 -0.8436  1.2422
 5661TIP3   OH238541   2.099   0.446   1.889 -0.6545 -0.3431 -0.6581
 5661TIP3    H138542   2.076   0.535   1.914  2.1464  0.4297 -0.5010
 5661TIP3    H238543   2.158   0.416   1.958  0.6976 -1.2189 -2.1266
 5662TIP3   OH238544   0.324   6.756   0.305  0.1815  0.0836  0.3141
 5662TIP3    H138545   0.390   6.822   0.327 -0.6840  0.5901  1.5085
 5662TIP3    H238546   0.374   6.676   0.292  1.3010  1.0219 -1.5672
 5663TIP3   OH238547   0.983   4.761   8.003 -0.0006  0.0055  0.2842
 5663TIP3    H138548   0.947   4.811   7.930 -1.4104 -0.6021  0.5291
 5663TIP3    H238549   0.998   4.674   7.967  1.9251  0.4137  0.0058
 5664TIP3   OH238550   2.802   6.076   8.099 -0.1086 -0.0857  0.1416
 5664TIP3    H138551   2.759   6.016   8.039 -0.4185  1.0773 -0.8291
 5664TIP3    H238552   2.866   6.122   8.045  0.5394  0.0416  1.0025
 5665TIP3   OH238553   1.736   1.201   6.724  0.0015  0.4354  0.3074
 5665TIP3    H138554   1.776   1.155   6.797 -1.0181  0.7179  1.0555
 5665TIP3    H238555   1.700   1.133   6.668  2.4894  0.0805 -1.0212
 5666TIP3   OH238556   0.135   5.260   1.044 -0.5703  0.7804  0.5856
 5666TIP3    H138557   0.200   5.313   1.089  0.6193  0.5194 -0.7378
 5666TIP3    H238558   0.079   5.225   1.113  0.4237  1.3896  1.7192
 5667TIP3   OH238559   0.091   0.012   0.231  0.6261 -0.7183 -0.2918
 5667TIP3    H138560   0.099   0.019   0.136  0.7501 -1.5778 -0.3542
 5667TIP3    H238561   0.156  -0.054   0.256  1.0641 -0.0271  0.4752
 5668TIP3   OH238562   5.831   2.148   7.531 -0.1428  0.2892 -0.4184
 5668TIP3    H138563   5.846   2.224   7.475  1.1712 -0.1765 -0.7293
 5668TIP3    H238564   5.785   2.183   7.608  1.2093  1.5572 -0.1617
 5669TIP3   OH238565   4.180   1.395   1.416 -0.2165  0.0027 -0.0568
 5669TIP3    H138566   4.165   1.316   1.363  0.2711  0.2213 -0.5336
 5669TIP3    H238567   4.111   1.455   1.388 -0.2002 -0.0263 -0.1634
 5670TIP3   OH238568   4.022   5.014   7.436  0.4005  0.5943 -0.0221
 5670TIP3    H138569   4.000   5.104   7.413 -0.8442  0.2624 -0.2160
 5670TIP3    H238570   4.043   5.017   7.529  1.2657  1.2255 -0.2280
 5671TIP3   OH238571   2.429   5.042   2.114 -0.0674 -0.1523 -0.2575
 5671TIP3    H138572   2.436   5.038   2.018  2.0269  0.9755 -0.2221
 5671TIP3    H238573   2.444   5.134   2.135  1.1101 -0.6349  1.2207
 5672TIP3   OH238574   0.964   1.581   8.056  0.0801  0.5680  0.3490
 5672TIP3    H138575   0.937   1.538   8.137 -1.1831  0.9139  0.1382
 5672TIP3    H238576   1.021   1.518   8.013  1.6269  0.7598  1.9556
 5673TIP3   OH238577   1.010   4.684   0.110  0.0451 -0.0767 -0.3359
 5673TIP3    H138578   1.040   4.686   0.019  1.6258  1.3702  0.1610
 5673TIP3    H238579   0.919   4.656   0.105 -0.0351  0.4169 -2.4173
 5674TIP3   OH238580   5.526   4.420   7.317  0.3495 -0.1901  0.8299
 5674TIP3    H138581   5.491   4.403   7.404 -0.9168  0.1581  0.4126
 5674TIP3    H238582   5.461   4.381   7.258  0.6452  0.5187  0.0201
 5675TIP3   OH238583   4.927   1.304   1.305 -0.3117  0.0155 -0.1267
 5675TIP3    H138584   4.996   1.336   1.363  0.7751  0.5544 -1.6702
 5675TIP3    H238585   4.858   1.275   1.365  0.0624  2.0843  1.4097
 5676TIP3   OH238586   5.375   3.929   0.266 -0.0475 -0.0853 -0.4388
 5676TIP3    H138587   5.396   3.884   0.348 -0.4647  1.7260  0.7139
 5676TIP3    H238588   5.280   3.924   0.261 -0.1222  0.8446 -0.1604
 5677TIP3   OH238589   2.161   6.708   1.874 -0.1817 -0.6696  0.3269
 5677TIP3    H138590   2.133   6.633   1.927 -2.6010  1.1075  1.7665
 5677TIP3    H238591   2.253   6.721   1.898 -0.0638 -2.3771  0.9591
 5678TIP3   OH238592   4.395   3.083   2.709  0.0845  0.6239 -0.1424
 5678TIP3    H138593   4.399   2.991   2.683  2.0032  1.0506 -1.6133
 5678TIP3    H238594   4.359   3.127   2.632 -2.2258  1.0025  1.0684
 5679TIP3   OH238595   5.332   2.012   0.486 -0.1703 -0.1516 -0.4373
 5679TIP3    H138596   5.304   2.016   0.578  1.2426  1.2684 -0.0304
 5679TIP3    H238597   5.282   2.082   0.443 -0.3315 -0.3745 -0.6155
 5680TIP3   OH238598   0.578   4.456   1.725  0.5365 -0.3163 -0.0059
 5680TIP3    H138599   0.500   4.400   1.727 -0.0260  0.4430 -0.1595
 5680TIP3    H238600   0.545   4.543   1.748  1.4824 -0.1382  0.7390
 5681TIP3   OH238601   3.732   3.108   0.641  0.4201 -0.4271 -0.0464
 5681TIP3    H138602   3.797   3.178   0.638  0.2405 -0.2695 -3.2297
 5681TIP3    H238603   3.670   3.137   0.708 -0.2151  3.0756 -1.8871
 5682TIP3   OH238604   0.448   6.529   0.177  0.1159 -0.0142 -0.0205
 5682TIP3    H138605   0.423   6.437   0.176 -0.3376 -0.0165  2.7728
 5682TIP3    H238606   0.536   6.530   0.215  0.7322  0.6492 -1.3746
 5683TIP3   OH238607   6.663   3.827   8.440 -0.4125  0.1483  0.1991
 5683TIP3    H138608   6.613   3.772   8.500  0.3020 -3.8392 -2.4515
 5683TIP3    H238609   6.608   3.834   8.362  1.1727 -0.3818 -1.0315
 5684TIP3   OH238610   0.377   2.735   1.729  0.3239  0.4624  0.1646
 5684TIP3    H138611   0.336   2.735   1.815 -0.2819  1.3364 -0.0997
 5684TIP3    H238612   0.306   2.710   1.669  0.4653  0.8597 -0.1782
 5685TIP3   OH238613   3.125   3.642   1.305 -0.4960  0.1304  0.0289
 5685TIP3    H138614   3.056   3.638   1.239 -0.7145 -0.2152  0.2821
 5685TIP3    H238615   3.194   3.695   1.263 -1.5143  1.7921  0.3423
 5686TIP3   OH238616   2.018   5.477   7.171 -0.4275 -0.2119 -0.2178
 5686TIP3    H138617   2.081   5.547   7.185 -0.3161 -0.7425  2.5954
 5686TIP3    H238618   2.055   5.425   7.100  1.0757  0.8092 -0.2270
 5687TIP3   OH238619   5.805   1.489   0.393  0.2212  0.1754 -1.0129
 5687TIP3    H138620   5.768   1.553   0.333  1.2002  1.6465 -0.1243
 5687TIP3    H238621   5.889   1.527   0.420 -0.0163 -0.5940  0.9823
 5688TIP3   OH238622   3.916   4.239   0.913 -0.5454  0.0182  0.3156
 5688TIP3    H138623   3.904   4.296   0.988 -0.3271  1.0131 -0.3866
 5688TIP3    H238624   3.933   4.298   0.839 -2.2383 -0.8361 -0.8311
 5689TIP3   OH238625   3.781   3.045   0.160 -0.2678  0.3391  0.1334
 5689TIP3    H138626   3.841   2.984   0.202  0.2909  1.1055  0.4697
 5689TIP3    H238627   3.724   2.989   0.107 -0.7155 -0.6148  1.5556
 5690TIP3   OH238628   6.118   2.997   0.354  0.2427 -0.1930  0.8017
 5690TIP3    H138629   6.179   2.924   0.354 -0.2474 -0.6169  1.6367
 5690TIP3    H238630   6.074   2.991   0.269 -0.7225 -1.6828  1.3688
 5691TIP3   OH238631   5.628   2.539   1.365  0.4148 -0.4775  0.0345
 5691TIP3    H138632   5.564   2.590   1.316 -0.3655 -1.2384  0.2478
 5691TIP3    H238633   5.628   2.579   1.452 -0.3146 -0.9328  0.2496
 5692TIP3   OH238634   5.222   3.629   0.938  0.0624  0.1777  0.2790
 5692TIP3    H138635   5.314   3.646   0.915  0.3529 -2.5122 -0.9121
 5692TIP3    H238636   5.173   3.660   0.862  0.3310 -1.3626 -0.5687
 5693TIP3   OH238637   2.687   6.309   7.059 -0.3714 -0.5248  0.0687
 5693TIP3    H138638   2.686   6.389   7.005  0.6374  1.4936  2.7925
 5693TIP3    H238639   2.708   6.239   6.998  0.9210  1.6240 -2.1512
 5694TIP3   OH238640   0.695   3.826   0.928 -0.1951  0.4373  0.2962
 5694TIP3    H138641   0.666   3.869   1.008 -0.7823  0.9929 -0.2017
 5694TIP3    H238642   0.776   3.782   0.952  0.3271  1.6712  0.8761
 5695TIP3   OH238643   1.426   6.791   7.293  0.1034 -0.1729  0.2030
 5695TIP3    H138644   1.330   6.787   7.294 -0.0282  1.5355  2.4203
 5695TIP3    H238645   1.450   6.803   7.385  2.2878  2.1552 -0.5718
 5696TIP3   OH238646   3.251   2.057   1.263  0.6431  0.3654 -0.0842
 5696TIP3    H138647   3.254   2.006   1.344  1.0175  0.7893  0.1755
 5696TIP3    H238648   3.329   2.030   1.215  1.0263  0.9162  0.2034
 5697TIP3   OH238649   1.896   3.774   6.943 -0.1732 -0.1547 -0.5830
 5697TIP3    H138650   1.973   3.718   6.949 -1.1600 -1.6422 -1.3448
 5697TIP3    H238651   1.887   3.812   7.030  1.6834  0.4577 -0.6035
 5698TIP3   OH238652   1.735   0.281   7.847  0.2450 -0.8317  0.5661
 5698TIP3    H138653   1.797   0.290   7.920 -1.5705 -1.7514  2.2945
 5698TIP3    H238654   1.667   0.345   7.865  0.5917  0.1458 -1.3086
 5699TIP3   OH238655   0.982   2.113   8.148  0.5386 -0.1372 -0.0286
 5699TIP3    H138656   1.007   2.026   8.179  1.8479  0.6303  1.2347
 5699TIP3    H238657   1.017   2.118   8.059  0.7020 -0.8087 -0.0093
 5700TIP3   OH238658   0.511   1.006   2.683  0.3145  0.1488  0.4725
 5700TIP3    H138659   0.596   0.977   2.650 -1.3046 -1.8868 -2.3573
 5700TIP3    H238660   0.528   1.091   2.724  3.6256 -0.1201 -0.1273
 5701TIP3   OH238661   2.767   4.257   1.944 -0.2538 -0.8940  0.4280
 5701TIP3    H138662   2.698   4.261   1.878 -0.1595 -0.1855  0.3570
 5701TIP3    H238663   2.727   4.212   2.018 -0.6402 -0.9105  0.2141
 5702TIP3   OH238664   0.805   1.470   8.255 -0.6435  0.4489  0.0079
 5702TIP3    H138665   0.749   1.446   8.329  0.9774  0.9403  1.4687
 5702TIP3    H238666   0.890   1.431   8.275  0.0253  1.1839 -1.2477
 5703TIP3   OH238667   4.407   3.248   1.740  0.0139 -0.4402  0.0588
 5703TIP3    H138668   4.331   3.195   1.767 -0.9081 -0.0088 -1.5356
 5703TIP3    H238669   4.382   3.282   1.654  2.5836 -1.3740 -1.1404
 5704TIP3   OH238670   2.246   2.938   1.630  0.1155 -0.8898 -0.3443
 5704TIP3    H138671   2.241   3.002   1.560 -2.2936 -0.5788  0.0164
 5704TIP3    H238672   2.275   2.988   1.707  1.8538 -1.0474 -0.8575
 5705TIP3   OH238673   6.657   1.881   7.241  0.6266 -0.0448  0.3068
 5705TIP3    H138674   6.694   1.911   7.158  0.6966  2.1852  1.0517
 5705TIP3    H238675   6.729   1.836   7.285  0.8449 -0.4712 -0.4795
 5706TIP3   OH238676   0.810   0.264   1.250 -0.3858 -0.5080  0.2974
 5706TIP3    H138677   0.853   0.320   1.186  0.3209  0.6046  1.6827
 5706TIP3    H238678   0.748   0.213   1.199 -0.3017  0.7777 -1.1762
 5707TIP3   OH238679   4.306   2.826   0.645  0.7591 -0.6363  0.1847
 5707TIP3    H138680   4.400   2.804   0.650  1.0444  0.6308  0.6654
 5707TIP3    H238681   4.305   2.915   0.610 -0.2587 -0.4820  0.6047
 5708TIP3   OH238682   1.824   5.426   6.853 -0.8482 -1.0788  0.3589
 5708TIP3    H138683   1.733   5.433   6.881 -0.7337  0.4655  0.4476
 5708TIP3    H238684   1.843   5.511   6.813  0.3116 -1.6774 -0.4174
 5709TIP3   OH238685   3.645   3.427   2.013  0.0694  0.0519  0.6606
 5709TIP3    H138686   3.554   3.397   2.002 -0.3558  1.1280  1.1285
 5709TIP3    H238687   3.648   3.510   1.965  0.6055  0.3781  1.2545
 5710TIP3   OH238688   2.789   1.432   0.098  0.6035  0.1321 -0.5993
 5710TIP3    H138689   2.709   1.484   0.086 -1.5861 -2.4605  1.3921
 5710TIP3    H238690   2.785   1.366   0.029  0.5178 -0.5746  0.0783
 5711TIP3   OH238691   0.837   2.534   2.215 -0.3435 -0.3617  0.1623
 5711TIP3    H138692   0.895   2.594   2.169 -0.5218 -0.2218  0.1186
 5711TIP3    H238693   0.789   2.589   2.277  1.6990 -0.8752  2.3876
 5712TIP3   OH238694   0.125   5.271   6.618 -1.1510 -0.4076  0.5324
 5712TIP3    H138695   0.048   5.228   6.654  0.2136 -1.8499  1.8970
 5712TIP3    H238696   0.150   5.216   6.544 -2.1161  0.7801 -0.7296
 5713TIP3   OH238697   4.995   6.465   0.189  0.5427 -0.0505 -0.3386
 5713TIP3    H138698   4.997   6.452   0.283 -1.7013 -0.9051 -0.3638
 5713TIP3    H238699   5.079   6.507   0.169  1.0941  0.0796  2.0003
 5714TIP3   OH238700   1.467   1.816   1.459 -0.3306 -0.0277 -0.0970
 5714TIP3    H138701   1.403   1.801   1.529  0.3063  0.8488  0.6970
 5714TIP3    H238702   1.526   1.882   1.494 -1.6470  2.6652 -2.4991
 5715TIP3   OH238703   1.470   3.826   1.311 -0.5305  0.2617 -0.3092
 5715TIP3    H138704   1.555   3.781   1.309 -1.4274 -1.6090  0.6188
 5715TIP3    H238705   1.467   3.866   1.398 -0.3904  0.7778 -0.5401
 5716TIP3   OH238706   2.539   6.507   8.272 -0.0922  0.4220 -0.4640
 5716TIP3    H138707   2.499   6.420   8.263 -0.7017  0.6358  0.1018
 5716TIP3    H238708   2.465   6.567   8.268 -0.1112  0.7348  2.4551
 5717TIP3   OH238709   5.573   3.198   0.062  0.2513 -0.0597  0.1770
 5717TIP3    H138710   5.508   3.240   0.005  1.2550  0.7095 -0.4294
 5717TIP3    H238711   5.623   3.270   0.099 -0.5458 -0.5208  2.2922
 5718TIP3   OH238712   6.001   6.157   0.752 -0.0246 -0.6788  0.1604
 5718TIP3    H138713   5.923   6.189   0.797  0.4284 -0.1576  0.6112
 5718TIP3    H238714   6.034   6.233   0.704 -0.3905 -1.1813 -0.9141
 5719TIP3   OH238715   5.102   5.213   0.121 -0.3428 -0.0537 -0.5660
 5719TIP3    H138716   5.152   5.237   0.198 -0.2144 -0.8707 -0.3857
 5719TIP3    H238717   5.093   5.118   0.127 -1.0754 -0.0249 -1.1044
 5720TIP3   OH238718   0.829   4.738   7.633  0.3041  0.5741 -0.3562
 5720TIP3    H138719   0.921   4.714   7.628  0.3727  0.8412 -0.3912
 5720TIP3    H238720   0.783   4.655   7.646  0.4190  0.2712 -1.7509
 5721TIP3   OH238721   2.591   5.048   1.626 -0.3362  0.8967 -0.0531
 5721TIP3    H138722   2.582   5.141   1.646  0.0602  1.1648 -1.0794
 5721TIP3    H238723   2.667   5.043   1.568  0.1476 -0.1657  0.6282
 5722TIP3   OH238724   6.082   6.182   2.342  0.2792 -0.6279  0.3781
 5722TIP3    H138725   6.175   6.163   2.347  0.2815 -1.3062 -1.5324
 5722TIP3    H238726   6.078   6.277   2.329  0.6346 -0.4735  1.2850
 5723TIP3   OH238727   5.708   4.212   2.275  0.0642  0.1577  0.3677
 5723TIP3    H138728   5.722   4.270   2.350 -0.0855  0.4222  0.1925
 5723TIP3    H238729   5.780   4.231   2.216  0.1566 -0.0179  0.4222
 5724TIP3   OH238730   0.830   0.325   7.975  0.5078 -0.7368 -0.3125
 5724TIP3    H138731   0.788   0.239   7.967  0.2193 -0.5226 -1.3027
 5724TIP3    H238732   0.886   0.318   8.052  0.1869 -1.6851 -0.1550
 5725TIP3   OH238733   5.453   1.495   7.061  0.2081  0.6651 -0.2207
 5725TIP3    H138734   5.489   1.407   7.077 -0.3135  0.9329  3.1560
 5725TIP3    H238735   5.494   1.550   7.127 -0.3609  2.7380 -1.5265
 5726TIP3   OH238736   3.913   4.664   7.139 -0.3370  0.4705  0.1887
 5726TIP3    H138737   3.927   4.571   7.119  1.0066  0.3842  1.3799
 5726TIP3    H238738   3.829   4.685   7.096  0.0745 -0.8712 -1.4048
 5727TIP3   OH238739   4.386   1.524   1.201 -0.1928  0.0766  0.1829
 5727TIP3    H138740   4.334   1.481   1.269  0.0597  0.0242  0.3436
 5727TIP3    H238741   4.406   1.610   1.236 -0.8306  0.3886 -0.2047
 5728TIP3   OH238742   5.216   4.116   2.105 -0.1717 -0.1637 -0.2590
 5728TIP3    H138743   5.259   4.177   2.046 -0.6378  2.9526  2.3794
 5728TIP3    H238744   5.122   4.135   2.096 -0.4037 -1.1045  0.0014
 5729TIP3   OH238745   3.739   3.872   7.354 -0.5129 -0.0647 -0.5792
 5729TIP3    H138746   3.690   3.791   7.338 -0.2325 -0.0771 -1.4720
 5729TIP3    H238747   3.691   3.939   7.306 -0.8498  0.3419  0.3189
 5730TIP3   OH238748   2.970   6.856   1.020 -0.3502  0.2844  0.0279
 5730TIP3    H138749   2.954   6.762   1.026 -1.1500  0.2923 -1.3823
 5730TIP3    H238750   3.037   6.874   1.085 -1.1247 -1.0335  1.2300
 5731TIP3   OH238751   4.091   6.439   1.820  0.0540  0.0584  0.1381
 5731TIP3    H138752   4.039   6.377   1.769 -0.2577 -1.6178  2.3668
 5731TIP3    H238753   4.067   6.525   1.784 -1.3482 -0.9205 -1.4286
 5732TIP3   OH238754   1.854   1.439   6.638 -0.2019 -0.0321  0.2264
 5732TIP3    H138755   1.816   1.354   6.657 -1.5599  0.0687 -1.8129
 5732TIP3    H238756   1.946   1.430   6.664 -0.6605 -1.6064  1.4490
 5733TIP3   OH238757   2.255   6.541   7.753 -0.0064  0.1852 -0.0760
 5733TIP3    H138758   2.200   6.486   7.808 -1.2194  3.0560  1.8790
 5733TIP3    H238759   2.198   6.568   7.681  0.6865 -1.2804 -1.2157
 5734TIP3   OH238760   2.776   4.409   3.019  0.4160 -0.2291  0.1099
 5734TIP3    H138761   2.688   4.429   3.050  0.5360  1.7156 -0.6530
 5734TIP3    H238762   2.771   4.319   2.986 -1.0211 -0.4778  0.9601
 5735TIP3   OH238763   2.430   2.467   0.531  0.2526  0.1286  0.0027
 5735TIP3    H138764   2.386   2.494   0.450 -0.5822  2.0845  1.0340
 5735TIP3    H238765   2.501   2.409   0.502 -0.4133  0.2740 -2.0630
 5736TIP3   OH238766   5.191   2.059   2.332 -0.1889 -0.5403 -0.1585
 5736TIP3    H138767   5.237   1.976   2.321 -1.2568 -1.5440  2.3544
 5736TIP3    H238768   5.123   2.058   2.265 -1.2132 -2.4669  0.8414
 5737TIP3   OH238769   4.459   3.938   7.859 -0.3266  0.1050  0.6175
 5737TIP3    H138770   4.377   3.966   7.900 -1.8319  0.5781 -2.4533
 5737TIP3    H238771   4.527   3.973   7.916 -2.2327  0.9449  2.5198
 5738TIP3   OH238772   5.251   3.113   7.863 -0.0205 -0.1422  0.2100
 5738TIP3    H138773   5.212   3.055   7.798  0.7158 -0.0847 -0.2965
 5738TIP3    H238774   5.343   3.087   7.866 -0.2439 -0.8987  2.0420
 5739TIP3   OH238775   5.671   0.092   0.860 -0.6535  0.2982 -0.1200
 5739TIP3    H138776   5.650   0.149   0.785  1.9311  0.7605 -0.5904
 5739TIP3    H238777   5.727   0.023   0.823  0.1981  0.2099  1.2509
 5740TIP3   OH238778   2.442   0.060   7.689  0.5081  0.4578 -0.4682
 5740TIP3    H138779   2.456  -0.010   7.625 -0.8535  0.2229 -0.5531
 5740TIP3    H238780   2.502   0.040   7.760 -0.0234 -0.9692 -0.3760
 5741TIP3   OH238781   3.206   5.856   1.007 -0.4091  0.3891 -0.0665
 5741TIP3    H138782   3.259   5.788   0.967  0.6031 -0.5123  2.5580
 5741TIP3    H238783   3.269   5.919   1.042 -1.1886  0.9315  0.4203
 5742TIP3   OH238784   3.713   0.210   0.995 -0.2135  0.2413 -0.2602
 5742TIP3    H138785   3.703   0.291   0.946 -0.1868 -0.0928 -0.8216
 5742TIP3    H238786   3.640   0.211   1.057 -0.4287  0.5190 -0.5123
 5743TIP3   OH238787   3.824   2.861   0.706  0.2552  0.1761  0.2253
 5743TIP3    H138788   3.751   2.799   0.698 -0.6537  1.2586 -0.0255
 5743TIP3    H238789   3.783   2.944   0.732  1.4614  0.6710  0.6109
 5744TIP3   OH238790   3.305   2.412   8.200  0.0303 -0.2206  0.3370
 5744TIP3    H138791   3.392   2.373   8.203  0.0050 -0.5066 -1.7218
 5744TIP3    H238792   3.320   2.502   8.173 -0.0852  0.7665  3.2069
 5745TIP3   OH238793   0.889   1.361   7.798 -0.2612  0.3299 -0.0691
 5745TIP3    H138794   0.953   1.366   7.869  0.5986 -2.5338 -0.5258
 5745TIP3    H238795   0.942   1.362   7.718 -1.0218  0.7432 -0.5849
 5746TIP3   OH238796   2.784   1.633   1.501 -0.4479 -0.1554  0.3884
 5746TIP3    H138797   2.847   1.597   1.440 -1.1514  1.0862 -1.1381
 5746TIP3    H238798   2.701   1.591   1.478 -0.2576 -1.8387  2.4252
 5747TIP3   OH238799   4.465   3.358   0.638 -0.0506  0.0950  0.1864
 5747TIP3    H138800   4.392   3.339   0.578 -0.2521  1.0207  0.1261
 5747TIP3    H238801   4.439   3.438   0.683  1.6031  1.3568 -0.9613
 5748TIP3   OH238802   4.476   4.359   2.292 -1.0177  0.6750 -0.4945
 5748TIP3    H138803   4.556   4.327   2.251 -0.8699  0.9328 -0.4047
 5748TIP3    H238804   4.406   4.310   2.249 -0.7287 -0.5983  0.4088
 5749TIP3   OH238805   6.010   2.957   8.131  0.3262  0.2691 -0.3137
 5749TIP3    H138806   5.921   2.923   8.130  0.4996 -0.3182  1.0589
 5749TIP3    H238807   6.042   2.938   8.220  2.6621 -1.8251 -1.4505
 5750TIP3   OH238808   4.832   0.909   1.637 -0.2246  0.5495 -0.4844
 5750TIP3    H138809   4.751   0.945   1.673  0.2053 -0.1014  1.2536
 5750TIP3    H238810   4.803   0.836   1.582 -0.8312 -1.7522  2.5694
 5751TIP3   OH238811   1.340   0.892   7.348 -0.5869  0.2970  0.2127
 5751TIP3    H138812   1.302   0.811   7.382 -2.3537  1.0759  0.1953
 5751TIP3    H238813   1.291   0.910   7.267  1.9911 -0.3073 -1.6125
 5752TIP3   OH238814   0.566   0.300   7.242  0.6387 -0.2166 -0.2920
 5752TIP3    H138815   0.642   0.267   7.290  0.8530 -1.7631 -1.5901
 5752TIP3    H238816   0.521   0.222   7.210 -1.8307  0.6272  0.8383
 5753TIP3   OH238817   3.181   3.942   7.861  0.2997  0.5514 -0.1741
 5753TIP3    H138818   3.156   3.963   7.771  2.0092 -0.0633 -0.8215
 5753TIP3    H238819   3.109   3.976   7.914  0.6581  3.7394 -1.5137
 5754TIP3   OH238820   6.137   2.662   8.140 -0.1828 -0.2990  0.6735
 5754TIP3    H138821   6.075   2.681   8.070 -0.6914 -1.1001  0.8962
 5754TIP3    H238822   6.206   2.728   8.130  0.0194 -0.7163 -0.9040
 5755TIP3   OH238823   1.667   6.805   0.906  0.1127  0.5403 -0.7208
 5755TIP3    H138824   1.672   6.859   0.827 -1.1627 -0.3798 -1.4656
 5755TIP3    H238825   1.690   6.865   0.977 -0.2549  1.8006 -1.6201
 5756TIP3   OH238826   3.218   0.969   2.031 -0.0416 -0.2253  0.1155
 5756TIP3    H138827   3.221   0.916   2.111 -1.4118  0.5437  0.7100
 5756TIP3    H238828   3.194   1.056   2.061 -3.5711 -0.5316 -1.3359
 5757TIP3   OH238829   0.520   4.780   0.011  0.5123 -0.6427  0.3060
 5757TIP3    H138830   0.516   4.751   0.102 -0.1795  1.1301  0.8771
 5757TIP3    H238831   0.437   4.751  -0.027 -0.1098  0.4105  0.8303
 5758TIP3   OH238832   2.582   2.429   1.420  0.0474 -0.6775  0.3386
 5758TIP3    H138833   2.590   2.347   1.469 -1.7304 -0.8165  0.4548
 5758TIP3    H238834   2.488   2.439   1.405  0.2777  1.0777 -0.1373
 5759TIP3   OH238835   3.652   1.218   1.602 -0.7351  0.2949 -0.2625
 5759TIP3    H138836   3.622   1.201   1.513 -0.8038  0.9886 -0.3819
 5759TIP3    H238837   3.611   1.150   1.655 -0.1882 -0.5119 -0.8438
 5760TIP3   OH238838   2.827   4.659   0.438  0.2363 -0.0298 -0.3871
 5760TIP3    H138839   2.833   4.685   0.346  1.7120  1.8407  0.1919
 5760TIP3    H238840   2.772   4.726   0.478  1.5197  0.5031  0.5303
 5761TIP3   OH238841   6.799   2.521   1.611  0.5381  0.4505 -0.0833
 5761TIP3    H138842   6.836   2.449   1.560  0.3013  1.6485 -2.0722
 5761TIP3    H238843   6.709   2.531   1.578  0.1988  0.9428  0.9382
 5762TIP3   OH238844   1.594   0.324   1.444 -0.4918  0.3696  0.5262
 5762TIP3    H138845   1.633   0.256   1.499 -2.1056  0.4877  1.9150
 5762TIP3    H238846   1.635   0.405   1.474  0.4951  0.1699 -0.2421
 5763TIP3   OH238847   1.072   1.470   6.877 -0.0083 -0.1362 -0.1095
 5763TIP3    H138848   1.051   1.548   6.826 -1.6362 -0.7512 -0.4147
 5763TIP3    H238849   1.059   1.397   6.817  0.7440 -0.7152  0.4019
 5764TIP3   OH238850   6.123   4.059   0.338  0.4339 -0.1916  0.5011
 5764TIP3    H138851   6.210   4.082   0.306  1.1778 -1.9983  1.0747
 5764TIP3    H238852   6.086   4.142   0.368  1.7693  0.6864 -0.1498
 5765TIP3   OH238853   2.370   5.263   0.372 -0.1325 -0.2861  0.0826
 5765TIP3    H138854   2.424   5.223   0.303  0.9707 -0.1152  0.8272
 5765TIP3    H238855   2.433   5.296   0.436 -1.1389 -0.2834  1.0985
 5766TIP3   OH238856   3.921   1.390   1.382 -0.5262  0.4091  0.3596
 5766TIP3    H138857   3.908   1.477   1.345  0.8417  0.6113  0.3224
 5766TIP3    H238858   3.905   1.401   1.475  1.3512  1.1253  0.6435
 5767TIP3   OH238859   5.022   5.473   2.381  0.2499  0.0138 -0.3727
 5767TIP3    H138860   4.999   5.507   2.468  0.5980  0.7581 -0.5642
 5767TIP3    H238861   4.949   5.416   2.358 -0.9149  1.4858 -0.5055
 5768TIP3   OH238862   0.612   5.590   0.856  0.0243 -0.1207  0.4874
 5768TIP3    H138863   0.613   5.554   0.767 -1.3128  1.2597 -0.1172
 5768TIP3    H238864   0.522   5.577   0.886  0.9553 -2.7197  2.6198
 5769TIP3   OH238865   5.603   4.021   2.078 -0.1514 -0.0645 -0.1680
 5769TIP3    H138866   5.666   4.086   2.047 -0.8195  0.5237 -0.3292
 5769TIP3    H238867   5.620   3.944   2.024 -0.2615  0.4357 -0.9275
 5770TIP3   OH238868   3.876   4.962   0.817  0.2672 -0.2131  0.0098
 5770TIP3    H138869   3.836   4.906   0.884  1.6110 -0.0399  1.0144
 5770TIP3    H238870   3.881   4.908   0.739 -0.6632 -0.6702  0.2555
 5771TIP3   OH238871   5.979   0.186   7.422  0.3802  0.2763  0.1468
 5771TIP3    H138872   6.050   0.222   7.368  0.1192  3.1496  1.5242
 5771TIP3    H238873   5.899   0.218   7.382 -0.2653 -2.6178 -1.1562
 5772TIP3   OH238874   4.506   0.116   1.407 -0.3463 -0.0515 -0.0096
 5772TIP3    H138875   4.428   0.073   1.373 -1.3964  1.8551 -0.1508
 5772TIP3    H238876   4.503   0.100   1.501 -0.6277 -0.4120 -0.0769
 5773TIP3   OH238877   0.057   2.910   7.863 -0.1640  0.0526  0.0353
 5773TIP3    H138878   0.030   2.875   7.778 -0.0461  0.3216 -0.1182
 5773TIP3    H238879   0.059   3.005   7.849  0.3153  0.0709  0.1978
 5774TIP3   OH238880   5.396   4.245   2.758 -0.2869 -0.2696 -0.3160
 5774TIP3    H138881   5.488   4.249   2.734 -0.4671 -0.1320 -1.0007
 5774TIP3    H238882   5.378   4.332   2.795 -0.5071  0.2570 -1.5879
 5775TIP3   OH238883   4.352   5.539   0.387  0.5020  0.3863  0.2331
 5775TIP3    H138884   4.342   5.611   0.324  2.3213 -0.7284 -1.4740
 5775TIP3    H238885   4.342   5.460   0.334 -1.0801 -0.6793  1.9952
 5776TIP3   OH238886   1.304   5.479   7.809  0.3893  0.5428  0.3055
 5776TIP3    H138887   1.248   5.479   7.731  1.4752  0.4797 -0.4950
 5776TIP3    H238888   1.243   5.474   7.882 -0.6521  0.4946 -0.5436
 5777TIP3   OH238889   2.168   5.237   7.048 -0.1796  0.0654 -0.2990
 5777TIP3    H138890   2.247   5.289   7.038 -0.3323  0.0893 -1.4748
 5777TIP3    H238891   2.163   5.184   6.969 -0.6776 -0.8588  0.3270
 5778TIP3   OH238892   4.357   5.151   2.128  0.5429  0.3894 -0.2769
 5778TIP3    H138893   4.421   5.111   2.068  0.4886 -0.2068  0.0485
 5778TIP3    H238894   4.349   5.087   2.199  0.2156  0.8513  0.1028
 5779TIP3   OH238895   6.085   1.446   8.295  0.5007  0.1185  0.0615
 5779TIP3    H138896   6.099   1.410   8.207  2.0052 -1.2977  0.8297
 5779TIP3    H238897   6.056   1.371   8.347  1.4874  0.4942  1.1908
 5780TIP3   OH238898   6.443   6.541   7.612  0.2134 -0.0447  0.0378
 5780TIP3    H138899   6.500   6.607   7.573 -0.8948  1.0004  0.1410
 5780TIP3    H238900   6.492   6.510   7.689 -0.2743  2.5100  1.4872
 5781TIP3   OH238901   1.017   3.824   8.464 -0.3057 -0.0371  0.1559
 5781TIP3    H138902   1.062   3.866   8.538  1.8071  1.3832 -1.7959
 5781TIP3    H238903   0.964   3.755   8.504  2.0180 -0.4395  2.8591
 5782TIP3   OH238904   5.794   3.024   1.202  0.3864 -0.0982  0.9694
 5782TIP3    H138905   5.885   3.043   1.183 -0.5903  1.7978 -2.8160
 5782TIP3    H238906   5.781   2.934   1.172  0.4830  0.5542 -1.1695
 5783TIP3   OH238907   0.371   6.513   7.082  0.2045 -0.3774 -0.1054
 5783TIP3    H138908   0.411   6.578   7.140 -1.4538 -0.5538  1.3312
 5783TIP3    H238909   0.390   6.429   7.123 -0.2738 -0.5662 -0.2595
 5784TIP3   OH238910   5.179   4.339   8.359  0.2667  0.3121  0.0653
 5784TIP3    H138911   5.106   4.310   8.305 -0.3683 -0.6026  1.3740
 5784TIP3    H238912   5.257   4.308   8.313 -0.2610 -0.4771 -0.3188
 5785TIP3   OH238913   6.375   3.929   8.434  0.3468 -0.0587  0.4700
 5785TIP3    H138914   6.424   4.012   8.437  2.1047 -0.9547 -0.9003
 5785TIP3    H238915   6.342   3.924   8.344  1.3824 -1.3962  0.1269
 5786TIP3   OH238916   5.563   0.379   1.510  0.1516 -0.1869 -0.6566
 5786TIP3    H138917   5.494   0.386   1.576 -1.8556  1.8412 -2.8192
 5786TIP3    H238918   5.640   0.418   1.551 -1.1350  1.3392  0.3883
 5787TIP3   OH238919   5.411   1.974   0.132  0.3183  0.4418 -0.5816
 5787TIP3    H138920   5.319   1.990   0.148  0.2935  0.2299 -0.5028
 5787TIP3    H238921   5.436   1.908   0.197  0.1193 -0.7118 -1.6396
 5788TIP3   OH238922   0.146   3.293   1.406 -0.4032 -0.4244 -0.3289
 5788TIP3    H138923   0.125   3.351   1.479 -2.3000 -0.3865 -0.8600
 5788TIP3    H238924   0.158   3.207   1.446  0.6219 -0.0287  0.2449
 5789TIP3   OH238925   4.222   2.080   1.874  0.0975  0.0514 -0.0204
 5789TIP3    H138926   4.166   2.040   1.808  0.2127  0.3729 -0.3169
 5789TIP3    H238927   4.295   2.019   1.884  0.8361  0.6787 -1.2685
 5790TIP3   OH238928   3.719   6.532   2.286  0.5297 -0.3270 -0.1200
 5790TIP3    H138929   3.639   6.484   2.265  1.2444 -1.0738 -1.2590
 5790TIP3    H238930   3.707   6.559   2.377  0.2456 -3.0201  0.7386
 5791TIP3   OH238931   3.329   6.618   7.419  0.2245 -0.5526 -0.1434
 5791TIP3    H138932   3.292   6.628   7.507 -0.4686 -1.9441 -0.2585
 5791TIP3    H238933   3.368   6.704   7.400 -1.2985  0.3851  0.7344
 5792TIP3   OH238934   0.692   1.597   2.170  0.2771  0.0868 -0.1655
 5792TIP3    H138935   0.625   1.559   2.228 -0.7910  1.9367 -0.1008
 5792TIP3    H238936   0.648   1.604   2.085  0.4710  1.0425 -0.1962
 5793TIP3   OH238937   2.407   3.786   8.500  0.1973  0.2499 -0.0775
 5793TIP3    H138938   2.341   3.841   8.460  0.1761  0.9046  0.8162
 5793TIP3    H238939   2.459   3.753   8.427 -2.0093 -1.5251 -0.9516
 5794TIP3   OH238940   0.789   1.984   6.750  0.5934  0.4050 -0.6185
 5794TIP3    H138941   0.784   2.042   6.826  1.0047 -0.8430  0.3869
 5794TIP3    H238942   0.759   2.038   6.677  0.8751  1.8516  0.2967
 5795TIP3   OH238943   0.509   3.244   7.157  0.5189  0.6194 -0.2295
 5795TIP3    H138944   0.414   3.237   7.168  0.7302 -2.7356  0.6325
 5795TIP3    H238945   0.520   3.294   7.076 -1.9723  1.1234 -0.3493
 5796TIP3   OH238946   5.743   1.799   2.338 -0.1760  0.0935 -0.6491
 5796TIP3    H138947   5.711   1.836   2.255 -0.8530 -0.6517 -0.7268
 5796TIP3    H238948   5.776   1.875   2.386 -0.1835  0.5992 -1.4128
 5797TIP3   OH238949   6.238   3.141   8.498  0.3991  0.3011 -0.2222
 5797TIP3    H138950   6.196   3.191   8.568  2.9560 -0.2055  1.8810
 5797TIP3    H238951   6.167   3.095   8.454 -1.2998 -0.1131  2.7115
 5798TIP3   OH238952   1.525   5.746   1.185 -0.4837 -0.0534  0.0236
 5798TIP3    H138953   1.481   5.671   1.226 -0.7769  0.0649 -0.0739
 5798TIP3    H238954   1.607   5.709   1.151  0.6886  0.2350  2.3710
 5799TIP3   OH238955   4.183   5.941   2.058 -0.3114 -0.1151 -0.2994
 5799TIP3    H138956   4.129   5.940   2.137 -0.0441  0.3629 -0.0998
 5799TIP3    H238957   4.258   5.887   2.080 -1.2522 -1.7627 -0.9950
 5800TIP3   OH238958   1.066   5.245   0.727  0.3580 -0.2589  0.2117
 5800TIP3    H138959   1.007   5.293   0.785 -0.4311 -1.2216  0.2354
 5800TIP3    H238960   1.122   5.312   0.688 -2.2901  1.0760 -1.6374
 5801TIP3   OH238961   3.752   0.900   0.349  0.3442  0.0191 -0.6324
 5801TIP3    H138962   3.770   0.807   0.333  0.7305  0.1344 -0.8817
 5801TIP3    H238963   3.667   0.901   0.393  0.5580 -0.4856 -0.1967
 5802TIP3   OH238964   4.601   5.170   0.261 -0.1035 -0.6484 -0.1525
 5802TIP3    H138965   4.627   5.139   0.347 -0.2283 -0.0403  0.1075
 5802TIP3    H238966   4.658   5.245   0.244  0.1469 -0.9586 -0.7447
 5803TIP3   OH238967   3.274   6.270   6.464  0.4731  0.5334  0.7098
 5803TIP3    H138968   3.241   6.195   6.514 -0.8868  1.2676  0.9657
 5803TIP3    H238969   3.338   6.311   6.521 -0.5289  0.9387  1.5717
 5804TIP3   OH238970   0.083   4.290   7.998 -0.2278 -0.1195 -0.3501
 5804TIP3    H138971   0.061   4.316   7.909  0.3369  1.0367 -0.1781
 5804TIP3    H238972   0.176   4.265   7.993  0.6472  2.5864  0.3724
 5805TIP3   OH238973   5.878   4.265   7.516  0.7750 -0.3477 -0.0757
 5805TIP3    H138974   5.963   4.249   7.557  0.6624  2.5204  1.5929
 5805TIP3    H238975   5.894   4.338   7.456 -0.6115  0.7726  0.8628
 5806TIP3   OH238976   5.509   5.480   1.330 -0.1399 -0.5090 -0.1301
 5806TIP3    H138977   5.571   5.530   1.278 -1.0161 -0.2782 -0.9740
 5806TIP3    H238978   5.503   5.528   1.413 -1.7871  1.4637 -1.3034
 5807TIP3   OH238979   4.886   5.404   1.344  0.0202  0.0466 -0.1201
 5807TIP3    H138980   4.956   5.469   1.348  2.2891 -2.1768 -0.6627
 5807TIP3    H238981   4.849   5.404   1.432  0.4945  1.5091  0.1018
 5808TIP3   OH238982   3.664   1.580   6.296  0.2003 -0.3532 -0.3264
 5808TIP3    H138983   3.715   1.643   6.245  2.2772  0.1337  2.1656
 5808TIP3    H238984   3.575   1.588   6.261  0.7297  2.7057 -1.2984
 5809TIP3   OH238985   3.840   4.370   2.056 -1.0366 -0.0795  0.3191
 5809TIP3    H138986   3.922   4.403   2.092 -1.0187 -1.1889  1.3582
 5809TIP3    H238987   3.779   4.369   2.130 -1.0408 -2.2792  0.3587
 5810TIP3   OH238988   4.245   2.565   7.860 -0.1855 -0.0284  0.6049
 5810TIP3    H138989   4.180   2.498   7.883  0.6962 -0.1647  2.9423
 5810TIP3    H238990   4.308   2.519   7.805 -1.5312 -0.1245 -0.9279
 5811TIP3   OH238991   5.550   3.191   1.875 -0.0990 -0.1045  0.2016
 5811TIP3    H138992   5.631   3.195   1.825  0.4224 -1.1577  0.9252
 5811TIP3    H238993   5.562   3.254   1.946 -0.4698  0.7215 -0.4597
 5812TIP3   OH238994   5.158   3.679   1.222 -0.0305 -0.4286 -0.0026
 5812TIP3    H138995   5.161   3.720   1.309 -1.0889  0.7430 -0.4850
 5812TIP3    H238996   5.249   3.656   1.204  0.9715  3.1787 -0.3335
 5813TIP3   OH238997   2.847   0.716   0.769 -0.1011 -0.0119 -0.0916
 5813TIP3    H138998   2.921   0.692   0.826  0.6448  0.3383 -0.8941
 5813TIP3    H238999   2.876   0.795   0.724 -0.1483 -0.9809 -1.9020
 5814TIP3   OH239000   4.572   5.364   2.150  0.9755 -0.0445 -0.0351
 5814TIP3    H139001   4.557   5.455   2.176 -3.1897 -0.1068 -1.3155
 5814TIP3    H239002   4.502   5.315   2.194  0.8261 -1.9577 -2.2127
 5815TIP3   OH239003   3.490   6.810   8.213 -0.1819 -0.1019 -0.4120
 5815TIP3    H139004   3.424   6.879   8.212 -0.1622 -0.0841 -0.4795
 5815TIP3    H239005   3.455   6.743   8.272 -0.7647 -0.6054 -1.3198
 5816TIP3   OH239006   2.673   2.107   7.814  0.0209 -0.1572  0.1068
 5816TIP3    H139007   2.685   2.017   7.844  0.7168 -0.0487  0.1613
 5816TIP3    H239008   2.732   2.115   7.739 -0.3216  0.1395 -0.1338
 5817TIP3   OH239009   2.127   1.129   1.751  0.5906 -0.2866 -0.5328
 5817TIP3    H139010   2.066   1.117   1.824  0.5134 -0.5894 -0.6452
 5817TIP3    H239011   2.202   1.075   1.775  0.1584 -1.1800 -1.1397
 5818TIP3   OH239012   3.708   3.713   7.653 -0.2204 -0.1647 -0.1564
 5818TIP3    H139013   3.665   3.633   7.685 -0.6883 -0.3334 -1.1592
 5818TIP3    H239014   3.780   3.681   7.599 -0.8730  0.0561 -1.1942
 5819TIP3   OH239015   3.594   5.472   0.693  0.3946 -0.4640 -0.3190
 5819TIP3    H139016   3.607   5.422   0.774 -0.7855 -2.2603 -1.1705
 5819TIP3    H239017   3.667   5.447   0.637  2.0507  1.9002  0.6173
 5820TIP3   OH239018   4.186   2.893   6.975 -0.4036 -0.7286 -1.1210
 5820TIP3    H139019   4.187   2.987   6.995 -1.6681 -0.6752 -1.2740
 5820TIP3    H239020   4.277   2.873   6.952 -0.1534  0.4976 -1.2777
 5821TIP3   OH239021   5.814   2.647   0.151  0.0518 -0.6751 -0.0451
 5821TIP3    H139022   5.747   2.634   0.218 -0.9430  2.5673 -0.2362
 5821TIP3    H239023   5.766   2.668   0.072  1.2477  0.3990 -0.5213
 5822TIP3   OH239024   3.640   4.155   7.316  0.2931 -0.0073  0.7555
 5822TIP3    H139025   3.616   4.225   7.255  0.1621 -0.3919  0.3607
 5822TIP3    H239026   3.561   4.100   7.322  0.3539 -0.0551  1.1552
 5823TIP3   OH239027   6.007   3.889   7.610 -0.5548  0.1471 -0.4378
 5823TIP3    H139028   6.047   3.813   7.654  0.7690  0.9068 -0.2513
 5823TIP3    H239029   5.950   3.851   7.543  0.1791 -1.0156 -0.4372
 5824TIP3   OH239030   0.919   6.268   1.732  0.6044  0.0641  0.1319
 5824TIP3    H139031   1.011   6.293   1.722  0.3363  0.5178 -1.6292
 5824TIP3    H239032   0.900   6.283   1.824  2.3223 -0.1337  0.5523
 5825TIP3   OH239033   0.648   4.379   0.661  0.3889  0.7368  0.0682
 5825TIP3    H139034   0.595   4.406   0.586  0.3067  1.4995  0.3970
 5825TIP3    H239035   0.610   4.424   0.736 -1.4898 -2.3555  1.1559
 5826TIP3   OH239036   5.528   6.034   1.857  0.0198  0.2045  0.3200
 5826TIP3    H139037   5.493   5.994   1.777 -0.8406  0.6498  0.4596
 5826TIP3    H239038   5.516   5.968   1.924 -0.7160  0.4064  0.3973
 5827TIP3   OH239039   1.864   4.394   1.604 -0.1391  0.4455  0.5158
 5827TIP3    H139040   1.933   4.434   1.551  0.3654  0.1318  0.9316
 5827TIP3    H239041   1.792   4.381   1.543 -0.1553  1.5787  0.2652
 5828TIP3   OH239042   0.094   0.861   7.744  0.1885 -0.6447 -0.5785
 5828TIP3    H139043   0.104   0.771   7.712  1.7025 -0.6520 -0.1515
 5828TIP3    H239044   0.068   0.851   7.836  2.3272 -0.6925  0.0573
 5829TIP3   OH239045   4.451   4.029   1.052 -0.1322 -0.6891  0.0821
 5829TIP3    H139046   4.376   4.082   1.079 -0.2689 -0.2623 -1.0483
 5829TIP3    H239047   4.467   4.056   0.961  2.0861  0.0521  0.6238
 5830TIP3   OH239048   6.412   0.007   7.835 -0.2139 -0.2506  0.1978
 5830TIP3    H139049   6.443   0.083   7.885 -0.5192  0.8330 -1.1895
 5830TIP3    H239050   6.481  -0.058   7.847  2.1030  1.6476 -1.7525
 5831TIP3   OH239051   1.012   0.716   0.305 -0.3541  0.8881 -0.4045
 5831TIP3    H139052   1.016   0.807   0.336 -2.0413  1.1289 -0.7911
 5831TIP3    H239053   0.926   0.685   0.333 -0.3923 -0.1060 -1.5480
 5832TIP3   OH239054   4.120   1.820   1.136 -0.1469 -0.3841 -0.0432
 5832TIP3    H139055   4.195   1.879   1.144  1.8401 -2.5606 -1.2133
 5832TIP3    H239056   4.098   1.822   1.043  0.2093 -1.6984 -0.1799
 5833TIP3   OH239057   4.851   4.207   7.949 -0.1422  0.3029  0.5513
 5833TIP3    H139058   4.902   4.189   7.870  0.9918  0.1375  1.3083
 5833TIP3    H239059   4.760   4.188   7.923  0.2877 -0.3706 -0.5223
 5834TIP3   OH239060   4.287   6.773   0.132  0.0241 -0.3381 -0.7603
 5834TIP3    H139061   4.347   6.846   0.146 -0.3847 -0.2635  0.7871
 5834TIP3    H239062   4.206   6.798   0.177 -0.0248 -1.8475  0.0716
 5835TIP3   OH239063   3.025   4.867   6.584 -0.2566 -0.1525 -0.4975
 5835TIP3    H139064   2.998   4.799   6.521 -0.6793 -0.4554  0.0022
 5835TIP3    H239065   2.950   4.875   6.643 -0.2772  0.8899 -0.6591
 5836TIP3   OH239066   3.095   6.509   6.244 -0.1775  0.1207  0.4581
 5836TIP3    H139067   3.097   6.420   6.210 -1.8715  0.3582 -0.3638
 5836TIP3    H239068   3.007   6.519   6.280  1.0534  0.3935  3.6411
 5837TIP3   OH239069   1.234   2.052   0.911  0.1471  0.2230  0.0773
 5837TIP3    H139070   1.330   2.048   0.917  0.0580 -2.9185  1.3290
 5837TIP3    H239071   1.206   2.079   0.998 -0.1612  1.3808 -0.3573
 5838TIP3   OH239072   4.086   2.489   6.900  0.0228 -0.2685 -0.1002
 5838TIP3    H139073   4.073   2.452   6.988 -0.4795 -1.2009 -0.5497
 5838TIP3    H239074   4.129   2.419   6.850 -0.5253 -0.0906 -0.8441
 5839TIP3   OH239075   2.916   2.773   6.827 -0.1114  0.5480 -0.6987
 5839TIP3    H139076   2.907   2.866   6.805 -0.5389  0.7816  0.3950
 5839TIP3    H239077   2.868   2.727   6.758 -0.2672  1.1699 -1.0071
 5840TIP3   OH239078   6.584   5.992   8.131  0.4313  0.5021  0.1904
 5840TIP3    H139079   6.503   6.000   8.081  1.5832  0.0727 -1.8558
 5840TIP3    H239080   6.559   5.946   8.211 -1.4257  0.9036 -0.1194
 5841TIP3   OH239081   3.161   5.721   0.063  0.0426  0.4347  0.2870
 5841TIP3    H139082   3.224   5.695   0.130 -0.9208  0.7476  1.3464
 5841TIP3    H239083   3.077   5.722   0.108 -0.7274  0.0410 -1.0950
 5842TIP3   OH239084   0.728   2.093   7.737  0.4694 -0.4609 -0.9074
 5842TIP3    H139085   0.821   2.070   7.733  0.6206  0.2773 -1.6363
 5842TIP3    H239086   0.720   2.175   7.690 -0.4920 -0.2887 -0.4833
 5843TIP3   OH239087   4.772   1.706   2.476  0.0334  0.4639 -0.1427
 5843TIP3    H139088   4.840   1.647   2.507 -0.4048  0.2560  0.4576
 5843TIP3    H239089   4.690   1.660   2.494 -0.3518  1.5311  0.9924
 5844TIP3   OH239090   5.612   2.765   6.597  0.6750  0.4460 -0.1242
 5844TIP3    H139091   5.689   2.723   6.636  1.2463 -1.4313 -2.9910
 5844TIP3    H239092   5.643   2.849   6.565  0.9203  0.7091  0.7828
 5845TIP3   OH239093   5.109   3.687   0.035 -0.3177  0.1407 -0.4228
 5845TIP3    H139094   5.066   3.695  -0.051 -2.2680 -1.3356  0.3445
 5845TIP3    H239095   5.049   3.730   0.096  1.0421  1.1519  0.2608
 5846TIP3   OH239096   1.423   1.135   1.290 -0.0554  0.1016  0.5997
 5846TIP3    H139097   1.493   1.076   1.262 -1.1253 -0.6292 -0.6369
 5846TIP3    H239098   1.410   1.194   1.216 -0.8431  0.1412  0.7622
 5847TIP3   OH239099   5.742   1.948   0.060  0.0967 -0.3276 -0.3182
 5847TIP3    H139100   5.743   1.872   0.118 -1.2146 -0.6669 -0.7046
 5847TIP3    H239101   5.817   1.935   0.002 -0.5235 -1.7247 -0.8545
 5848TIP3   OH239102   5.475   2.565   0.604 -0.0143  0.1582  0.0186
 5848TIP3    H139103   5.402   2.626   0.596  0.5375  0.6365 -1.5680
 5848TIP3    H239104   5.493   2.563   0.698  0.0805  2.6017  0.1198
 5849TIP3   OH239105   3.911   6.136   2.091  0.0013 -0.0794 -0.1278
 5849TIP3    H139106   3.817   6.123   2.100  0.1545 -2.4304 -1.3300
 5849TIP3    H239107   3.948   6.048   2.093  2.2798  0.8091  1.0278
 5850TIP3   OH239108   6.202   3.464   1.680 -0.4630  0.5103  0.1380
 5850TIP3    H139109   6.239   3.523   1.615 -0.2697  0.0374 -0.1846
 5850TIP3    H239110   6.224   3.376   1.649 -0.7864  0.2632  0.5879
 5851TIP3   OH239111   2.420   0.864   0.628 -0.3960  0.0002  0.6763
 5851TIP3    H139112   2.438   0.958   0.625 -2.1532  0.5148  3.2484
 5851TIP3    H239113   2.475   0.832   0.699  2.1846 -1.5449 -1.8269
 5852TIP3   OH239114   4.082   2.123   1.475 -0.3355 -0.5037  0.3877
 5852TIP3    H139115   4.018   2.054   1.457  1.1310 -1.0531 -3.5739
 5852TIP3    H239116   4.160   2.075   1.504 -0.3376 -0.1790  0.9513
 5853TIP3   OH239117   0.431   1.761   7.728 -0.3026 -0.4106 -0.2939
 5853TIP3    H139118   0.511   1.729   7.686 -1.2204  0.3769 -2.8684
 5853TIP3    H239119   0.459   1.838   7.778  0.8583 -1.4091  0.6385
 5854TIP3   OH239120   5.870   0.743   7.896 -0.3016 -0.1847  0.0956
 5854TIP3    H139121   5.920   0.666   7.869 -1.1874 -1.3077  1.5212
 5854TIP3    H239122   5.864   0.736   7.991 -1.6656  0.8601  0.1179
 5855TIP3   OH239123   2.807   4.530   7.448  0.3903  0.2252 -0.2523
 5855TIP3    H139124   2.858   4.449   7.446 -1.2352 -0.8606 -0.0780
 5855TIP3    H239125   2.726   4.509   7.402 -0.0446  1.7916 -0.2745
 5856TIP3   OH239126   5.763   6.255   1.738 -0.5006 -0.1078 -0.0594
 5856TIP3    H139127   5.678   6.212   1.732 -1.5152  1.8362 -0.2244
 5856TIP3    H239128   5.826   6.182   1.737 -2.1136 -1.5780 -0.2035
 5857TIP3   OH239129   4.094   1.824   0.527  0.3248 -0.4407  0.3415
 5857TIP3    H139130   4.138   1.754   0.575  0.7628 -1.1917 -1.0934
 5857TIP3    H239131   4.003   1.797   0.522  0.2258 -0.2363  0.9373
 5858TIP3   OH239132   4.146   0.822   2.554  0.0734  0.3575 -0.0975
 5858TIP3    H139133   4.194   0.821   2.471  2.2066 -2.9445  1.0018
 5858TIP3    H239134   4.207   0.786   2.618 -2.7855 -0.9196  2.1473
 5859TIP3   OH239135   4.695   3.773   7.957 -0.0200  0.3116 -0.3592
 5859TIP3    H139136   4.613   3.735   7.926 -0.8205  2.4916 -1.1777
 5859TIP3    H239137   4.717   3.840   7.891  2.0393  0.2929  0.2115
 5860TIP3   OH239138   3.198   1.211   0.850  0.4476  0.1466  0.7325
 5860TIP3    H139139   3.184   1.285   0.910 -1.5362  0.7812 -0.4179
 5860TIP3    H239140   3.147   1.139   0.888  1.7302 -0.4213  1.4261
 5861TIP3   OH239141   5.152   0.148   2.710 -0.8016 -0.5840 -0.5625
 5861TIP3    H139142   5.160   0.063   2.669 -0.4459 -1.9178  2.0602
 5861TIP3    H239143   5.237   0.190   2.696 -0.4405 -1.3062 -0.5844
 5862TIP3   OH239144   2.238   1.226   1.082  0.4574  0.4884 -0.6418
 5862TIP3    H139145   2.171   1.265   1.139 -0.6371 -0.9226 -0.8865
 5862TIP3    H239146   2.278   1.158   1.136 -0.6702 -0.9439 -1.5078
 5863TIP3   OH239147   3.093   1.530   2.128  0.1660 -0.5746 -1.4392
 5863TIP3    H139148   3.034   1.530   2.204  1.2408 -2.8539 -0.4883
 5863TIP3    H239149   3.168   1.477   2.157  1.8855  0.7611 -3.1967
 5864TIP3   OH239150   1.456   2.028   7.404  0.6437  0.1380 -0.1066
 5864TIP3    H139151   1.427   1.971   7.333  0.7399  0.6074 -0.5266
 5864TIP3    H239152   1.548   2.046   7.385 -0.2079  3.2473 -1.9627
 5865TIP3   OH239153   5.562   0.835   8.561 -0.0032 -0.3327  0.5534
 5865TIP3    H139154   5.512   0.855   8.640 -0.8533  1.8493 -0.4367
 5865TIP3    H239155   5.542   0.907   8.502  2.1059 -0.8952 -0.9669
 5866TIP3   OH239156   6.807   4.880   2.657 -0.8094  0.6360  0.4747
 5866TIP3    H139157   6.834   4.970   2.640  1.1223 -0.2144 -1.4773
 5866TIP3    H239158   6.773   4.882   2.746  1.0259  2.9260  1.2462
 5867TIP3   OH239159   0.654   0.307   2.706  0.3068  0.2232  0.0433
 5867TIP3    H139160   0.697   0.223   2.690  0.9174 -0.1474  2.9990
 5867TIP3    H239161   0.670   0.324   2.799 -2.6121  1.9898  0.3470
 5868TIP3   OH239162   4.521   1.675   8.526 -0.0169  0.6464 -0.6371
 5868TIP3    H139163   4.497   1.627   8.605  0.0689 -0.4850 -1.2820
 5868TIP3    H239164   4.463   1.752   8.527  0.4076  0.9705  0.8220
 5869TIP3   OH239165   3.541   6.531   1.926  0.8787 -0.2979  0.0683
 5869TIP3    H139166   3.596   6.461   1.962 -0.2817 -1.3292 -0.1094
 5869TIP3    H239167   3.528   6.507   1.835  1.3835  0.7599 -0.2936
 5870TIP3   OH239168   5.924   3.380   1.110 -0.3742  0.2177 -0.1341
 5870TIP3    H139169   5.995   3.343   1.058 -0.8119 -1.5403  0.4621
 5870TIP3    H239170   5.965   3.400   1.195 -0.4453 -0.2363  0.0102
 5871TIP3   OH239171   3.329   3.764   1.158 -0.5051 -0.3157 -0.4538
 5871TIP3    H139172   3.421   3.757   1.185 -1.1877  0.6381  2.4665
 5871TIP3    H239173   3.328   3.837   1.096  0.5640  0.4511  0.3947
 5872TIP3   OH239174   3.917   3.407   1.301 -0.3366 -0.6050 -0.6351
 5872TIP3    H139175   3.965   3.356   1.366 -0.0052  2.5744  1.8269
 5872TIP3    H239176   3.825   3.394   1.323 -0.2684 -0.4909 -0.2779
 5873TIP3   OH239177   6.090   5.818   1.865  0.9592 -0.3557 -0.3832
 5873TIP3    H139178   6.090   5.886   1.932  2.0116 -0.1717 -0.5454
 5873TIP3    H239179   6.161   5.843   1.805  0.8080 -1.1407 -0.9127
 5874TIP3   OH239180   5.049   6.524   0.711  0.0636 -0.5889 -0.3245
 5874TIP3    H139181   5.070   6.534   0.804  0.7010 -2.4123 -0.2377
 5874TIP3    H239182   5.058   6.612   0.675 -3.6260  0.9294  1.9553
 5875TIP3   OH239183   0.423   1.929   0.273  0.4590  0.2100  0.4848
 5875TIP3    H139184   0.437   1.888   0.358  0.5139  0.7118  0.7214
 5875TIP3    H239185   0.357   1.875   0.230 -2.6109  2.1655  2.4144
 5876TIP3   OH239186   0.170   6.884   8.532 -0.7669  0.1760  0.0530
 5876TIP3    H139187   0.199   6.965   8.490 -0.0459 -0.4548 -0.6741
 5876TIP3    H239188   0.250   6.840   8.559 -1.1285 -0.6095 -0.1337
 5877TIP3   OH239189   0.353   1.763   0.505  1.2352  0.0102 -0.2707
 5877TIP3    H139190   0.260   1.782   0.494  1.3788  1.3813  0.6789
 5877TIP3    H239191   0.362   1.671   0.480 -0.5342 -0.4105  0.5236
 5878TIP3   OH239192   3.805   0.672   1.201  0.1623 -0.2607  0.4994
 5878TIP3    H139193   3.746   0.738   1.165 -0.3995  0.6587  2.9363
 5878TIP3    H239194   3.889   0.690   1.159 -0.5905  0.2804 -0.8436
 5879TIP3   OH239195   5.564   0.673   0.684  0.2225 -0.2218 -0.1137
 5879TIP3    H139196   5.516   0.718   0.614  1.8080  0.4481 -0.8151
 5879TIP3    H239197   5.556   0.732   0.760  1.5934  0.8972 -0.7956
 5880TIP3   OH239198   2.333   6.039   0.370  0.0823 -0.3027  0.4747
 5880TIP3    H139199   2.366   6.055   0.458 -0.2487  1.2228  0.3481
 5880TIP3    H239200   2.409   6.012   0.319  0.6392  0.5815  0.8164
 5881TIP3   OH239201   0.819   4.680   1.239 -0.1400  0.4899  0.0948
 5881TIP3    H139202   0.899   4.727   1.215  0.6069 -0.0655  1.3990
 5881TIP3    H239203   0.843   4.629   1.316 -1.0760 -1.6045 -0.9223
 5882TIP3   OH239204   5.259   1.792   6.646 -0.1512  0.3526  0.0997
 5882TIP3    H139205   5.217   1.865   6.692  1.3653  0.9512  0.6097
 5882TIP3    H239206   5.196   1.719   6.653 -0.9083  1.0837  1.1649
 5883TIP3   OH239207   2.576   5.301   1.432 -0.2088 -0.2697  0.2803
 5883TIP3    H139208   2.551   5.332   1.519 -0.5958  0.1957  0.0084
 5883TIP3    H239209   2.610   5.379   1.387  0.4567 -0.6101  0.1785
 5884TIP3   OH239210   0.482   0.090   0.363  0.1016  0.0642  0.1434
 5884TIP3    H139211   0.448   0.177   0.342  0.2520 -0.2284 -1.4519
 5884TIP3    H239212   0.572   0.106   0.391  0.4715  0.3627 -1.1328
 5885TIP3   OH239213   6.212   2.421   0.648  0.5900  0.1386 -0.1127
 5885TIP3    H139214   6.307   2.412   0.654  0.6718 -0.0216 -1.4869
 5885TIP3    H239215   6.193   2.425   0.555 -0.6863  1.0473  0.1492
 5886TIP3   OH239216   6.654   2.779   2.691  0.4108  0.6004 -0.5640
 5886TIP3    H139217   6.742   2.746   2.708  0.5139  0.3983 -1.4496
 5886TIP3    H239218   6.644   2.852   2.752  1.5780  1.2731 -1.1281
 5887TIP3   OH239219   3.568   2.627   1.988 -0.2854  0.0595 -0.2819
 5887TIP3    H139220   3.568   2.667   1.901  1.6971  0.6830 -0.0433
 5887TIP3    H239221   3.597   2.537   1.973 -0.1668  0.0990 -0.2883
 5888TIP3   OH239222   1.589   5.975   2.592  0.0565 -0.3257  0.4472
 5888TIP3    H139223   1.551   5.904   2.643 -0.7023 -0.1372  0.1493
 5888TIP3    H239224   1.524   6.045   2.595  0.2444 -0.1055 -0.3121
 5889TIP3   OH239225   3.590   1.921   7.794 -0.2633 -0.2597 -0.6682
 5889TIP3    H139226   3.678   1.884   7.800  0.0341  0.5891  0.6296
 5889TIP3    H239227   3.534   1.846   7.775  0.7532 -0.7721 -1.8572
 5890TIP3   OH239228   5.722   2.775   0.730  0.5484  0.6817  0.2461
 5890TIP3    H139229   5.809   2.812   0.715  0.6154  0.8398  1.0064
 5890TIP3    H239230   5.672   2.801   0.653  1.3714 -0.0602 -0.5751
 5891TIP3   OH239231   3.924   6.524   2.076  0.0095  0.5409 -0.0322
 5891TIP3    H139232   3.865   6.501   2.148  0.6380  0.1172  0.3517
 5891TIP3    H239233   3.999   6.467   2.087  0.6010  1.2333 -0.3935
 5892TIP3   OH239234   2.951   4.184   0.422 -0.3048  0.2193 -0.4330
 5892TIP3    H139235   2.878   4.176   0.360 -1.1804 -1.0417  0.6899
 5892TIP3    H239236   2.937   4.268   0.464  0.6598  1.3934 -2.3127
 5893TIP3   OH239237   3.814   3.845   8.046 -0.4721  0.3274  0.2385
 5893TIP3    H139238   3.723   3.866   8.070 -0.4547  0.1023  0.4988
 5893TIP3    H239239   3.848   3.796   8.120 -0.0089  0.7498  0.3129
 5894TIP3   OH239240   4.417   6.500   0.804  0.0788  0.1232 -0.0209
 5894TIP3    H139241   4.402   6.591   0.777  1.2040  0.9978  2.0243
 5894TIP3    H239242   4.334   6.471   0.841  0.2775  1.1211  1.2926
 5895TIP3   OH239243   3.133   0.620   2.192  0.5425 -0.5494  0.3165
 5895TIP3    H139244   3.059   0.644   2.137  0.9575 -0.9381 -0.4214
 5895TIP3    H239245   3.160   0.702   2.233 -0.3773 -0.4265  0.7138
 5896TIP3   OH239246   5.069   6.659   1.405  0.3775  0.1508  0.2846
 5896TIP3    H139247   4.975   6.652   1.391  0.2591 -1.5570  1.5845
 5896TIP3    H239248   5.098   6.726   1.343 -1.3298 -0.9824 -1.8995
 5897TIP3   OH239249   1.088   0.833   7.711 -0.1388 -0.1312 -0.1886
 5897TIP3    H139250   1.025   0.761   7.714 -0.2399 -0.0931 -1.0171
 5897TIP3    H239251   1.106   0.853   7.803 -2.2819  0.6806  0.1174
 5898TIP3   OH239252   5.499   3.380   1.270 -0.3742 -0.6986  0.2436
 5898TIP3    H139253   5.435   3.451   1.278  0.2777 -0.1290  0.6190
 5898TIP3    H239254   5.546   3.400   1.189 -0.4355 -0.9138  0.1551
 5899TIP3   OH239255   4.617   4.566   0.673  0.2144  0.0779 -0.2699
 5899TIP3    H139256   4.528   4.594   0.696  1.4511  2.1730  2.5689
 5899TIP3    H239257   4.623   4.476   0.704 -0.7247  0.1571  0.1827
 5900TIP3   OH239258   3.947   2.344   6.637  0.0691 -0.3364  0.5000
 5900TIP3    H139259   3.919   2.292   6.561  1.2142 -0.3445  0.0628
 5900TIP3    H239260   4.006   2.410   6.600  1.3616 -0.9121  1.5027
 5901TIP3   OH239261   1.247   6.698   8.449  0.4390  0.3098  0.2683
 5901TIP3    H139262   1.155   6.712   8.471  0.4973  1.2631 -0.0538
 5901TIP3    H239263   1.269   6.772   8.392  0.3916 -1.8755 -2.7717
 5902TIP3   OH239264   6.775   0.999   6.423 -0.0231 -0.3515  0.2233
 5902TIP3    H139265   6.682   1.020   6.422 -0.1222 -0.5066  2.2238
 5902TIP3    H239266   6.813   1.050   6.351 -1.9436 -1.9332 -2.0606
 5903TIP3   OH239267   3.817   3.799   1.154  0.3805 -0.3147  0.1021
 5903TIP3    H139268   3.832   3.893   1.158 -0.0135 -0.1670 -1.1770
 5903TIP3    H239269   3.895   3.760   1.191  0.6127  0.5178  0.5123
 5904TIP3   OH239270   5.913   3.738   2.776  0.0454 -0.1991  0.0255
 5904TIP3    H139271   5.928   3.827   2.743 -0.9178  0.4767  1.3647
 5904TIP3    H239272   5.818   3.729   2.781  0.0990 -0.1453  2.8080
 5905TIP3   OH239273   2.583   4.539   1.949 -0.4346  0.4078 -0.4624
 5905TIP3    H139274   2.624   4.597   2.013  1.4904 -0.0709 -1.2192
 5905TIP3    H239275   2.623   4.563   1.866  1.4457 -2.8542 -0.6300
 5906TIP3   OH239276   5.404   0.392   2.403  0.3210  0.3748 -0.7903
 5906TIP3    H139277   5.495   0.402   2.376 -0.2124 -0.1360 -2.9788
 5906TIP3    H239278   5.371   0.482   2.409  0.8830  0.5505 -0.3145
 5907TIP3   OH239279   4.553   1.963   2.281 -1.1867  0.3225 -0.3449
 5907TIP3    H139280   4.614   1.914   2.337 -1.2797  0.3834 -0.1901
 5907TIP3    H239281   4.467   1.947   2.320 -1.3571 -0.3229 -0.9642
 5908TIP3   OH239282   1.788   5.006   0.899 -0.0586  0.1182 -0.1807
 5908TIP3    H139283   1.826   5.046   0.821 -1.4283  0.9697 -0.4479
 5908TIP3    H239284   1.791   4.912   0.882 -0.0138  0.2804 -1.0961
 5909TIP3   OH239285   2.477   6.231   6.713  0.2994  0.3329  0.0873
 5909TIP3    H139286   2.484   6.319   6.676  0.4952  1.0683  1.7924
 5909TIP3    H239287   2.388   6.226   6.747 -0.2288 -0.7206 -1.3789
 5910TIP3   OH239288   4.069   4.907   7.092  0.2073  0.3971  0.2687
 5910TIP3    H139289   4.015   4.829   7.107 -2.3266  1.8275 -0.7448
 5910TIP3    H239290   4.006   4.975   7.067  2.3884  2.5907  0.3706
 5911TIP3   OH239291   3.274   3.828   8.500  0.6021  0.2264  0.3833
 5911TIP3    H139292   3.202   3.771   8.473  1.1124 -0.6673  0.8745
 5911TIP3    H239293   3.315   3.782   8.573  2.1382  0.3594 -0.3695
 5912TIP3   OH239294   4.122   3.126   0.793  0.1650  0.1224  0.6323
 5912TIP3    H139295   4.061   3.121   0.867 -0.5948  0.3891  0.0398
 5912TIP3    H239296   4.128   3.220   0.774  0.3789  0.0558  0.3780
 5913TIP3   OH239297   1.898   4.945   0.439 -0.3748 -0.0793 -0.2468
 5913TIP3    H139298   1.938   4.937   0.353  0.0976  0.4997 -0.0879
 5913TIP3    H239299   1.916   5.036   0.466  1.8684 -0.9698  1.6376
 5914TIP3   OH239300   6.737   5.304   0.363  0.0951  0.0224 -0.2166
 5914TIP3    H139301   6.661   5.362   0.359 -0.1542 -0.1764  1.3047
 5914TIP3    H239302   6.804   5.350   0.312 -0.3166  1.3205  0.3707
 5915TIP3   OH239303   1.923   3.669   1.987  0.2124  0.5414 -0.3388
 5915TIP3    H139304   1.859   3.738   2.001 -0.9957 -0.5103 -0.5196
 5915TIP3    H239305   1.893   3.623   1.909  1.5964  0.4601 -0.8622
 5916TIP3   OH239306   5.653   3.475   1.970  0.0200 -0.1182 -0.0832
 5916TIP3    H139307   5.622   3.489   2.059 -0.9741  1.5719 -0.6538
 5916TIP3    H239308   5.748   3.470   1.978 -0.1376 -2.0511  1.2939
 5917TIP3   OH239309   3.324   2.751   1.423 -0.6698 -0.5310  0.0840
 5917TIP3    H139310   3.248   2.725   1.371 -2.1411  0.6724  1.4948
 5917TIP3    H239311   3.333   2.845   1.405  0.8684 -0.7657 -0.4885
 5918TIP3   OH239312   0.269   3.644   0.931 -0.0546  0.1380 -0.3101
 5918TIP3    H139313   0.320   3.718   0.898  1.9832 -1.0005  0.0940
 5918TIP3    H239314   0.280   3.647   1.026  0.3394 -0.8559 -0.3124
 5919TIP3   OH239315   3.700   2.140   1.243  0.4732  0.0540  0.2817
 5919TIP3    H139316   3.680   2.204   1.175 -0.9585 -0.4767  0.1716
 5919TIP3    H239317   3.790   2.112   1.225  0.1109 -0.1063 -1.4159
 5920TIP3   OH239318   3.605   3.438   7.999  0.0386  0.1443  0.3841
 5920TIP3    H139319   3.661   3.433   7.921  1.0458 -0.7134  1.1364
 5920TIP3    H239320   3.601   3.531   8.020  1.2553  0.2185  0.3502
 5921TIP3   OH239321   5.557   3.071   7.763 -0.1351 -0.0180 -0.3573
 5921TIP3    H139322   5.653   3.068   7.772 -0.2937 -2.0542  1.1587
 5921TIP3    H239323   5.543   3.134   7.692  2.3003  0.6724 -0.3405
 5922TIP3   OH239324   1.478   1.036   7.677 -0.0987  0.2895  0.2030
 5922TIP3    H139325   1.547   1.101   7.664 -0.1512  0.6311  1.4636
 5922TIP3    H239326   1.521   0.952   7.664 -0.5184  0.4866 -3.7962
 5923TIP3   OH239327   6.158   6.843   0.567  0.7073  0.3121 -0.1216
 5923TIP3    H139328   6.247   6.821   0.595  0.5229  0.1225  0.3178
 5923TIP3    H239329   6.149   6.803   0.481  0.4180 -1.2569  0.6054
 5924TIP3   OH239330   5.682   4.637   7.784 -0.3284 -0.6099 -0.4990
 5924TIP3    H139331   5.636   4.721   7.795  0.8098 -0.2022  1.7958
 5924TIP3    H239332   5.774   4.661   7.777  0.1594 -1.6768  1.5497
 5925TIP3   OH239333   5.194   1.890   1.168  0.7166 -0.2613 -0.7884
 5925TIP3    H139334   5.194   1.958   1.236 -1.0821 -0.5147 -0.4853
 5925TIP3    H239335   5.209   1.939   1.087  0.2126  0.4108 -0.4925
 5926TIP3   OH239336   5.866   1.889   0.341  0.0917  0.3287  0.8657
 5926TIP3    H139337   5.891   1.909   0.431 -0.7752  2.1231  0.7610
 5926TIP3    H239338   5.775   1.918   0.334 -0.0120 -0.2202 -0.4540
 5927TIP3   OH239339   6.319   1.249   7.192  0.5485  0.1595  0.1194
 5927TIP3    H139340   6.274   1.316   7.244  1.5286  1.4204 -0.6065
 5927TIP3    H239341   6.326   1.174   7.251 -0.3421  0.7820  1.0496
 5928TIP3   OH239342   1.504   1.571   1.636 -0.1611 -0.5066  0.2908
 5928TIP3    H139343   1.410   1.584   1.647 -0.1828 -0.6373  0.2634
 5928TIP3    H239344   1.545   1.632   1.696 -0.2626 -0.2801  0.1297
 5929TIP3   OH239345   1.434   4.611   7.086  0.2277  0.0460  0.1555
 5929TIP3    H139346   1.528   4.630   7.090  0.0293  0.9642  0.8840
 5929TIP3    H239347   1.397   4.685   7.038  0.1215 -1.4079 -2.1522
 5930TIP3   OH239348   4.843   0.426   1.767  0.1307 -0.1205  0.9601
 5930TIP3    H139349   4.861   0.464   1.681 -1.6750 -0.5526  0.3490
 5930TIP3    H239350   4.778   0.485   1.806  1.4951  0.5215  2.4069
 5931TIP3   OH239351   3.248   1.847   7.331 -0.2476  0.5763 -0.7208
 5931TIP3    H139352   3.186   1.867   7.261  0.1096  2.1012 -0.6469
 5931TIP3    H239353   3.319   1.910   7.318 -1.1625  2.4163  2.2582
 5932TIP3   OH239354   5.888   6.822   0.767 -0.3917 -0.7252 -0.2330
 5932TIP3    H139355   5.970   6.805   0.721  0.3697 -2.2448  1.5554
 5932TIP3    H239356   5.913   6.832   0.858 -2.0173  0.6807  0.1053
 5933TIP3   OH239357   0.403   0.494   7.523 -0.0825  0.5406  0.0800
 5933TIP3    H139358   0.381   0.487   7.616 -0.0545  0.1697  0.0619
 5933TIP3    H239359   0.475   0.557   7.521  1.2944 -0.9504  0.5514
 5934TIP3   OH239360   2.335   5.882   7.500  0.0250 -0.1123 -0.0860
 5934TIP3    H139361   2.330   5.854   7.591 -0.5895  2.6158  0.7833
 5934TIP3    H239362   2.424   5.916   7.490 -1.0391  3.3051  0.7744
 5935TIP3   OH239363   4.845   5.152   1.852  0.0782 -0.1902 -0.4866
 5935TIP3    H139364   4.762   5.131   1.895 -0.3242 -0.0519 -1.1855
 5935TIP3    H239365   4.850   5.091   1.778  0.1974  0.3523 -0.9340
 5936TIP3   OH239366   6.075   0.291   8.190 -0.2552 -0.4223  0.2083
 5936TIP3    H139367   6.017   0.348   8.240  0.9634  2.8564 -1.7778
 5936TIP3    H239368   6.146   0.271   8.250  1.0920  3.2833  0.1305
 5937TIP3   OH239369   3.428   2.657   7.428 -0.6382 -0.3907 -0.0199
 5937TIP3    H139370   3.523   2.651   7.436 -0.5346 -0.3010 -1.0330
 5937TIP3    H239371   3.402   2.572   7.395 -1.0916 -0.9217  1.6352
 5938TIP3   OH239372   2.087   4.117   0.376 -0.0491 -0.2165  0.1761
 5938TIP3    H139373   2.043   4.197   0.345  2.5396  1.0899 -0.3823
 5938TIP3    H239374   2.060   4.109   0.467 -1.7707  0.2364 -0.2601
 5939TIP3   OH239375   3.734   1.487   7.544  0.0965 -0.7477  0.1084
 5939TIP3    H139376   3.687   1.525   7.470 -2.6586 -0.2978  1.9278
 5939TIP3    H239377   3.699   1.397   7.550 -0.3741 -0.5069  1.3055
 5940TIP3   OH239378   3.602   5.704   8.385  0.6338  0.0236 -0.4872
 5940TIP3    H139379   3.516   5.663   8.385  0.6742 -0.0699 -1.4502
 5940TIP3    H239380   3.655   5.648   8.442  0.6809 -1.2629 -1.7572
 5941TIP3   OH239381   3.408   2.840   2.388 -0.1469  0.1231  0.3340
 5941TIP3    H139382   3.435   2.932   2.394  1.1728 -0.2614  0.6007
 5941TIP3    H239383   3.425   2.805   2.476 -1.5472 -0.1498  0.5115
 5942TIP3   OH239384   5.437   2.076   7.049 -1.0024  0.0953 -0.7486
 5942TIP3    H139385   5.408   2.155   7.005 -1.8853 -0.2039 -0.7242
 5942TIP3    H239386   5.406   2.085   7.139  0.7343  0.6744 -0.1603
 5943TIP3   OH239387   6.350   0.860   8.226 -0.3318 -0.4999  0.1145
 5943TIP3    H139388   6.403   0.797   8.177 -0.2664 -1.0010  0.8206
 5943TIP3    H239389   6.282   0.887   8.164  0.4869 -0.1711 -0.6648
 5944TIP3   OH239390   3.524   3.358   6.972  0.1239  0.1589  0.2637
 5944TIP3    H139391   3.522   3.388   6.881  0.2138 -1.5715 -0.3401
 5944TIP3    H239392   3.434   3.334   6.991  0.4879 -1.7584 -0.2103
 5945TIP3   OH239393   5.834   3.257   7.431 -0.0196 -0.4375  0.0612
 5945TIP3    H139394   5.871   3.270   7.344  1.0765  0.8164  0.6793
 5945TIP3    H239395   5.856   3.337   7.479 -2.8058  0.0137  0.7571
 5946TIP3   OH239396   4.360   5.257   8.510 -0.1042 -0.1917  0.4419
 5946TIP3    H139397   4.439   5.310   8.501 -0.3088 -0.0251 -0.3738
 5946TIP3    H239398   4.288   5.319   8.500 -0.3503 -0.7103 -1.1500
 5947TIP3   OH239399   5.601   5.272   0.581  0.3230 -0.1080 -0.5231
 5947TIP3    H139400   5.689   5.235   0.586  1.1463  1.6612 -1.0011
 5947TIP3    H239401   5.598   5.337   0.651 -0.6031 -0.1306 -0.5245
 5948TIP3   OH239402   1.304   1.618   0.016  0.6400 -0.2009  0.0523
 5948TIP3    H139403   1.303   1.522   0.008  0.1718 -0.1820 -0.1844
 5948TIP3    H239404   1.396   1.641   0.022  0.7841 -0.6267 -0.4332
 5949TIP3   OH239405   0.041   5.655   0.619 -0.0945  0.2705  0.2883
 5949TIP3    H139406   0.091   5.624   0.694  1.0162  0.9180 -0.1532
 5949TIP3    H239407   0.026   5.748   0.637  0.1299  0.4164 -0.2513
 5950TIP3   OH239408   0.550   4.103   0.776 -0.1401  0.0593  0.1885
 5950TIP3    H139409   0.576   4.141   0.860  1.8813  0.0909 -0.3944
 5950TIP3    H239410   0.594   4.158   0.711 -0.2351 -1.0249 -0.8181
 5951TIP3   OH239411   5.290   4.351   7.808  0.1891 -0.6506 -0.2312
 5951TIP3    H139412   5.328   4.428   7.851  2.2889 -2.2772  1.0530
 5951TIP3    H239413   5.197   4.354   7.830  0.6480  0.2526  1.8551
 5952TIP3   OH239414   5.358   1.604   0.592 -1.0091  0.7140 -0.2356
 5952TIP3    H139415   5.450   1.579   0.585 -1.4886 -1.4068  0.3299
 5952TIP3    H239416   5.328   1.562   0.672 -2.2944  2.0537  0.0313
 5953TIP3   OH239417   1.347   2.014   7.894 -0.0183  0.3433  0.3874
 5953TIP3    H139418   1.259   1.996   7.928  0.4446 -2.9241  0.1924
 5953TIP3    H239419   1.405   1.968   7.954  1.2036 -1.0141 -1.7120
 5954TIP3   OH239420   5.788   4.485   1.242  0.2565  0.0610  0.0019
 5954TIP3    H139421   5.801   4.574   1.209 -1.2169  0.3849  0.2545
 5954TIP3    H239422   5.777   4.432   1.163 -1.0103  0.4751 -0.1283
 5955TIP3   OH239423   5.809   4.627   8.425  0.0388 -0.0231 -0.0966
 5955TIP3    H139424   5.778   4.558   8.366 -0.6200 -0.8075  1.1108
 5955TIP3    H239425   5.773   4.708   8.388  0.5021 -0.3558 -1.3254
 5956TIP3   OH239426   1.749   3.952   6.794  0.5495  0.5457  0.4590
 5956TIP3    H139427   1.752   3.898   6.714  0.3389  1.0378  0.1130
 5956TIP3    H239428   1.804   3.905   6.856  2.0322  0.9473 -0.4793
 5957TIP3   OH239429   4.982   5.580   6.572 -0.1796 -0.3505  0.1457
 5957TIP3    H139430   5.068   5.538   6.574  0.1446  0.2014 -1.1724
 5957TIP3    H239431   4.989   5.651   6.636  0.3058 -0.3775  0.1259
 5958TIP3   OH239432   2.895   1.732   8.138 -0.2972  0.1070 -0.5033
 5958TIP3    H139433   2.922   1.803   8.196  2.4680  0.7036 -2.2917
 5958TIP3    H239434   2.813   1.763   8.099 -1.8694 -0.0334  2.4175
 5959TIP3   OH239435   1.761   1.749   8.295 -0.0905  0.0544  0.2297
 5959TIP3    H139436   1.785   1.749   8.203 -1.2252 -0.7183 -0.0853
 5959TIP3    H239437   1.779   1.660   8.325  0.2397  0.2908  0.7497
 5960TIP3   OH239438   2.914   0.137   7.376 -0.2475  0.8273 -0.5521
 5960TIP3    H139439   2.832   0.114   7.420  0.6022 -3.1283 -0.7035
 5960TIP3    H239440   2.983   0.109   7.436  0.9241 -2.4070 -3.1169
 5961TIP3   OH239441   3.701   2.591   0.039 -0.4723 -0.2934  0.6970
 5961TIP3    H139442   3.619   2.566   0.082 -0.6583  0.9107  1.0808
 5961TIP3    H239443   3.693   2.686   0.025  0.0158 -0.4673 -1.0831
 5962TIP3   OH239444   5.235   2.294   7.056 -0.6932  0.5117 -0.0411
 5962TIP3    H139445   5.146   2.276   7.024 -0.7654  1.5882 -0.4709
 5962TIP3    H239446   5.285   2.315   6.978 -0.4804  1.5985  0.3739
 5963TIP3   OH239447   2.198   3.455   0.528 -0.0578 -0.0287 -0.8900
 5963TIP3    H139448   2.157   3.526   0.577  2.5468  0.0097  1.4859
 5963TIP3    H239449   2.144   3.378   0.548 -0.0389  0.3400  0.7214
 5964TIP3   OH239450   4.066   0.722   1.761  0.2544  0.6258  0.0035
 5964TIP3    H139451   4.080   0.703   1.668  0.3361  1.9778 -0.2722
 5964TIP3    H239452   4.124   0.660   1.807  1.5367  1.1127 -0.9010
 5965TIP3   OH239453   6.885   3.457   7.958  0.1268  0.2909 -0.3266
 5965TIP3    H139454   6.857   3.549   7.954  1.4161  0.7559  0.6493
 5965TIP3    H239455   6.804   3.409   7.976 -0.8580  1.0319 -2.4444
 5966TIP3   OH239456   0.874   6.326   0.188 -0.1238 -0.0614 -0.3889
 5966TIP3    H139457   0.882   6.282   0.103  0.0992 -1.6544  0.4182
 5966TIP3    H239458   0.832   6.261   0.244  1.2449  0.3428  1.1633
 5967TIP3   OH239459   5.706   6.510   6.711  0.3569 -0.1772  0.2524
 5967TIP3    H139460   5.704   6.486   6.804 -0.5364  1.3833  0.6829
 5967TIP3    H239461   5.653   6.443   6.668  0.6746 -0.8423  0.8811
 5968TIP3   OH239462   0.496   2.312   1.586  0.0104  0.4355  0.1632
 5968TIP3    H139463   0.514   2.336   1.677 -0.8397  0.5138  0.3271
 5968TIP3    H239464   0.581   2.312   1.543  0.5403 -0.5460  1.1788
 5969TIP3   OH239465   5.996   4.508   8.085 -0.5371 -0.5348  0.3151
 5969TIP3    H139466   6.017   4.567   8.158 -0.9141  0.0619 -0.0520
 5969TIP3    H239467   5.921   4.549   8.042 -0.8618 -1.3340  0.1026
 5970TIP3   OH239468   2.096   5.109   1.243 -0.2496 -0.5862  0.6682
 5970TIP3    H139469   2.165   5.115   1.309 -0.3888 -0.6979  0.8235
 5970TIP3    H239470   2.073   5.200   1.225  1.7139 -0.4016 -1.2609
 5971TIP3   OH239471   2.293   3.153   0.494 -0.4642  0.3930 -0.9580
 5971TIP3    H139472   2.266   3.183   0.407 -2.3341  0.1570 -0.5177
 5971TIP3    H239473   2.337   3.070   0.479 -4.3070 -1.7760 -1.5178
 5972TIP3   OH239474   6.335   6.335   8.547 -0.1511 -0.1758 -0.2009
 5972TIP3    H139475   6.374   6.396   8.609 -1.4312 -1.7937  2.4029
 5972TIP3    H239476   6.393   6.335   8.472  1.7043  1.6573  1.1468
 5973TIP3   OH239477   2.584   4.166   2.115 -0.6599  0.0895  0.2998
 5973TIP3    H139478   2.627   4.108   2.178 -2.6783 -1.1064  0.6498
 5973TIP3    H239479   2.499   4.185   2.154 -1.3717  0.5367 -1.3901
 5974TIP3   OH239480   6.205   3.962   8.224 -0.1469  0.0905  0.0538
 5974TIP3    H139481   6.117   3.972   8.262 -0.6068  1.7572 -1.2938
 5974TIP3    H239482   6.236   4.052   8.214  0.5195 -0.3260 -2.1145
 5975TIP3   OH239483   2.388   2.128   1.442  0.4553  0.1658 -0.5846
 5975TIP3    H139484   2.342   2.058   1.395  1.5787 -1.6388  0.8443
 5975TIP3    H239485   2.476   2.094   1.455  0.1677  0.4298  2.9233
 5976TIP3   OH239486   4.970   4.394   7.543  0.5318 -0.0921  0.0364
 5976TIP3    H139487   5.035   4.459   7.518  1.0497 -0.6470 -0.0998
 5976TIP3    H239488   4.939   4.359   7.459 -1.7495  1.8568 -0.0319
 5977TIP3   OH239489   0.085   0.928   0.811  0.6915 -0.0169  0.0598
 5977TIP3    H139490   0.153   0.996   0.805  1.7234 -0.8533  1.4853
 5977TIP3    H239491   0.008   0.974   0.845  0.8784  0.7356 -0.5016
 5978TIP3   OH239492   4.975   5.480   0.440 -0.3015  0.4276 -0.2505
 5978TIP3    H139493   5.035   5.405   0.453 -0.4511  0.3996  0.2995
 5978TIP3    H239494   4.897   5.456   0.489 -1.1025  0.0969 -1.6307
 5979TIP3   OH239495   5.551   5.194   1.376 -0.2435 -0.3615  0.1543
 5979TIP3    H139496   5.526   5.206   1.467  0.2640 -1.7205  0.5034
 5979TIP3    H239497   5.556   5.282   1.340 -1.4145  0.1431  1.1721
 5980TIP3   OH239498   4.650   3.372   1.678  0.0449  0.1346  0.2267
 5980TIP3    H139499   4.666   3.357   1.585  0.0648  1.4425 -0.0051
 5980TIP3    H239500   4.577   3.314   1.700 -0.9881  0.9150 -0.9911
 5981TIP3   OH239501   0.491   5.018   2.637  0.1490 -0.4965 -0.5486
 5981TIP3    H139502   0.469   4.958   2.566  0.6140 -1.5788  0.1952
 5981TIP3    H239503   0.412   5.022   2.691 -0.0563 -0.0185 -0.8771
 5982TIP3   OH239504   4.199   5.059   2.465  0.0231  0.4632  0.7187
 5982TIP3    H139505   4.122   5.001   2.465 -0.5311  1.1314 -0.9206
 5982TIP3    H239506   4.269   5.004   2.429 -0.2058  0.4539  0.2800
 5983TIP3   OH239507   6.045   3.440   0.107  0.0815 -0.7023  0.7736
 5983TIP3    H139508   6.048   3.417   0.200 -0.6503 -0.8088  0.7778
 5983TIP3    H239509   6.007   3.363   0.064  2.0324 -1.3694  0.1280
 5984TIP3   OH239510   4.979   5.135   1.527 -0.2598  0.2019  0.2097
 5984TIP3    H139511   4.885   5.152   1.527 -0.4224 -0.5938  1.1283
 5984TIP3    H239512   5.012   5.181   1.604  0.3306  1.4989 -0.7741
 5985TIP3   OH239513   3.805   5.546   1.360  0.0222 -0.1099 -0.2711
 5985TIP3    H139514   3.878   5.553   1.422  0.4638  0.9954 -0.8985
 5985TIP3    H239515   3.745   5.615   1.387 -1.1770 -1.4543  0.6875
 5986TIP3   OH239516   6.577   2.391   7.213  0.1439  0.1885 -0.3705
 5986TIP3    H139517   6.655   2.366   7.263  0.5136  2.1577  0.1004
 5986TIP3    H239518   6.516   2.426   7.278 -0.4699  0.2205 -0.9535
 5987TIP3   OH239519   1.335   3.286   2.262  0.3021  0.1494  0.1499
 5987TIP3    H139520   1.338   3.190   2.262  2.6980  0.1301 -1.7053
 5987TIP3    H239521   1.402   3.312   2.325  0.7197  0.5647 -0.4515
 5988TIP3   OH239522   4.888   2.202   8.384  0.2383  0.3062 -0.3166
 5988TIP3    H139523   4.980   2.178   8.372  0.4275  1.1318 -0.6020
 5988TIP3    H239524   4.844   2.171   8.305  0.0652 -1.0054  0.2673
 5989TIP3   OH239525   1.307   5.084   1.677  0.0069 -0.2483  0.6934
 5989TIP3    H139526   1.265   5.012   1.725 -0.1878  0.4060  1.5358
 5989TIP3    H239527   1.371   5.041   1.621 -1.7141 -1.3013 -0.6017
 5990TIP3   OH239528   1.321   5.952   1.393 -0.7771  0.4663  0.0140
 5990TIP3    H139529   1.410   5.925   1.416 -0.5280  1.4596  0.2393
 5990TIP3    H239530   1.302   5.905   1.311 -0.3390 -0.3276  0.3545
 5991TIP3   OH239531   5.057   4.184   1.508 -0.3094 -0.4605  0.0670
 5991TIP3    H139532   5.049   4.216   1.597  0.3017 -2.0060  0.7122
 5991TIP3    H239533   5.064   4.089   1.517 -0.7738 -0.6941 -1.6628
 5992TIP3   OH239534   6.343   4.957   0.583 -0.1055 -0.4657  1.3054
 5992TIP3    H139535   6.382   4.887   0.634  2.4670 -1.8923 -2.1927
 5992TIP3    H239536   6.414   5.020   0.569 -1.1640  0.6730  0.8646
 5993TIP3   OH239537   5.002   3.688   6.522  0.0450  0.1130  0.3321
 5993TIP3    H139538   5.056   3.653   6.593 -1.7208 -3.5169  0.0840
 5993TIP3    H239539   5.055   3.674   6.443  0.7926  1.4405  0.5605
 5994TIP3   OH239540   4.740   3.265   1.008 -0.7111  0.1736 -0.1344
 5994TIP3    H139541   4.762   3.210   0.933 -0.8580  0.6862 -0.5608
 5994TIP3    H239542   4.651   3.294   0.991 -0.3532  1.2079 -0.3465
 5995TIP3   OH239543   6.673   6.340   0.674 -0.4755  0.1449  0.5955
 5995TIP3    H139544   6.753   6.329   0.725 -0.5404 -0.5926  0.5493
 5995TIP3    H239545   6.637   6.251   0.665 -0.5268  0.2633 -0.6178
 5996TIP3   OH239546   1.319   0.756   2.565  0.1981  0.2699 -0.2446
 5996TIP3    H139547   1.387   0.700   2.603  1.5174  1.2188 -1.1094
 5996TIP3    H239548   1.249   0.696   2.540 -0.5577 -0.4645  3.1544
 5997TIP3   OH239549   6.141   1.625   7.872 -0.2293  0.0223 -0.1211
 5997TIP3    H139550   6.061   1.650   7.827  0.8378  1.1403 -1.5283
 5997TIP3    H239551   6.193   1.580   7.805  0.0031 -1.4277  0.9938
 5998TIP3   OH239552   1.533   0.332   0.269 -0.0712  0.0013  0.6278
 5998TIP3    H139553   1.439   0.322   0.255 -0.1229  1.0342  0.1764
 5998TIP3    H239554   1.570   0.338   0.181  0.3669  0.0265  0.8109
 5999TIP3   OH239555   3.655   6.128   0.426 -0.0804  0.4616  0.6995
 5999TIP3    H139556   3.693   6.082   0.352 -0.5523  1.5202 -0.2231
 5999TIP3    H239557   3.697   6.088   0.503  0.4479 -0.6176 -0.1166
 6000TIP3   OH239558   3.990   3.109   7.754 -0.6580  0.1486 -0.2009
 6000TIP3    H139559   4.013   3.016   7.746 -0.9969 -0.0602  0.9758
 6000TIP3    H239560   3.897   3.112   7.735 -0.7193  0.1839  0.0915
 6001TIP3   OH239561   6.234   5.152   8.508 -0.2906  0.7673  0.2737
 6001TIP3    H139562   6.302   5.139   8.442 -0.2866  0.6406  0.3036
 6001TIP3    H239563   6.274   5.125   8.590 -0.5865  0.1014  0.1999
 6002TIP3   OH239564   4.255   2.539   0.471 -0.5957 -0.3585  0.4276
 6002TIP3    H139565   4.221   2.538   0.560 -1.9871  0.3790 -0.0647
 6002TIP3    H239566   4.272   2.632   0.453 -4.4669  0.1492 -1.5122
 6003TIP3   OH239567   2.654   2.718   8.580 -0.3277  0.3428 -0.5719
 6003TIP3    H139568   2.737   2.673   8.599 -0.2636 -0.3701 -2.3992
 6003TIP3    H239569   2.676   2.811   8.587  0.6193  0.1651 -0.9473
 6004TIP3   OH239570   1.374   1.350   2.007  0.0425  0.1882  0.4149
 6004TIP3    H139571   1.384   1.385   2.096 -1.6334  0.7922  0.3926
 6004TIP3    H239572   1.284   1.370   1.983  0.7911  1.1679 -1.9182
 6005TIP3   OH239573   1.635   4.537   2.117  0.2757 -0.0175 -0.8917
 6005TIP3    H139574   1.595   4.498   2.195  1.9409  1.9329  1.0769
 6005TIP3    H239575   1.572   4.602   2.087  0.2119  0.1971 -0.2981
 6006TIP3   OH239576   0.057   6.141   1.617  0.3979  0.1818 -0.1467
 6006TIP3    H139577  -0.021   6.178   1.578  0.4602 -0.1685 -0.6090
 6006TIP3    H239578   0.025   6.075   1.679  0.3402 -0.3754 -0.7644
 6007TIP3   OH239579   4.258   2.983   8.543 -0.3907  0.4375 -0.4997
 6007TIP3    H139580   4.228   2.969   8.633 -0.6384 -0.0112 -0.6453
 6007TIP3    H239581   4.253   2.896   8.502  3.1162 -0.1883  0.0352
 6008TIP3   OH239582   1.396   4.107   1.058  0.1566  0.5547  0.1439
 6008TIP3    H139583   1.390   4.018   1.022 -2.1454  0.9586 -0.6571
 6008TIP3    H239584   1.420   4.162   0.983 -0.2069  0.8353  0.2327
 6009TIP3   OH239585   5.378   4.340   0.888 -0.8419 -0.1576 -0.1111
 6009TIP3    H139586   5.315   4.382   0.830 -1.7673 -0.1071  0.9109
 6009TIP3    H239587   5.330   4.269   0.929 -0.3575  0.1213  0.9730
 6010TIP3   OH239588   0.091   1.483   6.962  0.9978 -0.2962 -0.5506
 6010TIP3    H139589   0.047   1.565   6.985  2.2700  0.0933  0.6335
 6010TIP3    H239590   0.021   1.418   6.961 -0.0173  0.7587 -1.3871
 6011TIP3   OH239591   0.765   5.014   2.558 -0.0306  0.1861 -0.1838
 6011TIP3    H139592   0.797   5.094   2.599  0.9603 -0.3234  0.0522
 6011TIP3    H239593   0.682   4.996   2.603  1.0859 -0.4323  1.7264
 6012TIP3   OH239594   0.484   4.453   0.451  0.3300 -0.0755 -0.0135
 6012TIP3    H139595   0.423   4.397   0.403  1.9490 -0.3217 -1.9196
 6012TIP3    H239596   0.470   4.540   0.415 -1.3808  0.6117  2.1389
 6013TIP3   OH239597   3.328   4.909   0.133 -0.4538  0.1556 -0.5279
 6013TIP3    H139598   3.420   4.928   0.117  0.1052 -0.6366  1.4781
 6013TIP3    H239599   3.288   4.995   0.146  0.3117  0.4426  0.0271
 6014TIP3   OH239600   3.285   3.656   7.133 -0.9632  0.8447 -0.4508
 6014TIP3    H139601   3.249   3.569   7.116  1.0133 -0.1149 -0.0255
 6014TIP3    H239602   3.219   3.699   7.187 -1.9544 -0.4084 -0.6136
 6015TIP3   OH239603   3.411   4.028   3.366 -0.0798  0.4229 -0.4176
 6015TIP3    H139604   3.418   4.021   3.271  1.5725 -0.9819 -0.2516
 6015TIP3    H239605   3.388   3.940   3.395 -0.0865  0.7199  0.5231
 6016TIP3   OH239606   5.291   6.033   1.683  0.1344  0.1332  0.4150
 6016TIP3    H139607   5.321   6.051   1.594 -1.1413  0.2136 -0.0202
 6016TIP3    H239608   5.230   6.105   1.702 -2.2491 -1.6347  0.0271
 6017TIP3   OH239609   3.136   3.654   3.203 -0.0097 -0.2981 -0.5174
 6017TIP3    H139610   3.156   3.582   3.264 -0.7388 -1.2404 -1.3436
 6017TIP3    H239611   3.061   3.621   3.153 -1.5672  1.7819  0.3152
 6018TIP3   OH239612   4.538   1.294   1.225  0.1653 -0.5458 -0.0961
 6018TIP3    H139613   4.573   1.268   1.140  0.1360  2.1167 -1.0244
 6018TIP3    H239614   4.477   1.365   1.206 -0.0765 -0.0590  2.1176
 6019TIP3   OH239615   4.802   6.184   1.843  0.0227 -0.1772  0.3918
 6019TIP3    H139616   4.707   6.171   1.855  0.2255 -0.2456  2.2219
 6019TIP3    H239617   4.827   6.242   1.915  0.8643  2.4514 -1.8586
 6020TIP3   OH239618   0.722   3.465   1.062  0.1825  0.6497  0.1083
 6020TIP3    H139619   0.778   3.540   1.086 -2.2435  2.1375  1.5001
 6020TIP3    H239620   0.685   3.489   0.977  0.0381  0.6666  0.1754
 6021TIP3   OH239621   3.816   6.811   7.536 -0.0106  0.3911  0.9143
 6021TIP3    H139622   3.752   6.740   7.538  1.0899 -0.6440  0.1977
 6021TIP3    H239623   3.892   6.777   7.583  0.4913  1.1270  0.6560
 6022TIP3   OH239624   4.158   0.634   7.500 -0.0169 -0.5669  0.0910
 6022TIP3    H139625   4.124   0.641   7.589 -2.8640  1.2150 -0.9868
 6022TIP3    H239626   4.221   0.705   7.492 -0.7843  0.1495  0.3066
 6023TIP3   OH239627   3.140   0.456   1.091 -0.1148 -0.0104  0.0101
 6023TIP3    H139628   3.146   0.397   1.016 -1.8629 -0.3331  0.0661
 6023TIP3    H239629   3.186   0.535   1.064  2.0383 -1.2664 -0.1716
 6024TIP3   OH239630   6.056   4.871   6.595  0.1192  0.2513  0.2032
 6024TIP3    H139631   6.124   4.812   6.563  0.6518  1.2103 -0.4667
 6024TIP3    H239632   6.100   4.926   6.659 -0.1995  0.3952  0.3011
 6025TIP3   OH239633   0.445   0.948   1.505 -0.3602 -0.1114 -0.1518
 6025TIP3    H139634   0.420   0.867   1.461  3.0094 -1.5572  0.2894
 6025TIP3    H239635   0.427   0.931   1.597  2.4139 -1.4079  0.2530
 6026TIP3   OH239636   0.661   4.176   1.641 -0.1655 -0.1414 -0.0325
 6026TIP3    H139637   0.659   4.172   1.737  0.1409  3.1560  0.2266
 6026TIP3    H239638   0.588   4.233   1.618  0.4146 -0.0101 -1.6827
 6027TIP3   OH239639   6.023   2.653   8.514 -0.1012 -0.9935  0.1158
 6027TIP3    H139640   5.982   2.611   8.438 -0.5958 -0.8380  0.2897
 6027TIP3    H239641   6.091   2.592   8.542 -0.3766 -1.3727 -0.0306
 6028TIP3   OH239642   2.490   4.115   0.273 -0.2347  0.1291 -0.0734
 6028TIP3    H139643   2.485   4.107   0.368 -1.3511 -1.0462 -0.1979
 6028TIP3    H239644   2.569   4.167   0.257 -0.4821  1.0478  1.5110
 6029TIP3   OH239645   3.530   6.146   0.884 -0.1941  0.6497 -0.1260
 6029TIP3    H139646   3.510   6.220   0.941 -0.3070 -0.4474  1.3366
 6029TIP3    H239647   3.592   6.180   0.820  1.6541  1.4554  1.9740
 6030TIP3   OH239648   5.402   2.349   7.500  0.0011 -0.0003 -0.4978
 6030TIP3    H139649   5.404   2.256   7.521 -2.6335 -0.1080 -0.3813
 6030TIP3    H239650   5.415   2.353   7.406 -1.0847 -0.6180 -0.6860
 6031TIP3   OH239651   2.910   3.232   0.692 -0.0026  0.9138  0.0279
 6031TIP3    H139652   2.882   3.250   0.602 -0.2608  1.1740  0.1601
 6031TIP3    H239653   2.901   3.137   0.701 -1.7866  1.0835  0.3685
 6032TIP3   OH239654   6.776   1.820   1.996  0.1535  0.3640  0.1591
 6032TIP3    H139655   6.812   1.742   2.037 -0.8817  0.5182  1.4040
 6032TIP3    H239656   6.683   1.819   2.017 -0.0151  1.5703 -0.3997
 6033TIP3   OH239657   1.940   4.140   1.525  0.3469  0.4976 -0.0841
 6033TIP3    H139658   1.920   4.215   1.581 -0.7038 -1.3959  2.2487
 6033TIP3    H239659   1.913   4.167   1.438 -0.3670  2.6834  0.7577
 6034TIP3   OH239660   5.243   5.770   0.041  0.1720  0.3019 -0.4299
 6034TIP3    H139661   5.156   5.729   0.036 -0.6234  1.3869  2.4762
 6034TIP3    H239662   5.288   5.739  -0.038 -2.3816 -1.3322 -1.4011
 6035TIP3   OH239663   1.255   4.362   1.682 -0.0945 -0.4973 -0.1554
 6035TIP3    H139664   1.344   4.366   1.718 -0.1334 -1.6653  0.1230
 6035TIP3    H239665   1.203   4.322   1.751 -0.2606 -2.3514 -1.2897
 6036TIP3   OH239666   4.647   5.691   7.595 -0.3952 -0.9513 -0.4408
 6036TIP3    H139667   4.623   5.742   7.517  2.8397  0.7578 -0.4954
 6036TIP3    H239668   4.617   5.743   7.669  1.4654  0.3872 -0.5395
 6037TIP3   OH239669   3.007   0.831   0.314 -0.2042  0.4551  0.1323
 6037TIP3    H139670   3.028   0.796   0.400 -1.4019  1.1072  0.7094
 6037TIP3    H239671   2.923   0.875   0.325 -2.1096 -2.2780 -2.1124
 6038TIP3   OH239672   1.726   6.072   8.190  0.5461 -0.0630 -0.1117
 6038TIP3    H139673   1.752   6.159   8.159 -0.1625  0.4425  0.6419
 6038TIP3    H239674   1.631   6.071   8.179  0.5359 -0.6770  0.0462
 6039TIP3   OH239675   2.675   2.436   7.834 -0.4417 -0.9488 -0.4889
 6039TIP3    H139676   2.703   2.382   7.760  0.3626 -1.6347  0.2766
 6039TIP3    H239677   2.724   2.400   7.909  0.2769  0.9724  0.0153
 6040TIP3   OH239678   0.659   1.751   0.662  0.4340 -0.0453  0.3721
 6040TIP3    H139679   0.632   1.840   0.639 -0.8606 -0.8480 -1.3846
 6040TIP3    H239680   0.749   1.744   0.630  0.3421  0.4420  0.0055
 6041TIP3   OH239681   1.285   3.522   0.557 -0.3654 -0.4451 -0.6725
 6041TIP3    H139682   1.277   3.565   0.642 -0.8020  0.6922 -1.2549
 6041TIP3    H239683   1.354   3.457   0.569  0.0599  0.1667  0.3641
 6042TIP3   OH239684   1.416   3.849   0.949  0.0618 -0.9893  0.0419
 6042TIP3    H139685   1.467   3.769   0.937 -0.2376 -0.9730 -1.5811
 6042TIP3    H239686   1.337   3.821   0.995  1.5866 -0.9629  2.8919
 6043TIP3   OH239687   1.874   3.945   8.291 -0.1575 -0.4495  0.3515
 6043TIP3    H139688   1.786   3.915   8.315 -0.2633 -1.2808 -0.9505
 6043TIP3    H239689   1.860   4.012   8.224  0.1695  0.8621  1.5380
 6044TIP3   OH239690   3.673   3.722   2.692 -0.3033 -0.6597  0.8549
 6044TIP3    H139691   3.723   3.747   2.769  0.1088  1.5073 -0.0139
 6044TIP3    H239692   3.723   3.759   2.619 -1.9021 -0.5311 -0.2302
 6045TIP3   OH239693   1.672   1.777   1.803 -0.2990 -0.1318  0.0519
 6045TIP3    H139694   1.764   1.784   1.828 -0.3211  0.1841  0.0523
 6045TIP3    H239695   1.634   1.719   1.869  0.2727 -1.7253 -0.9767
 6046TIP3   OH239696   1.325   0.407   8.229 -0.1046  0.2500 -0.0223
 6046TIP3    H139697   1.258   0.462   8.187  0.7951  1.4161  0.0135
 6046TIP3    H239698   1.286   0.381   8.312 -0.8587  0.1723 -0.3913
 6047TIP3   OH239699   6.506   2.504   8.368 -0.3105  0.9444  0.1838
 6047TIP3    H139700   6.458   2.430   8.332  0.6131  0.2896  0.2654
 6047TIP3    H239701   6.518   2.564   8.294  0.0271  0.4256 -0.1915
 6048TIP3   OH239702   0.891   6.335   1.991  0.2986 -0.2161  0.9107
 6048TIP3    H139703   0.857   6.365   2.075 -1.1533  2.0908 -0.3900
 6048TIP3    H239704   0.926   6.415   1.950  2.0792 -1.5001 -0.1992
 6049TIP3   OH239705   2.295   6.551   1.399 -0.2619  0.2165  0.2902
 6049TIP3    H139706   2.258   6.627   1.444 -0.4806  0.7160 -0.6960
 6049TIP3    H239707   2.260   6.557   1.310  1.0159 -0.1399 -0.2493
 6050TIP3   OH239708   5.737   6.367   1.441  0.1051 -0.2996  0.4291
 6050TIP3    H139709   5.751   6.431   1.511  0.0973  0.0507  0.1111
 6050TIP3    H239710   5.746   6.417   1.360 -1.9013 -0.2729  0.1802
 6051TIP3   OH239711   5.546   5.094   7.379 -0.3960  0.1411  0.1229
 6051TIP3    H139712   5.525   5.104   7.286 -0.0389  0.2703  0.0556
 6051TIP3    H239713   5.461   5.097   7.423 -0.5874 -0.1629 -0.2186
 6052TIP3   OH239714   6.115   2.165   7.254 -0.0251 -0.0216  0.3166
 6052TIP3    H139715   6.048   2.097   7.253 -0.0894  0.0427  0.1742
 6052TIP3    H239716   6.198   2.117   7.254  0.0309 -0.1763 -2.9734
 6053TIP3   OH239717   6.590   1.459   0.318 -0.3042  0.4958  0.2177
 6053TIP3    H139718   6.662   1.514   0.287  2.8801 -1.5415  3.2162
 6053TIP3    H239719   6.563   1.498   0.400 -1.1965  0.0761  0.1386
 6054TIP3   OH239720   6.113   5.552   2.067  0.0039 -0.3420  0.2127
 6054TIP3    H139721   6.199   5.533   2.030  0.7218  0.8909  1.1731
 6054TIP3    H239722   6.094   5.475   2.121  0.9616 -0.2135  0.7662
 6055TIP3   OH239723   4.760   6.627   0.183  0.0692 -0.0015  0.0644
 6055TIP3    H139724   4.832   6.564   0.177 -0.1957 -0.4071  0.9357
 6055TIP3    H239725   4.721   6.610   0.269 -1.1762  0.1007 -0.4719
 6056TIP3   OH239726   3.680   0.472   0.819  0.1992  1.0083  0.1628
 6056TIP3    H139727   3.771   0.474   0.791 -0.3188 -1.1308 -2.0602
 6056TIP3    H239728   3.634   0.525   0.754 -0.3572  0.5605  0.1861
 6057TIP3   OH239729   4.672   0.188   0.834 -0.4995 -0.4869  0.3169
 6057TIP3    H139730   4.628   0.140   0.763  0.3730 -1.4268  0.3724
 6057TIP3    H239731   4.765   0.167   0.822 -0.4088 -1.4861  2.3231
 6058TIP3   OH239732   0.297   2.497   1.014  0.5345  0.1925 -0.0538
 6058TIP3    H139733   0.213   2.508   0.971  0.1028  1.6248  1.0532
 6058TIP3    H239734   0.361   2.531   0.951  0.2180 -0.2333 -0.6090
 6059TIP3   OH239735   2.774   1.030   1.270 -0.3710 -0.1200 -0.4903
 6059TIP3    H139736   2.710   1.026   1.198 -1.5003  1.6119  0.3536
 6059TIP3    H239737   2.774   1.121   1.297 -0.8840 -0.9055  2.5036
 6060TIP3   OH239738   0.851   4.474   1.476  0.1102  0.0872  0.1400
 6060TIP3    H139739   0.931   4.527   1.475 -0.3580  0.8717 -1.8663
 6060TIP3    H239740   0.802   4.506   1.551  1.5587 -0.2621  1.2816
 6061TIP3   OH239741   3.737   4.674   8.020  0.2749  0.3711 -0.1097
 6061TIP3    H139742   3.809   4.658   7.958  1.6982  0.3534  1.4720
 6061TIP3    H239743   3.672   4.607   8.000  0.7218  0.3343 -1.5384
 6062TIP3   OH239744   3.480   2.259   7.078  0.6728  0.1851  0.1561
 6062TIP3    H139745   3.545   2.209   7.028 -0.2556 -1.0489  0.1402
 6062TIP3    H239746   3.409   2.275   7.016  0.3761  0.3439  0.5321
 6063TIP3   OH239747   6.889   3.007   6.965 -0.2740 -0.0498 -0.5540
 6063TIP3    H139748   6.842   3.077   7.009 -0.1022  0.0781 -0.5691
 6063TIP3    H239749   6.821   2.951   6.928 -0.4131  0.1961 -0.6765
 6064TIP3   OH239750   4.286   6.810   0.423  0.8702 -0.1202 -0.2162
 6064TIP3    H139751   4.223   6.741   0.401  0.0600  0.5101  0.0573
 6064TIP3    H239752   4.233   6.890   0.425  1.9011  0.6145 -1.1490
 6065TIP3   OH239753   3.318   2.829   0.145 -0.0959 -0.3348  0.0887
 6065TIP3    H139754   3.226   2.853   0.145  0.1488  0.7019  0.7157
 6065TIP3    H239755   3.336   2.802   0.235  0.3342  0.0020  0.1083
 6066TIP3   OH239756   6.405   6.004   7.884  0.0036 -0.0740  0.3211
 6066TIP3    H139757   6.389   6.055   7.805 -1.5808 -0.2369  0.4922
 6066TIP3    H239758   6.452   5.927   7.855  1.4219  0.9268 -0.1112
 6067TIP3   OH239759   5.785   2.282   1.547  0.1697  0.2168  0.2713
 6067TIP3    H139760   5.796   2.304   1.455  0.5594  0.3971  0.3587
 6067TIP3    H239761   5.714   2.339   1.577  0.1683  0.2914  0.1284
 6068TIP3   OH239762   4.390   3.918   8.278  0.2451  0.4691  0.0676
 6068TIP3    H139763   4.411   3.830   8.309 -1.6343 -0.4002 -0.9789
 6068TIP3    H239764   4.427   3.923   8.190 -0.2423  0.4614 -0.1420
 6069TIP3   OH239765   4.622   3.471   7.546 -0.3516 -0.2338  0.6488
 6069TIP3    H139766   4.560   3.455   7.618 -1.2519 -1.0784 -0.2813
 6069TIP3    H239767   4.577   3.533   7.489 -0.6142 -1.2931 -0.3345
 6070TIP3   OH239768   6.631   6.451   7.788 -0.3484 -0.3101  0.5451
 6070TIP3    H139769   6.626   6.383   7.721  0.6456  0.9143 -0.8316
 6070TIP3    H239770   6.701   6.421   7.847 -0.4587 -0.8617  0.4026
 6071TIP3   OH239771   0.289   0.641   6.689  0.1519  0.3029  0.3148
 6071TIP3    H139772   0.283   0.621   6.596 -1.5848 -0.3234  0.5215
 6071TIP3    H239773   0.304   0.736   6.693 -0.4106  0.4380 -0.5992
 6072TIP3   OH239774   5.063   4.441   7.901  0.1990  0.0640  0.3706
 6072TIP3    H139775   5.008   4.378   7.854 -0.6731  1.0422  0.0390
 6072TIP3    H239776   5.023   4.526   7.882  1.2943  0.7128  0.8877
 6073TIP3   OH239777   4.935   0.448   1.509 -0.2363  0.4163 -0.4006
 6073TIP3    H139778   4.997   0.521   1.510 -0.5414  0.6924 -0.9924
 6073TIP3    H239779   4.882   0.463   1.431 -1.7118  0.7425  0.6142
 6074TIP3   OH239780   0.100   0.678   1.772  0.1011 -0.4485 -0.2246
 6074TIP3    H139781   0.152   0.715   1.843 -1.5170 -1.2221  1.4209
 6074TIP3    H239782   0.097   0.747   1.706 -1.4291  1.7975  2.0391
 6075TIP3   OH239783   3.756   1.190   8.102 -0.0105 -0.0417  0.6284
 6075TIP3    H139784   3.728   1.113   8.151  1.0806 -1.1067 -0.3939
 6075TIP3    H239785   3.674   1.230   8.072 -0.5776 -0.8931  1.0026
 6076TIP3   OH239786   3.242   0.054   0.904  0.3822 -0.0742  0.5634
 6076TIP3    H139787   3.151   0.073   0.879 -0.0622 -2.2408  0.3521
 6076TIP3    H239788   3.294   0.096   0.835 -0.3093  2.4381  1.4416
 6077TIP3   OH239789   4.239   5.839   0.551 -0.6918  0.2256 -0.3350
 6077TIP3    H139790   4.265   5.751   0.576 -2.1891 -0.3779 -0.8027
 6077TIP3    H239791   4.218   5.883   0.634  2.0211  0.8731  0.1084
 6078TIP3   OH239792   2.574   5.717   1.860 -0.1653  0.0709 -0.7232
 6078TIP3    H139793   2.613   5.663   1.929 -2.3109  0.1020  0.6138
 6078TIP3    H239794   2.616   5.803   1.869 -1.1448  0.3999  1.3329
 6079TIP3   OH239795   0.785   1.687   6.382  0.1612  0.3715 -0.3738
 6079TIP3    H139796   0.880   1.679   6.379  0.1760  0.1130  0.4064
 6079TIP3    H239797   0.752   1.611   6.333  0.3549 -0.6009  0.9517
 6080TIP3   OH239798   4.777   6.025   0.812 -0.2350  0.4576 -0.5956
 6080TIP3    H139799   4.850   5.979   0.853  0.2923  1.1847 -0.6997
 6080TIP3    H239800   4.818   6.079   0.744 -0.7468  1.6403  0.0123
 6081TIP3   OH239801   3.938   2.546   0.529  0.3154 -0.1554  0.4987
 6081TIP3    H139802   3.882   2.468   0.534 -0.6205  0.5555  1.5663
 6081TIP3    H239803   4.006   2.531   0.595  0.6297 -0.4453  0.1086
 6082TIP3   OH239804   1.650   5.729   0.305  0.3271  0.9678 -0.2299
 6082TIP3    H139805   1.732   5.778   0.306  1.1798 -0.3387 -1.6442
 6082TIP3    H239806   1.588   5.786   0.260  0.5334  1.8370  0.5674
 6083TIP3   OH239807   6.143   5.395   1.115 -0.0804  0.3014  0.3006
 6083TIP3    H139808   6.189   5.458   1.170  0.9321  0.2989 -0.5162
 6083TIP3    H239809   6.088   5.448   1.059  1.2340  0.5377 -0.8137
 6084TIP3   OH239810   6.278   5.609   7.979  0.0986  0.0938  0.1416
 6084TIP3    H139811   6.221   5.621   7.903 -0.4479  0.9525  0.6714
 6084TIP3    H239812   6.219   5.592   8.052  0.6192 -0.7478  0.3812
 6085TIP3   OH239813   4.456   2.686   0.954  0.5761 -0.2472  0.2105
 6085TIP3    H139814   4.531   2.626   0.961  1.6312  1.1971  2.5189
 6085TIP3    H239815   4.492   2.764   0.912 -0.5496 -0.7626 -1.8562
 6086TIP3   OH239816   3.637   6.607   7.626  0.1082 -0.2033  0.3114
 6086TIP3    H139817   3.546   6.634   7.621 -0.0814 -0.6178  1.3649
 6086TIP3    H239818   3.641   6.549   7.702  1.6825  1.5303  1.6203
 6087TIP3   OH239819   2.958   6.756   2.552  0.4705 -0.3919 -0.1480
 6087TIP3    H139820   2.959   6.732   2.645  2.0879 -1.1907 -0.3236
 6087TIP3    H239821   3.031   6.818   2.543  0.9731 -1.0986 -1.0582
 6088TIP3   OH239822   3.610   0.147   0.190  0.5325  0.3131  0.2590
 6088TIP3    H139823   3.631   0.059   0.158  1.6855  1.2781 -1.8558
 6088TIP3    H239824   3.688   0.199   0.170  0.1419  1.7137  2.0711
 6089TIP3   OH239825   4.622   4.005   1.640 -0.5085 -0.3574  0.0294
 6089TIP3    H139826   4.591   3.947   1.710 -0.7741  1.1577  1.2198
 6089TIP3    H239827   4.542   4.048   1.608 -0.1213  0.6798  0.4213
 6090TIP3   OH239828   2.847   4.754   2.664  0.1008  0.4441 -0.3488
 6090TIP3    H139829   2.763   4.717   2.635  1.3562 -2.5270 -0.5566
 6090TIP3    H239830   2.905   4.743   2.589  0.8318  2.1336 -0.0760
 6091TIP3   OH239831   3.996   3.891   0.627  0.0723  0.5793  0.1426
 6091TIP3    H139832   4.063   3.922   0.566  1.4843 -1.4999  0.5051
 6091TIP3    H239833   4.012   3.941   0.707 -0.1412  1.5374 -0.4048
 6092TIP3   OH239834   0.661   1.106   7.153 -0.0108 -0.4759 -0.3697
 6092TIP3    H139835   0.686   1.027   7.202 -0.0245  0.7234  1.6740
 6092TIP3    H239836   0.742   1.135   7.112  0.1715 -1.0885 -0.4601
 6093TIP3   OH239837   4.940   6.578   7.830 -0.1979 -0.0506  0.0316
 6093TIP3    H139838   4.889   6.510   7.875  1.4213 -2.1835 -1.1660
 6093TIP3    H239839   5.004   6.606   7.895 -1.5622  1.2407  0.9004
 6094TIP3   OH239840   0.227   4.058   1.165 -0.3357  0.0523  0.1262
 6094TIP3    H139841   0.240   3.987   1.102  0.5462  0.6542 -0.3953
 6094TIP3    H239842   0.308   4.059   1.216 -1.6952 -1.6237  2.5752
 6095TIP3   OH239843   5.418   3.495   0.325 -0.3389 -0.5886  0.6945
 6095TIP3    H139844   5.332   3.499   0.284 -0.0545 -0.8087  0.0591
 6095TIP3    H239845   5.478   3.476   0.253  0.2459 -0.4057  1.1252
 6096TIP3   OH239846   2.326   2.226   8.346  0.5861 -0.2695 -0.0157
 6096TIP3    H139847   2.236   2.198   8.327 -0.1946  1.4635  0.8543
 6096TIP3    H239848   2.381   2.163   8.300 -1.0860 -0.8124 -1.3962
 6097TIP3   OH239849   6.876   1.223   6.594  0.4673 -0.0173  0.6867
 6097TIP3    H139850   6.876   1.143   6.542 -2.2955  0.4168 -0.1286
 6097TIP3    H239851   6.928   1.285   6.543  0.9483 -0.6846  0.3469
 6098TIP3   OH239852   0.238   3.829   6.980 -0.2132  0.2937  0.0158
 6098TIP3    H139853   0.197   3.778   6.910  1.7294 -0.3108 -0.7704
 6098TIP3    H239854   0.165   3.867   7.028 -1.6839 -1.2499 -0.8635
 6099TIP3   OH239855   0.314   4.925   7.089 -0.3006 -0.1158 -0.6610
 6099TIP3    H139856   0.299   4.962   7.003 -0.0059  2.9289  0.4941
 6099TIP3    H239857   0.395   4.874   7.080 -1.1165 -1.1728 -2.4831
 6100TIP3   OH239858   1.791   3.053   1.721 -0.2751  0.3422 -0.5811
 6100TIP3    H139859   1.840   2.975   1.696  0.6775  0.7313 -0.0136
 6100TIP3    H239860   1.804   3.060   1.815 -3.0714 -0.6090 -0.0419
 6101TIP3   OH239861   4.584   0.912   1.750 -0.0735 -0.0375  0.2643
 6101TIP3    H139862   4.617   0.992   1.790 -0.3408 -0.7009  1.9086
 6101TIP3    H239863   4.489   0.922   1.751 -0.1594 -0.7977  1.4734
 6102TIP3   OH239864   2.064   2.710   7.946 -0.1219  0.1260 -0.0710
 6102TIP3    H139865   2.030   2.712   8.036 -0.1956 -2.7100  0.0546
 6102TIP3    H239866   2.158   2.700   7.957 -0.3324 -2.4719 -0.2084
 6103TIP3   OH239867   5.017   3.063   8.084 -0.4869  0.4373  0.0242
 6103TIP3    H139868   5.062   3.087   8.003  0.4261 -0.6891  0.1772
 6103TIP3    H239869   5.019   2.968   8.086 -2.9842  0.3178  0.0142
 6104TIP3   OH239870   0.541   5.217   7.413  0.1227 -0.3240 -0.6594
 6104TIP3    H139871   0.626   5.261   7.413 -1.0344  2.1137  0.6441
 6104TIP3    H239872   0.523   5.199   7.320  0.5266  2.3552 -1.3289
 6105TIP3   OH239873   5.381   6.689   1.903  0.0723  0.0408 -0.2587
 6105TIP3    H139874   5.304   6.646   1.939 -0.7728  0.8024 -1.0867
 6105TIP3    H239875   5.454   6.631   1.924 -0.2339  0.7222  3.2131
 6106TIP3   OH239876   3.477   0.171   6.829  0.0583 -0.0658  0.1726
 6106TIP3    H139877   3.398   0.170   6.775 -0.3870 -0.0029  0.8083
 6106TIP3    H239878   3.513   0.259   6.818 -0.0867 -0.0210  0.0599
 6107TIP3   OH239879   3.875   0.426   7.851  0.0312 -0.1691 -0.4694
 6107TIP3    H139880   3.849   0.514   7.825  1.5265  0.2235 -0.7497
 6107TIP3    H239881   3.829   0.368   7.790 -1.7109  0.3398  0.3236
 6108TIP3   OH239882   1.646   1.786   8.006  0.1696 -0.0090 -0.0208
 6108TIP3    H139883   1.567   1.763   8.055 -0.7196  1.6891 -0.5731
 6108TIP3    H239884   1.675   1.869   8.045  0.6005  0.3343 -1.0288
 6109TIP3   OH239885   0.673   2.619   0.683 -0.2193  0.3547 -0.3399
 6109TIP3    H139886   0.759   2.663   0.689 -1.5429  3.0758  0.4212
 6109TIP3    H239887   0.670   2.585   0.594  1.7109  0.0500 -0.3270
 6110TIP3   OH239888   4.608   5.572   2.379  0.3967  0.2009 -0.1709
 6110TIP3    H139889   4.516   5.548   2.394  0.3189  0.8515  0.3910
 6110TIP3    H239890   4.604   5.662   2.346  0.7723 -0.1267 -1.1664
 6111TIP3   OH239891   2.344   5.635   0.277 -0.4287 -0.5606  0.9221
 6111TIP3    H139892   2.379   5.661   0.362  0.4702 -0.9474  0.6810
 6111TIP3    H239893   2.253   5.611   0.295 -0.5679  0.3976  1.5715
 6112TIP3   OH239894   2.843   1.318   1.613 -0.2549 -0.3857 -0.1419
 6112TIP3    H139895   2.831   1.408   1.645 -1.6829 -0.5658 -0.1030
 6112TIP3    H239896   2.891   1.275   1.683  0.7985  0.4460 -0.3352
 6113TIP3   OH239897   1.442   3.823   6.538 -0.4542 -0.1119  0.7266
 6113TIP3    H139898   1.496   3.782   6.605 -0.0415  0.0265  0.4821
 6113TIP3    H239899   1.441   3.916   6.561  3.0892  0.6954 -1.6787
 6114TIP3   OH239900   2.263   4.692   0.723  0.3085  0.0764  0.0113
 6114TIP3    H139901   2.179   4.704   0.680 -0.0057 -1.4213  0.1482
 6114TIP3    H239902   2.244   4.704   0.816  0.3433  0.1740  0.0064
 6115TIP3   OH239903   0.409   0.895   7.957 -0.1654  0.4104  0.1773
 6115TIP3    H139904   0.447   0.902   8.044 -0.4857 -0.7643  0.4418
 6115TIP3    H239905   0.322   0.935   7.966 -0.3400 -0.0282  0.5061
 6116TIP3   OH239906   6.230   0.311   0.769  0.1335  0.0637 -0.2153
 6116TIP3    H139907   6.136   0.294   0.763 -0.2741  2.1600 -0.5794
 6116TIP3    H239908   6.252   0.354   0.686  1.5258 -0.7757 -0.3137
 6117TIP3   OH239909   5.263   2.603   7.337 -0.3830  0.1741  0.2568
 6117TIP3    H139910   5.200   2.531   7.335 -0.1966  0.0039  0.5549
 6117TIP3    H239911   5.345   2.565   7.308 -0.3963  0.3806 -0.0598
 6118TIP3   OH239912   6.426   0.727   0.576  0.6422 -0.6482 -0.5168
 6118TIP3    H139913   6.340   0.697   0.547 -0.2789  1.5142 -0.2258
 6118TIP3    H239914   6.441   0.807   0.527  1.3981  0.2870  1.1477
 6119TIP3   OH239915   5.182   3.911   2.595 -0.4197  1.0347  0.2032
 6119TIP3    H139916   5.179   3.974   2.523  1.4920 -0.4356 -1.2551
 6119TIP3    H239917   5.166   3.826   2.554 -2.2362  0.3969  2.0086
 6120TIP3   OH239918   4.141   1.143   7.618 -0.5106  0.1457  0.2536
 6120TIP3    H139919   4.101   1.211   7.673 -0.5757  1.0937 -0.9364
 6120TIP3    H239920   4.100   1.154   7.533  0.4106 -0.5772 -0.2990
 6121TIP3   OH239921   3.059   3.803   0.887  0.2288 -0.4518 -0.4140
 6121TIP3    H139922   3.041   3.848   0.969 -1.2417 -0.2964 -0.7870
 6121TIP3    H239923   3.099   3.870   0.831 -0.1963 -0.1330 -0.3372
 6122TIP3   OH239924   3.653   5.062   0.735 -0.6350 -0.4445  0.3470
 6122TIP3    H139925   3.732   5.026   0.774 -0.6880 -1.5055 -0.4954
 6122TIP3    H239926   3.601   4.986   0.709 -0.8929  0.2155 -1.1820
 6123TIP3   OH239927   1.239   1.590   1.706 -0.9841 -0.1951 -0.0270
 6123TIP3    H139928   1.226   1.495   1.711 -2.4741  0.0468  3.4387
 6123TIP3    H239929   1.236   1.619   1.797 -0.6169  3.2176 -0.9832
 6124TIP3   OH239930   4.006   3.426   2.213  0.4256  0.3873  0.3766
 6124TIP3    H139931   3.999   3.341   2.257  3.0343 -1.1341 -1.8530
 6124TIP3    H239932   3.917   3.463   2.217 -1.6365 -3.8085 -1.1596
 6125TIP3   OH239933   1.252   5.515   1.264  0.2874 -0.3807  0.6986
 6125TIP3    H139934   1.320   5.533   1.329  0.6031  1.5011 -0.0730
 6125TIP3    H239935   1.295   5.534   1.180 -1.0517  0.3868  0.1687
 6126TIP3   OH239936   2.627   0.889   0.110  0.4440  0.3588 -0.3843
 6126TIP3    H139937   2.657   0.978   0.125  0.7261  0.3119 -0.6614
 6126TIP3    H239938   2.534   0.890   0.134  1.0217  0.0981  2.0960
 6127TIP3   OH239939   2.957   0.419   1.950  1.0032  0.2401  0.1150
 6127TIP3    H139940   2.874   0.394   1.910  0.3006 -1.0747  2.1782
 6127TIP3    H239941   2.981   0.343   2.004  2.9466  1.0595  0.4954
 6128TIP3   OH239942   2.692   3.896   2.879  0.2837 -0.2122 -0.1073
 6128TIP3    H139943   2.653   3.859   2.959  0.1459 -0.4400 -0.2764
 6128TIP3    H239944   2.641   3.857   2.808  1.2972 -1.1105 -0.3725
 6129TIP3   OH239945   4.665   0.084   7.092  0.1086  0.0689  0.4068
 6129TIP3    H139946   4.759   0.071   7.105  0.1183 -0.5428 -0.1951
 6129TIP3    H239947   4.625   0.008   7.133 -0.0609 -0.1313 -0.1222
 6130TIP3   OH239948   2.322   3.376   7.162  0.2732 -0.2216  0.4047
 6130TIP3    H139949   2.248   3.328   7.125  0.5571 -0.3076 -0.0586
 6130TIP3    H239950   2.360   3.423   7.088  1.1895 -0.8326  0.4602
 6131TIP3   OH239951   0.815   3.658   7.894 -0.0173  0.2162  0.1191
 6131TIP3    H139952   0.843   3.748   7.912  0.4743  0.0084  0.3978
 6131TIP3    H239953   0.881   3.603   7.936 -0.2828 -0.2783 -0.1029
 6132TIP3   OH239954   6.006   0.190   0.565 -0.2570 -0.0562 -0.5038
 6132TIP3    H139955   5.970   0.185   0.654  1.9364  0.1864  0.4607
 6132TIP3    H239956   6.049   0.106   0.551  0.4660  0.3543 -0.8245
 6133TIP3   OH239957   2.757   0.464   1.096  0.0202 -0.0371  0.2665
 6133TIP3    H139958   2.666   0.458   1.124 -0.0960 -0.3439 -0.1574
 6133TIP3    H239959   2.792   0.376   1.107 -0.2824 -0.3942 -1.3523
 6134TIP3   OH239960   6.042   0.009   8.149  0.6807 -0.4632 -0.0849
 6134TIP3    H139961   5.985  -0.000   8.225 -0.0627 -0.0439 -0.5793
 6134TIP3    H239962   6.090   0.090   8.164  0.7670 -0.5465  0.0880
 6135TIP3   OH239963   1.784   3.089   6.682 -0.3018 -0.1203  0.1878
 6135TIP3    H139964   1.806   3.182   6.677 -0.3191 -0.0947  0.5427
 6135TIP3    H239965   1.867   3.045   6.700 -0.6368  0.0717  2.5705
 6136TIP3   OH239966   4.616   0.465   8.302 -0.6256 -0.0552 -0.5127
 6136TIP3    H139967   4.579   0.508   8.379  0.0053  2.0672 -1.3265
 6136TIP3    H239968   4.629   0.374   8.330 -2.6686  0.0416  1.0676
 6137TIP3   OH239969   5.284   5.449   0.559 -0.2607  0.0138 -0.1177
 6137TIP3    H139970   5.344   5.522   0.548 -2.1394  1.6078 -0.2485
 6137TIP3    H239971   5.271   5.415   0.470 -0.1411  0.1491 -0.1873
 6138TIP3   OH239972   3.099   1.154   1.259 -0.5867  0.0523  0.2704
 6138TIP3    H139973   3.080   1.238   1.216 -0.8056  0.5189  1.2461
 6138TIP3    H239974   3.159   1.177   1.330  0.6821 -0.8666 -0.4531
 6139TIP3   OH239975   1.326   0.948   0.949  0.2436 -0.4661 -0.7065
 6139TIP3    H139976   1.248   0.894   0.961  0.3061 -0.5184 -0.5221
 6139TIP3    H239977   1.309   1.027   1.000  1.0729 -1.2675  0.8868
 6140TIP3   OH239978   4.179   4.397   1.478  0.1396  0.3049  0.1028
 6140TIP3    H139979   4.110   4.456   1.508 -2.1228 -2.2799  0.4106
 6140TIP3    H239980   4.239   4.391   1.553 -1.7426 -0.7686  1.6233
 6141TIP3   OH239981   6.585   2.924   8.035  0.3123 -0.3513  0.5001
 6141TIP3    H139982   6.593   2.997   7.974 -1.1718  1.3253  2.2123
 6141TIP3    H239983   6.668   2.921   8.082  0.9871 -0.8619 -0.6634
 6142TIP3   OH239984   3.713   0.941   0.700 -0.1230 -0.0714  0.8582
 6142TIP3    H139985   3.679   1.002   0.765 -0.5041  1.7677 -0.9510
 6142TIP3    H239986   3.809   0.949   0.707 -0.1542  1.4367  0.1120
 6143TIP3   OH239987   4.312   0.349   6.701  0.0060  0.3363  0.0288
 6143TIP3    H139988   4.377   0.394   6.648 -1.5793 -0.3939 -2.7645
 6143TIP3    H239989   4.327   0.256   6.683  0.3827 -0.0596  2.1484
 6144TIP3   OH239990   6.559   1.643   1.033 -0.0482  0.3838 -0.1393
 6144TIP3    H139991   6.622   1.714   1.020 -0.3110  0.4268 -1.3407
 6144TIP3    H239992   6.606   1.565   1.003 -0.6498  0.4642 -1.3464
 6145TIP3   OH239993   5.970   3.578   6.591 -0.4240 -0.0607  0.3603
 6145TIP3    H139994   5.892   3.533   6.560 -0.7758 -0.2183  1.4350
 6145TIP3    H239995   5.949   3.671   6.585 -0.4911 -0.0892  0.1494
 6146TIP3   OH239996   2.962   2.400   0.651 -0.6203  0.0560 -1.0709
 6146TIP3    H139997   2.945   2.494   0.648  0.4288  0.2807 -0.5556
 6146TIP3    H239998   2.877   2.360   0.664 -1.0251  0.9644 -0.8856
 6147TIP3   OH239999   3.771   0.317   2.094 -0.5891 -0.0034  0.3368
 6147TIP3    H140000   3.810   0.276   2.017  2.1176  1.3073  0.8869
 6147TIP3    H240001   3.696   0.367   2.060  0.6301  0.6622 -1.4960
 6148TIP3   OH240002   4.365   1.554   0.475  0.0894 -0.3837 -1.0171
 6148TIP3    H140003   4.380   1.502   0.554 -0.1114 -1.5541 -1.7226
 6148TIP3    H240004   4.388   1.644   0.501  0.3667 -0.7947  0.2581
 6149TIP3   OH240005   5.087   5.296   1.729 -0.4165 -0.5700  0.2089
 6149TIP3    H140006   5.088   5.297   1.824  4.2703 -2.1531  0.4101
 6149TIP3    H240007   5.141   5.370   1.703 -0.4145 -1.0127 -1.1637
 6150TIP3   OH240008   5.597   1.634   6.809  0.4868 -0.2212  0.1203
 6150TIP3    H140009   5.596   1.633   6.713 -0.4829  1.3429  0.0765
 6150TIP3    H240010   5.632   1.548   6.834  0.7417 -0.6572 -1.6223
 6151TIP3   OH240011   4.386   4.084   2.536  0.0204  0.1133  0.6784
 6151TIP3    H140012   4.315   4.147   2.534  0.0983  0.1982 -1.1399
 6151TIP3    H240013   4.466   4.137   2.536  0.0839  0.0223 -0.0048
 6152TIP3   OH240014   3.452   4.042   2.091 -0.4593  0.0297  0.3040
 6152TIP3    H140015   3.490   4.105   2.151 -0.7695 -0.5733  1.1492
 6152TIP3    H240016   3.365   4.024   2.126 -1.0334  0.4017 -0.8722
 6153TIP3   OH240017   5.872   6.497   1.856 -0.4803  0.1725  0.1715
 6153TIP3    H140018   5.865   6.555   1.780  1.8621  0.9048  0.4332
 6153TIP3    H240019   5.820   6.420   1.832 -0.7988  0.8903 -1.6485
 6154TIP3   OH240020   0.989   2.035   1.645 -0.0014 -0.4518  0.1573
 6154TIP3    H140021   1.026   2.088   1.715 -0.8387  1.1266 -0.5287
 6154TIP3    H240022   0.911   1.995   1.683  0.7619 -1.4189  0.7489
 6155TIP3   OH240023   4.525   0.544   7.483 -0.9688 -0.1372 -0.1283
 6155TIP3    H140024   4.590   0.600   7.441 -1.7097  0.5941 -0.3453
 6155TIP3    H240025   4.554   0.537   7.574  0.3724 -1.3097 -0.6103
 6156TIP3   OH240026   0.687   5.034   1.272 -0.0304 -0.3214  0.2660
 6156TIP3    H140027   0.599   5.031   1.311  0.7300  0.2262  2.1413
 6156TIP3    H240028   0.686   4.965   1.205 -1.8031 -0.4973  0.4252
 6157TIP3   OH240029   5.081   2.441   0.667 -0.2475 -0.1387  0.1110
 6157TIP3    H140030   5.112   2.484   0.588  0.8223 -0.2140  0.4701
 6157TIP3    H240031   5.161   2.424   0.718 -0.9532  0.3442  1.4193
 6158TIP3   OH240032   0.755   4.314   0.264  0.2252 -0.6802 -0.5559
 6158TIP3    H140033   0.799   4.267   0.334  0.8430 -1.0658 -1.1851
 6158TIP3    H240034   0.793   4.402   0.266  1.7119 -1.2516 -1.6429
 6159TIP3   OH240035   3.888   4.374   7.084 -0.3156 -0.1674  0.5516
 6159TIP3    H140036   3.826   4.313   7.124 -0.6438 -0.6912 -0.7270
 6159TIP3    H240037   3.854   4.389   6.996  0.6987  0.5206  0.2611
 6160TIP3   OH240038   0.355   4.886   7.496  0.6126  0.0076 -0.2645
 6160TIP3    H140039   0.435   4.869   7.547  0.2553  1.1486  0.7401
 6160TIP3    H240040   0.357   4.821   7.426  2.5348  0.1257 -0.3924
 6161TIP3   OH240041   4.884   3.841   0.084  0.0053  0.5118 -0.2039
 6161TIP3    H140042   4.836   3.906   0.135  0.4441  1.4940 -1.0129
 6161TIP3    H240043   4.873   3.868  -0.007 -0.7470 -1.2009 -0.6621
 6162TIP3   OH240044   3.321   0.482   8.370  0.0682 -0.4150 -0.2561
 6162TIP3    H140045   3.277   0.530   8.300  2.2650  1.4247 -0.4841
 6162TIP3    H240046   3.301   0.532   8.449 -0.5403 -1.1878  0.0870
 6163TIP3   OH240047   0.134   6.455   1.332 -0.5737  0.2991  0.2989
 6163TIP3    H140048   0.221   6.417   1.331 -0.8662 -0.4203  0.9996
 6163TIP3    H240049   0.146   6.540   1.374 -0.0458  0.6637 -0.5642
 6164TIP3   OH240050   1.379   1.414   0.601 -0.1986 -0.9239  0.0496
 6164TIP3    H140051   1.457   1.456   0.637 -0.5002 -0.1514 -0.1730
 6164TIP3    H240052   1.370   1.332   0.650 -1.4402  0.7352  2.8099
 6165TIP3   OH240053   1.511   4.176   2.029 -0.1293  0.1863 -0.1981
 6165TIP3    H140054   1.557   4.117   2.089 -0.7991  0.4671  0.6140
 6165TIP3    H240055   1.457   4.231   2.086 -0.9533  0.3174 -1.0773
 6166TIP3   OH240056   4.937   4.963   7.634  0.6172 -0.2066 -0.7805
 6166TIP3    H140057   4.925   4.880   7.587  0.5794 -0.5648 -0.1473
 6166TIP3    H240058   4.900   4.947   7.720  0.7314  0.4323 -0.6133
 6167TIP3   OH240059   4.174   3.089   1.276  0.6896 -0.5117  0.3047
 6167TIP3    H140060   4.170   2.998   1.308  2.0758 -0.0773  1.9301
 6167TIP3    H240061   4.145   3.141   1.351 -0.0903  0.4014 -0.6178
 6168TIP3   OH240062   4.276   2.813   7.952  0.5071  0.4780 -0.3830
 6168TIP3    H140063   4.271   2.849   7.864 -0.1112 -0.8865 -0.9368
 6168TIP3    H240064   4.258   2.720   7.941 -1.1481  0.5317  1.3717
 6169TIP3   OH240065   3.174   4.963   7.920 -0.1651 -0.4353 -0.2789
 6169TIP3    H140066   3.169   4.920   7.834  1.0700 -0.2429 -0.4681
 6169TIP3    H240067   3.114   5.037   7.914 -2.5073 -2.2135  0.1261
 6170TIP3   OH240068   1.075   2.794   7.202  0.3274 -0.5790 -0.3801
 6170TIP3    H140069   1.041   2.725   7.145 -0.2648  0.8072 -1.7766
 6170TIP3    H240070   1.119   2.747   7.273  1.4782 -2.3735 -2.1873
 6171TIP3   OH240071   4.897   2.214   1.002 -0.2738 -0.4769  0.0909
 6171TIP3    H140072   4.874   2.191   0.912 -0.3129 -1.6287  0.3755
 6171TIP3    H240073   4.937   2.300   0.996  0.6526 -0.9732 -1.1674
 6172TIP3   OH240074   1.184   3.672   2.134  0.0942 -1.0327  0.5076
 6172TIP3    H140075   1.221   3.757   2.158 -2.9435  0.6520 -0.2194
 6172TIP3    H240076   1.212   3.613   2.204  1.3743  0.8248  1.6541
 6173TIP3   OH240077   3.108   5.730   2.157  0.6646 -0.8562  0.0887
 6173TIP3    H140078   3.127   5.644   2.194  1.2025 -0.9897 -0.4657
 6173TIP3    H240079   3.146   5.792   2.219 -1.0865 -0.9308  1.3008
 6174TIP3   OH240080   1.918   0.397   8.366  0.0414  0.0182  0.2712
 6174TIP3    H140081   1.972   0.444   8.302  0.5718 -0.1872  0.5670
 6174TIP3    H240082   1.858   0.345   8.313 -0.0047  0.4050 -0.0602
 6175TIP3   OH240083   6.287   5.419   0.812  0.4579 -0.2540  0.1800
 6175TIP3    H140084   6.230   5.445   0.739  2.3939 -0.8468 -1.6231
 6175TIP3    H240085   6.270   5.485   0.880  0.1857  1.6490 -1.6461
 6176TIP3   OH240086   2.058   2.026   1.443 -0.7508 -0.1010 -0.1372
 6176TIP3    H140087   2.050   2.109   1.397 -0.2021  0.1574  0.2233
 6176TIP3    H240088   2.117   1.974   1.388 -0.8596 -0.1432 -0.2136
 6177TIP3   OH240089   2.509   4.881   1.170  0.0232  0.2675 -0.7865
 6177TIP3    H140090   2.491   4.817   1.239  0.3402 -0.4154 -1.3288
 6177TIP3    H240091   2.599   4.909   1.186 -0.1414  0.6378 -0.5034
 6178TIP3   OH240092   1.721   5.552   7.199 -0.3337  0.7974  0.3385
 6178TIP3    H140093   1.804   5.504   7.194 -0.5313  0.5153 -0.3720
 6178TIP3    H240094   1.675   5.528   7.118 -0.9084  1.3185  0.5074
 6179TIP3   OH240095   1.548   0.916   8.268  0.5533 -0.3564  0.6682
 6179TIP3    H140096   1.616   0.979   8.290  0.0733 -0.4099  2.4019
 6179TIP3    H240097   1.490   0.914   8.344 -0.3289 -1.7191  0.0130
 6180TIP3   OH240098   4.836   5.985   7.562  0.5230 -0.4226  0.0403
 6180TIP3    H140099   4.842   5.893   7.539 -1.3994 -1.6284  3.6198
 6180TIP3    H240100   4.817   5.986   7.656  0.1583  3.6222  0.1282
 6181TIP3   OH240101   4.021   3.650   1.247  0.2396 -0.1267 -0.1784
 6181TIP3    H140102   4.042   3.687   1.332 -3.8359  2.0294  0.1413
 6181TIP3    H240103   4.002   3.557   1.264  0.3723  0.0684  1.0719
 6182TIP3   OH240104   1.436   0.359   8.584  0.2752  0.3222 -0.2325
 6182TIP3    H140105   1.519   0.403   8.563 -0.9517  2.2266 -1.3947
 6182TIP3    H240106   1.369   0.425   8.565 -1.4253 -0.3973  2.7042
 6183TIP3   OH240107   5.135   6.508   2.564 -0.3256 -0.6524 -0.2072
 6183TIP3    H140108   5.099   6.461   2.640  0.6683 -1.6553 -0.3244
 6183TIP3    H240109   5.062   6.513   2.502 -1.7290  1.8447  1.4802
 6184TIP3   OH240110   6.881   0.530   7.350  0.3097 -1.0478  0.0328
 6184TIP3    H140111   6.930   0.492   7.423 -1.9231 -1.1012  1.6159
 6184TIP3    H240112   6.790   0.504   7.367 -0.8163  1.9897 -0.7403
 6185TIP3   OH240113   5.618   1.948   2.098 -0.2415 -0.0980  0.0361
 6185TIP3    H140114   5.643   2.026   2.047  0.8370 -0.8353 -0.5857
 6185TIP3    H240115   5.522   1.945   2.089 -0.1620  0.3235 -1.1858
 6186TIP3   OH240116   5.773   6.160   7.641 -0.8777 -0.7439 -0.0094
 6186TIP3    H140117   5.785   6.112   7.724 -0.9696  1.4635  1.3651
 6186TIP3    H240118   5.741   6.246   7.668 -0.3025  0.2677 -2.3272
 6187TIP3   OH240119   0.706   2.011   7.167  0.3170 -0.1722 -0.0693
 6187TIP3    H140120   0.653   2.050   7.098 -1.3488 -2.0189  0.1091
 6187TIP3    H240121   0.756   1.942   7.123 -0.2957 -0.9484  0.4264
 6188TIP3   OH240122   4.681   6.854   6.825 -0.2110  0.1271 -0.5100
 6188TIP3    H140123   4.674   6.945   6.853  1.8084  0.6813 -1.5867
 6188TIP3    H240124   4.657   6.856   6.732 -1.3595 -0.6770 -0.2478
 6189TIP3   OH240125   5.845   0.291   1.326 -0.1277  0.2774 -0.8407
 6189TIP3    H140126   5.936   0.307   1.300  0.5968  0.8819  1.7563
 6189TIP3    H240127   5.816   0.374   1.365 -1.4892 -0.2047 -0.7728
 6190TIP3   OH240128   0.655   3.767   1.338  0.5678  0.1034  0.3287
 6190TIP3    H140129   0.694   3.682   1.356  0.1048 -0.3012 -0.5073
 6190TIP3    H240130   0.729   3.827   1.334  1.1389 -0.6674 -1.3381
 6191TIP3   OH240131   2.781   6.434   1.259  0.3867  0.3662  0.6100
 6191TIP3    H140132   2.849   6.366   1.264 -0.4362 -0.4963  0.2803
 6191TIP3    H240133   2.799   6.480   1.178  1.2038  0.8271  1.0417
 6192TIP3   OH240134   0.091   6.408   7.110 -0.3203 -0.4892  0.0766
 6192TIP3    H140135   0.155   6.476   7.090  0.9958 -1.3475  1.2390
 6192TIP3    H240136   0.089   6.353   7.032  0.1401 -0.2880 -0.0810
 6193TIP3   OH240137   0.716   5.718   8.475 -0.0495  0.4696 -0.7852
 6193TIP3    H140138   0.775   5.712   8.550 -0.5034 -0.8235 -0.4986
 6193TIP3    H240139   0.653   5.647   8.488 -0.3115  0.3910 -2.2490
 6194TIP3   OH240140   3.506   0.449   2.272 -0.2085 -0.4786 -0.4338
 6194TIP3    H140141   3.585   0.432   2.324  1.0842  0.1943 -2.0936
 6194TIP3    H240142   3.497   0.544   2.273 -2.4581 -0.6314  1.7286
 6195TIP3   OH240143   0.416   2.686   2.237  0.4088 -0.4644 -0.5970
 6195TIP3    H140144   0.498   2.736   2.242 -0.9313  1.7641  1.3038
 6195TIP3    H240145   0.378   2.693   2.325 -2.3506 -0.4320 -1.6744
 6196TIP3   OH240146   0.022   6.587   7.927  0.5100 -0.7948 -0.1853
 6196TIP3    H140147  -0.001   6.503   7.966 -0.1207 -0.6640 -0.2770
 6196TIP3    H240148   0.025   6.570   7.833 -1.4568 -0.2946 -0.3672
 6197TIP3   OH240149   6.054   5.746   8.471 -0.4898  0.1085  0.5050
 6197TIP3    H140150   6.098   5.673   8.429 -1.7353 -1.3597  1.6556
 6197TIP3    H240151   6.026   5.802   8.398  1.0669 -0.1880 -0.3536
 6198TIP3   OH240152   6.777   1.419   7.640  0.0733 -0.1354 -0.0167
 6198TIP3    H140153   6.817   1.480   7.702  2.4824 -1.4523 -0.1671
 6198TIP3    H240154   6.813   1.333   7.664 -0.4100 -0.9586 -2.0293
 6199TIP3   OH240155   1.353   2.898   0.128 -0.4121 -0.2254  0.2769
 6199TIP3    H140156   1.414   2.861   0.064  0.9304 -1.7719  2.3048
 6199TIP3    H240157   1.290   2.828   0.144 -0.4635 -0.0420  0.9221
 6200TIP3   OH240158   2.053   4.172   8.234  0.2796 -0.1194 -0.2317
 6200TIP3    H140159   2.089   4.232   8.299  0.1158 -1.6574  1.3631
 6200TIP3    H240160   1.962   4.160   8.260 -0.2076  0.3528 -1.6406
 6201TIP3   OH240161   1.940   5.634   2.463  0.5861  0.1598 -0.3080
 6201TIP3    H140162   1.952   5.539   2.456  0.1105  0.0088  0.7738
 6201TIP3    H240163   1.845   5.646   2.460  0.6586  0.8727 -3.2508
 6202TIP3   OH240164   4.061   2.407   0.962 -0.2224 -0.1174  0.2621
 6202TIP3    H140165   4.041   2.397   1.055  0.0081 -0.0406  0.3204
 6202TIP3    H240166   3.983   2.374   0.917 -0.9853  1.2999  0.5045
 6203TIP3   OH240167   0.624   2.919   7.672  0.3016 -0.0589  0.1318
 6203TIP3    H140168   0.638   3.014   7.665  1.2809 -0.2827 -1.4048
 6203TIP3    H240169   0.548   2.910   7.731 -1.1375  1.7638 -1.3270
 6204TIP3   OH240170   1.261   1.976   1.941 -0.1157 -0.0934  0.6936
 6204TIP3    H140171   1.228   2.061   1.914  0.3062  0.0693  0.6820
 6204TIP3    H240172   1.186   1.932   1.982 -0.4596  0.0931  0.2630
 6205TIP3   OH240173   1.939   3.487   1.725 -0.2131  0.0593  0.4257
 6205TIP3    H140174   1.877   3.430   1.679  1.1586 -1.1781  0.0583
 6205TIP3    H240175   2.002   3.427   1.764 -0.2530  1.2002  2.3512
 6206TIP3   OH240176   5.168   2.547   0.425  0.0270  0.1050  0.0073
 6206TIP3    H140177   5.171   2.634   0.465  1.2007  0.2310 -0.3221
 6206TIP3    H240178   5.221   2.555   0.345 -1.6149 -0.3483 -1.1973
 6207TIP3   OH240179   2.214   3.838   0.486 -0.0532 -0.0133 -0.2684
 6207TIP3    H140180   2.295   3.861   0.440 -0.2003  1.0694 -0.0271
 6207TIP3    H240181   2.218   3.889   0.567 -1.6403  1.2153 -0.9148
 6208TIP3   OH240182   0.819   6.313   1.095  0.0955 -0.1310 -0.2123
 6208TIP3    H140183   0.795   6.396   1.138 -1.6170 -1.3893  1.4783
 6208TIP3    H240184   0.788   6.246   1.156 -1.5112 -2.0696 -2.9629
 6209TIP3   OH240185   3.047   0.458   7.559 -0.2698  0.2255  0.4580
 6209TIP3    H140186   3.084   0.372   7.539  1.7579  0.6158  2.2003
 6209TIP3    H240187   2.990   0.443   7.634 -0.0109  0.3920  0.6872
 6210TIP3   OH240188   6.523   3.666   7.202 -0.1551  0.5165  1.0112
 6210TIP3    H140189   6.568   3.751   7.200 -0.4393  0.6988  2.0459
 6210TIP3    H240190   6.584   3.606   7.160  0.2557  1.1338  0.7056
 6211TIP3   OH240191   5.992   5.735   1.228 -0.1062 -0.0308 -1.2011
 6211TIP3    H140192   6.079   5.732   1.188 -0.1267 -0.0106 -1.2471
 6211TIP3    H240193   5.937   5.782   1.165 -0.3158 -0.6590 -1.4943
 6212TIP3   OH240194   4.031   0.020   2.595  0.1596 -0.7371 -0.0368
 6212TIP3    H140195   3.968  -0.046   2.624 -1.4330  0.3924 -0.7119
 6212TIP3    H240196   4.007   0.036   2.503  2.6635 -1.5877 -0.9071
 6213TIP3   OH240197   5.901   0.655   7.387  0.1682 -0.5118  0.1262
 6213TIP3    H140198   5.868   0.732   7.342 -0.1619  0.5972  2.1392
 6213TIP3    H240199   5.936   0.599   7.317  1.4155  1.9130 -1.3300
 6214TIP3   OH240200   3.346   6.825   0.037 -0.0802  0.3299  0.2252
 6214TIP3    H140201   3.325   6.905  -0.010 -0.9350 -0.7363 -1.3007
 6214TIP3    H240202   3.271   6.810   0.094  0.1801  0.7244  0.6740
 6215TIP3   OH240203   5.538   0.709   8.122 -0.4788  0.1332  0.2478
 6215TIP3    H140204   5.609   0.645   8.112 -0.6188  0.2347 -1.8790
 6215TIP3    H240205   5.560   0.778   8.059 -0.6389  1.9463  2.0640
 6216TIP3   OH240206   4.344   5.309   0.231  0.0886 -0.0400 -0.2220
 6216TIP3    H140207   4.311   5.275   0.148  0.7604 -1.1906 -0.0368
 6216TIP3    H240208   4.438   5.297   0.226  0.0454 -1.1016  1.1185
 6217TIP3   OH240209   4.876   3.453   7.761 -0.1751  0.7832 -0.3330
 6217TIP3    H140210   4.950   3.396   7.740 -0.2902  0.4779  0.0842
 6217TIP3    H240211   4.800   3.411   7.723 -0.6295 -0.5611  1.8700
 6218TIP3   OH240212   3.416   1.437   1.364 -0.6405  0.1195 -0.6679
 6218TIP3    H140213   3.355   1.364   1.374  1.9358 -2.2795 -1.1648
 6218TIP3    H240214   3.443   1.458   1.453  1.4516 -2.2982 -0.5998
 6219TIP3   OH240215   1.987   6.589   1.142 -0.4755  0.6096  0.3648
 6219TIP3    H140216   2.080   6.600   1.162 -0.1466  1.2520 -1.3397
 6219TIP3    H240217   1.985   6.565   1.050 -1.9064 -1.6434  0.8936
 6220TIP3   OH240218   4.826   2.937   1.024  0.0508  0.9062  0.3106
 6220TIP3    H140219   4.880   2.876   1.075 -0.6741 -0.3683 -0.4041
 6220TIP3    H240220   4.770   2.979   1.090  1.4024  1.7360  0.9684
 6221TIP3   OH240221   3.650   1.532   8.393 -0.0880  0.2436 -0.2648
 6221TIP3    H140222   3.693   1.543   8.478 -0.4002  0.1893 -0.0987
 6221TIP3    H240223   3.606   1.616   8.377 -2.4956 -0.6775  1.0182
 6222TIP3   OH240224   4.317   1.266   2.085 -0.2155 -0.3224 -0.3292
 6222TIP3    H140225   4.329   1.171   2.084  0.4390 -0.3311  2.0216
 6222TIP3    H240226   4.404   1.301   2.064 -0.3597 -0.2345 -0.7900
 6223TIP3   OH240227   5.278   0.023   6.852  0.4213 -0.1231  0.3481
 6223TIP3    H140228   5.360  -0.000   6.896  0.3538  0.3059  0.7101
 6223TIP3    H240229   5.217   0.041   6.924  0.5664  1.5130  0.0902
 6224TIP3   OH240230   3.101   6.761   0.517 -0.1912 -0.0560  0.1202
 6224TIP3    H140231   3.036   6.772   0.587  0.5717 -0.4155  0.9068
 6224TIP3    H240232   3.114   6.666   0.512 -2.2156 -0.3114 -2.3940
 6225TIP3   OH240233   0.488   1.376   1.165  0.1366 -0.1760 -0.1339
 6225TIP3    H140234   0.513   1.307   1.227 -0.3347  0.3777  0.6924
 6225TIP3    H240235   0.419   1.337   1.112  0.7409 -0.7504 -0.5122
 6226TIP3   OH240236   6.229   4.761   1.835  0.5101  0.1305 -0.5085
 6226TIP3    H140237   6.174   4.796   1.905 -0.4514 -3.0066  0.4518
 6226TIP3    H240238   6.169   4.745   1.762  0.7443 -0.4709 -0.5718
 6227TIP3   OH240239   2.390   0.867   7.792  0.4964  0.2609  0.4153
 6227TIP3    H140240   2.363   0.780   7.820  1.8235 -0.7358 -1.1814
 6227TIP3    H240241   2.485   0.859   7.776  0.6423  1.9795  0.2064
 6228TIP3   OH240242   0.358   4.329   2.360 -0.2722 -0.1412 -0.0885
 6228TIP3    H140243   0.326   4.240   2.342 -0.3260 -0.4697  1.5202
 6228TIP3    H240244   0.453   4.321   2.357 -0.2309 -0.6589  1.7416
 6229TIP3   OH240245   3.980   2.646   8.125 -0.1820 -0.3853  0.5210
 6229TIP3    H140246   3.901   2.674   8.171 -1.5044 -0.1929 -1.6864
 6229TIP3    H240247   4.024   2.728   8.101  0.8219 -0.4964  1.8931
 6230TIP3   OH240248   3.964   1.961   1.776 -0.3970 -0.6285 -0.1654
 6230TIP3    H140249   3.941   1.960   1.683 -1.5653  0.7993  0.0633
 6230TIP3    H240250   3.891   1.915   1.818 -1.4231  1.3269  0.2923
 6231TIP3   OH240251   3.065   5.263   2.164 -0.7806 -0.2574  0.1044
 6231TIP3    H140252   3.124   5.237   2.234  0.1992 -1.2815 -1.0517
 6231TIP3    H240253   2.984   5.287   2.208  0.2497  0.4833  1.6818
 6232TIP3   OH240254   5.749   6.512   6.967 -0.1005 -0.5478 -0.1682
 6232TIP3    H140255   5.694   6.528   7.044 -0.0891 -0.2658 -0.2146
 6232TIP3    H240256   5.837   6.535   6.995 -0.1471 -0.1067 -0.3629
 6233TIP3   OH240257   2.089   4.315   6.925  0.6360 -0.5779 -0.1097
 6233TIP3    H140258   2.044   4.372   6.987 -0.9690 -1.7664 -0.1164
 6233TIP3    H240259   2.020   4.260   6.888  2.1338 -2.8161  0.1887
 6234TIP3   OH240260   2.348   2.868   7.387  0.3936  0.1849 -0.2821
 6234TIP3    H140261   2.409   2.795   7.372 -0.7291 -0.6325 -1.0286
 6234TIP3    H240262   2.398   2.946   7.363  2.1737 -0.1261  2.1011
 6235TIP3   OH240263   3.528   2.289   0.349 -0.9138 -0.3130  0.1993
 6235TIP3    H140264   3.537   2.217   0.286 -3.0288 -0.9034  0.4929
 6235TIP3    H240265   3.469   2.255   0.416 -1.9968  1.6921  0.3469
 6236TIP3   OH240266   0.457   3.980   7.741 -0.6346  0.3774  0.2739
 6236TIP3    H140267   0.369   4.018   7.752  0.0687  1.9344  0.8683
 6236TIP3    H240268   0.493   4.026   7.665 -0.3838 -0.3489 -0.0469
 6237TIP3   OH240269   0.243   6.069   8.443  0.5722 -0.2874  0.0550
 6237TIP3    H140270   0.213   6.138   8.502  0.8833  1.2683 -1.4936
 6237TIP3    H240271   0.208   5.988   8.480 -0.2383  0.7489  1.6700
 6238TIP3   OH240272   4.755   5.614   7.289 -0.2538 -0.4315 -0.3337
 6238TIP3    H140273   4.698   5.580   7.358  0.4283  0.7016  0.8522
 6238TIP3    H240274   4.697   5.632   7.215 -1.2781 -0.1919  0.5137
 6239TIP3   OH240275   5.607   5.128   6.734 -0.4825 -0.4655  0.0144
 6239TIP3    H140276   5.645   5.058   6.680  2.0166 -0.8634  2.0601
 6239TIP3    H240277   5.651   5.207   6.704 -0.0672 -0.4874  0.5425
 6240TIP3   OH240278   4.235   3.995   8.006  0.1556 -0.4469  0.4219
 6240TIP3    H140279   4.184   3.914   8.008  1.5382 -1.4314 -1.0146
 6240TIP3    H240280   4.201   4.047   8.079 -0.0732 -2.7434  2.0613
 6241TIP3   OH240281   1.712   6.705   6.866  0.7368  0.0755  0.1482
 6241TIP3    H140282   1.775   6.640   6.833  0.0122 -0.9855  0.7990
 6241TIP3    H240283   1.631   6.656   6.877 -0.1548  1.3712 -0.4272
 6242TIP3   OH240284   4.990   3.947   7.607 -0.4092  0.1479  0.4941
 6242TIP3    H140285   4.944   3.887   7.549 -0.9669  1.0730 -0.0454
 6242TIP3    H240286   5.051   3.891   7.655 -1.7380 -1.0416  0.8827
 6243TIP3   OH240287   3.709   6.449   1.418 -0.7622 -0.2392 -0.8173
 6243TIP3    H140288   3.749   6.451   1.505 -1.5228  0.1220 -0.4760
 6243TIP3    H240289   3.781   6.423   1.360  0.5714  2.4464 -0.5264
 6244TIP3   OH240290   1.847   5.968   8.534 -0.0248 -0.5280 -0.5589
 6244TIP3    H140291   1.915   6.001   8.476  1.9876  0.5752  2.1815
 6244TIP3    H240292   1.766   6.008   8.503  1.4031  2.2407 -0.9952
 6245TIP3   OH240293   5.215   3.384   7.799 -0.2491 -0.3013 -0.8729
 6245TIP3    H140294   5.178   3.427   7.876  0.3066  0.5883 -1.0836
 6245TIP3    H240295   5.195   3.291   7.811 -0.4391 -0.1354  0.1893
 6246TIP3   OH240296   2.515   2.739   1.399  0.2174 -0.4916  0.1957
 6246TIP3    H140297   2.420   2.730   1.409  0.1138 -2.4102 -1.6793
 6246TIP3    H240298   2.549   2.742   1.488 -1.6580  1.4884  0.9169
 6247TIP3   OH240299   0.252   1.954   1.964 -0.2327  0.3066 -0.4166
 6247TIP3    H140300   0.302   1.988   1.889  0.6936  1.6934  0.7724
 6247TIP3    H240301   0.212   1.874   1.931 -0.1702  1.0686 -2.5138
 6248TIP3   OH240302   0.997   5.039   2.362 -0.0824  0.3660  0.1497
 6248TIP3    H140303   1.021   5.130   2.347  1.5227 -0.1593 -0.6892
 6248TIP3    H240304   1.067   5.004   2.417  1.2040 -1.2171 -2.3259
 6249TIP3   OH240305   5.329   0.829   8.224  0.0139  0.2191  0.0084
 6249TIP3    H140306   5.401   0.770   8.201 -1.7205 -1.1904 -2.2499
 6249TIP3    H240307   5.295   0.860   8.140 -0.7084  2.5634  1.0752
 6250TIP3   OH240308   6.274   1.295   0.067 -0.1905 -0.1230  0.3296
 6250TIP3    H140309   6.192   1.311   0.022 -0.3137 -1.3359  0.0798
 6250TIP3    H240310   6.306   1.213   0.030  1.0596  0.2551  0.5273
 6251TIP3   OH240311   3.944   6.477   8.327 -0.5661 -0.4091  0.3132
 6251TIP3    H140312   4.039   6.471   8.316 -0.5790  0.9540 -0.9832
 6251TIP3    H240313   3.919   6.395   8.370  1.0531 -1.2476 -0.2597
 6252TIP3   OH240314   1.420   3.250   0.463  0.7241  0.4239 -0.2489
 6252TIP3    H140315   1.346   3.208   0.420  0.3673 -0.0359  0.7830
 6252TIP3    H240316   1.493   3.239   0.401  0.3930 -0.8213 -0.4433
 6253TIP3   OH240317   6.686   4.203   2.199  0.0376  0.4352 -0.4554
 6253TIP3    H140318   6.620   4.156   2.250  1.0299 -0.4867  0.0384
 6253TIP3    H240319   6.640   4.235   2.122 -1.2876  1.0317  0.5605
 6254TIP3   OH240320   2.182   5.903   0.145  0.6788  0.8419  0.2683
 6254TIP3    H140321   2.161   5.813   0.170 -0.0040  1.1467  0.8334
 6254TIP3    H240322   2.185   5.950   0.229  2.9793  0.9619  0.1815
 6255TIP3   OH240323   5.334   6.126   8.589 -0.1535  0.3633 -0.0549
 6255TIP3    H140324   5.340   6.070   8.512 -1.1779  0.1938 -0.0357
 6255TIP3    H240325   5.423   6.155   8.606  0.1339  0.0841 -1.0647
 6256TIP3   OH240326   6.022   4.525   7.519  0.2910 -0.1104 -0.3506
 6256TIP3    H140327   5.959   4.590   7.488  0.0586 -0.5429 -0.7827
 6256TIP3    H240328   6.072   4.572   7.586 -0.4606  0.2478 -0.0222
 6257TIP3   OH240329   0.528   5.775   0.616 -0.5443 -0.2578  0.0970
 6257TIP3    H140330   0.444   5.808   0.585 -1.4273 -2.4547 -0.0020
 6257TIP3    H240331   0.506   5.705   0.678  1.1012 -2.7241 -1.8838
 6258TIP3   OH240332   4.637   4.812   0.914 -0.6309 -0.1409 -0.1557
 6258TIP3    H140333   4.615   4.725   0.948 -3.7750  1.2257  1.7547
 6258TIP3    H240334   4.710   4.841   0.968 -1.0945 -0.7156  0.8082
 6259TIP3   OH240335   3.879   3.884   0.106  0.4032  0.3546  0.5135
 6259TIP3    H140336   3.812   3.857   0.168  0.1076  1.6162  0.7745
 6259TIP3    H240337   3.953   3.911   0.161  0.2762  1.1240  0.3174
 6260TIP3   OH240338   6.336   2.830   6.641  0.4782 -0.2705 -0.5248
 6260TIP3    H140339   6.385   2.820   6.723 -0.4368  0.5671  0.1604
 6260TIP3    H240340   6.401   2.818   6.572  0.9433 -2.7851  0.2662
 6261TIP3   OH240341   4.441   1.205   1.519 -0.6351 -0.2362 -0.0252
 6261TIP3    H140342   4.533   1.232   1.523 -0.2253 -0.7621 -3.3197
 6261TIP3    H240343   4.392   1.280   1.554  0.9585  0.5653  0.5648
 6262TIP3   OH240344   0.043   2.876   8.536  0.3672  0.1344  0.0699
 6262TIP3    H140345  -0.046   2.904   8.555  0.5707 -0.3034  1.7860
 6262TIP3    H240346   0.097   2.951   8.561  0.7050 -0.7478  2.1708
 6263TIP3   OH240347   0.110   1.393   1.198  0.1298  0.1794  0.2841
 6263TIP3    H140348   0.054   1.316   1.204  0.3168 -0.0677 -0.8991
 6263TIP3    H240349   0.176   1.370   1.133  0.2883  1.2742  0.0347
 6264TIP3   OH240350   3.874   2.568   1.592 -0.0646  0.0908 -0.1049
 6264TIP3    H140351   3.874   2.653   1.637 -2.9806  1.1806 -1.8714
 6264TIP3    H240352   3.963   2.534   1.605  0.3193  1.9043  3.3404
 6265TIP3   OH240353   4.225   4.193   0.031 -0.4676  0.1330  0.1173
 6265TIP3    H140354   4.274   4.203   0.113 -0.2405  0.0229 -0.0055
 6265TIP3    H240355   4.135   4.215   0.055 -0.4737 -0.2660  0.4894
 6266TIP3   OH240356   2.127   1.385   0.062  1.1565 -0.0326 -0.4606
 6266TIP3    H140357   2.124   1.454  -0.004 -1.5009 -0.4011 -0.8219
 6266TIP3    H240358   2.172   1.425   0.137  1.4255  1.4182 -1.3538
 6267TIP3   OH240359   5.431   6.012   1.425 -0.2641 -0.1765 -0.2196
 6267TIP3    H140360   5.451   5.934   1.374  0.5775  0.9208 -1.6332
 6267TIP3    H240361   5.516   6.055   1.438 -0.8525  1.1388 -0.5402
 6268TIP3   OH240362   6.354   0.094   8.099  0.1961 -0.2889 -0.2618
 6268TIP3    H140363   6.399   0.127   8.177  0.7498  2.3660 -1.5772
 6268TIP3    H240364   6.327   0.006   8.122  3.1367 -0.7787  1.7993
 6269TIP3   OH240365   1.092   5.754   2.361 -0.4115 -0.5764  0.5281
 6269TIP3    H140366   1.131   5.771   2.447  1.2448 -0.3526 -0.2267
 6269TIP3    H240367   1.048   5.669   2.370  0.6144 -1.0401  1.3166
 6270TIP3   OH240368   4.853   3.823   0.632  0.1305 -0.2247  0.3711
 6270TIP3    H140369   4.877   3.827   0.725  2.2569 -2.1555  0.0246
 6270TIP3    H240370   4.767   3.781   0.631 -0.6045  1.1730  1.4904
 6271TIP3   OH240371   2.804   4.526   6.758  0.5132 -0.6500  0.1956
 6271TIP3    H140372   2.820   4.526   6.664 -2.3380  0.1446 -0.3911
 6271TIP3    H240373   2.853   4.601   6.791 -0.4997  0.6728 -1.1530
 6272TIP3   OH240374   4.870   6.004   7.852 -0.8904  0.5945  0.0542
 6272TIP3    H140375   4.866   6.045   7.938  1.8453  0.0308  0.5398
 6272TIP3    H240376   4.959   6.023   7.820 -1.5881  0.2032 -2.3708
 6273TIP3   OH240377   2.774   0.820   8.262  0.0213 -0.5124 -0.0894
 6273TIP3    H140378   2.823   0.892   8.303  0.7293 -1.0340 -0.0010
 6273TIP3    H240379   2.739   0.770   8.336  2.4415 -2.2493 -0.0036
 6274TIP3   OH240380   6.885   4.271   1.525  0.1143  0.6435  0.0111
 6274TIP3    H140381   6.927   4.219   1.593  1.2226  0.6743 -0.6324
 6274TIP3    H240382   6.795   4.284   1.557 -0.3478 -1.9911  0.0095
 6275TIP3   OH240383   0.685   2.036   8.137 -0.3382  0.5506 -0.4334
 6275TIP3    H140384   0.721   1.985   8.065  0.6858  1.2770 -0.4652
 6275TIP3    H240385   0.704   1.985   8.216  2.3679  1.6881 -0.2661
 6276TIP3   OH240386   1.618   1.513   8.401  0.6041  0.5101  0.0664
 6276TIP3    H140387   1.562   1.436   8.410  0.9768  0.3995  1.7707
 6276TIP3    H240388   1.701   1.489   8.443  0.3499  2.1722  1.6799
 6277TIP3   OH240389   2.345   5.852   1.880  0.4543  0.3888 -0.1648
 6277TIP3    H140390   2.425   5.804   1.859  0.8704  1.2863 -0.7019
 6277TIP3    H240391   2.274   5.800   1.842  0.4427 -1.8486  2.5868
 6278TIP3   OH240392   1.403   0.576   0.817  0.3141  0.0489 -0.3590
 6278TIP3    H140393   1.381   0.656   0.771  0.1423  0.3864  0.2970
 6278TIP3    H240394   1.487   0.549   0.779  0.3153  0.4705 -0.6637
 6279TIP3   OH240395   1.242   3.186   7.979  0.0891  0.5424 -0.5468
 6279TIP3    H140396   1.259   3.168   7.886  0.3329 -0.3251 -0.3511
 6279TIP3    H240397   1.157   3.145   7.995 -0.8528  2.3245 -0.8212
 6280TIP3   OH240398   6.494   1.078   1.902 -0.1302  0.2744 -0.2952
 6280TIP3    H140399   6.553   1.027   1.846  0.6814 -0.1740  0.9461
 6280TIP3    H240400   6.462   1.016   1.966 -0.9118  0.8319 -0.1308
 6281TIP3   OH240401   4.916   5.311   2.102  0.0850  0.3728 -0.1591
 6281TIP3    H140402   4.831   5.321   2.145  0.5594 -2.7169  1.8581
 6281TIP3    H240403   4.896   5.269   2.018 -0.4038  0.2711  0.0066
 6282TIP3   OH240404   2.783   3.822   8.227  0.1678  0.0666  0.5712
 6282TIP3    H140405   2.803   3.902   8.276 -0.7505  0.0534  0.9785
 6282TIP3    H240406   2.793   3.847   8.135 -1.1217  0.9579  0.6481
 6283TIP3   OH240407   5.028   5.633   8.357 -0.4579  0.3448 -0.2465
 6283TIP3    H140408   5.066   5.721   8.365 -1.9955  1.0027  0.2891
 6283TIP3    H240409   5.010   5.623   8.264 -0.5237  0.7105 -0.2732
 6284TIP3   OH240410   5.921   0.715   8.151 -0.2051  0.1752  0.1575
 6284TIP3    H140411   5.884   0.748   8.233  1.5714  0.1163  1.0336
 6284TIP3    H240412   5.978   0.643   8.178 -3.3928 -3.3805 -1.5959
 6285TIP3   OH240413   0.676   1.409   8.489 -0.6272  0.0974 -0.2356
 6285TIP3    H140414   0.673   1.330   8.542  0.1643  0.1211 -0.1301
 6285TIP3    H240415   0.648   1.479   8.548  2.7419  0.5591  1.0869
 6286TIP3   OH240416   2.573   1.745   7.770  0.4705  0.2950  0.0269
 6286TIP3    H140417   2.497   1.799   7.749  2.0863  2.6523 -0.1664
 6286TIP3    H240418   2.600   1.707   7.686 -0.0577  0.0480 -0.0322
 6287TIP3   OH240419   6.138   6.281   8.236  0.6464  0.1003  0.4035
 6287TIP3    H140420   6.203   6.219   8.202 -1.5348 -0.9309 -2.1794
 6287TIP3    H240421   6.137   6.353   8.173 -0.1251  0.5206  0.8733
 6288TIP3   OH240422   4.070   2.384   7.912  0.5717 -0.0654 -0.1103
 6288TIP3    H140423   3.989   2.410   7.955  0.6954 -1.7458  1.2461
 6288TIP3    H240424   4.041   2.326   7.841  0.4398  1.8960 -1.7711
 6289TIP3   OH240425   1.949   4.349   0.292  0.9282  0.3782  0.0241
 6289TIP3    H140426   2.009   4.405   0.342 -0.5656  2.5749 -0.5306
 6289TIP3    H240427   1.865   4.394   0.296 -0.0694 -1.2295 -1.5024
 6290TIP3   OH240428   1.944   3.839   0.348 -0.4604 -0.1823  0.1637
 6290TIP3    H140429   2.031   3.828   0.388  1.0755  0.7588 -2.6424
 6290TIP3    H240430   1.944   3.928   0.315 -1.9473 -0.6226 -1.1418
 6291TIP3   OH240431   4.498   4.747   7.233  0.1652 -0.2438 -0.3157
 6291TIP3    H140432   4.583   4.702   7.233 -0.3505 -1.2576  0.2392
 6291TIP3    H240433   4.441   4.689   7.183 -0.2544  0.3422 -0.5243
 6292TIP3   OH240434   0.131   4.551   1.511 -0.2991  0.2140 -0.1112
 6292TIP3    H140435   0.071   4.538   1.584  1.2333  1.3612  1.4293
 6292TIP3    H240436   0.140   4.464   1.472  0.3962 -0.9172  2.3682
 6293TIP3   OH240437   6.666   2.874   0.093  0.0088 -0.1355 -0.5043
 6293TIP3    H140438   6.603   2.918   0.036 -0.8821  0.5002  0.8975
 6293TIP3    H240439   6.635   2.783   0.099 -0.0710 -0.1253 -0.7839
 6294TIP3   OH240440   0.904   3.021   2.592 -0.5665 -0.6889 -0.0841
 6294TIP3    H140441   0.945   3.107   2.583  0.6505 -1.2139  0.2783
 6294TIP3    H240442   0.959   2.975   2.656  1.6006 -3.3547 -3.5229
 6295TIP3   OH240443   1.727   3.995   2.825 -0.3210 -0.2622  0.3120
 6295TIP3    H140444   1.821   3.991   2.806 -0.4268 -2.0572  0.0601
 6295TIP3    H240445   1.686   3.954   2.749 -1.2462 -0.5137  0.9344
 6296TIP3   OH240446   3.214   1.486   0.963  0.3422  0.7296  0.1748
 6296TIP3    H140447   3.138   1.488   0.905  0.9665  0.5046 -0.6688
 6296TIP3    H240448   3.289   1.486   0.904  0.9849 -2.0224  0.8582
 6297TIP3   OH240449   2.234   0.573   0.548 -0.0220  0.5077  0.3411
 6297TIP3    H140450   2.249   0.544   0.638 -1.9730 -1.8085  0.0080
 6297TIP3    H240451   2.291   0.517   0.495 -0.7843  0.0650 -0.0277
 6298TIP3   OH240452   0.284   5.168   7.522 -0.7323 -0.0122  0.6514
 6298TIP3    H140453   0.286   5.072   7.526  1.5795 -0.0166  0.6421
 6298TIP3    H240454   0.374   5.193   7.502 -1.5355  2.1354 -0.5536
 6299TIP3   OH240455   5.104   1.308   2.318  0.4365 -0.4391  0.0389
 6299TIP3    H140456   5.063   1.251   2.383 -0.2398  1.0918  0.9991
 6299TIP3    H240457   5.179   1.346   2.363  1.3339 -1.1209 -0.8423
 6300TIP3   OH240458   6.351   2.895   0.247  0.0445  0.2683  0.0328
 6300TIP3    H140459   6.419   2.857   0.191 -0.4446 -0.7079  0.0818
 6300TIP3    H240460   6.365   2.855   0.332 -1.6312 -1.3045 -0.3689
 6301TIP3   OH240461   2.205   0.345   8.119  1.0551 -0.2439 -0.6093
 6301TIP3    H140462   2.180   0.422   8.170 -1.6189 -0.6089 -1.2184
 6301TIP3    H240463   2.194   0.372   8.027 -2.2461 -1.8692 -0.8540
 6302TIP3   OH240464   3.759   3.262   1.507 -0.1142  0.2507 -0.5670
 6302TIP3    H140465   3.837   3.207   1.514 -0.0809  0.3848  0.1874
 6302TIP3    H240466   3.702   3.215   1.446  0.2334 -0.2429 -0.5213
 6303TIP3   OH240467   2.485   2.116   7.457 -0.3336 -0.6329 -0.4138
 6303TIP3    H140468   2.401   2.117   7.503 -0.9829  0.7166 -1.5767
 6303TIP3    H240469   2.478   2.043   7.395 -1.6412  0.9221 -2.1987
 6304TIP3   OH240470   4.136   5.740   8.417  0.2026  0.0167 -0.3795
 6304TIP3    H140471   4.051   5.721   8.376 -0.2182  2.2678 -0.6891
 6304TIP3    H240472   4.114   5.791   8.495  1.2518  0.7666 -0.5492
 6305TIP3   OH240473   6.546   5.012   7.215  0.3850  0.0456  0.4697
 6305TIP3    H140474   6.593   5.026   7.132 -0.5585 -2.5770 -0.6332
 6305TIP3    H240475   6.613   4.981   7.275  0.6519 -0.6135 -0.1477
 6306TIP3   OH240476   1.539   4.504   0.595 -0.5352 -0.0858  0.0788
 6306TIP3    H140477   1.555   4.410   0.597 -0.4093 -0.0923 -1.0822
 6306TIP3    H240478   1.448   4.513   0.623 -0.6716 -0.5765 -0.2034
 6307TIP3   OH240479   3.978   5.583   1.579 -0.2268  0.0745  0.0421
 6307TIP3    H140480   4.061   5.630   1.574 -1.3389  2.1256 -0.2266
 6307TIP3    H240481   3.977   5.545   1.667  1.8027 -1.7064 -0.6080
 6308TIP3   OH240482   5.870   2.222   0.920  0.3240  0.3991  0.4736
 6308TIP3    H140483   5.897   2.270   0.842 -0.1288  1.1591  0.7773
 6308TIP3    H240484   5.779   2.248   0.934 -0.5008 -1.8233 -0.3111
 6309TIP3   OH240485   2.432   3.189   2.283  0.0762 -0.0928  0.2338
 6309TIP3    H140486   2.503   3.131   2.312  0.1901  0.6432  1.5066
 6309TIP3    H240487   2.466   3.278   2.298  0.6460  0.4521 -3.3695
 6310TIP3   OH240488   0.812   1.350   2.194  0.9829 -0.0469  0.2793
 6310TIP3    H140489   0.763   1.433   2.190 -0.4247 -0.8903 -1.1285
 6310TIP3    H240490   0.761   1.295   2.254  1.7580 -0.0246  0.9820
 6311TIP3   OH240491   5.626   4.223   1.010  0.1401  0.0046  0.4562
 6311TIP3    H140492   5.680   4.300   1.027  0.2234 -0.2701  1.4929
 6311TIP3    H240493   5.561   4.253   0.947 -0.6089  1.2741  1.7850
 6312TIP3   OH240494   4.066   6.662   0.408 -0.6967  0.3870  0.2633
 6312TIP3    H140495   4.001   6.654   0.478 -0.3051 -1.5836  0.4579
 6312TIP3    H240496   4.048   6.588   0.350  0.4488  0.6609 -0.4770
 6313TIP3   OH240497   6.129   6.490   8.065  0.0975  0.0931 -0.1334
 6313TIP3    H140498   6.223   6.504   8.052  0.3745 -1.5753 -0.0585
 6313TIP3    H240499   6.089   6.568   8.027  1.4760  0.6055 -0.6295
 6314TIP3   OH240500   6.544   2.630   0.159 -0.3386 -0.1632  0.3978
 6314TIP3    H140501   6.569   2.575   0.085  1.3526  0.9531  0.0752
 6314TIP3    H240502   6.521   2.567   0.228  2.1968 -1.3560  0.2832
 6315TIP3   OH240503   6.385   0.453   0.077 -0.5804  0.5857  0.4609
 6315TIP3    H140504   6.322   0.524   0.081 -0.9715  0.2162  0.9928
 6315TIP3    H240505   6.336   0.379   0.042  0.0152  0.7716 -0.8179
 6316TIP3   OH240506   4.246   4.834   7.447  0.1928  0.6035 -0.6733
 6316TIP3    H140507   4.162   4.787   7.445  1.0715 -1.0372 -1.6752
 6316TIP3    H240508   4.299   4.791   7.380  2.6199  0.0383  1.4192
 6317TIP3   OH240509   0.033   6.887   7.343  0.6157  0.3050  0.0809
 6317TIP3    H140510   0.125   6.865   7.325  0.0509 -0.8439 -1.6173
 6317TIP3    H240511  -0.007   6.896   7.256 -0.7208  1.6090  0.7784
 6318TIP3   OH240512   2.628   6.823   8.174  0.2739  0.2277  0.0017
 6318TIP3    H140513   2.609   6.756   8.108  1.2771  0.2669 -0.3463
 6318TIP3    H240514   2.703   6.788   8.223  0.6247  0.9591  0.0062
 6319TIP3   OH240515   3.758   4.795   2.614 -0.0724 -0.6439  0.0512
 6319TIP3    H140516   3.693   4.845   2.564 -0.6864 -0.0594  1.3848
 6319TIP3    H240517   3.791   4.858   2.679  2.1540 -0.8078 -0.8614
 6320TIP3   OH240518   4.675   4.264   0.870  0.1266  0.1541 -0.4664
 6320TIP3    H140519   4.696   4.171   0.882 -1.0763  0.0319  0.9589
 6320TIP3    H240520   4.605   4.265   0.805  0.5302  0.1203 -0.9077
 6321TIP3   OH240521   6.473   6.131   0.686 -0.0137 -0.4553 -0.2227
 6321TIP3    H140522   6.426   6.174   0.614  0.2891 -0.4220 -0.4048
 6321TIP3    H240523   6.457   6.186   0.762 -1.5141 -1.2475  0.0677
 6322TIP3   OH240524   6.105   1.261   1.105 -0.4228  0.2493 -0.3590
 6322TIP3    H140525   6.039   1.214   1.156  0.9856  0.8937  2.2167
 6322TIP3    H240526   6.075   1.352   1.105 -1.3514  0.0097 -2.3782
 6323TIP3   OH240527   1.963   0.778   1.690 -0.3836 -0.2379 -0.5914
 6323TIP3    H140528   2.005   0.727   1.759  0.7044  0.6128 -0.5762
 6323TIP3    H240529   2.002   0.746   1.609  0.5737  0.7683 -0.5546
 6324TIP3   OH240530   0.698   4.026   7.876  0.6994  0.0615 -0.0554
 6324TIP3    H140531   0.624   3.974   7.845  0.4990  0.1387  0.2940
 6324TIP3    H240532   0.688   4.110   7.831  0.7786 -0.0490 -0.2839
 6325TIP3   OH240533   5.212   0.209   8.076  0.0160 -0.4507  0.4512
 6325TIP3    H140534   5.308   0.205   8.084  0.1721  0.1034 -0.8517
 6325TIP3    H240535   5.182   0.239   8.162  1.0214 -0.5623  0.8567
 6326TIP3   OH240536   3.303   0.179   6.609  0.7888  0.2762 -0.6470
 6326TIP3    H140537   3.274   0.127   6.534 -2.0720  2.3795 -1.1900
 6326TIP3    H240538   3.356   0.249   6.570  1.5417 -0.1348 -0.3689
 6327TIP3   OH240539   5.992   6.585   1.329 -0.0318  0.9737  0.2823
 6327TIP3    H140540   5.975   6.642   1.404 -1.0383  1.4248 -0.2686
 6327TIP3    H240541   5.911   6.589   1.277 -0.0274 -0.7474  0.0913
 6328TIP3   OH240542   5.162   2.782   1.522 -0.3849  0.1719  0.1766
 6328TIP3    H140543   5.175   2.687   1.520  0.4123  0.2899 -1.1057
 6328TIP3    H240544   5.069   2.793   1.542 -0.8371 -0.9307 -1.1641
 6329TIP3   OH240545   1.670   1.408   6.942  0.8312  0.5294 -0.0507
 6329TIP3    H140546   1.676   1.498   6.910 -0.0542  0.4212 -0.5762
 6329TIP3    H240547   1.683   1.354   6.864 -0.3931  0.2412 -0.0763
 6330TIP3   OH240548   1.207   1.834   1.579 -0.4691 -0.0192 -0.0174
 6330TIP3    H140549   1.117   1.855   1.604 -0.7999 -1.9134  0.5644
 6330TIP3    H240550   1.214   1.740   1.593  1.5482  0.0494 -0.2810
 6331TIP3   OH240551   2.429   2.280   6.773  0.7651 -0.2370 -0.2474
 6331TIP3    H140552   2.475   2.201   6.746  2.6616  1.0466 -1.0363
 6331TIP3    H240553   2.489   2.352   6.749 -0.4066  1.3792  1.3711
 6332TIP3   OH240554   6.783   1.641   0.224  0.0779  0.1964 -0.1832
 6332TIP3    H140555   6.842   1.596   0.162  1.3935  0.1562  1.0388
 6332TIP3    H240556   6.717   1.682   0.169 -1.3039 -3.3257 -1.3845
 6333TIP3   OH240557   0.480   5.164   7.166  0.3200  0.1308  0.2175
 6333TIP3    H140558   0.497   5.184   7.074 -0.4824  0.5993  0.1618
 6333TIP3    H240559   0.392   5.125   7.167 -0.0895  1.0248  0.8892
 6334TIP3   OH240560   5.052   6.627   0.971 -0.3427  0.2392  0.1336
 6334TIP3    H140561   5.139   6.601   1.002 -0.4011  1.7153  1.7292
 6334TIP3    H240562   5.062   6.719   0.947 -1.0691 -0.0636 -1.3963
 6335TIP3   OH240563   4.048   1.013   0.864  0.1093 -0.1815 -0.3667
 6335TIP3    H140564   4.020   1.077   0.930 -1.5553 -1.4743  0.2443
 6335TIP3    H240565   4.044   1.061   0.781 -0.2229  0.7600  0.1780
 6336TIP3   OH240566   1.350   4.063   6.704  0.3192 -0.3533  0.5670
 6336TIP3    H140567   1.338   4.157   6.694  3.3636  0.0440 -0.3136
 6336TIP3    H240568   1.290   4.038   6.774 -0.6888  2.1811  0.6968
 6337TIP3   OH240569   5.030   3.032   6.977  0.1325 -0.1378  0.0092
 6337TIP3    H140570   5.023   2.996   6.889 -0.4590 -1.1948  0.4648
 6337TIP3    H240571   4.939   3.040   7.007  0.2824  1.1274  0.1745
 6338TIP3   OH240572   5.381   0.153   1.220  0.1411 -0.4228  0.1736
 6338TIP3    H140573   5.316   0.158   1.291  0.7735  1.3709  0.6923
 6338TIP3    H240574   5.439   0.228   1.236  0.5557 -0.2135 -2.0018
 6339TIP3   OH240575   4.538   4.201   0.157  0.1630 -0.0936  0.7118
 6339TIP3    H140576   4.518   4.281   0.207  1.6428  1.4730 -1.0440
 6339TIP3    H240577   4.554   4.232   0.068  1.2653 -2.3131  0.0799
 6340TIP3   OH240578   6.164   3.529   1.943  1.0072 -0.3736  0.1016
 6340TIP3    H140579   6.152   3.442   1.981 -1.5669  0.5119  1.5507
 6340TIP3    H240580   6.171   3.514   1.849 -1.9512 -2.0300  0.0474
 6341TIP3   OH240581   1.597   3.407   0.613 -0.0866 -0.2313  0.9631
 6341TIP3    H140582   1.560   3.431   0.698 -2.8337  0.0995 -0.2068
 6341TIP3    H240583   1.537   3.341   0.579 -0.0917  0.8841 -1.4156
 6342TIP3   OH240584   5.583   4.387   8.579  0.3159 -0.0182 -0.0822
 6342TIP3    H140585   5.569   4.329   8.504  0.2508  0.1599 -0.2096
 6342TIP3    H240586   5.553   4.473   8.548  0.4791  0.0973  0.0800
 6343TIP3   OH240587   0.376   0.837   7.667  0.3403  0.0556 -0.0512
 6343TIP3    H140588   0.281   0.848   7.658  0.0243  0.0747  2.5556
 6343TIP3    H240589   0.393   0.852   7.760  2.9700  0.3925 -0.5187
 6344TIP3   OH240590   2.950   5.914   7.740 -0.4758 -0.2182 -0.4804
 6344TIP3    H140591   3.010   5.927   7.814  0.8665 -0.1326 -1.5393
 6344TIP3    H240592   2.905   5.833   7.760  0.5873 -0.7217 -0.0235
 6345TIP3   OH240593   5.964   3.314   7.179 -0.3179  0.5740  0.1767
 6345TIP3    H140594   6.045   3.265   7.173 -0.9929 -0.6099  0.4593
 6345TIP3    H240595   5.970   3.380   7.110  0.9260  0.5935  0.2804
 6346TIP3   OH240596   6.677   1.435   1.461  0.7496  0.0445  0.0453
 6346TIP3    H140597   6.622   1.449   1.538  0.0066 -1.9418 -0.0693
 6346TIP3    H240598   6.625   1.469   1.388  0.8465  0.6444  0.2546
 6347TIP3   OH240599   1.972   2.458   1.199  0.0557  0.0642  0.2554
 6347TIP3    H140600   1.898   2.515   1.178 -0.0619  0.4792  1.6614
 6347TIP3    H240601   1.984   2.405   1.121 -0.9535  0.8211 -0.4499
 6348TIP3   OH240602   5.795   6.292   0.902  0.5543  0.0687  0.5731
 6348TIP3    H140603   5.791   6.245   0.986  0.6580  0.9639  1.0888
 6348TIP3    H240604   5.835   6.376   0.924 -0.7812  0.8970 -0.1152
 6349TIP3   OH240605   5.767   0.613   7.623 -0.0827  0.1792  0.0295
 6349TIP3    H140606   5.832   0.614   7.553  0.2911  0.8849  0.3712
 6349TIP3    H240607   5.767   0.703   7.657 -1.0394  0.1156  0.2185
 6350TIP3   OH240608   2.210   4.093   7.695  0.1433  0.0816  0.5129
 6350TIP3    H140609   2.277   4.081   7.763  0.3831  0.8773  0.4293
 6350TIP3    H240610   2.136   4.133   7.742  0.8798  2.1077  0.0540
 6351TIP3   OH240611   5.903   4.772   7.751  0.1297  0.3622 -0.2670
 6351TIP3    H140612   5.999   4.776   7.750  0.0965  1.0712 -0.6353
 6351TIP3    H240613   5.877   4.799   7.663 -0.4721  1.9568  0.3681
 6352TIP3   OH240614   1.708   0.197   8.155  0.0320  0.0563  0.5378
 6352TIP3    H140615   1.665   0.281   8.170  1.3959  1.0228 -0.6691
 6352TIP3    H240616   1.768   0.214   8.082  2.4418 -1.1817  2.0933
 6353TIP3   OH240617   3.363   5.905   1.754 -0.6474 -0.2407  1.1616
 6353TIP3    H140618   3.307   5.879   1.682  0.4552 -1.5435  0.7305
 6353TIP3    H240619   3.326   5.863   1.831 -1.2128  0.2893  1.1897
 6354TIP3   OH240620   4.994   0.991   0.868 -0.3900  0.3397 -0.1428
 6354TIP3    H140621   4.966   1.050   0.939 -1.0781 -0.3534  0.1738
 6354TIP3    H240622   5.076   0.953   0.900 -1.9457 -1.9261  1.4939
 6355TIP3   OH240623   2.150   1.166   8.165  0.5379  0.1504  0.5986
 6355TIP3    H140624   2.177   1.246   8.121  2.6587 -0.5508  0.4984
 6355TIP3    H240625   2.134   1.104   8.094 -1.3851  0.4992  0.6611
 6356TIP3   OH240626   4.324   4.830   0.206  0.3476  0.1614  1.4135
 6356TIP3    H140627   4.342   4.749   0.158 -1.5232  0.3521  0.3318
 6356TIP3    H240628   4.290   4.890   0.140 -0.1263  1.1904  2.5644
 6357TIP3   OH240629   2.054   1.386   1.217 -0.0665  0.0406  0.4356
 6357TIP3    H140630   1.959   1.391   1.212 -0.0253  0.2476 -0.2854
 6357TIP3    H240631   2.081   1.471   1.253 -0.1594 -0.0590  0.7406
 6358TIP3   OH240632   0.130   2.042   8.456  0.0080 -0.4690 -0.0064
 6358TIP3    H140633   0.055   2.057   8.397 -0.0685 -0.6943  0.0317
 6358TIP3    H240634   0.206   2.039   8.397 -0.0145 -0.2629 -0.0473
 6359TIP3   OH240635   1.043   1.836   2.031  0.1901 -0.1798  0.6170
 6359TIP3    H140636   1.057   1.751   2.073  0.3297 -0.6508 -0.3507
 6359TIP3    H240637   0.959   1.827   1.985  0.9487 -0.3563 -0.7883
 6360TIP3   OH240638   6.603   1.851   1.505 -0.4610  0.1744 -0.0283
 6360TIP3    H140639   6.550   1.930   1.520 -0.0722  0.7179 -1.4359
 6360TIP3    H240640   6.538   1.783   1.485 -0.6920  0.5776 -0.6643
 6361TIP3   OH240641   6.447   4.074   7.544 -0.3025  0.2142 -0.5210
 6361TIP3    H140642   6.415   3.998   7.494 -1.4974  1.1604 -1.2436
 6361TIP3    H240643   6.400   4.069   7.627  0.5180 -0.4727 -0.0675
 6362TIP3   OH240644   2.436   3.230   7.686 -0.7204  0.2759 -0.5521
 6362TIP3    H140645   2.521   3.241   7.645 -0.2182 -0.9590  0.1176
 6362TIP3    H240646   2.388   3.170   7.629 -0.8200  0.2792 -0.4731
 6363TIP3   OH240647   2.498   4.163   1.088 -0.1147  0.2203  0.6408
 6363TIP3    H140648   2.422   4.116   1.053  0.0906 -1.1708  1.9473
 6363TIP3    H240649   2.463   4.246   1.120 -0.5694  0.8325 -1.2807
 6364TIP3   OH240650   6.317   2.219   0.357 -0.4134  0.2412  0.0724
 6364TIP3    H140651   6.259   2.163   0.410  0.8819  1.1894  2.6959
 6364TIP3    H240652   6.278   2.307   0.365 -0.1096  0.4222 -0.4363
 6365TIP3   OH240653   2.274   1.444   6.931  0.1981 -0.0558  0.3163
 6365TIP3    H140654   2.241   1.530   6.905  0.5139  0.3218  1.1253
 6365TIP3    H240655   2.215   1.382   6.889  1.2293  0.4779 -2.0487
 6366TIP3   OH240656   6.593   1.769   2.403 -0.5620  0.4249  0.1750
 6366TIP3    H140657   6.506   1.729   2.402  0.1146 -1.0788 -0.6563
 6366TIP3    H240658   6.585   1.846   2.346 -1.0652 -0.3204 -0.7766
 6367TIP3   OH240659   1.902   4.940   2.211 -0.0084 -0.0736  0.0245
 6367TIP3    H140660   1.954   4.983   2.278  1.1578 -0.1955 -0.7736
 6367TIP3    H240661   1.966   4.904   2.150 -0.8717 -3.2030  0.7650
 6368TIP3   OH240662   5.677   0.209   7.163  0.5692  0.1820 -0.3124
 6368TIP3    H140663   5.664   0.266   7.239 -1.2934 -2.1135  1.2394
 6368TIP3    H240664   5.683   0.269   7.088 -0.0983  2.4163  1.3229
 6369TIP3   OH240665   0.357   2.129   8.079 -0.0770 -0.0838 -0.5064
 6369TIP3    H140666   0.348   2.062   8.011  0.8789 -0.6242 -0.1231
 6369TIP3    H240667   0.269   2.165   8.089 -0.0593  0.7599 -2.7764
 6370TIP3   OH240668   0.201   0.766   0.405  0.1885  0.8462  0.1143
 6370TIP3    H140669   0.147   0.687   0.409  0.0935  0.9634  2.8481
 6370TIP3    H240670   0.264   0.748   0.335 -0.1547 -1.4322  0.3159
 6371TIP3   OH240671   6.165   6.404   7.411  0.7516 -0.1723  0.5238
 6371TIP3    H140672   6.100   6.343   7.446 -0.4192  0.5485 -0.3263
 6371TIP3    H240673   6.182   6.373   7.322  0.6845  0.3269  0.3347
 6372TIP3   OH240674   4.921   5.203   0.733  0.3525 -0.6968  0.1180
 6372TIP3    H140675   4.866   5.165   0.664 -0.4216 -0.2222  0.4596
 6372TIP3    H240676   5.010   5.177   0.710 -0.1469 -2.8145  0.3781
 6373TIP3   OH240677   4.352   4.863   1.922 -0.4966 -0.1338 -0.0240
 6373TIP3    H140678   4.269   4.846   1.878 -0.9608 -0.7689  1.0662
 6373TIP3    H240679   4.345   4.819   2.006  0.5880  0.5877  0.4743
 6374TIP3   OH240680   6.622   5.285   2.115  0.1329  0.5995 -0.2390
 6374TIP3    H140681   6.633   5.192   2.096  0.3376  0.6244 -0.2417
 6374TIP3    H240682   6.578   5.287   2.200 -2.7192  0.4457 -1.5576
 6375TIP3   OH240683   0.299   2.038   2.423 -0.7556 -0.2691 -0.5080
 6375TIP3    H140684   0.237   2.111   2.435  0.2678  0.4289  0.8242
 6375TIP3    H240685   0.248   1.970   2.380 -1.8902  1.0483 -1.3205
 6376TIP3   OH240686   4.589   0.579   7.161  0.7358 -0.0196 -0.8542
 6376TIP3    H140687   4.509   0.621   7.129 -0.4557 -1.3149  0.2945
 6376TIP3    H240688   4.581   0.488   7.133  0.2510 -0.9073  1.8418
 6377TIP3   OH240689   4.434   5.618   7.974 -0.0933  0.1404 -0.1256
 6377TIP3    H140690   4.390   5.675   8.037  1.5810  1.1057  0.2526
 6377TIP3    H240691   4.484   5.556   8.028  2.3595  1.7617 -0.3651
 6378TIP3   OH240692   6.203   0.997   7.861  0.2292 -0.0204  0.4911
 6378TIP3    H140693   6.147   1.068   7.892 -0.3230 -0.1313 -0.2410
 6378TIP3    H240694   6.203   0.934   7.933  0.2789  0.4580  0.9239
 6379TIP3   OH240695   0.607   4.935   7.600  0.3140 -0.2162  0.4854
 6379TIP3    H140696   0.661   4.856   7.607  1.8595  0.9086  2.2593
 6379TIP3    H240697   0.627   4.971   7.514  0.5607 -1.0853  0.1746
 6380TIP3   OH240698   0.205   4.915   1.249  0.2214  0.4460 -0.2003
 6380TIP3    H140699   0.163   4.852   1.191  2.1694 -0.7094 -0.4419
 6380TIP3    H240700   0.157   4.996   1.234 -1.9671 -0.8102 -0.3261
 6381TIP3   OH240701   3.981   2.086   8.172  0.2833  0.4008  0.1254
 6381TIP3    H140702   4.063   2.095   8.222 -1.0535 -1.9792  3.0981
 6381TIP3    H240703   3.991   2.002   8.126 -0.3896  0.1650  0.4037
 6382TIP3   OH240704   2.837   6.667   8.259  0.1938  0.1210  0.1467
 6382TIP3    H140705   2.870   6.588   8.217 -1.1157 -0.7586  0.6941
 6382TIP3    H240706   2.899   6.684   8.330 -0.7631 -1.8628  1.5560
 6383TIP3   OH240707   0.981   0.551   0.868 -0.4744 -0.2174 -0.4300
 6383TIP3    H140708   0.972   0.457   0.855 -0.5807 -0.1489 -0.8678
 6383TIP3    H240709   1.036   0.580   0.796  0.8457 -0.1681  0.5489
 6384TIP3   OH240710   5.707   1.135   7.575  0.0692  0.7309  0.6929
 6384TIP3    H140711   5.727   1.068   7.641 -2.3809  0.2276  1.0422
 6384TIP3    H240712   5.674   1.209   7.626 -3.2364 -0.1819  0.1292
 6385TIP3   OH240713   4.225   4.451   8.355 -0.0832 -0.3929  0.3565
 6385TIP3    H140714   4.303   4.409   8.390  0.5362 -0.0150 -0.5266
 6385TIP3    H240715   4.227   4.540   8.390  0.2323 -0.1890 -0.1675
 6386TIP3   OH240716   2.796   0.361   1.706  0.3265  0.1656  0.2556
 6386TIP3    H140717   2.855   0.294   1.671 -1.8068 -1.4577 -0.4609
 6386TIP3    H240718   2.784   0.422   1.633  0.6618  0.1785  0.2085
 6387TIP3   OH240719   3.337   3.099   0.826  0.1230 -0.2984  0.1975
 6387TIP3    H140720   3.429   3.125   0.817 -0.1984  0.6156 -0.5401
 6387TIP3    H240721   3.328   3.024   0.766  0.3173 -0.2068  0.0527
 6388TIP3   OH240722   2.811   6.129   7.647 -0.0463  0.1431  0.3217
 6388TIP3    H140723   2.811   6.195   7.717  0.2667  0.6491 -0.1403
 6388TIP3    H240724   2.873   6.063   7.677  2.0134  1.5544 -0.5257
 6389TIP3   OH240725   0.021   2.497   8.130  0.0968  0.0220 -0.1791
 6389TIP3    H140726   0.039   2.484   8.223  1.3682 -0.6488 -0.5116
 6389TIP3    H240727   0.083   2.564   8.102  0.6831 -0.7824 -0.8548
 6390TIP3   OH240728   3.605   4.397   1.315 -0.1627  0.5661 -0.7281
 6390TIP3    H140729   3.519   4.382   1.354 -0.9533 -1.7407 -3.0867
 6390TIP3    H240730   3.666   4.388   1.388 -1.7612  0.1986  0.6320
 6391TIP3   OH240731   5.032   5.339   8.327  0.0922 -0.4446  0.0534
 6391TIP3    H140732   5.125   5.317   8.322  0.4982  0.9735  0.6897
 6391TIP3    H240733   5.031   5.433   8.345 -1.5039  0.1056 -2.4058
 6392TIP3   OH240734   0.624   4.548   7.994  0.1255  0.6020 -0.3739
 6392TIP3    H140735   0.591   4.591   8.073  2.2674  1.7350 -0.0158
 6392TIP3    H240736   0.551   4.495   7.964 -1.3988  1.6148  1.2929
 6393TIP3   OH240737   2.765   5.697   7.795 -0.2792  0.0474  0.3822
 6393TIP3    H140738   2.678   5.656   7.797 -0.1403 -0.2794 -0.1897
 6393TIP3    H240739   2.814   5.646   7.731 -0.4650  1.8736 -1.3032
 6394TIP3   OH240740   6.572   4.581   1.115  0.1727  0.7353  0.3163
 6394TIP3    H140741   6.542   4.637   1.186 -0.0496  1.8025 -0.5986
 6394TIP3    H240742   6.636   4.634   1.067 -0.5249  0.4722 -0.9625
 6395TIP3   OH240743   5.848   5.672   0.705 -0.6176 -0.3543 -0.2501
 6395TIP3    H140744   5.771   5.727   0.690  0.2570  0.9475 -0.1757
 6395TIP3    H240745   5.844   5.605   0.636 -0.4457  1.2539 -1.9074
 6396TIP3   OH240746   6.108   3.043   2.499 -0.4535 -0.2947  0.3584
 6396TIP3    H140747   6.194   3.018   2.533 -0.3234  0.2134  0.4137
 6396TIP3    H240748   6.101   3.136   2.519  0.4289  0.5227 -2.6774
 6397TIP3   OH240749   2.129   1.192   2.390  0.4262 -0.1098 -0.1321
 6397TIP3    H140750   2.179   1.141   2.327  1.9893 -0.3009  1.1893
 6397TIP3    H240751   2.172   1.277   2.393 -1.1916  0.7909 -1.1433
 6398TIP3   OH240752   2.425   1.541   1.070 -0.2788 -0.4385  0.3281
 6398TIP3    H140753   2.366   1.490   1.015 -1.6059  0.4072  0.9032
 6398TIP3    H240754   2.512   1.507   1.050 -0.6731 -0.1515 -2.3177
 6399TIP3   OH240755   0.241   0.614   7.927 -0.0804 -0.0143  0.0288
 6399TIP3    H140756   0.317   0.672   7.935  1.4364 -2.0825  1.6093
 6399TIP3    H240757   0.187   0.655   7.859  0.9622  3.1146  0.9353
 6400TIP3   OH240758   2.604   2.623   8.313  0.0193  0.4867 -1.0251
 6400TIP3    H140759   2.563   2.705   8.288 -1.0995  1.2344  2.6620
 6400TIP3    H240760   2.641   2.640   8.400  1.2239 -2.4576 -0.8415
 6401TIP3   OH240761   4.659   2.153   0.273 -0.0693  0.5534 -0.0391
 6401TIP3    H140762   4.587   2.215   0.272  1.0742  2.0005  1.3038
 6401TIP3    H240763   4.713   2.178   0.198 -0.7138 -0.2593 -0.7937
 6402TIP3   OH240764   1.494   4.843   1.894  0.1746 -0.3948 -0.1014
 6402TIP3    H140765   1.589   4.852   1.890 -0.0329  4.4402  0.0852
 6402TIP3    H240766   1.467   4.823   1.805  1.2537  1.3143 -0.8404
 6403TIP3   OH240767   2.071   3.083   0.665 -0.0988  0.0184 -0.3399
 6403TIP3    H140768   2.082   3.143   0.739 -0.2633  0.8138 -0.9360
 6403TIP3    H240769   2.135   3.115   0.600 -0.9680  0.2519 -1.0982
 6404TIP3   OH240770   0.853   5.434   1.455  0.2785  0.0349  0.0740
 6404TIP3    H140771   0.758   5.432   1.469  0.4519  0.2609  1.4793
 6404TIP3    H240772   0.877   5.342   1.442  0.0706 -0.2441  1.4852
 6405TIP3   OH240773   3.077   6.230   6.291  0.1464  1.0729 -0.1301
 6405TIP3    H140774   3.154   6.239   6.347 -0.3675  0.2370  0.7174
 6405TIP3    H240775   3.029   6.155   6.326 -1.8587  2.4840  0.3226
 6406TIP3   OH240776   2.857   3.163   1.531 -0.1157  0.1436 -0.3113
 6406TIP3    H140777   2.847   3.134   1.622 -0.0335  0.6013 -0.1571
 6406TIP3    H240778   2.926   3.107   1.495 -0.8168 -0.7022 -0.3781
 6407TIP3   OH240779   3.455   3.610   8.186 -0.1064 -0.4248  0.1397
 6407TIP3    H140780   3.488   3.660   8.260 -0.0113  0.6810 -0.6228
 6407TIP3    H240781   3.472   3.519   8.209 -1.3439 -0.2298  2.0925
 6408TIP3   OH240782   0.658   6.491   1.533 -0.0940 -0.4200  0.5774
 6408TIP3    H140783   0.736   6.487   1.478 -1.2121  0.7133 -1.1590
 6408TIP3    H240784   0.628   6.400   1.537  0.4235 -0.6289 -0.0517
 6409TIP3   OH240785   0.120   1.790   1.756  0.0459  0.3845 -0.3985
 6409TIP3    H140786   0.194   1.814   1.702 -0.3153  0.9927 -0.6352
 6409TIP3    H240787   0.044   1.829   1.712 -0.1287  1.9260  1.1351
 6410TIP3   OH240788   1.715   1.924   1.341 -0.2417 -0.3963  0.2769
 6410TIP3    H140789   1.720   1.904   1.247  0.0018  0.6453  0.0594
 6410TIP3    H240790   1.621   1.933   1.358 -0.2814 -0.4723  0.1059
 6411TIP3   OH240791   1.074   1.283   7.597  1.1440 -0.0972 -0.1371
 6411TIP3    H140792   1.132   1.218   7.557  2.7552  1.9369 -1.2530
 6411TIP3    H240793   1.066   1.352   7.531 -0.1902  1.0574  1.1684
 6412TIP3   OH240794   1.346   5.032   1.329 -0.1080 -0.1626 -0.7182
 6412TIP3    H140795   1.402   4.989   1.393 -2.2898 -0.8230  0.8351
 6412TIP3    H240796   1.391   5.115   1.311  1.9438 -1.1458 -0.4735
 6413TIP3   OH240797   1.612   1.983   1.618  0.0132  0.0593 -0.0483
 6413TIP3    H140798   1.622   1.916   1.686 -0.9543  0.5517  0.5895
 6413TIP3    H240799   1.602   2.065   1.665 -1.5583  0.2952 -0.7456
 6414TIP3   OH240800   5.942   6.786   1.523 -0.3419 -0.1167  0.3429
 6414TIP3    H140801   5.978   6.818   1.606 -1.1404  0.2274  0.5666
 6414TIP3    H240802   5.881   6.854   1.496 -1.1805 -0.9026  0.2245
 6415TIP3   OH240803   0.724   0.962   1.479 -0.6233  0.2199 -0.4525
 6415TIP3    H140804   0.743   0.874   1.446 -0.0027  0.3387 -0.4308
 6415TIP3    H240805   0.630   0.962   1.494 -0.9469  0.1989 -2.3384
 6416TIP3   OH240806   3.130   3.082   0.091 -0.1610  0.1311 -0.3180
 6416TIP3    H140807   3.082   3.125   0.162  3.4356  0.1033  2.4433
 6416TIP3    H240808   3.205   3.140   0.074  0.4934 -1.1799 -2.2347
 6417TIP3   OH240809   2.672   5.890   0.060 -0.0362  0.0397  0.0807
 6417TIP3    H140810   2.630   5.976   0.067  0.6571  0.3012  1.7256
 6417TIP3    H240811   2.762   5.909   0.034  0.4071 -0.0703  1.4519
 6418TIP3   OH240812   1.415   1.215   0.321  0.7761 -0.0200  0.3555
 6418TIP3    H140813   1.347   1.152   0.299 -0.0955  0.6141  1.1242
 6418TIP3    H240814   1.446   1.188   0.408  1.6326 -0.3934 -0.0509
 6419TIP3   OH240815   5.775   6.779   6.894  0.3651  0.4650  0.1590
 6419TIP3    H140816   5.773   6.685   6.911  1.4672  0.4171  0.0601
 6419TIP3    H240817   5.734   6.788   6.808 -1.4220  0.2853  0.9462
 6420TIP3   OH240818   2.945   5.253   1.042 -0.8874 -0.2562  0.0283
 6420TIP3    H140819   2.999   5.282   0.968 -1.0866  0.5994  0.2082
 6420TIP3    H240820   2.885   5.189   1.003 -0.1758 -0.7491 -0.2959
 6421TIP3   OH240821   2.389   2.666   8.579 -0.3570 -0.3671 -1.0411
 6421TIP3    H140822   2.347   2.726   8.641  0.0666  0.1420 -1.2452
 6421TIP3    H240823   2.481   2.692   8.579  0.3207 -2.4472  0.5685
 6422TIP3   OH240824   1.788   5.156   7.706  0.5247 -0.2702 -0.1817
 6422TIP3    H140825   1.831   5.241   7.709  0.8859 -0.4137 -1.1903
 6422TIP3    H240826   1.731   5.156   7.784 -0.8707  1.6200 -1.1147
 6423TIP3   OH240827   4.965   0.894   8.465 -0.4088  0.5490 -0.4167
 6423TIP3    H140828   4.944   0.807   8.499 -1.7690  0.4727 -1.3526
 6423TIP3    H240829   4.918   0.954   8.523 -0.3044  0.5937 -0.3789
 6424TIP3   OH240830   0.674   5.242   0.761  0.2833  0.0226 -0.5620
 6424TIP3    H140831   0.589   5.286   0.766  0.5875  0.5488  0.0136
 6424TIP3    H240832   0.704   5.259   0.672 -0.1893 -0.1211 -0.7537
 6425TIP3   OH240833   0.658   3.835   8.245 -0.3829 -0.2119 -0.4277
 6425TIP3    H140834   0.656   3.776   8.321 -0.0016 -0.2091 -0.4122
 6425TIP3    H240835   0.731   3.895   8.263 -1.7252  1.2902  0.3198
 6426TIP3   OH240836   6.050   6.288   1.291 -0.2604 -0.1614 -0.2980
 6426TIP3    H140837   6.050   6.371   1.340 -0.5000 -1.0200  1.2119
 6426TIP3    H240838   6.111   6.304   1.219  1.1222  0.7637  1.0053
 6427TIP3   OH240839   3.928   6.153   7.240 -0.2683  0.3528 -0.0314
 6427TIP3    H140840   4.011   6.107   7.224 -0.4490 -0.1714  0.5222
 6427TIP3    H240841   3.900   6.124   7.327 -1.0159  0.5479 -0.1969
 6428TIP3   OH240842   4.901   4.710   7.512 -0.0144  0.5807 -0.0176
 6428TIP3    H140843   4.938   4.736   7.428 -2.5648  2.8437 -0.5812
 6428TIP3    H240844   4.848   4.632   7.491 -0.4423  0.9896 -0.5077
 6429TIP3   OH240845   5.257   0.820   7.966  0.2153 -0.2169  0.0338
 6429TIP3    H140846   5.178   0.797   7.918 -0.5155 -1.0366  1.5489
 6429TIP3    H240847   5.327   0.815   7.901 -0.8359 -0.4148 -1.1216
 6430TIP3   OH240848   4.843   3.363   1.882 -0.3973  0.2178 -0.2235
 6430TIP3    H140849   4.794   3.413   1.817 -0.7885 -0.8396 -0.7671
 6430TIP3    H240850   4.868   3.283   1.836  1.0245  0.3096  0.3323
 6431TIP3   OH240851   0.071   3.466   8.458 -0.3018  0.1926 -0.4181
 6431TIP3    H140852   0.005   3.432   8.398  0.5930 -1.8742 -0.3078
 6431TIP3    H240853   0.030   3.460   8.544 -0.2919 -0.2377 -0.4432
 6432TIP3   OH240854   2.301   6.388   8.368  0.3305  0.3698 -0.3997
 6432TIP3    H140855   2.300   6.293   8.384  1.5614  0.6784  2.0944
 6432TIP3    H240856   2.219   6.406   8.324 -1.6970 -1.4139  2.3169
 6433TIP3   OH240857   2.532   3.019   8.199  0.1126  0.5089 -0.2973
 6433TIP3    H140858   2.449   3.026   8.153  0.0587 -0.1192 -0.2971
 6433TIP3    H240859   2.597   3.045   8.134 -0.0545  0.6949 -0.3918
 6434TIP3   OH240860   2.315   2.477   7.789 -0.2001  0.1630  0.2476
 6434TIP3    H140861   2.324   2.567   7.820  1.1779 -0.1823  0.8905
 6434TIP3    H240862   2.377   2.471   7.716 -0.0068 -0.3644  0.4512
 6435TIP3   OH240863   1.034   1.342   8.307 -0.1500 -0.1316  0.1863
 6435TIP3    H140864   1.046   1.256   8.346 -0.4420 -0.0293  0.5037
 6435TIP3    H240865   1.123   1.373   8.289 -0.0663 -0.8533 -0.7144
 6436TIP3   OH240866   5.830   6.204   1.153 -0.2124 -0.0946 -0.5698
 6436TIP3    H140867   5.779   6.165   1.224 -2.7177  1.9595 -1.1246
 6436TIP3    H240868   5.902   6.249   1.198 -1.1136  0.2259  0.5948
 6437TIP3   OH240869   2.250   4.045   0.992 -0.3602  0.2340  0.0336
 6437TIP3    H140870   2.162   4.055   1.029 -0.5458 -0.5601 -0.1606
 6437TIP3    H240871   2.237   3.991   0.914  0.3863 -0.5038  0.4049
 6438TIP3   OH240872   2.029   6.578   2.269 -0.8319 -0.0094 -0.2492
 6438TIP3    H140873   1.949   6.538   2.304 -0.2822  0.3212  1.4357
 6438TIP3    H240874   2.091   6.505   2.262 -1.1387 -0.1985 -1.2217
 6439TIP3   OH240875   4.404   1.793   7.493  0.3764 -0.2071 -0.3717
 6439TIP3    H140876   4.312   1.820   7.500  0.4562 -0.0878  0.2738
 6439TIP3    H240877   4.454   1.870   7.520  0.6472 -0.5291  0.0552
 6440TIP3   OH240878   3.257   3.250   8.311 -0.5088  0.2989  0.3402
 6440TIP3    H140879   3.223   3.163   8.286 -2.9869  1.4446 -0.5792
 6440TIP3    H240880   3.295   3.284   8.230 -1.5739  0.9307  0.0867
 6441TIP3   OH240881   5.118   1.615   7.730  0.0141  0.2758 -0.9565
 6441TIP3    H140882   5.104   1.698   7.776  0.4718  0.2880 -0.8378
 6441TIP3    H240883   5.031   1.591   7.698  0.0106  1.2413 -1.7357
 6442TIP3   OH240884   3.730   3.230   7.097 -0.5822  0.4038  0.3734
 6442TIP3    H140885   3.670   3.277   7.039 -1.1466  0.2187  0.7929
 6442TIP3    H240886   3.815   3.270   7.081 -0.7204  0.3194 -0.6163
 6443TIP3   OH240887   1.650   1.391   0.085  0.0333 -0.4990  0.4806
 6443TIP3    H140888   1.676   1.474   0.125 -0.7729 -0.1611  0.3071
 6443TIP3    H240889   1.727   1.364   0.035 -0.8141  1.9841 -2.4875
 6444TIP3   OH240890   1.459   5.208   7.700  0.1344 -0.9039 -0.2022
 6444TIP3    H140891   1.526   5.145   7.722  1.2683  0.7127  1.2680
 6444TIP3    H240892   1.430   5.243   7.784 -0.1116  0.8416 -0.9579
 6445TIP3   OH240893   2.244   6.135   7.805  0.1130  0.3554 -0.3753
 6445TIP3    H140894   2.213   6.190   7.877  0.0330 -3.2784  2.6469
 6445TIP3    H240895   2.340   6.142   7.808  0.1098  0.2257  0.1296
 6446TIP3   OH240896   0.170   1.643   1.266  0.0299 -0.5281 -1.0948
 6446TIP3    H140897   0.146   1.551   1.253 -0.8051 -0.7580  1.5571
 6446TIP3    H240898   0.096   1.680   1.315  1.5961  0.8065  0.3486
 6447TIP3   OH240899   0.349   2.719   6.650  0.3653  0.8972  0.4542
 6447TIP3    H140900   0.262   2.726   6.690  0.9177  0.8887  1.7321
 6447TIP3    H240901   0.396   2.659   6.708  0.6981 -0.5281 -1.2097
 6448TIP3   OH240902   1.774   4.907   1.973  0.4476  0.3536  0.6363
 6448TIP3    H140903   1.811   4.920   2.060  0.7008 -1.6105  0.8600
 6448TIP3    H240904   1.807   4.822   1.944 -0.5118  0.4598 -0.9259
 6449TIP3   OH240905   1.586   3.657   7.159 -0.5662  0.4098 -0.5219
 6449TIP3    H140906   1.624   3.594   7.098 -0.0091 -1.2105  1.4033
 6449TIP3    H240907   1.556   3.729   7.103  1.0474 -0.3940 -2.5618
 6450TIP3   OH240908   2.451   0.745   6.810 -0.3483 -0.5262  0.4565
 6450TIP3    H140909   2.440   0.685   6.736  0.4383  0.2012 -0.2700
 6450TIP3    H240910   2.454   0.688   6.887 -0.4901 -1.3457 -0.1374
 6451TIP3   OH240911   1.050   3.026   8.261 -0.5824 -0.5909 -0.3655
 6451TIP3    H140912   1.108   2.967   8.214 -0.5911 -0.0673 -1.0518
 6451TIP3    H240913   1.006   3.076   8.192  1.0112  1.7683  0.1888
 6452TIP3   OH240914   5.055   4.748   0.436  0.1676  0.0208  0.1941
 6452TIP3    H140915   5.100   4.680   0.486  0.5764  0.8401  0.9704
 6452TIP3    H240916   4.969   4.711   0.418  0.8859 -1.2943 -0.7067
 6453TIP3   OH240917   4.229   2.988   0.395 -0.1635  0.3222 -0.0904
 6453TIP3    H140918   4.189   2.937   0.324 -0.6932 -1.6665  1.5322
 6453TIP3    H240919   4.156   3.010   0.453  0.3194  1.5531  0.0660
 6454TIP3   OH240920   1.441   6.846   2.121  0.7859 -0.7275 -0.2940
 6454TIP3    H140921   1.525   6.862   2.077  0.3321  0.9412 -0.6442
 6454TIP3    H240922   1.395   6.930   2.115 -1.5451 -2.0014 -1.4383
 6455TIP3   OH240923   4.058   5.289   2.401 -0.4004  0.3868 -0.3234
 6455TIP3    H140924   4.106   5.208   2.416  0.1655  0.7576 -0.0803
 6455TIP3    H240925   3.966   5.266   2.412 -0.3152 -0.4282 -1.2070
 6456TIP3   OH240926   1.263   0.520   7.209 -0.1605 -0.2393  0.1022
 6456TIP3    H140927   1.257   0.582   7.282  1.6021 -0.2980  0.3435
 6456TIP3    H240928   1.191   0.544   7.151 -0.6281  0.8414  1.0949
 6457TIP3   OH240929   4.101   2.066   7.781 -0.0255 -0.1789 -0.6023
 6457TIP3    H140930   4.077   2.047   7.872 -0.0669  1.8983 -0.1266
 6457TIP3    H240931   4.019   2.060   7.733  0.0101 -1.3812 -0.5637
 6458TIP3   OH240932   1.114   3.057   1.041  0.4736  0.4364 -0.0302
 6458TIP3    H140933   1.171   3.071   0.965  1.1518 -1.7550  0.0006
 6458TIP3    H240934   1.026   3.075   1.008  0.4037 -2.9869 -2.2798
 6459TIP3   OH240935   0.874   6.028   2.400  0.0997 -0.2312  0.3228
 6459TIP3    H140936   0.918   6.012   2.316  1.2379 -0.9649  1.0314
 6459TIP3    H240937   0.841   5.942   2.426  0.1582 -0.1002  0.8400
 6460TIP3   OH240938   4.575   3.593   1.222  0.1125  0.4385  0.3204
 6460TIP3    H140939   4.652   3.640   1.254  0.9660  0.1972 -1.2599
 6460TIP3    H240940   4.522   3.660   1.179 -0.0271  0.4153  0.4541
 6461TIP3   OH240941   4.407   4.866   7.835  0.0489  0.2582 -0.1376
 6461TIP3    H140942   4.466   4.793   7.820 -0.8606 -0.1996 -1.8732
 6461TIP3    H240943   4.331   4.827   7.878 -0.0988  0.3271 -0.3336
 6462TIP3   OH240944   4.660   0.204   2.274 -0.5266 -0.1211 -0.1761
 6462TIP3    H140945   4.712   0.284   2.266  0.6407 -0.7338  0.9142
 6462TIP3    H240946   4.676   0.174   2.363 -2.5534 -0.5020  0.1040
 6463TIP3   OH240947   6.608   3.916   0.176 -0.2474  0.1608  0.2927
 6463TIP3    H140948   6.658   3.884   0.251  0.4574 -0.0084 -0.2402
 6463TIP3    H240949   6.671   3.968   0.125 -0.1770 -1.2724 -1.1716
 6464TIP3   OH240950   3.597   4.935   2.064  0.2605 -0.3425  0.1610
 6464TIP3    H140951   3.656   4.963   2.134  0.9446  0.1218 -0.5794
 6464TIP3    H240952   3.607   4.840   2.060  0.1866 -0.3725  0.7250
 6465TIP3   OH240953   5.768   1.697   7.861  0.8001  0.4285 -0.3303
 6465TIP3    H140954   5.817   1.773   7.895 -0.0353  0.6368  0.4352
 6465TIP3    H240955   5.677   1.716   7.883  0.6180 -0.9735  0.1991
 6466TIP3   OH240956   3.634   4.133   6.478 -0.2497 -0.1376  0.1047
 6466TIP3    H140957   3.721   4.166   6.500 -0.8309  1.2537  0.4137
 6466TIP3    H240958   3.607   4.082   6.555 -0.2093  0.4751  0.5288
 6467TIP3   OH240959   0.491   3.792   2.151  0.4448  0.3172 -0.0788
 6467TIP3    H140960   0.429   3.771   2.081 -0.3056 -1.3032  1.0255
 6467TIP3    H240961   0.495   3.888   2.151 -0.9713  0.4040 -1.1093
 6468TIP3   OH240962   6.224   4.781   1.272  0.2807  0.4086 -0.3423
 6468TIP3    H140963   6.162   4.838   1.316  1.4345  0.8740  0.7425
 6468TIP3    H240964   6.291   4.763   1.338  0.8268 -0.8135 -1.1981
 6469TIP3   OH240965   3.393   4.051   0.799 -1.1937 -0.4050  0.1370
 6469TIP3    H140966   3.395   3.961   0.833  1.7688 -0.2951  0.5055
 6469TIP3    H240967   3.480   4.086   0.819 -2.7299  3.1121  1.3727
 6470TIP3   OH240968   1.137   6.629   1.244 -0.2518 -0.5441 -0.4692
 6470TIP3    H140969   1.133   6.534   1.233  0.2592 -0.5758 -0.3986
 6470TIP3    H240970   1.142   6.643   1.339 -4.2686 -0.2845 -0.1397
 6471TIP3   OH240971   0.579   2.274   8.318  0.1553  0.3373 -0.1499
 6471TIP3    H140972   0.571   2.350   8.375  0.4318 -0.1720  0.5728
 6471TIP3    H240973   0.573   2.199   8.376 -0.0725 -0.2034 -0.8525
 6472TIP3   OH240974   2.669   6.684   7.801 -0.0132  0.1875  0.3454
 6472TIP3    H140975   2.610   6.653   7.869 -0.2633 -0.8328 -0.3155
 6472TIP3    H240976   2.735   6.616   7.794 -0.5941 -0.2615 -1.1578
 6473TIP3   OH240977   6.840   2.229   7.704 -0.7952 -0.1555 -0.2727
 6473TIP3    H140978   6.846   2.308   7.758 -1.3666 -0.6829  0.5959
 6473TIP3    H240979   6.750   2.198   7.717 -0.3712 -1.3495 -0.0033
 6474TIP3   OH240980   2.640   4.438   2.282  0.8441  0.5549 -0.4393
 6474TIP3    H140981   2.687   4.355   2.269  0.0909  0.4123 -2.7550
 6474TIP3    H240982   2.672   4.495   2.213  0.9014  2.0401  0.7554
 6475TIP3   OH240983   1.017   6.406   2.435  0.1919 -0.4477  0.1643
 6475TIP3    H140984   1.085   6.472   2.432  1.3355 -1.6101 -0.5152
 6475TIP3    H240985   0.973   6.419   2.519  1.0897  0.4738  0.4989
 6476TIP3   OH240986   4.364   0.179   0.778 -0.0630 -0.4328  0.4226
 6476TIP3    H140987   4.430   0.247   0.788  1.3213 -1.7574  0.5975
 6476TIP3    H240988   4.378   0.120   0.852 -2.3961 -0.0232  1.2896
 6477TIP3   OH240989   5.775   4.095   0.312 -0.0375 -0.2476 -0.0921
 6477TIP3    H140990   5.836   4.149   0.362  0.2928  0.1318 -0.8877
 6477TIP3    H240991   5.729   4.157   0.255  1.7892 -0.9593 -2.5269
 6478TIP3   OH240992   1.480   1.817   6.711 -0.0164 -0.4163 -0.3061
 6478TIP3    H140993   1.550   1.757   6.737  0.5105  0.2549 -0.1439
 6478TIP3    H240994   1.437   1.841   6.793 -0.5179 -0.9170 -0.4171
 6479TIP3   OH240995   5.503   4.358   6.853 -0.0068  0.2254 -0.4157
 6479TIP3    H140996   5.546   4.272   6.849 -0.3445  0.0393 -0.1973
 6479TIP3    H240997   5.416   4.342   6.816  0.0504  0.5554 -0.6948
 6480TIP3   OH240998   4.205   5.244   0.637  0.2012  0.0618 -0.2591
 6480TIP3    H140999   4.166   5.284   0.560 -0.6464 -2.2537 -1.1399
 6480TIP3    H241000   4.136   5.244   0.703 -0.5390 -1.7577 -0.9735
 6481TIP3   OH241001   4.111   1.834   0.825  0.5023  0.5179  0.0959
 6481TIP3    H141002   4.188   1.867   0.778 -0.7918  1.1809 -1.6301
 6481TIP3    H241003   4.049   1.907   0.824 -0.7633 -0.5229  0.0660
 6482TIP3   OH241004   4.581   0.361   1.691 -0.6200  0.1411 -0.1991
 6482TIP3    H141005   4.563   0.267   1.684 -0.4020  0.0680  0.1933
 6482TIP3    H241006   4.676   0.368   1.687 -0.5590  0.2265  1.0450
 6483TIP3   OH241007   0.990   0.907   7.950  0.0383 -0.1127 -0.3055
 6483TIP3    H141008   0.959   0.816   7.955  1.8361 -0.7627 -0.2284
 6483TIP3    H241009   1.006   0.931   8.041  2.3581 -0.7917 -0.4710
 6484TIP3   OH241010   0.110   4.895   7.676  0.1356  0.0954  0.4278
 6484TIP3    H141011   0.191   4.869   7.632  1.2372 -2.1047  3.4042
 6484TIP3    H241012   0.138   4.921   7.764 -2.2855  0.5152  1.1423
 6485TIP3   OH241013   4.168   1.559   2.272  0.0883 -0.0362  0.3839
 6485TIP3    H141014   4.260   1.568   2.249 -0.1719 -0.3102 -0.8196
 6485TIP3    H241015   4.148   1.640   2.319  0.3622  1.1509 -1.4376
 6486TIP3   OH241016   3.501   6.327   0.330 -0.5646  0.3239 -0.5709
 6486TIP3    H141017   3.535   6.241   0.355 -0.7382  0.4747  0.1894
 6486TIP3    H241018   3.579   6.382   0.319 -0.4982  0.3459 -0.0184
 6487TIP3   OH241019   3.774   4.117   1.961 -0.0135 -0.0522  0.1562
 6487TIP3    H141020   3.819   4.198   1.985  0.5042 -0.4528  0.5998
 6487TIP3    H241021   3.703   4.109   2.024 -0.1593  0.1351  0.0153
 6488TIP3   OH241022   5.010   3.361   0.076  0.3155 -0.2507 -0.0054
 6488TIP3    H141023   5.057   3.391   0.154  0.1250  0.3207 -0.1044
 6488TIP3    H241024   4.933   3.417   0.072 -2.3976 -3.4397  2.1985
 6489TIP3   OH241025   0.358   3.659   1.945  0.3244  0.1784 -0.2208
 6489TIP3    H141026   0.383   3.568   1.961 -1.2775  0.1335  2.7455
 6489TIP3    H241027   0.284   3.653   1.884  1.0904 -0.3648 -1.1246
 6490TIP3   OH241028   5.249   4.641   0.587 -0.3963  0.3858  0.4767
 6490TIP3    H141029   5.330   4.594   0.568 -0.5124 -0.1645  1.2826
 6490TIP3    H241030   5.207   4.589   0.656 -0.5859  1.6016  1.3091
 6491TIP3   OH241031   4.825   5.618   2.037  0.2079  0.1299 -0.4414
 6491TIP3    H141032   4.817   5.632   1.943 -0.0195  1.2058 -0.2716
 6491TIP3    H241033   4.879   5.539   2.045 -0.6377 -0.5767 -1.4728
 6492TIP3   OH241034   3.411   4.435   2.097 -0.3959 -0.0159 -0.3380
 6492TIP3    H141035   3.411   4.531   2.090 -0.2163 -0.1066 -2.0500
 6492TIP3    H241036   3.495   4.414   2.137 -0.4448  0.5517  0.0725
 6493TIP3   OH241037   3.049   0.653   1.760 -0.8745 -0.6373 -0.0533
 6493TIP3    H141038   3.038   0.595   1.835 -0.4746 -0.3437  0.2377
 6493TIP3    H241039   3.022   0.739   1.793  1.0006 -0.1460  0.3037
 6494TIP3   OH241040   5.607   6.767   2.218  0.3244  0.3961  0.2672
 6494TIP3    H141041   5.671   6.715   2.266  0.3124  0.3547  0.2389
 6494TIP3    H241042   5.556   6.703   2.168  0.7147  0.4805 -0.2565
 6495TIP3   OH241043   6.330   1.503   0.743 -0.4533 -0.1202 -0.0474
 6495TIP3    H141044   6.291   1.578   0.787 -0.2905  0.3281 -0.6618
 6495TIP3    H241045   6.257   1.461   0.697 -0.1322  1.0959 -1.7390
 6496TIP3   OH241046   0.320   4.437   0.694  0.6583  0.0023  0.0071
 6496TIP3    H141047   0.404   4.467   0.728  0.5806  1.1060 -0.7374
 6496TIP3    H241048   0.333   4.432   0.599  0.4741 -1.7511  0.0493
 6497TIP3   OH241049   4.127   2.829   6.709 -0.1202 -0.5912 -0.2455
 6497TIP3    H141050   4.202   2.871   6.668 -0.0492  0.6574  1.0783
 6497TIP3    H241051   4.128   2.860   6.800 -1.8038 -1.1166  0.0001
 6498TIP3   OH241052   1.404   2.251   1.843  0.1808 -0.3922  0.0847
 6498TIP3    H141053   1.498   2.234   1.850  0.4395  0.5367 -0.8739
 6498TIP3    H241054   1.383   2.230   1.752 -0.8451 -1.9271  0.6400
 6499TIP3   OH241055   0.077   0.568   8.169 -0.1907 -0.1199  0.4197
 6499TIP3    H141056   0.103   0.567   8.077 -2.0446  0.0524 -0.1597
 6499TIP3    H241057   0.078   0.661   8.193  1.2754 -0.2362  0.9158
 6500TIP3   OH241058   0.761   1.427   0.680 -0.0110  0.0714  0.3115
 6500TIP3    H141059   0.686   1.479   0.652 -0.3595  0.0928  1.2316
 6500TIP3    H241060   0.739   1.338   0.654 -0.3218  0.0892  0.5010
 6501TIP3   OH241061   3.215   4.100   8.509 -0.8822 -0.1907  0.5091
 6501TIP3    H141062   3.246   4.010   8.498 -1.1131 -0.3604  1.1714
 6501TIP3    H241063   3.244   4.124   8.597  0.2876  0.8423 -0.1332
 6502TIP3   OH241064   0.360   5.423   7.065 -0.0354  0.5740 -0.4226
 6502TIP3    H141065   0.368   5.386   6.977 -1.8979  2.0399 -1.3062
 6502TIP3    H241066   0.349   5.517   7.049 -3.7500  0.5702  1.0395
 6503TIP3   OH241067   6.194   6.859   6.762  0.5971  0.1470 -0.1404
 6503TIP3    H141068   6.157   6.781   6.722  2.2308 -1.0604  0.5815
 6503TIP3    H241069   6.132   6.882   6.831  0.0343 -0.4393 -0.4405
 6504TIP3   OH241070   3.496   6.239   6.283 -0.1096  0.1180 -0.4479
 6504TIP3    H141071   3.451   6.252   6.366 -0.2717 -0.9238 -0.3621
 6504TIP3    H241072   3.487   6.322   6.237  2.1097  1.6015  1.5664
 6505TIP3   OH241073   6.192   0.322   7.292  0.4450 -0.6915  0.1237
 6505TIP3    H141074   6.205   0.403   7.242 -1.8102 -0.2443  0.1695
 6505TIP3    H241075   6.271   0.271   7.275  0.9272  0.5600 -1.7388
 6506TIP3   OH241076   1.338   5.520   0.992  0.0662  0.3478 -0.7448
 6506TIP3    H141077   1.247   5.545   0.976  0.5527  2.0790 -1.0581
 6506TIP3    H241078   1.389   5.582   0.939  1.4106 -2.0386 -2.4491
 6507TIP3   OH241079   0.266   0.852   6.987  0.1194 -0.2303 -0.4225
 6507TIP3    H141080   0.239   0.884   6.901  0.8467  0.0842 -0.5427
 6507TIP3    H241081   0.284   0.932   7.038 -1.7518 -0.3719  0.5156
 6508TIP3   OH241082   1.820   6.504   8.457  0.5353  0.6826  0.5954
 6508TIP3    H141083   1.876   6.469   8.388  1.5646  0.4441  1.5274
 6508TIP3    H241084   1.818   6.435   8.523 -1.4281  0.4008  0.2957
 6509TIP3   OH241085   3.339   0.595   7.773 -0.4173  0.3379 -0.4826
 6509TIP3    H141086   3.434   0.586   7.759 -0.7517 -1.5632 -1.9568
 6509TIP3    H241087   3.318   0.527   7.837 -0.9464 -0.1275 -1.1342
 6510TIP3   OH241088   6.018   3.962   2.151  0.4452 -0.8103  0.0306
 6510TIP3    H141089   6.027   4.018   2.228 -3.6014 -0.2914  0.3665
 6510TIP3    H241090   6.037   4.019   2.077 -3.6590  1.3825  0.3570
 6511TIP3   OH241091   5.326   5.139   1.617  0.2962 -0.4599 -0.1046
 6511TIP3    H141092   5.372   5.078   1.675 -0.5668 -0.0208  1.0768
 6511TIP3    H241093   5.281   5.199   1.676 -0.4356  0.1467 -1.2399
 6512TIP3   OH241094   0.697   3.447   0.224 -0.3170  0.5270  0.6199
 6512TIP3    H141095   0.630   3.435   0.157 -0.7551  2.1485  0.7208
 6512TIP3    H241096   0.698   3.541   0.241  2.7523  0.7472 -0.1335
 6513TIP3   OH241097   6.818   1.772   1.360 -0.0963  0.3006  0.3339
 6513TIP3    H141098   6.735   1.806   1.392  0.1843  0.7065  0.6438
 6513TIP3    H241099   6.842   1.831   1.288 -1.8463 -1.9157 -2.2535
 6514TIP3   OH241100   6.372   3.155   8.246  0.1170  0.2200  0.1730
 6514TIP3    H141101   6.309   3.171   8.175  0.2684  2.2260  0.4217
 6514TIP3    H241102   6.321   3.168   8.326  0.2812 -0.6088  0.4152
 6515TIP3   OH241103   5.162   6.527   1.943  0.2476  0.3973  0.3181
 6515TIP3    H141104   5.150   6.548   1.851  1.5703  1.9752  0.4443
 6515TIP3    H241105   5.144   6.434   1.950 -2.0444  0.6575 -1.1035
 6516TIP3   OH241106   1.310   1.137   7.504 -0.4382 -0.6284  0.1725
 6516TIP3    H141107   1.345   1.084   7.432  0.1867 -1.5037  1.0839
 6516TIP3    H241108   1.373   1.124   7.576 -0.0091  1.7237  0.3066
 6517TIP3   OH241109   3.478   1.931   1.161  0.0271 -0.3801  0.1128
 6517TIP3    H141110   3.551   1.985   1.191 -1.1176 -0.1303  2.6080
 6517TIP3    H241111   3.496   1.844   1.197 -0.1866 -0.6991 -0.5252
 6518TIP3   OH241112   0.885   5.882   1.124  0.1267  0.1827 -0.6677
 6518TIP3    H141113   0.842   5.831   1.056 -0.4225  0.9938 -0.9333
 6518TIP3    H241114   0.919   5.816   1.185  1.2262 -0.5907 -2.0476
 6519TIP3   OH241115   2.420   1.081   1.768 -0.5629  0.1573  0.3535
 6519TIP3    H141116   2.458   1.169   1.771  1.5284 -0.7102  0.7612
 6519TIP3    H241117   2.466   1.037   1.696  0.2226 -1.3629  1.7297
 6520TIP3   OH241118   2.862   0.064   7.997  0.0575  0.3530  1.1226
 6520TIP3    H141119   2.786   0.031   7.949 -1.2372  2.6831  1.4424
 6520TIP3    H241120   2.850   0.031   8.086 -0.0925 -0.0428  0.9582
 6521TIP3   OH241121   4.345   6.481   0.194 -0.3245  0.9319  0.0929
 6521TIP3    H141122   4.362   6.491   0.287  1.6598  2.6721 -0.3821
 6521TIP3    H241123   4.302   6.563   0.168 -0.2948  0.7238 -0.6326
 6522TIP3   OH241124   0.806   5.389   7.916 -0.1140 -0.1632 -0.8900
 6522TIP3    H141125   0.738   5.420   7.976 -1.1847 -0.5910 -1.8365
 6522TIP3    H241126   0.792   5.440   7.836  1.1400  0.2394 -0.8671
 6523TIP3   OH241127   3.991   3.215   0.380 -0.2428 -0.4894 -0.4487
 6523TIP3    H141128   3.981   3.128   0.341 -0.7589  0.0722 -1.6075
 6523TIP3    H241129   4.045   3.263   0.318 -0.4905  0.2076 -0.1329
 6524TIP3   OH241130   1.459   6.089   8.145 -0.3159  0.2722 -0.2569
 6524TIP3    H141131   1.431   6.087   8.053 -1.0521  1.8667 -0.1097
 6524TIP3    H241132   1.459   6.182   8.167  0.6164 -0.0372  1.1431
 6525TIP3   OH241133   3.461   3.039   8.040 -0.0260  0.5113 -0.2932
 6525TIP3    H141134   3.425   3.125   8.063 -0.6134  0.3962 -0.7512
 6525TIP3    H241135   3.435   3.026   7.949 -0.8385 -0.6023  0.0767
 6526TIP3   OH241136   4.797   2.754   7.160 -0.4050 -0.5874  0.2445
 6526TIP3    H141137   4.787   2.760   7.065 -0.0337 -0.5809  0.2053
 6526TIP3    H241138   4.889   2.774   7.176 -0.1461 -1.8405  0.4871
 6527TIP3   OH241139   4.291   0.097   8.026 -0.3416 -0.8059 -0.2042
 6527TIP3    H141140   4.214   0.149   8.000  0.4180  0.3215 -0.3066
 6527TIP3    H241141   4.325   0.143   8.103  0.7526 -0.7292 -0.7172
 6528TIP3   OH241142   2.743   3.536   0.332  0.1929  0.3343 -0.1569
 6528TIP3    H141143   2.715   3.566   0.246  2.6778  1.0233 -0.7996
 6528TIP3    H241144   2.803   3.604   0.363  1.7607 -1.3540  0.7353
 6529TIP3   OH241145   0.576   1.635   1.159 -0.3146 -0.1712  0.0928
 6529TIP3    H141146   0.527   1.554   1.146  0.1670 -0.2724 -1.1817
 6529TIP3    H241147   0.657   1.608   1.201  0.9197 -0.7266 -2.4625
 6530TIP3   OH241148   0.678   1.064   1.129  0.0528  0.6602 -0.0575
 6530TIP3    H141149   0.734   1.070   1.051  0.2705  0.5759  0.0895
 6530TIP3    H241150   0.591   1.044   1.095  0.5977 -1.8836 -0.1666
 6531TIP3   OH241151   1.812   0.955   1.490  0.3251 -0.7133 -0.0136
 6531TIP3    H141152   1.770   1.024   1.541 -0.0920  0.2148 -1.5725
 6531TIP3    H241153   1.808   0.878   1.547 -1.4471 -0.0888  0.7699
 6532TIP3   OH241154   6.649   5.014   2.286 -0.6954  0.0421  0.3693
 6532TIP3    H141155   6.713   5.075   2.322 -1.8945  1.6277 -0.0557
 6532TIP3    H241156   6.566   5.040   2.327 -1.2312 -1.4026  0.2692
 6533TIP3   OH241157   5.512   4.399   1.565  0.0583  0.1395 -0.4387
 6533TIP3    H141158   5.474   4.376   1.480 -1.0318 -0.9722  0.3229
 6533TIP3    H241159   5.497   4.494   1.572  0.5623  0.3383 -1.6597
 6534TIP3   OH241160   2.608   0.990   7.512  0.9854  0.1068 -0.2929
 6534TIP3    H141161   2.657   0.975   7.431  1.2111  0.2882 -0.1911
 6534TIP3    H241162   2.529   0.937   7.503 -0.6800  2.6887 -2.1061
 6535TIP3   OH241163   4.214   0.365   7.686 -0.2716  0.4053 -0.2526
 6535TIP3    H141164   4.200   0.454   7.720 -0.0722  0.0252  0.8693
 6535TIP3    H241165   4.303   0.343   7.713 -0.1508  0.0298 -0.9354
 6536TIP3   OH241166   5.171   0.043   1.602 -0.0628  0.1627 -0.2535
 6536TIP3    H141167   5.133   0.084   1.679  1.7037  1.8859 -0.2244
 6536TIP3    H241168   5.107   0.059   1.532 -1.9381 -1.8781  0.8446
 6537TIP3   OH241169   6.561   4.868   6.626 -0.0140  0.3973  0.4830
 6537TIP3    H141170   6.641   4.851   6.675  0.3600  1.2657  0.1922
 6537TIP3    H241171   6.586   4.934   6.561 -0.2516 -1.3759 -1.5233
 6538TIP3   OH241172   5.779   5.062   8.441  0.2763 -0.0373 -0.2079
 6538TIP3    H141173   5.861   5.022   8.411  1.3208  0.2382  2.1430
 6538TIP3    H241174   5.780   5.150   8.403  1.1148  0.0001 -0.1108
 6539TIP3   OH241175   2.758   2.040   1.841 -0.0205  0.1396 -0.5899
 6539TIP3    H141176   2.748   1.956   1.796  2.6014  0.4573 -1.9068
 6539TIP3    H241177   2.824   2.024   1.908 -0.4907  0.8525  0.0669
 6540TIP3   OH241178   6.873   3.938   1.666  0.4068 -0.1611 -0.2911
 6540TIP3    H141179   6.778   3.936   1.678  0.1872 -0.2432 -1.7805
 6540TIP3    H241180   6.887   3.890   1.584  1.7950 -0.6465  0.2073
 6541TIP3   OH241181   6.537   0.879   1.287  0.1034  0.4385 -0.4488
 6541TIP3    H141182   6.619   0.864   1.239  0.1687 -1.6036  0.1904
 6541TIP3    H241183   6.563   0.929   1.364  0.6668  0.3317 -0.5606
 6542TIP3   OH241184   0.601   5.954   8.552  0.3493  0.2853  0.1036
 6542TIP3    H141185   0.656   6.023   8.515  1.2800 -1.2728 -1.5528
 6542TIP3    H241186   0.656   5.875   8.549  0.4658 -0.0975  4.6502
 6543TIP3   OH241187   1.143   6.645   0.367 -0.2616 -0.2400  0.2508
 6543TIP3    H141188   1.126   6.562   0.322  0.1148 -1.1492  1.7048
 6543TIP3    H241189   1.227   6.632   0.411 -0.8522  0.3880  1.6342
 6544TIP3   OH241190   6.318   3.689   1.559  0.0376 -0.0292 -0.1912
 6544TIP3    H141191   6.238   3.740   1.574  0.1121 -0.4746  2.2250
 6544TIP3    H241192   6.370   3.744   1.501 -0.3981  2.1699  1.3380
 6545TIP3   OH241193   6.390   0.961   2.146 -0.0337  0.2803  0.1344
 6545TIP3    H141194   6.395   1.055   2.163  1.5137  0.2960 -0.1946
 6545TIP3    H241195   6.409   0.921   2.231 -1.1985  0.2367  0.3920
 6546TIP3   OH241196   6.850   6.353   7.586  0.9911  0.9322  0.3869
 6546TIP3    H141197   6.922   6.343   7.649  0.7441  1.7376  0.8138
 6546TIP3    H241198   6.845   6.447   7.571 -1.1279  1.0991  1.7277
 6547TIP3   OH241199   3.733   5.191   7.536 -0.0189 -0.0106  0.3816
 6547TIP3    H141200   3.647   5.229   7.517  0.7286  1.1577 -0.8238
 6547TIP3    H241201   3.790   5.267   7.551  0.5985 -0.7879  2.2537
 6548TIP3   OH241202   2.984   3.393   1.579 -0.4535 -0.3020 -0.5100
 6548TIP3    H141203   3.058   3.342   1.614 -0.9125  0.2665  1.3803
 6548TIP3    H241204   2.910   3.332   1.580 -0.5406 -0.1921 -0.1711
 6549TIP3   OH241205   6.656   0.660   2.119  0.0133  0.5058 -0.1726
 6549TIP3    H141206   6.608   0.608   2.055  2.2078  0.8631 -2.2395
 6549TIP3    H241207   6.613   0.641   2.202 -2.4563 -0.6066 -1.5913
 6550TIP3   OH241208   6.857   5.605   0.348  0.1943 -0.1363  0.1725
 6550TIP3    H141209   6.822   5.602   0.437 -0.9686 -0.8347 -0.2816
 6550TIP3    H241210   6.905   5.688   0.344 -2.0768  1.2896  0.6337
 6551TIP3   OH241211   5.721   4.167   0.619  0.2526  0.2462 -0.2334
 6551TIP3    H141212   5.777   4.097   0.585 -0.1276  0.1158 -0.6030
 6551TIP3    H241213   5.653   4.121   0.669  1.1481  0.4631  1.2576
 6552TIP3   OH241214   1.205   5.125   6.861  0.6396  0.3203  0.2421
 6552TIP3    H141215   1.159   5.063   6.804 -0.5460  0.8871  0.5399
 6552TIP3    H241216   1.262   5.174   6.802  0.7640 -0.3116 -0.1663
 6553TIP3   OH241217   4.024   4.502   2.567  0.4108  0.0059 -0.1474
 6553TIP3    H141218   3.947   4.499   2.511  0.1105  1.7027  0.1208
 6553TIP3    H241219   3.990   4.529   2.652  1.3213  0.9156 -0.0652
 6554TIP3   OH241220   0.599   2.902   0.499  0.1074 -0.1333 -0.1725
 6554TIP3    H141221   0.652   2.870   0.426  1.8237  1.0013  0.5330
 6554TIP3    H241222   0.509   2.886   0.471  0.7329 -0.3557 -2.2372
 6555TIP3   OH241223   5.255   5.545   7.940 -0.8473 -0.4920 -0.0433
 6555TIP3    H141224   5.175   5.559   7.991 -0.6114  1.2658 -0.0750
 6555TIP3    H241225   5.231   5.482   7.873 -2.4697  0.6428 -0.5818
 6556TIP3   OH241226   1.271   4.561   8.150  0.0005 -0.2464  0.2212
 6556TIP3    H141227   1.258   4.470   8.126  2.0051 -0.4837 -0.1386
 6556TIP3    H241228   1.299   4.558   8.241 -2.0672  0.2288  0.9325
 6557TIP3   OH241229   5.653   3.434   1.047 -0.1214 -0.2875 -0.2124
 6557TIP3    H141230   5.739   3.444   1.089  0.3975  1.3361 -1.5325
 6557TIP3    H241231   5.663   3.479   0.963 -2.5309  0.7127 -0.0287
 6558TIP3   OH241232   2.944   2.119   0.737  0.1484  0.5417 -0.0394
 6558TIP3    H141233   2.924   2.186   0.801  1.5729 -0.2960  1.3523
 6558TIP3    H241234   3.040   2.120   0.730  0.2579 -1.6505  0.4094
 6559TIP3   OH241235   6.060   4.655   8.312  0.0691 -0.0417  0.4739
 6559TIP3    H141236   6.136   4.644   8.369  0.2067  0.1747  0.3348
 6559TIP3    H241237   5.985   4.657   8.372  0.1720 -0.2473  0.6133
 6560TIP3   OH241238   4.788   1.472   0.894 -0.5634 -0.2368 -0.2616
 6560TIP3    H141239   4.791   1.564   0.920 -0.1403 -0.1949 -0.4379
 6560TIP3    H241240   4.819   1.425   0.971 -1.4424 -0.2921  0.0696
 6561TIP3   OH241241   3.709   0.058   0.750 -0.1493  0.2194 -0.4472
 6561TIP3    H141242   3.712   0.103   0.834  1.5896  1.4028 -1.0633
 6561TIP3    H241243   3.753  -0.026   0.766 -4.3847 -2.0204  0.9803
 6562TIP3   OH241244   3.733   3.395   7.766 -0.7207  0.5527  0.4874
 6562TIP3    H141245   3.697   3.325   7.712 -1.2235  2.3171 -1.5994
 6562TIP3    H241246   3.828   3.382   7.761 -0.7168  0.9771 -1.3537
 6563TIP3   OH241247   1.229   5.723   7.635  0.4236 -0.2018  0.5513
 6563TIP3    H141248   1.274   5.698   7.554  0.0517  0.2038  0.2156
 6563TIP3    H241249   1.141   5.687   7.626  0.3615 -0.1034  0.7480
 6564TIP3   OH241250   1.412   3.482   0.217  0.3856  0.0388 -0.5014
 6564TIP3    H141251   1.349   3.495   0.288 -0.5386  2.2145 -1.6087
 6564TIP3    H241252   1.366   3.425   0.155 -0.9848  2.2779 -1.7011
 6565TIP3   OH241253   1.344   1.778   0.371 -0.7916 -0.1685 -0.2393
 6565TIP3    H141254   1.333   1.688   0.339  0.6746 -0.2277 -0.6597
 6565TIP3    H241255   1.288   1.831   0.315 -1.2413 -0.7554 -0.3558
 6566TIP3   OH241256   0.038   2.723   8.324  0.0500  0.1343  0.6240
 6566TIP3    H141257   0.124   2.680   8.330 -0.5994 -1.1560  1.0595
 6566TIP3    H241258   0.039   2.788   8.393 -0.6092 -2.3088  3.0951
 6567TIP3   OH241259   5.804   3.137   0.261  0.2078 -0.2965 -0.1192
 6567TIP3    H141260   5.736   3.091   0.213  0.8783 -0.3386 -1.0412
 6567TIP3    H241261   5.772   3.140   0.351 -0.4037 -1.4812 -0.2825
 6568TIP3   OH241262   2.499   6.578   0.136  0.1594 -0.1552 -0.2150
 6568TIP3    H141263   2.594   6.587   0.149  0.1117 -0.2272  0.2096
 6568TIP3    H241264   2.484   6.484   0.134 -0.2659 -0.2501  2.7310
 6569TIP3   OH241265   5.676   6.425   7.634  0.7806 -0.1264 -0.5710
 6569TIP3    H141266   5.681   6.440   7.539 -0.5061  0.8293 -0.5114
 6569TIP3    H241267   5.583   6.417   7.652  0.8737  1.3308  0.8328
 6570TIP3   OH241268   0.881   6.607   1.910  0.3738 -0.0184  0.6013
 6570TIP3    H141269   0.865   6.626   2.003 -1.0106  1.6008  0.0961
 6570TIP3    H241270   0.793   6.602   1.872  0.9338  1.1281 -0.9199
 6571TIP3   OH241271   1.523   6.699   8.133 -0.3714 -0.1685 -0.5431
 6571TIP3    H141272   1.505   6.787   8.168 -1.3581 -0.1252 -1.1131
 6571TIP3    H241273   1.440   6.653   8.141  0.1585 -1.0825 -0.1968
 6572TIP3   OH241274   4.350   1.917   2.469  0.3449 -0.7061 -0.2142
 6572TIP3    H141275   4.320   2.004   2.495  2.4940 -0.2260  0.8417
 6572TIP3    H241276   4.280   1.858   2.497  0.5974  0.2717  2.7449
 6573TIP3   OH241277   0.221   0.068   1.889 -0.1286 -0.0817 -0.3439
 6573TIP3    H141278   0.218   0.163   1.898  0.7777 -0.1479  0.8408
 6573TIP3    H241279   0.179   0.051   1.805 -0.2623  1.3613 -0.5964
 6574TIP3   OH241280   3.341   6.890   0.467 -0.0030  0.4691  0.0154
 6574TIP3    H141281   3.260   6.843   0.487 -0.2319  0.0560 -1.7035
 6574TIP3    H241282   3.378   6.913   0.553 -1.3619 -0.3050  0.8399
 6575TIP3   OH241283   3.505   0.187   7.494 -0.2889 -0.3124 -0.1674
 6575TIP3    H141284   3.432   0.201   7.553  1.1290  1.2370  1.3351
 6575TIP3    H241285   3.575   0.151   7.549 -0.0435 -2.3212 -1.6685
 6576TIP3   OH241286   1.277   4.565   7.459  0.0711 -0.2244 -0.2026
 6576TIP3    H141287   1.345   4.613   7.507  0.6706  0.7623 -1.9496
 6576TIP3    H241288   1.249   4.626   7.391 -1.2440 -1.3221 -0.6724
 6577TIP3   OH241289   2.463   5.045   0.193 -0.1100 -0.0159  0.9930
 6577TIP3    H141290   2.527   4.995   0.244  1.7177  0.6358 -0.5374
 6577TIP3    H241291   2.505   5.059   0.109 -2.5462 -0.0257 -0.3062
 6578TIP3   OH241292   0.291   1.540   0.338  0.1187 -0.4168  0.3908
 6578TIP3    H141293   0.271   1.463   0.285 -0.0441 -0.4692  0.5242
 6578TIP3    H241294   0.276   1.614   0.279 -1.4518 -0.4091  0.7573
 6579TIP3   OH241295   3.680   6.517   0.283  0.6432  0.0828 -0.1939
 6579TIP3    H141296   3.734   6.515   0.204  0.5843  0.4557 -0.2431
 6579TIP3    H241297   3.656   6.609   0.294  0.1125 -0.0653 -0.1014
 6580TIP3   OH241298   2.722   3.392   1.360  0.1412  0.1535  0.2741
 6580TIP3    H141299   2.630   3.390   1.334 -0.0765  0.5557  1.0029
 6580TIP3    H241300   2.730   3.323   1.425 -0.2496  1.7740  2.1277
 6581TIP3   OH241301   1.007   1.841   8.230 -0.3170 -0.2068 -0.3565
 6581TIP3    H141302   1.084   1.802   8.271  0.0526  0.5661 -0.3006
 6581TIP3    H241303   0.992   1.787   8.152  0.6020 -0.0542 -0.6528
 6582TIP3   OH241304   5.649   6.098   0.701 -0.1767 -0.2800 -0.2215
 6582TIP3    H141305   5.554   6.103   0.695 -0.5554 -2.3313  2.2567
 6582TIP3    H241306   5.674   6.176   0.751 -0.8170 -0.7153  0.8085
 6583TIP3   OH241307   1.973   1.803   8.090  0.0843  0.1565 -0.5937
 6583TIP3    H141308   2.061   1.806   8.127 -0.7137 -0.3440  1.4603
 6583TIP3    H241309   1.957   1.892   8.059  0.5842  0.7532  0.7960
 6584TIP3   OH241310   0.555   1.313   7.354 -0.0566  0.0642 -0.5600
 6584TIP3    H141311   0.591   1.261   7.282  0.3325 -1.1486  0.4851
 6584TIP3    H241312   0.494   1.254   7.399 -2.8376  1.7956 -1.7747
 6585TIP3   OH241313   0.854   1.279   7.049 -0.1759  0.2583 -0.0430
 6585TIP3    H141314   0.831   1.372   7.054  1.8043  0.8388 -0.7651
 6585TIP3    H241315   0.943   1.275   7.086  0.5126 -1.0171 -1.6985
 6586TIP3   OH241316   3.671   4.939   7.143 -0.1556  0.2136 -0.9401
 6586TIP3    H141317   3.632   4.852   7.147  0.0008  0.1445 -0.8970
 6586TIP3    H241318   3.674   4.968   7.234 -2.0938  1.1140 -1.1271
 6587TIP3   OH241319   3.229   0.625   1.346 -0.1207 -0.3292  0.9477
 6587TIP3    H141320   3.199   0.713   1.370 -2.7267 -0.9961  0.4392
 6587TIP3    H241321   3.248   0.632   1.252  1.4342  0.0626  1.2465
 6588TIP3   OH241322   5.339   3.636   8.452 -0.3440 -0.6563  0.7731
 6588TIP3    H141323   5.405   3.701   8.476 -1.3399  1.3411 -1.4671
 6588TIP3    H241324   5.264   3.656   8.508 -0.6419  0.2075  0.1031
 6589TIP3   OH241325   4.975   0.957   0.324 -0.5031 -0.2086  0.7324
 6589TIP3    H141326   4.935   1.042   0.306 -0.8538 -0.7601 -1.4115
 6589TIP3    H241327   4.948   0.935   0.413 -1.8607  1.1292  0.6776
 6590TIP3   OH241328   2.110   1.480   8.364 -0.0385 -0.3509  0.0587
 6590TIP3    H141329   2.180   1.416   8.375 -1.7155 -2.2509  0.3371
 6590TIP3    H241330   2.043   1.434   8.313 -0.4575  1.9332 -1.6241
 6591TIP3   OH241331   0.893   4.821   7.337 -0.1501  0.7173  0.0518
 6591TIP3    H141332   0.931   4.905   7.312 -1.7845  0.9902 -1.7365
 6591TIP3    H241333   0.945   4.792   7.412  1.9558  2.1879 -0.7601
 6592TIP3   OH241334   0.132   1.243   7.409 -0.1157 -0.1336  0.0670
 6592TIP3    H141335   0.093   1.200   7.486 -0.1091 -0.0695  0.1068
 6592TIP3    H241336   0.209   1.191   7.388  0.5987  0.5741  0.8775
 6593TIP3   OH241337   2.846   3.203   3.034 -0.0864 -1.1808  0.3120
 6593TIP3    H141338   2.789   3.270   3.072 -0.0679 -0.5170 -0.7721
 6593TIP3    H241339   2.820   3.200   2.942  3.4919  1.2650 -0.9942
 6594TIP3   OH241340   2.224   2.430   7.446  0.0391 -0.3643 -0.0286
 6594TIP3    H141341   2.309   2.465   7.473  0.4184 -1.1133 -0.2342
 6594TIP3    H241342   2.223   2.442   7.351  0.2408 -1.0467 -0.1209
 6595TIP3   OH241343   4.076   4.363   7.289  0.4461 -0.0430 -0.6175
 6595TIP3    H141344   4.050   4.276   7.318  2.8035 -1.9507 -3.5998
 6595TIP3    H241345   4.019   4.382   7.215 -1.2926  1.9221  1.0915
 6596TIP3   OH241346   0.073   6.272   0.007 -0.9242 -0.0983 -0.4953
 6596TIP3    H141347  -0.001   6.304  -0.044 -0.3218  0.9774 -0.7429
 6596TIP3    H241348   0.118   6.352   0.036  0.2800 -0.7200 -0.5764
 6597TIP3   OH241349   4.370   2.461   7.165  0.2301 -0.2397 -0.0045
 6597TIP3    H141350   4.421   2.381   7.159 -1.1570 -1.2955  1.3577
 6597TIP3    H241351   4.421   2.518   7.223  1.2398 -0.0778 -1.0089
 6598TIP3   OH241352   5.979   2.667   0.811 -0.3508  0.2387 -0.1031
 6598TIP3    H141353   5.909   2.615   0.772  1.3746 -1.2399 -1.4572
 6598TIP3    H241354   6.004   2.729   0.742  0.3052  0.0989  0.0024
 6599TIP3   OH241355   4.268   3.202   2.452 -0.1453  0.2192  0.2967
 6599TIP3    H141356   4.230   3.120   2.423  0.5995  0.2539 -0.8247
 6599TIP3    H241357   4.212   3.230   2.525  0.4745 -2.0466  1.7439
 6600TIP3   OH241358   0.622   5.344   2.547 -0.9250 -0.0003 -0.5538
 6600TIP3    H141359   0.701   5.314   2.503 -1.2535 -0.0885 -1.1032
 6600TIP3    H241360   0.594   5.270   2.601  0.1344  0.5134  0.7601
 6601TIP3   OH241361   5.675   5.348   1.660 -0.0736 -0.2869 -0.2008
 6601TIP3    H141362   5.767   5.343   1.636  0.2246  0.4845  0.7574
 6601TIP3    H241363   5.647   5.436   1.632 -0.4553 -0.4231 -0.2610
 6602TIP3   OH241364   6.827   3.855   1.373  0.6456 -0.3622 -0.1729
 6602TIP3    H141365   6.834   3.928   1.311 -1.6877 -1.0619 -1.3535
 6602TIP3    H241366   6.916   3.818   1.376  1.6556  1.9015 -0.2600
 6603TIP3   OH241367   4.759   3.871   2.282 -0.3083  0.3077 -0.2953
 6603TIP3    H141368   4.792   3.924   2.355  0.1302 -0.2728 -0.0740
 6603TIP3    H241369   4.664   3.887   2.283 -0.2131  0.9176 -0.0981
 6604TIP3   OH241370   2.746   4.236   0.194  0.3630  0.2104  0.3615
 6604TIP3    H141371   2.764   4.329   0.182 -1.1833  0.7247  1.5720
 6604TIP3    H241372   2.750   4.198   0.106 -0.6813  1.7671 -0.4009
 6605TIP3   OH241373   5.806   5.832   1.045  0.1082  0.2561  0.6112
 6605TIP3    H141374   5.777   5.914   1.085  2.6379  2.0790 -0.9173
 6605TIP3    H241375   5.726   5.790   1.015 -1.2512  3.0902 -0.1347
 6606TIP3   OH241376   5.543   1.879   0.400 -0.5242 -0.1160  0.2172
 6606TIP3    H141377   5.471   1.942   0.407 -0.5608 -0.1717  0.3524
 6606TIP3    H241378   5.603   1.904   0.470 -0.6957 -0.4312  0.4793
 6607TIP3   OH241379   3.099   4.740   0.143 -0.2248 -0.2653  0.0818
 6607TIP3    H141380   3.172   4.800   0.128 -1.0740  0.8238  0.1464
 6607TIP3    H241381   3.140   4.657   0.168  0.9871  0.2011 -0.2955
 6608TIP3   OH241382   6.433   3.692   0.489  0.0294 -0.0309  0.2905
 6608TIP3    H141383   6.511   3.718   0.538 -0.6728 -0.1136  1.4861
 6608TIP3    H241384   6.374   3.767   0.496 -0.3031 -0.2678  0.0561
 6609TIP3   OH241385   1.532   2.926   8.221  0.3686  0.4063  0.3985
 6609TIP3    H141386   1.443   2.962   8.230  0.9985  2.2983 -0.5493
 6609TIP3    H241387   1.583   2.973   8.286  1.0493  0.6480 -0.3026
 6610TIP3   OH241388   5.789   3.844   7.105 -0.3621  0.5665  0.1470
 6610TIP3    H141389   5.780   3.898   7.184  0.6149  0.2249  0.5013
 6610TIP3    H241390   5.829   3.903   7.041 -0.3938  0.6088  0.1662
 6611TIP3   OH241391   2.904   5.807   0.702  0.6128 -0.3006  0.1991
 6611TIP3    H141392   2.812   5.821   0.680  1.0736  3.7317  0.0127
 6611TIP3    H241393   2.908   5.818   0.797  0.9241 -0.0858  0.1655
 6612TIP3   OH241394   6.885   2.066   0.783  0.0733  0.3444  0.1676
 6612TIP3    H141395   6.950   2.000   0.756  0.6074  0.8934  0.0958
 6612TIP3    H241396   6.829   2.076   0.706 -0.0831 -0.1027  0.2160
 6613TIP3   OH241397   5.278   4.823   7.216 -0.3215 -0.5146  0.2604
 6613TIP3    H141398   5.347   4.776   7.169 -2.0813 -2.4558 -0.5265
 6613TIP3    H241399   5.270   4.907   7.170 -0.4686 -1.4509 -1.5060
 6614TIP3   OH241400   6.685   5.234   0.922  0.2841 -0.0944  0.0815
 6614TIP3    H141401   6.675   5.140   0.913 -0.0386 -0.0692  0.1436
 6614TIP3    H241402   6.631   5.271   0.852  1.1462  0.0297 -0.5196
 6615TIP3   OH241403   0.739   1.660   0.229  0.0812  0.5559 -0.0142
 6615TIP3    H141404   0.743   1.754   0.244  0.0262  0.5683 -0.0789
 6615TIP3    H241405   0.827   1.629   0.252  0.0499  0.5983  0.1689
 6616TIP3   OH241406   3.081   5.154   6.635  0.1803  0.0424  0.6508
 6616TIP3    H141407   3.138   5.216   6.591  2.1619 -0.6473  2.1273
 6616TIP3    H241408   3.115   5.068   6.611 -2.2067 -0.5813 -0.9494
 6617TIP3   OH241409   2.341   4.718   8.057  0.1250 -0.3807 -0.5992
 6617TIP3    H141410   2.405   4.672   8.003  1.1380  0.1808  0.0952
 6617TIP3    H241411   2.318   4.796   8.006 -0.3175 -0.7758 -1.0202
 6618TIP3   OH241412   5.342   1.628   7.940  0.0804  0.5423  0.2334
 6618TIP3    H141413   5.293   1.710   7.951  0.1304  0.6524 -0.3110
 6618TIP3    H241414   5.304   1.588   7.862  0.3408  0.2489  0.2555
 6619TIP3   OH241415   3.310   2.895   7.491 -0.0720  0.2551  0.3965
 6619TIP3    H141416   3.217   2.892   7.471 -0.1137 -0.9695  0.6804
 6619TIP3    H241417   3.345   2.814   7.453  0.6762  0.1634  1.2491
 6620TIP3   OH241418   2.593   4.512   7.971 -0.1120 -0.3438  0.1473
 6620TIP3    H141419   2.655   4.514   7.899 -0.2318 -0.6897  0.0345
 6620TIP3    H241420   2.514   4.473   7.934 -0.6643  0.7782  0.0809
 6621TIP3   OH241421   2.348   3.432   7.821 -0.4543 -0.3757  0.4931
 6621TIP3    H141422   2.373   3.499   7.757  2.2863  0.5531  2.3003
 6621TIP3    H241423   2.377   3.350   7.783  3.2884  0.3750  1.2102
 6622TIP3   OH241424   2.175   1.381   1.862 -0.5562 -0.2848  0.7285
 6622TIP3    H141425   2.188   1.307   1.803 -2.0220  1.2460 -1.7673
 6622TIP3    H241426   2.234   1.449   1.829 -0.6334  0.2883  1.7216
 6623TIP3   OH241427   4.894   3.128   0.797 -0.4382  0.0325 -0.0791
 6623TIP3    H141428   4.891   3.059   0.863 -1.7215  1.9351  2.0278
 6623TIP3    H241429   4.808   3.125   0.756 -0.1403 -0.2355 -0.6931
 6624TIP3   OH241430   3.205   2.035   8.507 -0.2326  0.4317  0.0926
 6624TIP3    H141431   3.243   2.017   8.593 -0.0929  1.0735  0.1737
 6624TIP3    H241432   3.225   2.127   8.491  0.6059  0.0803 -1.0527
 6625TIP3   OH241433   1.477   5.632   1.639  0.1955  0.2082  0.4061
 6625TIP3    H141434   1.524   5.673   1.712 -0.8876  2.4808 -0.1017
 6625TIP3    H241435   1.391   5.611   1.675 -0.1572  0.8396 -0.0570
 6626TIP3   OH241436   6.672   0.807   7.521 -0.1273  0.0180 -0.1456
 6626TIP3    H141437   6.648   0.722   7.557  1.0565 -0.6165 -0.7859
 6626TIP3    H241438   6.713   0.854   7.593 -0.3658 -0.1327  0.0874
 6627TIP3   OH241439   0.256   6.342   0.792 -0.5349 -0.1454 -0.9382
 6627TIP3    H141440   0.276   6.422   0.743  1.1117 -0.8762 -1.5369
 6627TIP3    H241441   0.339   6.297   0.799 -1.2482 -1.3509  0.2672
 6628TIP3   OH241442   5.610   5.256   8.065  1.0450  0.4872  0.3952
 6628TIP3    H141443   5.516   5.245   8.053  0.9217  1.1775  0.7028
 6628TIP3    H241444   5.649   5.187   8.010  0.3570 -0.2852  0.8460
 6629TIP3   OH241445   6.483   1.549   1.273 -0.7437 -0.4482  0.4266
 6629TIP3    H141446   6.516   1.592   1.193 -0.2714 -0.8168  0.4191
 6629TIP3    H241447   6.433   1.474   1.241 -1.7776  0.2206  0.4308
 6630TIP3   OH241448   0.515   1.587   0.085 -0.4930 -0.3611  0.0700
 6630TIP3    H141449   0.592   1.613   0.135  0.2340 -1.1408 -0.6197
 6630TIP3    H241450   0.474   1.670   0.060 -0.5008  0.0456  1.3613
 6631TIP3   OH241451   5.177   4.767   0.193  0.4057  0.1626  0.0166
 6631TIP3    H141452   5.135   4.769   0.279  1.2405  0.0115  0.4394
 6631TIP3    H241453   5.123   4.824   0.139  0.0804  0.5693  0.7451
 6632TIP3   OH241454   4.609   3.646   1.612  0.4109  0.2227  0.3501
 6632TIP3    H141455   4.609   3.550   1.607 -0.9715  0.0723  2.1688
 6632TIP3    H241456   4.685   3.667   1.666  1.6833  0.3085 -1.3957
 6633TIP3   OH241457   1.226   4.553   6.180 -0.3890  0.1494  0.2980
 6633TIP3    H141458   1.180   4.550   6.264  1.0570 -2.3890  1.1298
 6633TIP3    H241459   1.294   4.486   6.188  0.4223  0.4916 -2.5770
 6634TIP3   OH241460   5.411   2.392   7.232  0.4229 -0.3245  0.0467
 6634TIP3    H141461   5.347   2.336   7.189 -0.0188  0.7361 -0.7336
 6634TIP3    H241462   5.485   2.396   7.171 -0.3163  1.3987 -0.8135
 6635TIP3   OH241463   6.672   6.206   0.964 -0.1228  0.2740 -0.2051
 6635TIP3    H141464   6.718   6.277   1.008  0.3841 -0.1595 -0.0287
 6635TIP3    H241465   6.737   6.166   0.907 -0.4441  0.0391 -0.4149
 6636TIP3   OH241466   4.705   2.458   8.414  0.2795  0.3816 -0.0844
 6636TIP3    H141467   4.639   2.389   8.404 -0.7845  1.0193  2.1488
 6636TIP3    H241468   4.762   2.427   8.484  0.8195  1.0183 -0.2290
 6637TIP3   OH241469   5.841   5.494   8.518  0.5024  0.4858 -0.0903
 6637TIP3    H141470   5.790   5.458   8.446 -0.2621  0.4676  0.4453
 6637TIP3    H241471   5.779   5.550   8.566  1.0211  0.5732  0.4988
 6638TIP3   OH241472   5.672   4.849   8.333  0.3119  0.1046 -0.1618
 6638TIP3    H141473   5.681   4.935   8.373  3.8019  0.6283 -1.6962
 6638TIP3    H241474   5.613   4.863   8.259 -1.3108  0.4668  1.1331
 6639TIP3   OH241475   5.524   3.469   2.689 -0.2773  0.2436 -0.2447
 6639TIP3    H141476   5.489   3.532   2.752  0.5494 -0.5561  1.0351
 6639TIP3    H241477   5.453   3.406   2.676 -0.5018  0.4939 -0.2467
 6640TIP3   OH241478   5.996   5.152   2.866  0.9540 -1.0290  0.1585
 6640TIP3    H141479   5.973   5.244   2.858 -0.0424 -1.2507  0.3644
 6640TIP3    H241480   6.091   5.152   2.879  0.6474  0.1630  3.1012
 6641TIP3   OH241481   4.461   4.641   1.290 -0.1687 -0.4170 -0.2554
 6641TIP3    H141482   4.421   4.629   1.204 -0.0877 -2.0453 -0.0945
 6641TIP3    H241483   4.466   4.553   1.327 -0.4456  0.2827  1.5408
 6642TIP3   OH241484   3.871   5.002   1.176  0.1906  0.5121 -0.2822
 6642TIP3    H141485   3.909   4.914   1.180 -1.2238 -0.0937  0.3838
 6642TIP3    H241486   3.947   5.060   1.163  1.4083 -0.5842  1.4596
 6643TIP3   OH241487   4.331   6.053   0.894  0.2492 -0.0766  0.3183
 6643TIP3    H141488   4.371   6.096   0.818 -1.0082 -0.0642 -0.3547
 6643TIP3    H241489   4.404   6.041   0.955  1.1799  0.4158 -0.6553
 6644TIP3   OH241490   6.339   2.850   8.166 -0.4453  0.4737 -0.1605
 6644TIP3    H141491   6.416   2.799   8.140 -0.4146 -0.1498  1.0762
 6644TIP3    H241492   6.359   2.939   8.137  0.0819  0.0466 -1.1788
 6645TIP3   OH241493   6.513   5.031   0.040  0.6389  0.0201 -0.0087
 6645TIP3    H141494   6.536   5.124   0.033 -1.0503  0.4683 -0.1419
 6645TIP3    H241495   6.549   4.991  -0.039  0.5319  0.7715 -0.4476
 6646TIP3   OH241496   2.820   6.542   0.646 -0.5294 -0.0121 -0.0072
 6646TIP3    H141497   2.798   6.461   0.601 -0.7564 -0.3474  0.6842
 6646TIP3    H241498   2.883   6.515   0.714  1.8512  0.8615 -1.7229
 6647TIP3   OH241499   6.350   5.050   1.988 -0.2350 -0.2129  0.1986
 6647TIP3    H141500   6.339   5.052   1.893 -0.7627 -1.8223  0.1900
 6647TIP3    H241501   6.432   5.004   2.002  0.7667  1.5829  0.5230
 6648TIP3   OH241502   1.360   0.028   8.285 -0.3540  0.3242  0.2234
 6648TIP3    H141503   1.305   0.021   8.206 -0.6895  0.2429  0.4623
 6648TIP3    H241504   1.336   0.112   8.323 -1.0590 -0.1537  0.8763
 6649TIP3   OH241505   1.541   6.199   7.498 -0.4577  0.0074 -0.5363
 6649TIP3    H141506   1.545   6.139   7.572  0.2834  0.4495 -0.2116
 6649TIP3    H241507   1.489   6.273   7.529 -0.2776  0.1222 -0.5087
 6650TIP3   OH241508   6.518   2.612   1.097  0.7083  0.6272  0.3651
 6650TIP3    H141509   6.441   2.609   1.040  1.7575  0.5677 -1.1171
 6650TIP3    H241510   6.507   2.536   1.155  0.2498 -0.0964 -0.6418
 6651TIP3   OH241511   2.181   1.793   2.123 -0.2110 -0.2862  0.2714
 6651TIP3    H141512   2.189   1.878   2.079 -0.8570 -0.7089 -0.7092
 6651TIP3    H241513   2.086   1.781   2.135 -0.1055 -0.7219  0.7047
 6652TIP3   OH241514   0.290   4.334   2.028  0.2755 -0.4900  0.6746
 6652TIP3    H141515   0.384   4.354   2.028  0.0386  0.6531  0.7511
 6652TIP3    H241516   0.278   4.276   2.104  0.8439 -0.2913  0.9202
 6653TIP3   OH241517   0.288   1.258   8.562  0.0384  1.0928  0.2168
 6653TIP3    H141518   0.297   1.353   8.559 -2.8202  1.5188  1.3438
 6653TIP3    H241519   0.263   1.239   8.652 -1.4896 -0.4337 -0.4599
 6654TIP3   OH241520   6.686   3.250   0.936 -0.4758  0.8077  0.3596
 6654TIP3    H141521   6.715   3.168   0.897  2.0661  1.1902  1.2532
 6654TIP3    H241522   6.640   3.224   1.016 -0.5570  0.2258  0.1274
 6655TIP3   OH241523   3.804   3.075   1.816  0.4955 -1.2898  0.0459
 6655TIP3    H141524   3.815   3.152   1.872 -2.2166 -0.1477 -0.8019
 6655TIP3    H241525   3.829   3.104   1.729 -2.3868 -0.6196 -0.6631
 6656TIP3   OH241526   3.721   3.829   0.683 -0.2646  0.0985 -0.0494
 6656TIP3    H141527   3.816   3.839   0.670 -0.5049  1.5157 -1.0117
 6656TIP3    H241528   3.706   3.735   0.681  1.0658 -0.1297 -0.3522
 6657TIP3   OH241529   6.129   2.311   6.639 -0.4696 -0.3226  0.0731
 6657TIP3    H141530   6.076   2.235   6.613  1.6638 -2.6400  1.9491
 6657TIP3    H241531   6.066   2.375   6.671 -2.3663 -1.3300 -1.4711
 6658TIP3   OH241532   0.138   0.365   7.508  0.2743 -0.5863 -0.6648
 6658TIP3    H141533   0.115   0.274   7.531 -0.1405 -0.9240 -2.2747
 6658TIP3    H241534   0.234   0.367   7.512  0.2359 -0.6637  0.8284
 6659TIP3   OH241535   4.026   5.205   0.825  0.4281 -0.0060  0.6459
 6659TIP3    H141536   3.994   5.115   0.824  2.1948 -0.6741 -0.3676
 6659TIP3    H241537   4.054   5.219   0.915 -1.0848  0.0330  1.1447
 6660TIP3   OH241538   0.196   4.817   2.641 -0.0715  0.3466 -0.2379
 6660TIP3    H141539   0.107   4.818   2.606 -0.1409 -1.4810 -0.2319
 6660TIP3    H241540   0.199   4.891   2.702 -2.3608 -0.8901  1.5444
 6661TIP3   OH241541   0.852   3.207   8.496  0.0237 -0.4815  0.3579
 6661TIP3    H141542   0.785   3.218   8.428 -0.4725 -0.3698  0.8634
 6661TIP3    H241543   0.863   3.112   8.504  0.9839 -0.4844 -0.7513
 6662TIP3   OH241544   4.731   5.393   2.708  0.1702 -0.2523  0.2812
 6662TIP3    H141545   4.648   5.390   2.756  0.2303 -2.3218  0.3229
 6662TIP3    H241546   4.778   5.314   2.735  1.8916  0.5220 -0.2595
 6663TIP3   OH241547   2.239   2.685   1.513  0.5046 -0.0532  0.5032
 6663TIP3    H141548   2.160   2.707   1.464 -0.2598 -2.0520  0.7448
 6663TIP3    H241549   2.243   2.750   1.583 -1.1928 -0.1710  0.7502
 6664TIP3   OH241550   2.309   3.778   7.965 -0.0476 -0.0700  0.5072
 6664TIP3    H141551   2.239   3.839   7.987 -1.3732 -1.3183 -0.0793
 6664TIP3    H241552   2.322   3.727   8.044 -0.7243 -0.6868  0.2323
 6665TIP3   OH241553   5.808   0.871   6.657  0.0012 -0.2970 -0.0949
 6665TIP3    H141554   5.822   0.808   6.587 -0.6632  1.6640 -2.1102
 6665TIP3    H241555   5.817   0.957   6.615  0.2145  0.9958  2.3680
 6666TIP3   OH241556   2.595   0.312   0.577 -0.6284  0.0396  0.1077
 6666TIP3    H141557   2.680   0.313   0.621 -0.0056  1.0638 -1.0499
 6666TIP3    H241558   2.532   0.298   0.648  0.4733 -0.4170  1.0301
 6667TIP3   OH241559   2.603   1.263   1.125 -0.4093  0.7140  0.0672
 6667TIP3    H141560   2.644   1.292   1.206  0.5833  0.7905 -0.4593
 6667TIP3    H241561   2.512   1.244   1.150 -0.9191  3.4820  0.6159
 6668TIP3   OH241562   2.427   0.868   0.351 -0.2954  0.1699  0.4631
 6668TIP3    H141563   2.416   0.866   0.446 -3.0224  0.4828  0.2257
 6668TIP3    H241564   2.452   0.958   0.332 -1.0510  0.4502  0.7810
 6669TIP3   OH241565   6.508   6.209   7.640  0.1083 -0.6530 -0.2928
 6669TIP3    H141566   6.436   6.251   7.593  0.6361  1.3813  0.6258
 6669TIP3    H241567   6.569   6.181   7.572  0.2005  0.9756 -0.9029
 6670TIP3   OH241568   5.134   5.022   0.562  0.7079 -0.1336 -0.6848
 6670TIP3    H141569   5.083   4.948   0.593 -2.5609  2.8660  1.9780
 6670TIP3    H241570   5.220   5.012   0.603 -0.5744 -1.0849  1.9504
 6671TIP3   OH241571   1.152   4.436   6.911  0.1920  0.1350  0.5367
 6671TIP3    H141572   1.108   4.357   6.941 -0.2557  0.4654  0.7525
 6671TIP3    H241573   1.151   4.495   6.987 -0.4680  0.7705  0.0550
 6672TIP3   OH241574   5.360   0.601   0.040  0.2969  0.0705  0.2410
 6672TIP3    H141575   5.452   0.623   0.034  0.2064 -0.0037 -2.2950
 6672TIP3    H241576   5.315   0.665  -0.016 -1.1247 -0.2715  0.9283
 6673TIP3   OH241577   2.219   1.943   6.793  0.5303  0.4343  0.1292
 6673TIP3    H141578   2.151   1.996   6.751 -1.5335 -1.7461  0.5193
 6673TIP3    H241579   2.248   1.996   6.867 -2.2599  0.6374  1.1835
 6674TIP3   OH241580   3.124   3.558   0.255  0.5517  0.2422 -0.4593
 6674TIP3    H141581   3.057   3.553   0.186 -0.3619  1.4792  0.2864
 6674TIP3    H241582   3.161   3.645   0.246 -0.5528  0.9784  1.4276
 6675TIP3   OH241583   6.777   0.561   0.707  0.0369  0.4761  0.1218
 6675TIP3    H141584   6.704   0.607   0.749 -1.5034 -0.4551 -1.3664
 6675TIP3    H241585   6.838   0.542   0.778 -1.0944  1.4263  1.4106
 6676TIP3   OH241586   2.120   1.347   6.720 -0.2118 -0.2107 -0.0065
 6676TIP3    H141587   2.149   1.317   6.634  1.8756 -0.0818  0.5893
 6676TIP3    H241588   2.103   1.267   6.769  0.9864 -0.3514  0.1997
 6677TIP3   OH241589   2.667   6.506   2.305  0.1435  0.3793 -0.1467
 6677TIP3    H141590   2.695   6.421   2.271  1.8002  1.1173 -0.7075
 6677TIP3    H241591   2.745   6.543   2.345 -0.5875  1.5895  0.2040
 6678TIP3   OH241592   5.406   5.526   7.146  0.1477 -0.2069 -0.0719
 6678TIP3    H141593   5.472   5.493   7.086 -0.9937 -2.7535 -0.0407
 6678TIP3    H241594   5.384   5.613   7.112  2.3827  0.0932 -0.9318
 6679TIP3   OH241595   2.867   4.425   0.595  0.6629 -0.0925  0.0155
 6679TIP3    H141596   2.865   4.506   0.544 -0.0706 -0.7326 -1.0075
 6679TIP3    H241597   2.776   4.401   0.606  0.8808 -0.8386  0.2274
 6680TIP3   OH241598   1.833   3.746   2.672  0.5514  0.1010 -0.1229
 6680TIP3    H141599   1.832   3.654   2.645  0.3612  0.0656  0.0047
 6680TIP3    H241600   1.923   3.762   2.699  0.3484 -0.3451  0.8640
 6681TIP3   OH241601   1.759   5.141   1.137 -0.7776  0.1481 -0.5371
 6681TIP3    H141602   1.784   5.079   1.069 -2.3637 -0.8337 -0.2867
 6681TIP3    H241603   1.691   5.196   1.096 -0.3867  0.8121 -0.3217
 6682TIP3   OH241604   3.418   4.455   6.703 -0.3208  0.7498  0.0806
 6682TIP3    H141605   3.450   4.492   6.785 -0.2883  0.4291  0.2105
 6682TIP3    H241606   3.395   4.365   6.724 -1.8700  1.1251  0.1402
 6683TIP3   OH241607   2.445   4.440   7.422 -0.2682 -0.4677  0.0989
 6683TIP3    H141608   2.464   4.433   7.328 -0.6916 -1.3173  0.0726
 6683TIP3    H241609   2.381   4.371   7.439 -0.3802 -0.1571  0.9686
 6684TIP3   OH241610   3.586   5.653   2.030 -0.4698 -0.0249  0.2353
 6684TIP3    H141611   3.549   5.736   1.998 -0.6711 -0.5302 -0.8950
 6684TIP3    H241612   3.618   5.674   2.117 -1.8146  0.8947  0.5485
 6685TIP3   OH241613   2.064   0.139   2.050  0.5757  0.3638 -0.1848
 6685TIP3    H141614   2.128   0.199   2.089  2.4392  0.8441 -3.5187
 6685TIP3    H241615   2.094   0.052   2.074  3.3263  0.5194 -2.4567
 6686TIP3   OH241616   0.089   0.003   2.110 -0.9573 -0.5263  0.0842
 6686TIP3    H141617   0.136   0.044   2.182 -1.3875 -3.5912  2.3128
 6686TIP3    H241618   0.133   0.035   2.031  0.9157  1.3534  1.7680
 6687TIP3   OH241619   3.979   2.835   7.472 -0.3333  0.0493  0.0520
 6687TIP3    H141620   3.919   2.786   7.416  0.5549  0.3572 -1.2157
 6687TIP3    H241621   3.977   2.789   7.556 -1.6453 -0.4615 -0.2377
 6688TIP3   OH241622   5.003   1.945   0.383  0.1055 -0.1747 -0.5093
 6688TIP3    H141623   5.057   1.888   0.437  2.8285 -0.6714 -3.4841
 6688TIP3    H241624   4.962   1.886   0.319  0.2769  0.8065 -1.5538
 6689TIP3   OH241625   2.607   5.557   2.334 -0.3113 -0.0113  0.0544
 6689TIP3    H141626   2.560   5.514   2.406 -2.1098  1.0762 -0.3796
 6689TIP3    H241627   2.655   5.628   2.377  0.7992 -0.9933  0.4803
 6690TIP3   OH241628   3.668   4.528   7.686 -0.7274 -0.0527  0.7095
 6690TIP3    H141629   3.674   4.437   7.715  0.3354 -0.3501 -0.3589
 6690TIP3    H241630   3.674   4.524   7.590 -3.0444  0.9780  0.4580
 6691TIP3   OH241631   2.599   6.210   0.337 -0.7802  0.0755 -0.3403
 6691TIP3    H141632   2.672   6.214   0.276  0.4508 -1.4195  0.9586
 6691TIP3    H241633   2.527   6.173   0.286 -0.8035  1.9536 -1.7466
 6692TIP3   OH241634   3.795   0.936   7.880 -0.5272  0.5186 -0.2155
 6692TIP3    H141635   3.721   0.970   7.830  1.1069  2.0427 -1.7459
 6692TIP3    H241636   3.853   1.011   7.891  0.1544 -0.2918  2.2026
 6693TIP3   OH241637   2.197   4.659   8.313 -0.3200 -0.6752  0.0133
 6693TIP3    H141638   2.272   4.663   8.372 -1.3280 -2.3077  1.5037
 6693TIP3    H241639   2.232   4.681   8.227  1.2224  1.8239  1.1649
 6694TIP3   OH241640   1.219   5.408   0.583  0.5709  0.4958  0.1226
 6694TIP3    H141641   1.208   5.493   0.626  1.1344  0.3627  0.5504
 6694TIP3    H241642   1.310   5.384   0.601  1.2489  1.0186 -2.2430
 6695TIP3   OH241643   5.123   2.819   6.488  0.0555 -0.6443  0.6076
 6695TIP3    H141644   5.201   2.764   6.475  0.6250  0.5701 -1.6928
 6695TIP3    H241645   5.050   2.762   6.466  0.2783 -1.5906  2.1057
 6696TIP3   OH241646   6.007   5.576   7.899  0.0978  0.1826  0.5002
 6696TIP3    H141647   5.996   5.492   7.944  0.7994 -0.3165 -0.2375
 6696TIP3    H241648   5.985   5.558   7.808 -0.4802  0.9822  0.4737
 6697TIP3   OH241649   0.847   3.315   7.905 -0.3880  0.7461 -0.0495
 6697TIP3    H141650   0.809   3.285   7.987 -1.6675 -0.4048 -1.0106
 6697TIP3    H241651   0.937   3.339   7.927  0.3692 -2.6312  1.0979
 6698TIP3   OH241652   5.769   4.058   1.168  0.2409  0.0765 -0.6378
 6698TIP3    H141653   5.842   4.064   1.107  0.3311 -0.7498 -0.6242
 6698TIP3    H241654   5.704   4.120   1.134  1.0450  1.0024 -0.4944
 6699TIP3   OH241655   2.666   2.301   7.575  0.1586  0.0013  0.1960
 6699TIP3    H141656   2.623   2.219   7.551  0.6846 -0.1593 -0.2244
 6699TIP3    H241657   2.742   2.306   7.517  0.9879  0.0262  1.2471
 6700TIP3   OH241658   3.417   2.204   1.474 -0.5823  0.1887  0.2467
 6700TIP3    H141659   3.387   2.119   1.508  0.6980 -0.5162 -0.3229
 6700TIP3    H241660   3.337   2.246   1.442 -0.9852 -1.8641 -1.7224
 6701TIP3   OH241661   0.776   0.293   1.759 -0.2361  0.3529  0.6106
 6701TIP3    H141662   0.805   0.367   1.814  0.1295 -0.7165  1.8980
 6701TIP3    H241663   0.685   0.314   1.738  0.8011  2.9660 -2.1469
 6702TIP3   OH241664   4.130   6.315   2.140 -0.2245  0.3833  0.3436
 6702TIP3    H141665   4.080   6.247   2.095  2.4206 -1.4352 -0.0485
 6702TIP3    H241666   4.165   6.272   2.218  2.8831  0.6591 -0.7573
 6703TIP3   OH241667   1.590   3.680   2.506  0.0322  0.0305  0.5828
 6703TIP3    H141668   1.670   3.721   2.539  1.0631 -0.9901 -0.5692
 6703TIP3    H241669   1.595   3.590   2.537  1.3062 -1.1318 -2.5839
 6704TIP3   OH241670   0.368   5.745   8.383 -0.2467 -0.0095 -0.5131
 6704TIP3    H141671   0.402   5.834   8.398 -1.0721  0.0896  0.9999
 6704TIP3    H241672   0.280   5.747   8.420  0.3487 -1.9311  1.1814
 6705TIP3   OH241673   6.645   3.313   7.991  0.1312 -0.2104  0.5722
 6705TIP3    H141674   6.552   3.298   8.008 -0.0395  0.6720  0.4877
 6705TIP3    H241675   6.666   3.256   7.917 -0.0793 -1.1879  1.2412
 6706TIP3   OH241676   3.835   1.789   8.296  0.5200 -0.2532  0.3985
 6706TIP3    H141677   3.928   1.768   8.310  0.2631 -1.1118  0.8505
 6706TIP3    H241678   3.822   1.776   8.203  1.1006  0.9019  0.1321
 6707TIP3   OH241679   0.406   2.040   0.963 -0.2550 -0.0124  0.0306
 6707TIP3    H141680   0.362   2.032   0.878  3.4410 -0.2507 -2.0460
 6707TIP3    H241681   0.473   1.972   0.961  0.9955  1.0575  2.4869
 6708TIP3   OH241682   1.312   0.678   7.589 -0.5854 -0.3114 -0.1787
 6708TIP3    H141683   1.255   0.603   7.568 -0.9517 -0.8097  2.2563
 6708TIP3    H241684   1.254   0.739   7.635  0.2101  0.4727 -0.2106
 6709TIP3   OH241685   1.609   0.684   0.066  0.3764  0.5946 -0.2020
 6709TIP3    H141686   1.612   0.641   0.152 -0.1097  0.6559 -0.1550
 6709TIP3    H241687   1.670   0.757   0.074 -1.2594  1.9350  0.8197
 6710TIP3   OH241688   3.021   2.264   0.995 -0.2108 -0.1978 -0.4816
 6710TIP3    H141689   3.103   2.302   1.025  0.1072  0.1506 -1.7234
 6710TIP3    H241690   2.954   2.327   1.021 -0.0821 -0.4190  0.4148
 6711TIP3   OH241691   0.130   0.482   8.445 -0.0485 -0.1593 -0.1328
 6711TIP3    H141692   0.167   0.517   8.364  0.6052 -1.3281 -0.3663
 6711TIP3    H241693   0.133   0.554   8.507  0.2079  0.5104 -0.9143
 6712TIP3   OH241694   2.906   0.304   2.511 -1.0085  0.0106 -0.2413
 6712TIP3    H141695   2.950   0.388   2.524 -0.9354 -0.0737  0.0544
 6712TIP3    H241696   2.874   0.280   2.598 -0.7166 -0.4443 -0.2598
 6713TIP3   OH241697   6.301   1.802   2.193  0.0645 -0.4627  0.3792
 6713TIP3    H141698   6.215   1.843   2.194  0.4995  0.4629  0.5806
 6713TIP3    H241699   6.295   1.734   2.260 -0.6757 -0.7710  0.0084
 6714TIP3   OH241700   1.096   2.162   7.899  0.2454  0.2594 -0.2987
 6714TIP3    H141701   1.062   2.247   7.872  1.6660  0.4483 -1.6772
 6714TIP3    H241702   1.136   2.126   7.819  1.5515 -0.7521  0.7636
 6715TIP3   OH241703   5.333   3.272   2.511 -0.1518 -0.2906 -0.0343
 6715TIP3    H141704   5.263   3.284   2.575  1.0264  0.3670  1.1786
 6715TIP3    H241705   5.367   3.184   2.528 -1.7018 -1.2772 -1.7161
 6716TIP3   OH241706   0.304   3.719   7.703  0.8627 -0.1778  0.2499
 6716TIP3    H141707   0.387   3.735   7.657 -0.8282 -0.5484 -3.2353
 6716TIP3    H241708   0.312   3.629   7.735  2.0261  0.0250  0.6122
 6717TIP3   OH241709   0.882   5.179   1.423  0.4770  0.1624 -0.0477
 6717TIP3    H141710   0.825   5.124   1.370  0.6852  2.1096 -2.4818
 6717TIP3    H241711   0.964   5.131   1.428 -0.9230 -2.2983  2.8246
 6718TIP3   OH241712   0.409   5.073   0.515 -0.0154  0.1328 -0.5524
 6718TIP3    H141713   0.407   5.007   0.584  2.3503  0.5381 -0.0092
 6718TIP3    H241714   0.415   5.157   0.561  0.2114  0.5005 -1.2253
 6719TIP3   OH241715   3.286   5.272   7.683 -0.0440 -0.6678  0.5275
 6719TIP3    H141716   3.270   5.258   7.777  1.0824  1.0167  1.0206
 6719TIP3    H241717   3.199   5.293   7.648 -0.2321  0.5463  1.5977
 6720TIP3   OH241718   0.778   1.495   1.309 -0.0029  0.4496  0.6451
 6720TIP3    H141719   0.783   1.400   1.306 -0.7025  0.4342 -1.8555
 6720TIP3    H241720   0.869   1.524   1.302  0.2742 -0.0051  2.0859
 6721TIP3   OH241721   5.657   5.618   7.809 -0.3541  0.0376  0.4161
 6721TIP3    H141722   5.648   5.574   7.894 -1.0467 -1.3197 -0.3240
 6721TIP3    H241723   5.690   5.550   7.751 -0.0896  0.8999 -0.4623
 6722TIP3   OH241724   2.832   4.202   2.394 -0.0835 -0.1688 -0.2708
 6722TIP3    H141725   2.809   4.162   2.478  0.6319 -2.0179 -0.9075
 6722TIP3    H241726   2.872   4.131   2.344 -1.6685  0.5403 -2.6762
 6723TIP3   OH241727   0.299   4.736   7.268 -0.1819 -0.2031  0.0987
 6723TIP3    H141728   0.278   4.808   7.208 -0.7653  0.3783  0.9757
 6723TIP3    H241729   0.265   4.658   7.223  1.1949 -0.0853 -1.2448
 6724TIP3   OH241730   5.908   6.003   7.330  0.2412  0.2297 -0.2857
 6724TIP3    H141731   5.860   5.941   7.384 -1.3720  0.7823 -1.0181
 6724TIP3    H241732   5.886   5.979   7.240  2.5681 -0.4329 -0.7555
 6725TIP3   OH241733   5.015   3.835   1.420 -0.1967 -0.1828 -0.1179
 6725TIP3    H141734   5.079   3.879   1.364 -0.1971 -0.6520 -0.5014
 6725TIP3    H241735   5.037   3.863   1.509  0.1457  0.1511 -0.3050
 6726TIP3   OH241736   0.620   0.427   1.990 -0.1747 -0.0775  0.3977
 6726TIP3    H141737   0.624   0.349   2.045  0.0759  1.3160  2.4520
 6726TIP3    H241738   0.707   0.467   1.997 -0.1950  0.2402 -0.8810
 6727TIP3   OH241739   0.141   2.930   2.060  0.2553 -0.4797 -0.0926
 6727TIP3    H141740   0.197   2.933   2.138 -0.7690  0.5698  0.6363
 6727TIP3    H241741   0.053   2.915   2.094 -0.4346  1.5003 -0.8825
 6728TIP3   OH241742   2.477   4.716   7.480 -0.1934 -0.0270  0.5076
 6728TIP3    H141743   2.536   4.761   7.419 -0.3225  0.5152  0.7751
 6728TIP3    H241744   2.446   4.639   7.432  0.8505 -0.4089  0.4179
 6729TIP3   OH241745   4.651   4.718   1.701 -0.6192 -0.4578 -0.2069
 6729TIP3    H141746   4.576   4.708   1.760 -1.6360  0.7656 -1.2086
 6729TIP3    H241747   4.696   4.634   1.704 -0.0784 -0.1794  2.9791
 6730TIP3   OH241748   5.355   1.103   8.027  0.2267  0.3634  0.4019
 6730TIP3    H141749   5.418   1.047   7.982  0.7126  2.1492 -1.2669
 6730TIP3    H241750   5.406   1.146   8.095  0.4297  0.5844  0.1124
 6731TIP3   OH241751   0.125   4.961   2.372  0.1560  0.3190  0.1442
 6731TIP3    H141752   0.062   5.023   2.407  0.0235  1.0577 -1.3145
 6731TIP3    H241753   0.104   4.955   2.278  1.3031 -0.5573 -0.0865
 6732TIP3   OH241754   6.770   4.674   1.428  0.2023  0.5778  0.1309
 6732TIP3    H141755   6.795   4.743   1.489  0.6974  0.2723  0.2878
 6732TIP3    H241756   6.773   4.594   1.480  1.2075  0.2339 -0.4103
 6733TIP3   OH241757   2.144   1.568   1.513 -0.5428  1.0104  0.4668
 6733TIP3    H141758   2.112   1.591   1.426 -0.3980  1.3691  0.5058
 6733TIP3    H241759   2.143   1.473   1.515 -2.5442  0.9955  0.8019
 6734TIP3   OH241760   1.496   1.252   1.779 -0.1235 -0.2988 -0.4400
 6734TIP3    H141761   1.501   1.291   1.691 -0.7613 -1.1772 -0.8802
 6734TIP3    H241762   1.439   1.311   1.828 -0.6012 -0.3521 -0.9235
 6735TIP3   OH241763   2.370   0.401   0.407  0.9081 -0.0389 -0.4841
 6735TIP3    H141764   2.449   0.384   0.458  0.4671 -0.2719  0.1225
 6735TIP3    H241765   2.402   0.411   0.317  1.5386 -0.9298 -0.3711
 6736TIP3   OH241766   4.600   2.781   7.736 -0.3028  0.4135  0.0896
 6736TIP3    H141767   4.629   2.870   7.718  0.8044 -0.1900 -1.3562
 6736TIP3    H241768   4.663   2.748   7.800  0.3628  0.1060 -0.7148
 6737TIP3   OH241769   3.826   1.738   0.406 -0.2539  0.0983  0.7516
 6737TIP3    H141770   3.873   1.694   0.335 -2.5745 -1.9933  0.3699
 6737TIP3    H241771   3.801   1.823   0.369  1.7356  0.5807  0.4172
 6738TIP3   OH241772   6.439   5.131   8.334  0.3554 -0.2439  0.3999
 6738TIP3    H141773   6.512   5.069   8.339 -0.1634 -0.8285  0.8645
 6738TIP3    H241774   6.452   5.176   8.250  0.1511 -1.7290 -0.4656
 6739TIP3   OH241775   5.457   0.373   0.693  0.2291 -0.0948  0.2245
 6739TIP3    H141776   5.500   0.290   0.672 -0.2058 -0.5408  1.0519
 6739TIP3    H241777   5.526   0.425   0.733 -0.0904 -1.0384  2.1234
 6740TIP3   OH241778   3.154   0.060   7.511 -0.6461  0.0583 -0.1095
 6740TIP3    H141779   3.196   0.125   7.569  0.4004 -1.4300  0.8669
 6740TIP3    H241780   3.162  -0.023   7.558 -3.6472 -0.5500 -0.4308
 6741TIP3   OH241781   5.281   4.291   7.247  0.2194 -0.1100  0.0502
 6741TIP3    H141782   5.347   4.223   7.260  0.6886  0.6683  2.0354
 6741TIP3    H241783   5.200   4.251   7.278  0.3091 -0.0748  0.3281
 6742TIP3   OH241784   1.796   1.451   1.195 -0.0280  1.1055 -0.2457
 6742TIP3    H141785   1.757   1.370   1.228  0.5055  0.1869 -1.7644
 6742TIP3    H241786   1.725   1.494   1.146  0.3518  0.2928 -1.5466
 6743TIP3   OH241787   4.368   4.523   0.103 -0.2639  0.3253 -0.3993
 6743TIP3    H141788   4.371   4.486   0.015 -0.5652 -1.0598  0.1521
 6743TIP3    H241789   4.458   4.552   0.120  0.1357 -0.7518 -0.6094
 6744TIP3   OH241790   2.539   1.980   0.426  1.2350  0.4223 -0.2047
 6744TIP3    H141791   2.580   1.932   0.354 -0.4484 -1.3200 -0.0876
 6744TIP3    H241792   2.452   2.002   0.393  0.2173 -0.8995  1.4199
 6745TIP3   OH241793   5.900   2.649   0.530 -0.0406 -0.1001  0.0274
 6745TIP3    H141794   5.925   2.605   0.449 -1.3975 -2.0942  0.6396
 6745TIP3    H241795   5.856   2.729   0.501 -2.0215 -1.5914 -1.2959
 6746TIP3   OH241796   6.665   2.674   7.882  0.1211 -0.3034 -0.9759
 6746TIP3    H141797   6.651   2.630   7.798  0.1177 -3.1344  0.4019
 6746TIP3    H241798   6.726   2.745   7.862  1.3680 -1.8675 -3.1182
 6747TIP3   OH241799   0.721   1.644   6.640 -0.9766  0.4949 -0.2876
 6747TIP3    H141800   0.812   1.663   6.665 -0.6861  0.4558 -1.2495
 6747TIP3    H241801   0.721   1.653   6.544 -1.4845 -1.5969 -0.5229
 6748TIP3   OH241802   1.055   3.176   2.158  0.1052 -0.7761 -0.7391
 6748TIP3    H141803   1.050   3.244   2.225 -1.6724 -0.1711 -1.4342
 6748TIP3    H241804   1.067   3.094   2.207  0.0537 -0.2133  0.2302
 6749TIP3   OH241805   5.859   1.026   0.850 -0.3277  0.3294 -0.4899
 6749TIP3    H141806   5.865   1.122   0.846 -1.6355  0.4165 -0.7928
 6749TIP3    H241807   5.822   1.009   0.937  0.5174  0.0526 -0.1776
 6750TIP3   OH241808   2.703   3.314   7.570  0.0315 -0.1775 -0.1259
 6750TIP3    H141809   2.771   3.267   7.522 -0.7663  0.0865 -1.5749
 6750TIP3    H241810   2.734   3.317   7.660  1.4128 -1.0103 -0.5561
 6751TIP3   OH241811   0.073   6.512   0.526  0.4446  0.3704 -0.3188
 6751TIP3    H141812  -0.016   6.535   0.503  0.6292  1.3902 -0.0509
 6751TIP3    H241813   0.080   6.419   0.504 -0.0565  0.7522 -2.2096
 6752TIP3   OH241814   3.869   5.719   0.180 -0.2930  0.1493  0.3040
 6752TIP3    H141815   3.820   5.744   0.259 -0.8848  1.8718 -0.5656
 6752TIP3    H241816   3.857   5.624   0.174 -3.2718  0.4359  0.3115
 6753TIP3   OH241817   6.224   0.275   8.449  0.4051 -0.3311  0.4769
 6753TIP3    H141818   6.154   0.252   8.510 -0.4991  0.0030 -0.4073
 6753TIP3    H241819   6.266   0.191   8.427 -0.9061 -0.7852 -0.3881
 6754TIP3   OH241820   4.178   4.256   0.331  0.5743 -0.6997 -0.0038
 6754TIP3    H141821   4.169   4.328   0.394  2.1731  0.3232 -0.8956
 6754TIP3    H241822   4.099   4.260   0.278 -1.7319 -2.6981  2.9145
 6755TIP3   OH241823   5.982   0.556   0.758 -0.4205 -0.3547 -0.4985
 6755TIP3    H141824   5.991   0.650   0.775 -0.9074 -0.2776 -0.6480
 6755TIP3    H241825   6.024   0.514   0.833 -1.9057 -0.0097  0.5881
 6756TIP3   OH241826   2.553   5.850   1.564 -0.8918 -0.3882 -0.4268
 6756TIP3    H141827   2.491   5.915   1.600 -0.6293 -0.1821 -0.3387
 6756TIP3    H241828   2.624   5.848   1.628 -0.2248  0.2696 -1.1212
 6757TIP3   OH241829   2.840   5.053   1.521  0.3371 -0.2645 -0.3357
 6757TIP3    H141830   2.892   5.129   1.546  0.2129 -0.0279 -0.7783
 6757TIP3    H241831   2.904   4.987   1.497  0.4393 -0.1346 -0.4205
 6758TIP3   OH241832   3.443   5.889   2.073  0.1684 -0.3667  0.1321
 6758TIP3    H141833   3.364   5.840   2.049  0.8882 -2.4680  1.6698
 6758TIP3    H241834   3.418   5.939   2.151 -0.0866  0.3572 -0.4031
 6759TIP3   OH241835   5.192   5.464   8.569 -0.1679 -0.1160 -0.4161
 6759TIP3    H141836   5.158   5.380   8.598 -0.3907 -0.4143 -1.5164
 6759TIP3    H241837   5.287   5.451   8.565 -0.0696  0.1139  0.7153
 6760TIP3   OH241838   1.498   4.249   8.370  0.1657 -0.2213 -0.1926
 6760TIP3    H141839   1.488   4.182   8.302  0.7468 -0.6129  0.0977
 6760TIP3    H241840   1.592   4.268   8.370  0.0892  0.1622  0.1384
 6761TIP3   OH241841   4.864   5.325   0.228 -0.0455  0.3112 -0.3958
 6761TIP3    H141842   4.889   5.391   0.292 -2.1090 -1.0697  2.0334
 6761TIP3    H241843   4.927   5.254   0.239 -0.1213  0.2704 -0.2293
 6762TIP3   OH241844   5.714   5.808   8.159 -0.3115  0.1035 -0.4311
 6762TIP3    H141845   5.806   5.785   8.147  0.1517  1.2857  0.5877
 6762TIP3    H241846   5.669   5.724   8.160  0.7499 -0.4989 -0.9567
 6763TIP3   OH241847   1.773   5.912   1.138 -0.4190  0.2244  0.6626
 6763TIP3    H141848   1.821   5.993   1.122 -1.1529  0.4865 -0.2879
 6763TIP3    H241849   1.684   5.929   1.106 -0.2425 -1.3978 -0.8756
 6764TIP3   OH241850   6.563   0.497   7.212 -0.2545  0.2633  0.0851
 6764TIP3    H141851   6.511   0.456   7.143  0.2076  0.6029 -0.4619
 6764TIP3    H241852   6.569   0.589   7.187  1.1064  0.1236 -0.1731
 6765TIP3   OH241853   3.926   2.113   2.024 -0.2447 -0.4992 -0.4088
 6765TIP3    H141854   3.992   2.077   1.965 -2.3914 -1.5247 -2.3198
 6765TIP3    H241855   3.844   2.108   1.975 -2.1837 -1.4122  2.6441
 6766TIP3   OH241856   4.562   6.734   1.530  0.0048  0.3588  0.0942
 6766TIP3    H141857   4.635   6.698   1.481  0.7062  1.1299  0.5503
 6766TIP3    H241858   4.498   6.758   1.463  0.3821  0.1602 -0.3466
 6767TIP3   OH241859   4.795   4.260   1.560 -0.4806 -0.2139  0.1478
 6767TIP3    H141860   4.750   4.175   1.558 -0.8141 -0.1194  1.6950
 6767TIP3    H241861   4.882   4.242   1.526 -0.1903 -1.4432  1.4094
 6768TIP3   OH241862   1.783   6.151   2.150  0.0933  0.6321 -0.6004
 6768TIP3    H141863   1.747   6.209   2.218 -0.0839  0.6233 -0.6877
 6768TIP3    H241864   1.878   6.153   2.166  0.1213  1.1924 -0.7956
 6769TIP3   OH241865   6.256   2.037   8.180 -0.0409 -0.0959 -0.7154
 6769TIP3    H141866   6.173   2.080   8.161 -1.2609 -1.4996  1.0496
 6769TIP3    H241867   6.251   1.953   8.133  0.7825  0.1768 -1.3135
 6770TIP3   OH241868   0.310   1.733   8.198  1.0041  0.1845  0.0161
 6770TIP3    H141869   0.298   1.806   8.258  0.0845  1.2895 -1.4222
 6770TIP3    H241870   0.398   1.702   8.215  0.8176  0.5595  1.8021
 6771TIP3   OH241871   0.137   2.542   7.773 -0.4176 -0.4345 -0.3062
 6771TIP3    H141872   0.205   2.543   7.706  1.0487 -0.5009  1.1279
 6771TIP3    H241873   0.146   2.457   7.816  0.2659  0.5120  1.5137
 6772TIP3   OH241874   5.198   5.815   7.567 -0.4022  0.3081  0.1466
 6772TIP3    H141875   5.239   5.731   7.586  0.2389  0.1067 -1.8694
 6772TIP3    H241876   5.136   5.796   7.496 -1.0685  1.3330  0.4284
 6773TIP3   OH241877   1.167   1.205   0.497  0.2038  0.3141 -0.4446
 6773TIP3    H141878   1.131   1.278   0.547 -1.7740 -1.7638  1.3570
 6773TIP3    H241879   1.130   1.215   0.409  1.2366  2.2668 -0.7299
 6774TIP3   OH241880   0.060   4.277   0.568 -0.2948  0.6831 -0.5656
 6774TIP3    H141881   0.026   4.347   0.624 -1.9368 -1.1168  0.8400
 6774TIP3    H241882   0.149   4.263   0.599 -0.5672  0.9643  0.4071
 6775TIP3   OH241883   4.841   0.757   6.601 -0.7074 -0.1393  0.5166
 6775TIP3    H141884   4.891   0.832   6.569 -0.9360  0.5201  1.6839
 6775TIP3    H241885   4.901   0.683   6.593 -0.1968  0.3084  0.1452
 6776TIP3   OH241886   3.822   2.244   6.866 -0.3689 -0.3620  0.3822
 6776TIP3    H141887   3.763   2.189   6.815 -0.1831 -1.9622  1.8344
 6776TIP3    H241888   3.875   2.289   6.799 -2.6885  0.5855 -0.9251
 6777TIP3   OH241889   0.012   4.319   0.028  0.2346 -0.2356 -0.5294
 6777TIP3    H141890   0.064   4.264  -0.030 -1.0030 -3.1040  0.9230
 6777TIP3    H241891  -0.054   4.359  -0.029  1.0707 -0.3343 -1.6027
 6778TIP3   OH241892   4.306   1.031   0.489  0.4936 -0.1695 -0.2986
 6778TIP3    H141893   4.382   1.031   0.546  1.0295 -1.2268 -0.9901
 6778TIP3    H241894   4.332   1.082   0.413  0.1624  0.2897 -0.1128
 6779TIP3   OH241895   0.964   5.351   0.962 -0.1200  0.0180 -0.4263
 6779TIP3    H141896   1.035   5.360   1.025  0.2401  0.3726 -0.8772
 6779TIP3    H241897   0.890   5.318   1.014  0.1585  0.3379  0.1885
 6780TIP3   OH241898   1.349   3.133   8.230  0.1576 -0.5943  0.2143
 6780TIP3    H141899   1.305   3.163   8.151 -1.2319 -0.7094  0.9141
 6780TIP3    H241900   1.289   3.156   8.301  1.7003  0.1738  1.3283
 6781TIP3   OH241901   5.276   4.919   1.291  0.1390  0.1575  0.4735
 6781TIP3    H141902   5.358   4.876   1.315 -0.1570 -0.8158 -0.1781
 6781TIP3    H241903   5.259   4.890   1.201 -1.4725 -0.5787  0.9624
 6782TIP3   OH241904   6.622   2.973   0.531  0.4504 -0.2587  0.2499
 6782TIP3    H141905   6.690   2.972   0.464  1.4708 -0.5290  1.2586
 6782TIP3    H241906   6.569   3.051   0.510  2.3512  1.2211  0.6636
 6783TIP3   OH241907   0.962   3.021   7.711  0.1357  0.2138 -0.1658
 6783TIP3    H141908   0.908   3.090   7.672 -0.2447  0.5527  0.9100
 6783TIP3    H241909   1.033   3.007   7.648 -1.2616 -0.3548 -1.6961
 6784TIP3   OH241910   6.255   3.494   0.472  0.4272 -0.2462 -0.2872
 6784TIP3    H141911   6.236   3.529   0.385 -0.8825 -0.5045 -0.1216
 6784TIP3    H241912   6.338   3.535   0.497 -1.0205  2.7806 -0.0640
 6785TIP3   OH241913   5.172   6.833   1.241 -0.5143  0.4952  0.0173
 6785TIP3    H141914   5.256   6.879   1.248  0.3353 -0.8853 -0.7561
 6785TIP3    H241915   5.116   6.894   1.193  1.2108  0.0202 -2.8689
 6786TIP3   OH241916   0.262   1.179   6.373 -0.0642  0.1024 -0.1194
 6786TIP3    H141917   0.329   1.114   6.392 -0.0380  0.1922  0.0992
 6786TIP3    H241918   0.308   1.263   6.378 -0.0331  0.1265 -0.6809
 6787TIP3   OH241919   3.490   2.235   8.241  0.4260 -0.2731  0.2977
 6787TIP3    H141920   3.581   2.207   8.255  0.4541  0.2530  1.2388
 6787TIP3    H241921   3.437   2.168   8.284  0.2770 -1.4463 -1.6272
 6788TIP3   OH241922   3.977   4.544   1.589  0.3314  0.3479  0.2974
 6788TIP3    H141923   3.926   4.512   1.664 -0.4772 -0.7102 -0.6563
 6788TIP3    H241924   3.964   4.639   1.590 -1.8945  0.1219 -0.0046
 6789TIP3   OH241925   1.388   0.796   8.075  0.4025 -0.4329  0.0775
 6789TIP3    H141926   1.447   0.834   8.139 -0.8636 -0.0254  1.0473
 6789TIP3    H241927   1.438   0.795   7.993  1.1275  1.6155  0.4407
 6790TIP3   OH241928   3.600   5.543   6.842  0.1513  0.2153 -0.1686
 6790TIP3    H141929   3.607   5.612   6.775  2.7705 -2.6529 -3.2837
 6790TIP3    H241930   3.678   5.554   6.896  1.2704 -0.8555 -1.4663
 6791TIP3   OH241931   4.069   5.195   1.171 -0.0143 -0.4087 -0.1476
 6791TIP3    H141932   3.998   5.251   1.204  1.5030  0.2396  2.2773
 6791TIP3    H241933   4.143   5.255   1.162  0.5212 -1.2621 -1.6933
 6792TIP3   OH241934   4.097   0.522   6.753  0.0945 -0.2883 -0.4035
 6792TIP3    H141935   4.098   0.509   6.847  1.0840 -2.6293 -0.6669
 6792TIP3    H241936   4.176   0.477   6.721 -0.3727  0.1648 -2.3755
 6793TIP3   OH241937   6.685   0.897   1.533 -0.3606  0.4680 -0.4320
 6793TIP3    H141938   6.749   0.846   1.482 -1.1233 -2.1742  1.0308
 6793TIP3    H241939   6.735   0.932   1.606  0.2432  2.1940 -1.6278
 6794TIP3   OH241940   5.493   3.839   1.462 -0.8896 -0.7328  0.7010
 6794TIP3    H141941   5.547   3.806   1.390 -0.5871 -0.4935  0.8168
 6794TIP3    H241942   5.418   3.779   1.465 -1.6589  0.1113 -0.7559
 6795TIP3   OH241943   1.844   6.312   0.046 -0.2960  0.1896 -0.2188
 6795TIP3    H141944   1.814   6.231   0.088  0.2264  0.5926  0.9809
 6795TIP3    H241945   1.931   6.290   0.012 -0.6702 -0.1040 -0.9962
 6796TIP3   OH241946   2.287   1.017   2.249 -0.2698  0.1659  0.4918
 6796TIP3    H141947   2.362   1.062   2.287 -0.1659  1.5194 -1.1591
 6796TIP3    H241948   2.266   0.948   2.311  1.2409  0.8536  1.8485
 6797TIP3   OH241949   0.296   5.619   0.274  0.0044 -0.1413  0.3980
 6797TIP3    H141950   0.314   5.713   0.267 -3.1921  0.5190 -1.2956
 6797TIP3    H241951   0.289   5.590   0.183 -1.2762 -1.4455  0.8739
 6798TIP3   OH241952   3.845   6.487   0.059  0.4010 -0.1713  0.4860
 6798TIP3    H141953   3.801   6.542  -0.005  1.3645  0.8336  0.6533
 6798TIP3    H241954   3.866   6.406   0.012  0.1696  0.1408 -0.1578
 6799TIP3   OH241955   2.409   0.527   0.152 -0.3748 -0.3131  0.5913
 6799TIP3    H141956   2.324   0.563   0.180 -0.5909 -1.0711  0.9480
 6799TIP3    H241957   2.474   0.580   0.199 -0.6730 -0.1037  0.7732
 6800TIP3   OH241958   3.786   4.495   0.008 -0.0254  0.5073  0.0313
 6800TIP3    H141959   3.820   4.514  -0.080  2.0518 -0.1000  0.6411
 6800TIP3    H241960   3.863   4.502   0.065 -0.7015 -1.9734  1.3893
 6801TIP3   OH241961   6.635   2.999   1.813  0.2259 -1.3846  0.0123
 6801TIP3    H141962   6.605   2.983   1.723  1.0848  2.5863 -1.1841
 6801TIP3    H241963   6.730   2.983   1.809  0.3370 -0.7651  0.0430
 6802TIP3   OH241964   1.819   1.316   7.149 -0.1136  0.1556 -0.3955
 6802TIP3    H141965   1.770   1.338   7.070  0.8847 -1.6602 -1.5801
 6802TIP3    H241966   1.903   1.283   7.118  0.5031 -0.1682  1.4518
 6803TIP3   OH241967   1.490   0.549   2.662 -0.0662 -0.3349  0.0566
 6803TIP3    H141968   1.550   0.623   2.649 -0.5293  0.1318  0.5119
 6803TIP3    H241969   1.507   0.491   2.588 -0.0425  0.4691 -0.5821
 6804TIP3   OH241970   3.554   0.734   8.239 -0.0640 -0.0512  0.5008
 6804TIP3    H141971   3.622   0.729   8.171 -1.0074 -0.0249 -0.4582
 6804TIP3    H241972   3.473   0.746   8.192 -0.5727  1.6702  1.7245
 6805TIP3   OH241973   2.442   3.987   1.934  0.5602  0.1066  0.2533
 6805TIP3    H141974   2.508   3.965   2.000  1.3164  0.8614 -0.2226
 6805TIP3    H241975   2.368   3.930   1.954  0.1790  1.3243  2.6716
 6806TIP3   OH241976   2.018   0.620   1.051  0.5194  0.2618  0.6663
 6806TIP3    H141977   2.084   0.679   1.088 -0.0428  0.8709  0.7190
 6806TIP3    H241978   1.991   0.565   1.124 -0.0960  1.0099  1.0243
 6807TIP3   OH241979   2.948   3.302   0.977 -0.5975  0.2811  0.6419
 6807TIP3    H141980   2.931   3.277   0.886  1.7079  2.0992 -0.3750
 6807TIP3    H241981   2.991   3.387   0.971 -0.6528  0.5990  3.4839
 6808TIP3   OH241982   3.413   4.071   2.384 -0.2669 -0.8230  0.4638
 6808TIP3    H141983   3.365   4.113   2.456  0.1398 -0.8622  0.7617
 6808TIP3    H241984   3.503   4.064   2.416  0.3430  0.8106 -0.7354
 6809TIP3   OH241985   5.974   1.977   0.863 -0.4098  0.4628  0.0845
 6809TIP3    H141986   6.058   1.985   0.908  0.7864  0.3632 -2.0032
 6809TIP3    H241987   5.924   2.053   0.892 -0.0259 -0.0013  2.1426
 6810TIP3   OH241988   3.082   5.595   1.674  0.0671 -0.6317  0.0226
 6810TIP3    H141989   3.018   5.625   1.739 -0.4723 -0.0009 -0.7789
 6810TIP3    H241990   3.107   5.674   1.626 -0.6685 -1.2766 -1.5104
 6811TIP3   OH241991   2.905   2.557   8.512  0.3121 -0.5266 -0.1263
 6811TIP3    H141992   2.925   2.493   8.580 -1.7709 -0.2524  0.8038
 6811TIP3    H241993   2.937   2.640   8.548 -0.6629 -0.4041  0.4961
 6812TIP3   OH241994   4.539   1.987   8.455  0.0254  0.4026 -0.5677
 6812TIP3    H141995   4.560   1.946   8.371  0.2728  1.1417 -0.8750
 6812TIP3    H241996   4.524   2.079   8.433 -0.8210  0.4198  0.0620
 6813TIP3   OH241997   3.403   3.557   7.479 -0.4384  0.4058 -0.7883
 6813TIP3    H141998   3.490   3.540   7.442 -0.7858 -1.7983 -0.7021
 6813TIP3    H241999   3.346   3.491   7.439 -1.7527  0.8121  0.3265
 6814TIP3   OH242000   5.486   1.217   0.971 -0.1863  0.4433 -0.5528
 6814TIP3    H142001   5.424   1.235   1.042 -0.8268 -0.3273 -0.8915
 6814TIP3    H242002   5.541   1.146   1.004  0.5901  1.1825 -0.2209
 6815TIP3   OH242003   2.299   6.776   2.437 -0.4886  0.6555  0.0364
 6815TIP3    H142004   2.222   6.772   2.493 -1.5570  2.3347 -1.1865
 6815TIP3    H242005   2.268   6.818   2.357  1.7310  1.5629 -0.4377
 6816TIP3   OH242006   0.780   6.798   0.133 -0.0290 -0.3123 -0.7147
 6816TIP3    H142007   0.825   6.827   0.212  0.4018  1.3252 -1.5236
 6816TIP3    H242008   0.833   6.831   0.061 -1.3548 -0.2289 -1.7004
 6817TIP3   OH242009   0.075   5.661   1.154 -0.6859  0.4793  0.2085
 6817TIP3    H142010   0.161   5.703   1.155 -0.5635  0.3545 -1.5548
 6817TIP3    H242011   0.016   5.728   1.120 -0.9721  0.0675 -0.1226
 6818TIP3   OH242012   4.001   1.162   8.287 -0.0962 -0.5812  0.1426
 6818TIP3    H142013   3.932   1.148   8.222 -1.3888 -0.9812  1.5367
 6818TIP3    H242014   3.996   1.255   8.307 -1.0936 -0.8138  1.1059
 6819TIP3   OH242015   1.332   5.982   8.367 -0.1690 -0.1275 -0.6333
 6819TIP3    H142016   1.377   6.031   8.298  1.2009  1.4918  1.2797
 6819TIP3    H242017   1.382   5.901   8.377 -0.5510 -0.5012 -1.7109
 6820TIP3   OH242018   4.609   2.387   7.345  0.6646  0.3737  0.4860
 6820TIP3    H142019   4.632   2.304   7.304 -0.4596 -0.2681  1.0878
 6820TIP3    H242020   4.691   2.420   7.381  1.3009  0.0084 -0.5863
 6821TIP3   OH242021   5.980   0.454   0.368 -0.3330  0.1697  0.0674
 6821TIP3    H142022   5.984   0.414   0.281 -2.4092  0.0949 -0.0487
 6821TIP3    H242023   6.010   0.385   0.427  0.2886 -0.0701 -0.5139
 6822TIP3   OH242024   6.100   4.463   0.764  0.1781 -0.3166  0.1759
 6822TIP3    H142025   6.106   4.558   0.758  1.8653 -0.3138  1.0984
 6822TIP3    H242026   6.191   4.434   0.768 -0.2738 -2.0605 -1.0330
 6823TIP3   OH242027   3.432   3.608   2.711  0.2048 -0.4619  0.1957
 6823TIP3    H142028   3.422   3.600   2.806 -1.0657 -1.8307 -0.0029
 6823TIP3    H242029   3.514   3.655   2.699 -0.5128  1.4095  1.9903
 6824TIP3   OH242030   0.199   4.707   8.567  0.1228 -0.1442  0.0957
 6824TIP3    H142031   0.242   4.663   8.494  0.4290  1.5234 -0.7949
 6824TIP3    H242032   0.221   4.800   8.555 -0.7662  0.3095  1.6670
 6825TIP3   OH242033   1.740   2.833   8.077  0.0516  0.1054  0.4692
 6825TIP3    H142034   1.718   2.792   7.994 -0.6541  1.1534  0.1145
 6825TIP3    H242035   1.660   2.826   8.129 -0.0056  0.7904  0.4875
 6826TIP3   OH242036   6.118   6.041   2.036  0.1564  0.3434  0.0342
 6826TIP3    H142037   6.145   5.986   2.109  0.5677  1.3077  0.6141
 6826TIP3    H242038   6.104   6.128   2.074  3.7886  1.8121 -1.5251
 6827TIP3   OH242039   0.755   1.239   0.185  0.1405 -0.1350  0.1483
 6827TIP3    H142040   0.673   1.192   0.168  0.2867 -0.2526 -0.2608
 6827TIP3    H242041   0.734   1.301   0.254  0.1655 -1.4205  1.3530
 6828TIP3   OH242042   1.229   0.766   2.277 -0.1463  0.0079 -0.7051
 6828TIP3    H142043   1.210   0.710   2.352 -2.7528  2.3163  0.5083
 6828TIP3    H242044   1.294   0.829   2.309 -1.1934  0.9404 -0.3763
 6829TIP3   OH242045   6.092   0.100   0.121 -0.0896  0.2011 -0.0231
 6829TIP3    H142046   6.043   0.181   0.109 -1.1511 -0.3113  0.7077
 6829TIP3    H242047   6.056   0.039   0.057  1.2960  0.5253 -1.1698
 6830TIP3   OH242048   2.207   0.197   0.468  0.2410 -0.4261 -0.2313
 6830TIP3    H142049   2.119   0.234   0.466  0.3326 -0.2157 -0.7872
 6830TIP3    H242050   2.265   0.273   0.462  0.4630 -0.5602  0.1798
 6831TIP3   OH242051   6.733   0.916   1.087  0.6819 -0.9115 -0.3405
 6831TIP3    H142052   6.794   0.862   1.037  0.3083  0.7301 -2.7786
 6831TIP3    H242053   6.694   0.974   1.021  0.6601  1.9489  2.0216
 6832TIP3   OH242054   0.181   1.380   8.259 -0.5500  0.2210 -0.8753
 6832TIP3    H142055   0.183   1.457   8.316  0.7172  0.7892 -1.6278
 6832TIP3    H242056   0.100   1.335   8.283  0.7406 -0.5768  2.6572
 6833TIP3   OH242057   6.466   1.873   7.599  0.0082 -0.3723  0.2608
 6833TIP3    H142058   6.512   1.957   7.611  1.1104 -0.5541 -2.1150
 6833TIP3    H242059   6.532   1.807   7.616  0.7970 -0.6407 -3.0741
 6834TIP3   OH242060   4.685   5.808   1.337  0.2360 -0.3807 -0.2101
 6834TIP3    H142061   4.750   5.878   1.340 -1.3612  1.1466  0.0587
 6834TIP3    H242062   4.709   5.757   1.260  3.3207 -1.5241  1.2926
 6835TIP3   OH242063   3.113   4.563   6.659 -0.4121 -0.2607 -0.6254
 6835TIP3    H142064   3.107   4.573   6.754 -0.7988 -0.6100 -0.6078
 6835TIP3    H242065   3.192   4.611   6.634  0.3430 -1.1386  0.0194
 6836TIP3   OH242066   6.813   1.551   2.124 -0.3614 -0.5292  0.6210
 6836TIP3    H142067   6.719   1.551   2.142 -0.0961 -1.1774  2.1451
 6836TIP3    H242068   6.854   1.536   2.209  1.0981 -1.0854 -0.1453
 6837TIP3   OH242069   3.810   6.229   6.163  0.1272 -0.1601 -0.1657
 6837TIP3    H142070   3.721   6.195   6.149 -0.1722 -0.0363  1.2477
 6837TIP3    H242071   3.841   6.183   6.240  1.3486 -0.2739 -0.7115
 6838TIP3   OH242072   6.482   5.065   1.231  0.0693  0.2883  0.2056
 6838TIP3    H142073   6.531   4.989   1.199  1.2198  0.2422  1.9676
 6838TIP3    H242074   6.450   5.108   1.151  1.1029 -0.9098 -0.9054
 6839TIP3   OH242075   6.854   5.417   7.337 -0.1198 -0.9592 -0.2964
 6839TIP3    H142076   6.939   5.405   7.294  0.9629  2.9727  0.3448
 6839TIP3    H242077   6.854   5.352   7.407  2.2558 -1.2444 -0.4637
 6840TIP3   OH242078   4.000   2.168   0.351 -0.3704 -0.3334  0.3285
 6840TIP3    H142079   4.059   2.130   0.416  0.3381 -1.3153 -0.8372
 6840TIP3    H242080   4.059   2.205   0.285 -1.0707  0.6779  0.2450
 6841TIP3   OH242081   0.494   1.537   0.651  0.1096 -0.3891  0.5111
 6841TIP3    H142082   0.548   1.615   0.647  0.7217 -0.7990  0.6940
 6841TIP3    H242083   0.438   1.550   0.727  0.9010 -0.5638  1.1301
 6842TIP3   OH242084   6.562   4.530   2.667 -0.3669 -0.3773  0.5500
 6842TIP3    H142085   6.516   4.609   2.640  0.0354  0.1055  1.2373
 6842TIP3    H242086   6.526   4.461   2.612 -1.5977  0.0608  0.7787
 6843TIP3   OH242087   4.312   5.065   0.984  0.3129 -0.3945 -0.1830
 6843TIP3    H142088   4.314   5.158   1.006  1.3248 -0.3985 -0.2116
 6843TIP3    H242089   4.375   5.024   1.043 -0.7433 -1.2093  0.4169
 6844TIP3   OH242090   1.587   4.913   7.279 -0.0261 -0.0171  0.7206
 6844TIP3    H142091   1.611   4.850   7.348  2.1847  1.1695  1.1257
 6844TIP3    H242092   1.528   4.975   7.323  0.7420  0.2757  1.3678
 6845TIP3   OH242093   1.803   0.393   7.605  0.1232  0.2813  0.1264
 6845TIP3    H142094   1.821   0.486   7.591  0.6044  0.2477  0.5152
 6845TIP3    H242095   1.773   0.388   7.695  0.2906  0.0267  0.1656
 6846TIP3   OH242096   0.638   5.621   7.928  0.1267 -0.2256  0.0355
 6846TIP3    H142097   0.694   5.667   7.866  1.7644 -1.6241  0.3992
 6846TIP3    H242098   0.558   5.674   7.932  0.5314  0.6540 -2.1569
 6847TIP3   OH242099   4.422   0.317   8.135 -0.1677 -0.5036  0.4146
 6847TIP3    H142100   4.391   0.370   8.208  0.7969 -0.9082  1.1492
 6847TIP3    H242101   4.438   0.380   8.065 -1.2574 -0.1296  0.4904
 6848TIP3   OH242102   1.295   1.246   0.818  0.4903  0.3072  0.0214
 6848TIP3    H142103   1.216   1.194   0.830 -1.2884  2.6385 -0.7551
 6848TIP3    H242104   1.320   1.274   0.906 -0.8939  1.3532  0.1080
 6849TIP3   OH242105   0.257   6.264   2.431 -0.3301  0.1164 -0.8329
 6849TIP3    H142106   0.330   6.324   2.412  0.5076 -1.0615 -1.5398
 6849TIP3    H242107   0.180   6.320   2.438  0.9338  1.6823  2.1183
 6850TIP3   OH242108   4.632   5.396   1.235 -0.5632  0.9226  0.5245
 6850TIP3    H142109   4.616   5.469   1.176  0.3413  0.6341 -0.1092
 6850TIP3    H242110   4.727   5.393   1.245 -0.4798 -0.8505 -0.3809
 6851TIP3   OH242111   3.352   1.950   0.141 -0.0886  0.2477 -0.4841
 6851TIP3    H142112   3.293   1.895   0.193 -0.2933  0.8289 -0.0827
 6851TIP3    H242113   3.399   1.889   0.084  2.5942 -0.8431  2.6498
 6852TIP3   OH242114   3.118   2.882   8.418  0.0964 -0.3485 -0.0553
 6852TIP3    H142115   3.175   2.840   8.484  0.3689 -0.5185 -0.3919
 6852TIP3    H242116   3.179   2.929   8.361 -0.0632 -0.8289 -0.6345
 6853TIP3   OH242117   2.200   5.176   1.749  0.5438 -0.0354  0.3963
 6853TIP3    H142118   2.227   5.178   1.658 -1.5057 -0.9420 -0.2975
 6853TIP3    H242119   2.185   5.268   1.772  0.1194  0.1329 -0.5170
 6854TIP3   OH242120   5.964   4.139   1.700 -0.2304  0.9308 -0.4056
 6854TIP3    H142121   5.919   4.124   1.617  0.1179  1.5159 -0.7123
 6854TIP3    H242122   6.055   4.155   1.674  0.0138  0.4417  0.1471
 6855TIP3   OH242123   1.110   6.876   7.261  0.2818 -0.4028 -0.2298
 6855TIP3    H142124   1.151   6.949   7.215  1.9965 -1.3295 -0.2749
 6855TIP3    H242125   1.127   6.892   7.353  0.9878 -0.9160 -0.2650
 6856TIP3   OH242126   5.346   2.615   7.005  0.0008 -0.0571  0.6523
 6856TIP3    H142127   5.424   2.670   6.992  1.1502 -1.7822 -0.2389
 6856TIP3    H242128   5.374   2.528   6.975 -2.1126 -0.8566  0.8744
 6857TIP3   OH242129   1.600   3.820   2.163  0.4673  0.3730  0.0029
 6857TIP3    H142130   1.587   3.733   2.201  0.3551 -0.1434 -1.1436
 6857TIP3    H242131   1.622   3.802   2.071  0.9193  1.5429 -0.1331
 6858TIP3   OH242132   4.296   5.686   0.164  0.7803 -0.0985  0.2622
 6858TIP3    H142133   4.234   5.755   0.140  0.6677 -0.6130 -1.0351
 6858TIP3    H242134   4.346   5.670   0.083 -0.3172 -2.6702  0.0164
 6859TIP3   OH242135   2.636   5.038   7.500 -0.0690  0.1689  0.4299
 6859TIP3    H142136   2.715   4.985   7.508 -0.6685 -1.0950 -1.3332
 6859TIP3    H242137   2.574   4.998   7.561 -0.2615 -0.6733 -0.3095
 6860TIP3   OH242138   4.633   1.082   1.002  0.0756 -0.5893 -0.2792
 6860TIP3    H142139   4.571   1.014   1.029 -1.9582  1.0299 -0.6020
 6860TIP3    H242140   4.580   1.144   0.951  2.5041 -0.4347 -2.9175
 6861TIP3   OH242141   3.398   6.643   8.415 -0.4940 -0.1271 -0.0245
 6861TIP3    H142142   3.326   6.580   8.405 -1.2414  0.4747  1.2602
 6861TIP3    H242143   3.391   6.673   8.506  0.7789  0.6959 -0.1660
 6862TIP3   OH242144   6.885   2.557   1.177  0.0382  0.5490  0.0398
 6862TIP3    H142145   6.896   2.469   1.141  0.6022  0.7823 -0.3697
 6862TIP3    H242146   6.816   2.548   1.243  0.6135 -0.3403  0.5278
 6863TIP3   OH242147   3.467   1.288   7.244  0.1442  0.1600 -0.2414
 6863TIP3    H142148   3.510   1.204   7.263 -0.1781 -0.0564 -0.4638
 6863TIP3    H242149   3.388   1.264   7.197 -0.8877  0.4708  1.2741
 6864TIP3   OH242150   2.190   5.875   0.954 -0.0128 -0.0822  0.7081
 6864TIP3    H142151   2.259   5.824   0.998  0.3365 -0.7410 -0.5656
 6864TIP3    H242152   2.237   5.941   0.903 -0.3529 -0.1606  0.2888
 6865TIP3   OH242153   5.596   6.626   7.191 -0.1229 -0.4089  0.1493
 6865TIP3    H142154   5.541   6.642   7.114 -1.1986 -0.8415  0.8066
 6865TIP3    H242155   5.650   6.705   7.198  0.7126 -0.7692 -1.6091
 6866TIP3   OH242156   2.464   1.196   2.328 -0.1959  0.4043 -0.1334
 6866TIP3    H142157   2.399   1.266   2.338  0.7417  1.2238  0.3836
 6866TIP3    H242158   2.530   1.233   2.268  0.1759 -0.1398 -0.0665
 6867TIP3   OH242159   6.855   0.965   6.793 -0.4404  0.2606 -0.6258
 6867TIP3    H142160   6.913   0.929   6.726 -0.4282  0.6328 -0.8156
 6867TIP3    H242161   6.906   1.032   6.836 -0.6557  0.4390 -0.6455
 6868TIP3   OH242162   2.867   4.561   1.396  1.0754 -0.0146  0.5469
 6868TIP3    H142163   2.774   4.584   1.394  0.7407 -1.1508  1.5726
 6868TIP3    H242164   2.870   4.480   1.447  2.8949  1.3207  2.7483
 6869TIP3   OH242165   2.835   3.335   7.816 -0.3998 -0.3575 -0.7939
 6869TIP3    H142166   2.783   3.333   7.896  0.8884 -2.7944  0.1007
 6869TIP3    H242167   2.912   3.388   7.839 -1.3812  1.4129 -1.4219
 6870TIP3   OH242168   1.684   1.811   0.655  0.3690 -0.0857  0.3395
 6870TIP3    H142169   1.743   1.861   0.598  0.2412 -1.7265 -1.3289
 6870TIP3    H242170   1.600   1.858   0.648  1.2768  2.0888  2.4983
 6871TIP3   OH242171   2.359   5.500   7.992  1.0895  0.5081 -0.3751
 6871TIP3    H142172   2.274   5.466   7.968  1.0310 -0.0216  0.5301
 6871TIP3    H242173   2.408   5.423   8.022  1.7192  0.8803 -0.4337
 6872TIP3   OH242174   2.740   5.268   7.705  0.1143 -0.6103 -0.6257
 6872TIP3    H142175   2.688   5.193   7.733  0.3738 -1.1343 -1.5210
 6872TIP3    H242176   2.677   5.339   7.695  0.0524 -0.2646  1.6358
 6873TIP3   OH242177   1.637   0.945   0.330 -0.5059 -0.8877 -0.0293
 6873TIP3    H142178   1.617   0.855   0.354  0.3927 -1.2764 -0.7115
 6873TIP3    H242179   1.650   0.990   0.414 -0.0056 -1.6157  0.2865
 6874TIP3   OH242180   0.447   0.869   1.768  0.2371  0.2457 -0.4669
 6874TIP3    H142181   0.431   0.885   1.861 -0.1454 -0.2049 -0.4554
 6874TIP3    H242182   0.542   0.866   1.761  0.2632 -1.7321  0.2581
 6875TIP3   OH242183   2.107   2.286   1.351  0.0834  0.0549  0.2516
 6875TIP3    H142184   2.048   2.350   1.310 -0.1759  0.7783  1.6773
 6875TIP3    H242185   2.181   2.280   1.291  0.0771  1.6697  0.0373
 6876TIP3   OH242186   3.790   3.195   8.275 -0.5240 -0.2646  0.4674
 6876TIP3    H142187   3.852   3.170   8.207 -0.5173 -1.4730  0.8846
 6876TIP3    H242188   3.839   3.185   8.357 -0.1267  2.4031  0.6433
 6877TIP3   OH242189   5.759   4.755   0.878  0.4621  0.0433 -0.1039
 6877TIP3    H142190   5.845   4.747   0.920 -0.0861  0.6440  1.1864
 6877TIP3    H242191   5.704   4.798   0.944 -1.0024 -0.8751 -0.6864
 6878TIP3   OH242192   6.829   2.948   8.150  0.0304 -0.0787  0.0529
 6878TIP3    H142193   6.921   2.969   8.167 -0.2316 -0.4782  2.3144
 6878TIP3    H242194   6.818   2.860   8.185 -1.0689 -0.2761 -0.7573
 6879TIP3   OH242195   4.528   6.489   1.086  0.0226  0.2316  0.4946
 6879TIP3    H142196   4.556   6.576   1.116 -0.2584  0.5422 -0.1152
 6879TIP3    H242197   4.493   6.447   1.165 -1.6405  1.4081  0.4524
 6880TIP3   OH242198   5.597   0.520   0.953 -0.1242  0.2377 -0.2372
 6880TIP3    H142199   5.619   0.612   0.968 -1.0080  0.2126  1.3175
 6880TIP3    H242200   5.655   0.472   1.012  2.3755 -0.4772 -2.9891
 6881TIP3   OH242201   1.587   5.270   7.314 -0.3433  0.1515  0.1972
 6881TIP3    H142202   1.534   5.344   7.343 -0.4214 -0.0417  0.5638
 6881TIP3    H242203   1.564   5.199   7.375 -0.8935 -0.4226 -0.6664
 6882TIP3   OH242204   3.235   4.557   0.617 -0.4394  0.1379 -0.2750
 6882TIP3    H142205   3.215   4.631   0.560 -3.0592 -0.0184  0.3381
 6882TIP3    H242206   3.223   4.591   0.705  0.8771 -0.3639  0.1177
 6883TIP3   OH242207   0.470   6.030   8.320  0.0550  0.7409 -0.2254
 6883TIP3    H142208   0.383   6.056   8.348 -1.8405 -2.5731 -2.2917
 6883TIP3    H242209   0.517   6.008   8.401 -1.4485  1.3616  0.8483
 6884TIP3   OH242210   4.553   5.053   1.169 -0.3684 -0.1540 -0.6491
 6884TIP3    H142211   4.564   5.095   1.083 -0.0509  1.9162  0.3229
 6884TIP3    H242212   4.641   5.026   1.194  0.1949  2.3440  0.4195
 6885TIP3   OH242213   3.129   1.595   2.525 -0.0430  0.4714  0.0402
 6885TIP3    H142214   3.070   1.543   2.471 -1.0539  0.3091  1.2628
 6885TIP3    H242215   3.170   1.656   2.463  0.8925 -1.4757 -1.3703
 6886TIP3   OH242216   6.822   0.521   1.594 -0.2090  0.0214  0.4871
 6886TIP3    H142217   6.877   0.563   1.661 -0.6336  0.9797  0.2608
 6886TIP3    H242218   6.791   0.441   1.635  0.2600  0.1528  1.1133
 6887TIP3   OH242219   0.279   4.337   0.309 -0.0370  0.2704 -0.7592
 6887TIP3    H142220   0.230   4.415   0.335  0.3032  1.2951 -2.9882
 6887TIP3    H242221   0.212   4.273   0.288 -0.3245  0.0777  0.6303
 6888TIP3   OH242222   1.104   6.362   1.322 -0.1536 -0.3396 -0.1126
 6888TIP3    H142223   1.159   6.302   1.271  0.5333  0.1276  0.0770
 6888TIP3    H242224   1.073   6.310   1.396 -0.1453 -0.6653 -0.3366
 6889TIP3   OH242225   5.961   2.780   7.883 -0.4566 -0.2602  0.1677
 6889TIP3    H142226   5.958   2.870   7.916 -1.1587 -0.1314 -0.2544
 6889TIP3    H242227   5.870   2.757   7.864 -0.2240 -0.8735 -0.2403
 6890TIP3   OH242228   1.133   0.468   7.553 -0.2634 -0.0636  0.0586
 6890TIP3    H142229   1.093   0.487   7.468  0.6123  0.4269 -0.2560
 6890TIP3    H242230   1.179   0.386   7.540  0.3758  0.3152 -0.1299
 6891TIP3   OH242231   1.061   5.905   7.746 -0.6773 -0.1551 -0.3534
 6891TIP3    H142232   0.994   5.837   7.734 -0.8261 -0.1024  0.1439
 6891TIP3    H242233   1.137   5.872   7.700 -1.2435  0.0831 -1.4866
 6892TIP3   OH242234   6.625   3.543   2.018  0.3374 -0.0482 -0.1134
 6892TIP3    H142235   6.600   3.539   2.110 -1.8954 -1.1127 -0.7085
 6892TIP3    H242236   6.591   3.462   1.979 -1.7835  1.8270 -2.5227
 6893TIP3   OH242237   2.312   3.090   1.892 -0.1144  0.9054 -0.2662
 6893TIP3    H142238   2.403   3.061   1.897 -0.9513 -2.1427 -0.1466
 6893TIP3    H242239   2.270   3.050   1.968 -1.9884  0.2359 -1.5598
 6894TIP3   OH242240   5.425   6.463   7.965  0.7700  0.4244  0.1922
 6894TIP3    H142241   5.376   6.413   8.030  2.7891  1.2270  2.4619
 6894TIP3    H242242   5.358   6.509   7.914 -0.8712 -0.0683  1.8208
 6895TIP3   OH242243   4.260   1.605   6.295 -0.1264 -0.2091  0.8586
 6895TIP3    H142244   4.297   1.648   6.372  2.1473  0.7595 -0.6535
 6895TIP3    H242245   4.236   1.677   6.237  0.9201 -0.8896 -0.4811
 6896TIP3   OH242246   2.651   6.654   1.765 -0.4574  0.3879 -0.5785
 6896TIP3    H142247   2.701   6.711   1.707  1.5022  0.3413  0.9861
 6896TIP3    H242248   2.608   6.592   1.705  0.7232  0.9171 -2.0368
 6897TIP3   OH242249   3.055   6.211   1.617 -0.0249 -0.6021  0.3605
 6897TIP3    H142250   3.029   6.195   1.708 -1.6686  0.1155  0.0514
 6897TIP3    H242251   2.988   6.168   1.564  1.5648 -2.0673 -0.5841
 6898TIP3   OH242252   6.663   0.174   0.652 -0.5215 -0.0346  0.0409
 6898TIP3    H142253   6.682   0.260   0.691  2.2714 -0.5932  0.1130
 6898TIP3    H242254   6.567   0.171   0.646 -0.9251  1.5589  3.4656
 6899TIP3   OH242255   3.270   5.336   1.438 -0.1563  0.1684 -0.4116
 6899TIP3    H142256   3.277   5.269   1.506  0.6469  0.3153 -0.3443
 6899TIP3    H242257   3.355   5.336   1.394 -0.5949  0.2248 -1.2822
 6900TIP3   OH242258   2.228   3.012   7.717 -0.3486 -0.2964 -0.4467
 6900TIP3    H142259   2.266   2.930   7.750 -1.8075 -0.3024  1.3542
 6900TIP3    H242260   2.138   2.989   7.696 -0.3400  0.5126 -1.4076
 6901TIP3   OH242261   1.057   2.782   6.847 -0.2693 -0.0965  0.0536
 6901TIP3    H142262   1.153   2.773   6.844  0.1418  1.1146  3.6465
 6901TIP3    H242263   1.032   2.809   6.759  2.7673  0.0167 -0.8960
 6902TIP3   OH242264   0.290   0.275   8.392  1.0245 -0.7822  0.6110
 6902TIP3    H142265   0.259   0.264   8.302  0.7010 -0.8840  0.7346
 6902TIP3    H242266   0.238   0.348   8.426  0.0922 -1.7012  1.1916
 6903TIP3   OH242267   2.856   6.499   0.053 -0.3859 -0.3612 -0.6298
 6903TIP3    H142268   2.840   6.432  -0.013 -3.2592  0.4725 -0.9444
 6903TIP3    H242269   2.837   6.582   0.008 -0.8333  0.3349  0.7804
 6904TIP3   OH242270   5.945   6.679   7.980 -0.5337 -0.0237  0.2644
 6904TIP3    H142271   5.884   6.703   7.910  1.4971 -1.7037 -2.2997
 6904TIP3    H242272   5.992   6.759   8.000  0.2342  0.1216 -1.8592
 6905TIP3   OH242273   6.322   4.753   8.121  0.0461 -0.1295  0.2699
 6905TIP3    H142274   6.346   4.762   8.029 -2.0501  0.2327 -0.2844
 6905TIP3    H242275   6.373   4.678   8.152 -0.1125 -1.0347 -1.5201
 6906TIP3   OH242276   6.519   0.755   1.756  0.1265 -0.3864  0.4462
 6906TIP3    H142277   6.504   0.819   1.686 -0.8608  1.5134  2.2719
 6906TIP3    H242278   6.505   0.670   1.714  1.3241  0.5520 -2.0433
 6907TIP3   OH242279   2.605   6.274   1.119 -0.1734  0.6183 -0.0371
 6907TIP3    H142280   2.657   6.286   1.040  2.0031 -0.4229  1.1384
 6907TIP3    H242281   2.647   6.330   1.184  0.7833 -1.6873  1.4639
 6908TIP3   OH242282   4.226   6.786   7.280  0.7076 -0.1517 -0.2079
 6908TIP3    H142283   4.150   6.736   7.252  0.3418 -0.4794  1.2585
 6908TIP3    H242284   4.207   6.876   7.254  0.8752 -0.5649 -1.8849
 6909TIP3   OH242285   0.562   4.371   2.038  0.2510 -0.5479 -0.1268
 6909TIP3    H142286   0.580   4.322   2.118  0.4374  0.4356  0.4460
 6909TIP3    H242287   0.638   4.428   2.027 -0.9067  1.1981  0.4432
 6910TIP3   OH242288   4.885   5.652   1.778 -0.1399 -0.2747 -0.6396
 6910TIP3    H142289   4.821   5.620   1.714 -1.1158 -1.0693  0.6673
 6910TIP3    H242290   4.871   5.746   1.781 -0.3021 -0.2687 -1.3507
 6911TIP3   OH242291   2.965   2.208   7.769 -0.3429  0.3898  0.5124
 6911TIP3    H142292   2.973   2.291   7.723  0.8280 -0.5001 -0.9579
 6911TIP3    H242293   3.046   2.201   7.820 -0.0395 -0.2245 -0.0399
 6912TIP3   OH242294   6.173   2.064   8.484 -0.2049 -0.0392  0.0392
 6912TIP3    H142295   6.198   2.039   8.395 -2.8846 -1.1915 -0.4996
 6912TIP3    H242296   6.119   2.142   8.473  1.2032  1.1117  0.9265
 6913TIP3   OH242297   5.985   2.844   6.766  0.3140 -0.8669  0.0981
 6913TIP3    H142298   5.994   2.897   6.687  0.0244  0.4336  0.9057
 6913TIP3    H242299   5.989   2.753   6.735  1.7955 -0.3977 -1.2128
 6914TIP3   OH242300   0.545   3.735   7.449 -0.1070 -0.3559 -0.2017
 6914TIP3    H142301   0.515   3.825   7.464 -0.4782 -0.2304 -1.5305
 6914TIP3    H242302   0.586   3.709   7.531 -1.0281  0.6176  0.5991
 6915TIP3   OH242303   2.499   3.738   2.119  0.1056 -0.2987 -0.2031
 6915TIP3    H142304   2.451   3.670   2.072 -0.8743  0.0028  0.3377
 6915TIP3    H242305   2.567   3.690   2.167  0.8024 -0.6628 -1.4878
 6916TIP3   OH242306   1.706   5.588   1.035  0.0682  0.3022 -0.6136
 6916TIP3    H142307   1.664   5.588   0.949  1.0367  1.2227 -1.1140
 6916TIP3    H242308   1.749   5.503   1.041  2.3413  1.2383 -2.2768
 6917TIP3   OH242309   2.652   2.470   7.202  0.5884 -0.8337  0.5479
 6917TIP3    H142310   2.693   2.436   7.123  2.7936  0.9034  0.8549
 6917TIP3    H242311   2.568   2.424   7.207 -0.6353  0.4693 -3.8943
 6918TIP3   OH242312   2.699   2.110   1.387  0.5258  0.5949  0.1217
 6918TIP3    H142313   2.782   2.146   1.355  0.5419  1.0438  0.6585
 6918TIP3    H242314   2.689   2.147   1.475  0.9621 -1.4129  1.0528
 6919TIP3   OH242315   1.721   0.055   1.548  0.3660 -0.2974 -0.4825
 6919TIP3    H142316   1.678   0.052   1.633 -0.0869  0.8486 -0.6516
 6919TIP3    H242317   1.651   0.038   1.485  0.5602 -0.4099 -0.6729
 6920TIP3   OH242318   6.363   0.256   2.550  0.0557  0.0506 -0.0664
 6920TIP3    H142319   6.422   0.264   2.626  4.4239  1.7285 -3.2250
 6920TIP3    H242320   6.417   0.217   2.482 -2.8127  0.9435 -3.1016
 6921TIP3   OH242321   4.073   1.356   2.004  0.5174 -0.6990 -0.3563
 6921TIP3    H142322   4.166   1.338   2.020  1.3963  1.1670 -2.7242
 6921TIP3    H242323   4.063   1.450   2.022 -0.9681 -0.9019  0.0278
 6922TIP3   OH242324   4.134   6.860   0.912 -0.2795  0.0040  0.1106
 6922TIP3    H142325   4.096   6.802   0.978 -0.4269 -0.1529 -0.1120
 6922TIP3    H242326   4.095   6.946   0.931  0.1516  0.0949  0.6135
 6923TIP3   OH242327   6.106   5.816   2.226 -0.0963 -0.2045  0.4783
 6923TIP3    H142328   6.031   5.802   2.284 -1.2336 -0.8314 -1.0808
 6923TIP3    H242329   6.108   5.739   2.170  0.6798  0.5727 -0.6105
 6924TIP3   OH242330   0.870   5.575   8.168 -0.1681 -0.2896  0.0054
 6924TIP3    H142331   0.797   5.636   8.171 -0.5864 -0.7886  0.3485
 6924TIP3    H242332   0.899   5.576   8.077 -1.8264 -1.4728 -0.5946
 6925TIP3   OH242333   0.285   2.540   7.010 -0.5128 -0.4682 -0.5838
 6925TIP3    H142334   0.206   2.543   6.956  0.3684 -1.5922 -2.0232
 6925TIP3    H242335   0.357   2.538   6.947  0.7497  1.2404  0.6779
 6926TIP3   OH242336   5.980   2.912   0.074 -0.3411  0.0248 -0.0450
 6926TIP3    H142337   6.009   2.830   0.036 -1.9827 -0.1125 -1.1003
 6926TIP3    H242338   5.929   2.886   0.151  2.2904  0.2682  1.8913
 6927TIP3   OH242339   3.010   4.010   8.064 -0.2801 -0.8854 -0.0035
 6927TIP3    H142340   3.095   3.973   8.086  2.4359  2.6981 -3.1830
 6927TIP3    H242341   2.996   4.078   8.129 -0.1492 -0.7623 -0.1029
 6928TIP3   OH242342   6.726   4.727   0.888 -0.1568 -0.0365 -0.1903
 6928TIP3    H142343   6.761   4.815   0.890 -0.4834  0.0915  0.1019
 6928TIP3    H242344   6.742   4.696   0.799 -0.3633  0.4495 -0.3971
 6929TIP3   OH242345   2.012   6.607   0.780  0.0946 -0.2379 -0.1295
 6929TIP3    H142346   2.061   6.621   0.699  1.4414  0.6079  0.7961
 6929TIP3    H242347   2.048   6.671   0.841  1.1234 -2.6980  2.0385
 6930TIP3   OH242348   3.378   4.959   1.324 -0.7243 -0.0812 -0.0979
 6930TIP3    H142349   3.409   5.047   1.301 -0.7015 -0.2992 -0.9375
 6930TIP3    H242350   3.435   4.900   1.274 -0.2304 -0.6083  1.0561
 6931TIP3   OH242351   1.721   5.762   7.594 -0.5727 -0.0350 -0.5487
 6931TIP3    H142352   1.655   5.774   7.526  0.4296  0.1786 -1.5002
 6931TIP3    H242353   1.681   5.700   7.656 -1.1946 -0.8563 -1.7376
 6932TIP3   OH242354   0.026   5.252   7.603  0.1320  0.2844  0.3039
 6932TIP3    H142355   0.066   5.338   7.611 -0.2711  0.4321  0.8546
 6932TIP3    H242356   0.096   5.190   7.623  0.3026  0.5034  0.3798
 6933TIP3   OH242357   2.200   0.799   8.062 -0.1580 -0.0113  0.2202
 6933TIP3    H142358   2.280   0.844   8.086 -1.3617  2.0711  0.5987
 6933TIP3    H242359   2.218   0.761   7.976  0.8700  1.4272 -0.2365
 6934TIP3   OH242360   4.893   2.463   8.218 -0.2634 -0.4108 -0.6702
 6934TIP3    H142361   4.956   2.410   8.266  0.8834  0.7768 -0.8069
 6934TIP3    H242362   4.817   2.468   8.276  0.4421 -0.4105  0.2804
 6935TIP3   OH242363   3.965   4.016   8.469 -0.0876  0.2763  0.3266
 6935TIP3    H142364   3.925   3.965   8.539 -0.0448  0.5777  0.5768
 6935TIP3    H242365   3.894   4.071   8.436 -0.2541 -0.2878 -0.2723
 6936TIP3   OH242366   1.406   4.717   2.102 -0.0920  0.0001  0.4902
 6936TIP3    H142367   1.435   4.771   2.028 -1.6645  2.9397  1.8573
 6936TIP3    H242368   1.313   4.702   2.086 -0.2152 -0.2086  1.3632
 6937TIP3   OH242369   1.522   2.820   8.522 -0.2007 -0.4014  0.0544
 6937TIP3    H142370   1.530   2.748   8.459  0.9332  0.2982 -0.6219
 6937TIP3    H242371   1.610   2.857   8.529 -0.6132  0.4662  0.9518
 6938TIP3   OH242372   4.570   5.830   7.382 -0.0450 -0.1935  0.0202
 6938TIP3    H142373   4.558   5.912   7.430  2.1388  0.0688  0.2410
 6938TIP3    H242374   4.587   5.858   7.292  0.6617 -0.3777  0.0893
 6939TIP3   OH242375   4.966   6.389   0.473  0.0064  0.2833 -0.6303
 6939TIP3    H142376   5.050   6.347   0.486 -0.0309  0.8295  1.9914
 6939TIP3    H242377   4.973   6.471   0.521 -1.7711  0.6851 -0.9903
 6940TIP3   OH242378   5.796   4.130   8.322  0.0635  1.1749  0.3857
 6940TIP3    H142379   5.777   4.048   8.277  0.5423  1.0283  0.4402
 6940TIP3    H242380   5.734   4.133   8.395  1.4060 -0.1793  1.6402
 6941TIP3   OH242381   2.212   2.212   1.677  0.7308 -0.2282 -0.8680
 6941TIP3    H142382   2.157   2.134   1.687  0.6173 -0.0572 -0.0872
 6941TIP3    H242383   2.257   2.199   1.594 -0.3743 -0.4407 -1.4418
 6942TIP3   OH242384   0.278   2.080   7.751  0.0593  0.2215  0.2458
 6942TIP3    H142385   0.359   2.058   7.797  1.0536 -0.3496 -1.6233
 6942TIP3    H242386   0.215   2.013   7.779  0.5081  0.1187  1.0263
 6943TIP3   OH242387   6.193   3.064   1.430  0.6166 -0.2072  0.2202
 6943TIP3    H142388   6.233   2.977   1.437  0.2051 -0.3463  0.8748
 6943TIP3    H242389   6.100   3.049   1.450  0.3735  0.2391 -0.5315
 6944TIP3   OH242390   4.711   1.388   7.403  0.2214 -0.3730  0.1499
 6944TIP3    H142391   4.629   1.405   7.450 -0.9058  0.2244 -1.9258
 6944TIP3    H242392   4.710   1.294   7.388  1.3099 -0.8315  2.4689
 6945TIP3   OH242393   6.775   6.106   7.477  0.1389  0.4992  0.4692
 6945TIP3    H142394   6.796   6.194   7.509 -1.3719  0.6694  1.0683
 6945TIP3    H242395   6.765   6.116   7.383 -3.3377  1.7659  0.8290
 6946TIP3   OH242396   2.679   1.299   2.200  0.1527  0.2324  0.0453
 6946TIP3    H142397   2.691   1.252   2.117 -0.2745 -0.4826  0.3803
 6946TIP3    H242398   2.744   1.262   2.259 -1.1328 -1.0034  0.7434
 6947TIP3   OH242399   5.562   0.677   1.179  0.5410 -0.6706 -1.0090
 6947TIP3    H142400   5.567   0.708   1.270 -0.3407 -1.1189 -0.7965
 6947TIP3    H242401   5.573   0.756   1.126 -4.4125  0.7165 -0.5118
 6948TIP3   OH242402   3.513   4.173   8.562  0.3105 -0.6330  0.0115
 6948TIP3    H142403   3.469   4.158   8.646 -1.3554 -0.8510 -0.8750
 6948TIP3    H242404   3.533   4.085   8.530 -1.2006 -0.6690 -0.9038
 6949TIP3   OH242405   1.484   2.915   0.431  0.3817  0.0176  0.1978
 6949TIP3    H142406   1.440   2.948   0.354 -0.0284  0.1670  0.4961
 6949TIP3    H242407   1.416   2.910   0.499  0.6807 -0.3382  0.4829
 6950TIP3   OH242408   0.249   3.268   1.006  0.1891 -0.1508 -0.0890
 6950TIP3    H142409   0.224   3.332   1.073  1.4587  1.3679 -0.9909
 6950TIP3    H242410   0.220   3.307   0.924  3.0531  0.4986 -0.9098
 6951TIP3   OH242411   3.996   0.900   8.178 -0.1977 -0.1596 -0.6264
 6951TIP3    H142412   4.011   0.973   8.237 -0.6064  0.4133 -1.2268
 6951TIP3    H242413   4.079   0.851   8.179 -0.5711 -0.8391  1.3162
 6952TIP3   OH242414   6.563   0.304   2.737  0.0121 -0.0012 -0.5505
 6952TIP3    H142415   6.577   0.344   2.822 -0.2208 -0.5751 -0.2309
 6952TIP3    H242416   6.651   0.292   2.700  0.2796 -1.5678  0.4818
 6953TIP3   OH242417   0.116   1.187   6.896  0.1074 -0.2086  0.4522
 6953TIP3    H142418   0.095   1.278   6.875  0.6857 -0.6272 -2.2674
 6953TIP3    H242419   0.193   1.192   6.953 -0.1434  0.9845  0.7038
 6954TIP3   OH242420   5.228   0.878   0.609 -0.4762 -0.1760  0.0094
 6954TIP3    H142421   5.298   0.820   0.577  0.6596 -0.7109  3.1209
 6954TIP3    H242422   5.235   0.956   0.554  0.7739 -1.2750 -1.4980
 6955TIP3   OH242423   5.636   3.386   6.902 -0.0741  0.0705 -0.2593
 6955TIP3    H142424   5.712   3.358   6.852 -0.3044 -0.6922 -0.1995
 6955TIP3    H242425   5.578   3.426   6.838 -0.2719 -0.7055 -0.5828
 6956TIP3   OH242426   1.745   3.995   2.513  0.2014 -0.2279  0.5499
 6956TIP3    H142427   1.785   3.910   2.495  1.6850  0.2704  1.2754
 6956TIP3    H242428   1.678   4.005   2.446  0.1026 -1.8877  0.3572
 6957TIP3   OH242429   2.737   0.091   2.075 -0.2629 -0.0482  0.1520
 6957TIP3    H142430   2.741   0.147   2.152  2.6295 -0.6272  0.5634
 6957TIP3    H242431   2.829   0.071   2.055 -0.7493  0.9370 -4.1240
 6958TIP3   OH242432   1.947   0.310   7.398  0.5496 -0.2516  0.4536
 6958TIP3    H142433   1.962   0.381   7.335 -2.8107  0.6823  0.5228
 6958TIP3    H242434   1.897   0.351   7.468  0.8622 -2.1368  1.8374
 6959TIP3   OH242435   4.227   2.913   7.695  0.5232 -0.1321  0.0761
 6959TIP3    H142436   4.286   2.985   7.713 -0.7372  1.1040 -0.5431
 6959TIP3    H242437   4.231   2.902   7.600  0.6072 -0.8146  0.1484
 6960TIP3   OH242438   1.636   2.032   0.119 -0.4766  0.6499  0.0600
 6960TIP3    H142439   1.596   2.060   0.201 -0.7348  1.9472 -0.4848
 6960TIP3    H242440   1.729   2.030   0.137 -0.5690  0.4762  0.5194
 6961TIP3   OH242441   0.463   1.208   1.620 -0.1607  0.5841  0.4960
 6961TIP3    H142442   0.440   1.126   1.577  0.1256  0.8288 -0.1335
 6961TIP3    H242443   0.438   1.276   1.558  0.0713  0.9513  0.7979
 6962TIP3   OH242444   5.792   0.820   7.158  0.1458 -0.3643  0.2441
 6962TIP3    H142445   5.751   0.899   7.125 -0.0373 -0.6500 -0.2181
 6962TIP3    H242446   5.874   0.814   7.109  0.3248 -0.2741  0.5299
 6963TIP3   OH242447   2.696   3.948   2.260 -0.2003  0.2408 -0.0150
 6963TIP3    H142448   2.666   3.953   2.351 -0.9554  1.8227 -0.3148
 6963TIP3    H242449   2.643   3.879   2.221 -0.3785  0.0389  0.5669
 6964TIP3   OH242450   3.439   5.753   7.281  0.3057  0.1008 -0.0683
 6964TIP3    H142451   3.505   5.821   7.292 -0.2000  0.8679 -1.5241
 6964TIP3    H242452   3.479   5.690   7.221  0.7235 -0.8634  1.1731
 6965TIP3   OH242453   3.437   5.046   7.626  0.8018 -0.4242 -0.5173
 6965TIP3    H142454   3.376   5.103   7.672  1.2143 -0.5098  0.1464
 6965TIP3    H242455   3.507   5.029   7.689  2.3564  0.9809 -1.7599
 6966TIP3   OH242456   6.767   6.822   2.304 -0.0992  1.4336  0.4373
 6966TIP3    H142457   6.713   6.755   2.264 -0.8879  1.0723  2.0291
 6966TIP3    H242458   6.828   6.849   2.235  0.1768 -0.8285 -0.2697
 6967TIP3   OH242459   3.436   4.916   1.598  0.0334 -0.0517 -0.2252
 6967TIP3    H142460   3.401   4.947   1.515 -2.0385 -1.1910  0.1612
 6967TIP3    H242461   3.430   4.991   1.657 -0.2343  0.2171 -0.5952
 6968TIP3   OH242462   2.125   0.487   7.193  0.1997 -0.2659 -0.2059
 6968TIP3    H142463   2.151   0.494   7.101  0.5140 -1.6346 -0.2476
 6968TIP3    H242464   2.207   0.496   7.242  0.7419 -3.4849 -0.2880
 6969TIP3   OH242465   1.994   1.639   1.293  0.5000  0.3912  1.0617
 6969TIP3    H142466   1.991   1.726   1.252  0.8522 -0.3194 -0.5736
 6969TIP3    H242467   1.925   1.590   1.249 -0.0469 -0.0185  2.3487
 6970TIP3   OH242468   6.844   2.343   1.373  0.5354 -0.5064  0.1972
 6970TIP3    H142469   6.761   2.307   1.403 -0.3762  0.5369 -0.9797
 6970TIP3    H242470   6.901   2.267   1.365 -0.6214 -1.3789  0.0115
 6971TIP3   OH242471   5.141   5.562   1.292  0.8606 -0.2774  0.4809
 6971TIP3    H142472   5.178   5.642   1.330  0.8556  0.0067 -0.1002
 6971TIP3    H242473   5.123   5.585   1.201 -0.4370 -0.5143  0.6605
 6972TIP3   OH242474   1.013   3.668   8.211  0.2700  0.2355 -0.4387
 6972TIP3    H142475   0.966   3.743   8.247  0.3996  0.2702 -0.3386
 6972TIP3    H242476   1.085   3.653   8.273  0.7620  0.5789 -0.9135
 6973TIP3   OH242477   3.650   2.594   8.166  0.2986 -0.1522 -0.1275
 6973TIP3    H142478   3.587   2.603   8.237  0.7138  0.7304  0.1542
 6973TIP3    H242479   3.607   2.634   8.090 -0.6223 -2.1581 -0.7172
 6974TIP3   OH242480   2.128   4.049   2.222 -0.6066  0.2159  0.6095
 6974TIP3    H142481   2.038   4.034   2.194 -0.2990 -1.0719  0.2250
 6974TIP3    H242482   2.121   4.072   2.314 -1.4903  2.6014  0.0242
 6975TIP3   OH242483   0.309   4.744   1.441  0.0011 -0.2841  0.0845
 6975TIP3    H142484   0.249   4.669   1.449 -1.5965  1.0333  1.1985
 6975TIP3    H242485   0.269   4.798   1.372  0.9588 -0.2698 -0.4717
 6976TIP3   OH242486   2.030   4.553   2.156  0.5263 -0.3134 -0.1149
 6976TIP3    H142487   2.085   4.479   2.182  0.3204 -0.1962  0.6818
 6976TIP3    H242488   2.053   4.623   2.217  1.3954  0.6013 -1.4392
 6977TIP3   OH242489   2.682   4.520   7.161 -0.0086 -0.1380  0.4333
 6977TIP3    H142490   2.597   4.481   7.141  0.2445  0.2035 -1.4771
 6977TIP3    H242491   2.739   4.445   7.178 -0.2609 -0.4600 -0.1049
 6978TIP3   OH242492   4.828   0.669   0.800 -0.2713  0.5500  0.0133
 6978TIP3    H142493   4.911   0.651   0.844 -1.7950 -0.0580  2.8322
 6978TIP3    H242494   4.829   0.613   0.723  0.6161 -1.9069  1.6983
 6979TIP3   OH242495   2.333   2.880   0.488 -0.6419  0.4051 -0.2405
 6979TIP3    H142496   2.421   2.871   0.523 -0.3096  2.1765 -0.5108
 6979TIP3    H242497   2.277   2.838   0.553  0.2818  0.5381  0.6727
 6980TIP3   OH242498   0.435   5.513   2.022  0.4605  0.2513  0.0530
 6980TIP3    H142499   0.402   5.478   2.105  0.2255 -1.1093 -0.5852
 6980TIP3    H242500   0.464   5.602   2.043  1.2092 -0.3656  1.7754
 6981TIP3   OH242501   1.100   2.630   1.803  0.2349  0.0145  0.2288
 6981TIP3    H142502   1.110   2.600   1.893 -2.6530 -0.5615  0.4662
 6981TIP3    H242503   1.117   2.552   1.750 -0.7051 -0.3669  0.4653
 6982TIP3   OH242504   3.911   1.141   1.927  0.5370  0.6084  0.9696
 6982TIP3    H142505   3.853   1.180   1.992  0.0976 -0.4160  1.2081
 6982TIP3    H242506   3.967   1.213   1.899  0.1065  1.2793  1.7864
 6983TIP3   OH242507   1.467   3.034   0.691  0.5868  0.0134  0.1275
 6983TIP3    H142508   1.522   3.101   0.650  2.0519 -1.8157 -1.0319
 6983TIP3    H242509   1.525   2.990   0.752  0.7014 -2.4295 -1.6254
 6984TIP3   OH242510   3.654   1.310   0.593  0.3696  0.0173  0.2570
 6984TIP3    H142511   3.637   1.396   0.554  0.0763 -1.1576 -2.4081
 6984TIP3    H242512   3.649   1.249   0.519  0.5276 -2.3118  2.0724
 6985TIP3   OH242513   3.613   5.000   7.847 -0.2894  0.2937  0.3782
 6985TIP3    H142514   3.551   4.963   7.909 -1.4527 -0.5428 -1.2044
 6985TIP3    H242515   3.667   4.926   7.821  1.0580  0.9075  1.3291
 6986TIP3   OH242516   4.527   6.749   1.224 -0.4523 -0.3805  0.1283
 6986TIP3    H142517   4.442   6.753   1.268  0.7718 -0.8600  2.7589
 6986TIP3    H242518   4.530   6.829   1.171 -2.0002  0.3471  1.0536
 6987TIP3   OH242519   3.139   6.034   8.216 -1.0974 -0.7283  0.1275
 6987TIP3    H142520   3.120   6.126   8.233 -0.9142 -0.7434  0.4322
 6987TIP3    H242521   3.186   6.005   8.295 -0.1049 -0.7692 -0.4644
 6988TIP3   OH242522   5.910   3.595   2.300  0.5438  0.0518  0.4626
 6988TIP3    H142523   5.859   3.549   2.233 -0.8846  0.0592  1.5022
 6988TIP3    H242524   5.916   3.533   2.373  1.7566  0.1847  0.4947
 6989TIP3   OH242525   1.383   0.120   0.512 -0.5739 -0.2626 -0.2891
 6989TIP3    H142526   1.306   0.155   0.556 -1.0339 -0.6536 -0.7643
 6989TIP3    H242527   1.429   0.197   0.480 -0.7024 -0.0192  0.1020
 6990TIP3   OH242528   1.061   6.137   0.730 -0.6136 -0.3423  0.4618
 6990TIP3    H142529   1.043   6.141   0.823 -3.4988 -0.6477 -0.0093
 6990TIP3    H242530   0.984   6.174   0.688  0.3395 -0.7607 -1.8322
 6991TIP3   OH242531   0.294   5.892   0.231 -0.1210  0.1155  0.0952
 6991TIP3    H142532   0.377   5.936   0.211  0.5392 -1.3831 -0.6760
 6991TIP3    H242533   0.228   5.960   0.222  1.1434  1.8172  2.5318
 6992TIP3   OH242534   5.514   1.228   7.167  0.8314 -0.2281  0.0983
 6992TIP3    H142535   5.462   1.223   7.087  1.9324 -0.1427 -0.6514
 6992TIP3    H242536   5.505   1.142   7.208 -0.6211  0.0772  0.4771
 6993TIP3   OH242537   5.336   3.615   1.562 -0.2158 -0.6693  0.1366
 6993TIP3    H142538   5.295   3.535   1.528 -1.7094  0.1760 -0.1252
 6993TIP3    H242539   5.285   3.635   1.641 -1.0669  1.0009 -0.7903
 6994TIP3   OH242540   4.329   4.233   7.846 -0.0877 -0.0268  0.1956
 6994TIP3    H142541   4.282   4.176   7.907 -1.4998  1.9649  1.0666
 6994TIP3    H242542   4.277   4.231   7.766 -0.0079 -0.1393  0.1465
 6995TIP3   OH242543   2.347   0.456   7.605 -0.2373  0.0653  0.7060
 6995TIP3    H142544   2.393   0.455   7.688 -0.9923 -0.5894  1.1365
 6995TIP3    H242545   2.416   0.462   7.539  0.3741  0.5080  1.3665
 6996TIP3   OH242546   3.588   3.051   2.010 -0.0674  0.3057 -0.1587
 6996TIP3    H142547   3.669   3.017   1.971  1.5105  2.0917  1.3457
 6996TIP3    H242548   3.611   3.066   2.101 -2.1217  0.9327  0.2891
 6997TIP3   OH242549   4.242   4.394   1.913  0.2135  0.3685 -0.1165
 6997TIP3    H142550   4.148   4.414   1.908  0.0197 -0.6732 -0.8299
 6997TIP3    H242551   4.283   4.456   1.853 -0.2071 -0.2513 -1.0631
 6998TIP3   OH242552   2.078   4.735   2.348  0.4110  0.2633  0.0448
 6998TIP3    H142553   2.149   4.800   2.344  0.5631  0.1396  0.6375
 6998TIP3    H242554   2.059   4.727   2.441  0.1975 -0.3406 -0.0492
 6999TIP3   OH242555   2.574   0.687   7.422  0.0715  0.8159 -0.1689
 6999TIP3    H142556   2.608   0.615   7.475 -0.2627  0.9577  0.2408
 6999TIP3    H242557   2.643   0.753   7.423  0.6803  0.2258 -1.1317
 7000TIP3   OH242558   2.913   4.466   0.131 -0.3031 -0.1188 -0.8327
 7000TIP3    H142559   2.994   4.517   0.138 -1.0705  0.9171  2.3207
 7000TIP3    H242560   2.843   4.530   0.143 -1.5558 -1.2318 -1.8781
 7001TIP3   OH242561   3.706   4.168   0.218  0.0129  0.4978 -0.1768
 7001TIP3    H142562   3.654   4.203   0.145 -1.2905  0.5316  0.7320
 7001TIP3    H242563   3.668   4.082   0.235 -0.7763  1.1259  1.4697
 7002TIP3   OH242564   0.984   4.951   1.923  0.1819  0.5852  0.0355
 7002TIP3    H142565   1.032   4.876   1.888  1.3985  0.0509  2.5673
 7002TIP3    H242566   0.935   4.985   1.849  1.7809 -0.9913 -1.8750
 7003TIP3   OH242567   2.050   3.578   7.095 -0.3961 -0.0724  0.3689
 7003TIP3    H142568   2.060   3.488   7.066 -1.3198  0.3970 -1.6063
 7003TIP3    H242569   1.982   3.576   7.162 -1.3608 -0.6927 -0.6132
 7004TIP3   OH242570   4.573   4.745   7.498  0.7181 -0.5540 -0.1846
 7004TIP3    H142571   4.645   4.806   7.480  0.3190 -0.1830 -0.5373
 7004TIP3    H242572   4.528   4.736   7.414 -0.8316  0.7597  0.4544
 7005TIP3   OH242573   3.662   5.297   0.913  0.1324  0.4514 -0.2096
 7005TIP3    H142574   3.586   5.299   0.970  0.2282 -0.1624 -0.0481
 7005TIP3    H242575   3.646   5.223   0.854  0.1356  0.9420 -0.8400
 7006TIP3   OH242576   0.611   0.602   0.229 -0.1862 -0.7535  0.1419
 7006TIP3    H142577   0.692   0.599   0.281  0.1960 -1.7544 -0.4836
 7006TIP3    H242578   0.629   0.667   0.161 -1.4070  2.0983  2.3392
 7007TIP3   OH242579   6.720   5.814   7.947 -0.1776  0.3462 -0.6484
 7007TIP3    H142580   6.686   5.866   8.021  2.5265  2.2556 -0.5942
 7007TIP3    H242581   6.699   5.867   7.870  0.7604  0.5067 -0.8011
 7008TIP3   OH242582   3.289   0.618   0.085  0.0574  0.3393  0.0258
 7008TIP3    H142583   3.322   0.664   0.162  2.2142 -0.1702 -0.5302
 7008TIP3    H242584   3.253   0.536   0.121  1.6284 -0.1942  0.4905
 7009TIP3   OH242585   0.444   3.575   6.460  0.5536  0.1499  0.2675
 7009TIP3    H142586   0.454   3.546   6.550 -3.3868 -0.8518  0.5599
 7009TIP3    H242587   0.439   3.494   6.409  1.0023  0.6693 -0.6348
 7010TIP3   OH242588   3.397   4.239   6.379  0.2773  0.1692 -0.0122
 7010TIP3    H142589   3.340   4.284   6.442  1.8334  0.8225  1.0103
 7010TIP3    H242590   3.467   4.201   6.434  1.5967  0.6233 -1.3153
 7011TIP3   OH242591   4.471   2.040   7.252  0.5739 -0.5687 -0.0009
 7011TIP3    H142592   4.431   2.080   7.329  0.0469 -0.9008 -0.0929
 7011TIP3    H242593   4.554   2.004   7.282  0.5717 -0.3123  0.3105
 7012TIP3   OH242594   4.809   3.821   6.670  0.0691 -0.1300  0.3202
 7012TIP3    H142595   4.739   3.763   6.639 -0.1363  0.4537 -0.3424
 7012TIP3    H242596   4.880   3.809   6.607  1.6618 -2.6946  2.4116
 7013TIP3   OH242597   6.260   3.510   8.208 -0.3444  0.3978  0.0201
 7013TIP3    H142598   6.348   3.520   8.243 -0.3335  0.7985 -0.1132
 7013TIP3    H242599   6.268   3.443   8.140  0.1361  1.4116 -0.9446
 7014TIP3   OH242600   2.116   2.407   0.532  0.4025 -0.1216  0.7557
 7014TIP3    H142601   2.159   2.395   0.447 -1.4668 -0.5201 -0.1881
 7014TIP3    H242602   2.181   2.379   0.596  1.9845  0.5099 -0.5058
 7015TIP3   OH242603   1.014   4.521   7.551  1.0314  0.0869  0.1136
 7015TIP3    H142604   1.102   4.550   7.526 -0.1604  3.5685 -0.6487
 7015TIP3    H242605   0.998   4.443   7.498  3.0167  0.3764 -1.0120
 7016TIP3   OH242606   0.222   1.910   7.987  0.6267  0.1592 -0.1756
 7016TIP3    H142607   0.253   1.839   8.043  1.1782  0.0890 -0.5571
 7016TIP3    H242608   0.128   1.896   7.978  0.6994 -0.3867 -0.0646
 7017TIP3   OH242609   3.619   3.444   1.258 -0.1195  0.5206  0.0630
 7017TIP3    H142610   3.638   3.453   1.351  2.7638  1.5609 -0.5144
 7017TIP3    H242611   3.532   3.404   1.255 -1.5838  3.0456  3.1561
 7018TIP3   OH242612   4.302   3.687   6.804  0.4153 -0.4746  0.0810
 7018TIP3    H142613   4.321   3.747   6.731  0.3218  1.1739  1.3427
 7018TIP3    H242614   4.346   3.606   6.780  3.3881  1.0705 -0.2750
 7019TIP3   OH242615   2.512   0.430   8.307  0.0845  0.0608 -0.4562
 7019TIP3    H142616   2.440   0.391   8.355 -0.8699  1.8752 -0.3456
 7019TIP3    H242617   2.579   0.448   8.373 -0.7092  1.3710  0.0224
 7020TIP3   OH242618   6.339   4.503   1.441 -0.3486  0.5116 -0.1189
 7020TIP3    H142619   6.344   4.452   1.522  1.3058  0.7061 -0.0491
 7020TIP3    H242620   6.406   4.571   1.452 -1.3786  1.6865 -0.8926
 7021TIP3   OH242621   1.796   4.249   8.455  0.0419 -0.2492  0.0963
 7021TIP3    H142622   1.775   4.163   8.491  1.9321 -1.1225 -0.7294
 7021TIP3    H242623   1.890   4.258   8.469  0.3819  0.4716 -2.2424
 7022TIP3   OH242624   0.979   4.246   8.224  0.6287  0.5865  0.1238
 7022TIP3    H142625   0.988   4.281   8.135  3.6684 -1.0593 -0.3523
 7022TIP3    H242626   0.991   4.322   8.281  0.7138  1.3373 -0.8717
 7023TIP3   OH242627   1.587   6.876   1.780 -0.4881 -0.0825 -0.0921
 7023TIP3    H142628   1.496   6.907   1.779 -0.4578  0.0569  0.7208
 7023TIP3    H242629   1.625   6.917   1.857  0.1907 -0.3681 -0.2724
 7024TIP3   OH242630   3.325   6.015   7.281 -0.3041  0.3788  0.6279
 7024TIP3    H142631   3.349   6.051   7.367  1.1292  2.6618 -0.6242
 7024TIP3    H242632   3.409   5.994   7.240 -1.0010 -1.3009 -0.0058
 7025TIP3   OH242633   4.418   0.109   6.756 -0.1197 -0.1732  0.8268
 7025TIP3    H142634   4.405   0.019   6.725 -0.2963  0.2797 -0.4902
 7025TIP3    H242635   4.506   0.132   6.726 -0.5348  0.4921  0.0702
 7026TIP3   OH242636   0.870   6.407   7.831  1.0427 -0.1105 -0.5438
 7026TIP3    H142637   0.848   6.457   7.909  1.8342 -0.7788  0.1256
 7026TIP3    H242638   0.911   6.327   7.864 -0.9042 -1.6042 -1.5442
 7027TIP3   OH242639   6.131   3.928   7.260 -0.0082 -0.7730  0.2559
 7027TIP3    H142640   6.100   4.005   7.213 -1.6427 -1.0830  0.7670
 7027TIP3    H242641   6.069   3.859   7.236 -0.8836 -0.9709  2.7513
 7028TIP3   OH242642   2.995   4.322   7.424  0.2010  0.1173 -0.8717
 7028TIP3    H142643   3.059   4.380   7.465 -1.1393  1.9194 -1.2429
 7028TIP3    H242644   3.046   4.270   7.362  1.2172  2.1138 -1.8014
 7029TIP3   OH242645   0.448   4.285   2.735  0.6619  0.1769 -0.3002
 7029TIP3    H142646   0.360   4.296   2.700  0.2207 -0.7595  0.4865
 7029TIP3    H242647   0.493   4.366   2.711  0.6050 -0.6101 -3.6336
 7030TIP3   OH242648   5.137   3.967   0.596  0.0333 -0.5456  0.7161
 7030TIP3    H142649   5.043   3.955   0.601 -0.4521  2.6605  1.6240
 7030TIP3    H242650   5.171   3.882   0.567 -3.0389 -1.9320  0.8223
 7031TIP3   OH242651   6.388   1.611   7.453 -0.1331  0.3236  0.5902
 7031TIP3    H142652   6.473   1.595   7.412  0.1557  1.2463  0.8072
 7031TIP3    H242653   6.399   1.695   7.498 -1.4868  0.9947 -0.2659
 7032TIP3   OH242654   5.210   2.535   2.133 -0.2195 -0.4874  0.9368
 7032TIP3    H142655   5.176   2.585   2.207 -1.2563 -0.5746  0.5259
 7032TIP3    H242656   5.137   2.528   2.072  1.1417  1.4324 -1.1080
 7033TIP3   OH242657   0.560   2.903   1.854  0.0540 -0.6469 -0.5068
 7033TIP3    H142658   0.550   2.815   1.818  0.9922 -1.4048  0.9928
 7033TIP3    H242659   0.500   2.905   1.928 -0.3873  0.2011 -0.8729
 7034TIP3   OH242660   3.362   1.917   1.495 -0.3420 -0.1094 -0.3170
 7034TIP3    H142661   3.451   1.901   1.527 -0.2081 -0.0538 -0.6556
 7034TIP3    H242662   3.313   1.839   1.520  0.2137 -0.9159 -1.6128
 7035TIP3   OH242663   5.298   2.596   8.228  0.2757  0.6125  0.1863
 7035TIP3    H142664   5.384   2.603   8.270 -0.2657  0.0667  1.4543
 7035TIP3    H242665   5.237   2.590   8.301 -0.8993  1.5271 -0.6968
 7036TIP3   OH242666   0.244   1.066   0.416 -0.2212 -0.2975 -0.1609
 7036TIP3    H142667   0.233   0.972   0.428  0.4605 -0.3287  0.2637
 7036TIP3    H242668   0.174   1.106   0.467  0.7848 -0.5169  1.4503
 7037TIP3   OH242669   4.205   6.888   1.658 -0.0445  0.2947  0.2663
 7037TIP3    H142670   4.161   6.826   1.600  0.5222  0.4343 -0.3172
 7037TIP3    H242671   4.198   6.848   1.745 -3.8869  1.6537  0.7700
 7038TIP3   OH242672   0.767   1.488   7.462  0.1756  0.0367  0.2270
 7038TIP3    H142673   0.688   1.447   7.426  0.3400  1.2069 -1.5732
 7038TIP3    H242674   0.742   1.514   7.550 -1.8036  1.2135 -0.6133
 7039TIP3   OH242675   0.817   0.871   0.637 -0.0245  0.0223 -0.6325
 7039TIP3    H142676   0.798   0.881   0.544  1.3011 -0.9715 -1.0429
 7039TIP3    H242677   0.906   0.835   0.640 -0.1014 -0.1231  1.0093
 7040TIP3   OH242678   3.543   0.351   8.143  0.0990  0.1318  0.0677
 7040TIP3    H142679   3.505   0.298   8.213 -2.1176  1.1939 -0.2568
 7040TIP3    H242680   3.523   0.442   8.168  3.4060  0.8955  0.3890
 7041TIP3   OH242681   4.539   6.063   8.475  0.0897  0.2484  0.3654
 7041TIP3    H142682   4.587   6.116   8.538 -0.7349  2.1890 -0.5671
 7041TIP3    H242683   4.486   6.126   8.425  0.7482 -1.1831 -2.3191
 7042TIP3   OH242684   2.363   0.566   1.459 -0.3679 -0.2878 -0.0749
 7042TIP3    H142685   2.287   0.531   1.506 -1.1556 -0.6333 -1.5341
 7042TIP3    H242686   2.438   0.532   1.507 -1.0893  0.9448  2.0538
 7043TIP3   OH242687   3.692   1.155   2.556  0.3286 -0.6120 -0.2359
 7043TIP3    H142688   3.641   1.156   2.637  1.4951 -0.7707  0.5223
 7043TIP3    H242689   3.774   1.112   2.579  2.2016  2.4707 -0.5398
 7044TIP3   OH242690   4.603   4.451   0.312  0.0705 -0.6148 -0.1125
 7044TIP3    H142691   4.542   4.504   0.364 -0.2351 -2.3732  1.4303
 7044TIP3    H242692   4.689   4.487   0.332 -0.1408 -0.5857  0.7793
 7045TIP3   OH242693   3.996   2.898   1.122  0.0680  0.0029 -0.7544
 7045TIP3    H142694   3.999   2.874   1.030  1.2311  0.0440 -0.7418
 7045TIP3    H242695   4.069   2.851   1.162 -0.9459 -0.7254  0.3373
 7046TIP3   OH242696   4.688   2.054   1.541  0.1448  0.2147 -0.1304
 7046TIP3    H142697   4.737   2.127   1.580 -1.3391  0.3789  1.6086
 7046TIP3    H242698   4.682   2.076   1.449  1.2139  1.4130  0.0540
 7047TIP3   OH242699   1.384   5.855   1.957  0.4939 -0.5970 -0.9937
 7047TIP3    H142700   1.466   5.891   1.991 -0.1577 -0.6580  0.7435
 7047TIP3    H242701   1.400   5.845   1.863  1.8127  1.1833 -1.0224
 7048TIP3   OH242702   6.678   6.572   1.932  0.0421  0.3248  0.7706
 7048TIP3    H142703   6.667   6.666   1.921 -0.7050  0.1957  0.3538
 7048TIP3    H242704   6.621   6.533   1.866  1.1212 -0.4137  0.2483
 7049TIP3   OH242705   6.284   0.279   1.027 -0.2435  0.0415 -0.8205
 7049TIP3    H142706   6.218   0.323   1.081 -0.8987 -1.6184 -0.1837
 7049TIP3    H242707   6.249   0.282   0.938 -1.0450 -0.5288 -0.5383
 7050TIP3   OH242708   0.955   5.445   8.393 -0.3700  0.2403 -0.0925
 7050TIP3    H142709   0.923   5.356   8.378  1.0740 -0.2885 -0.2267
 7050TIP3    H242710   0.909   5.499   8.330 -2.7544 -0.0417  1.2809
 7051TIP3   OH242711   1.812   1.240   7.931 -0.0009 -0.1325 -0.6679
 7051TIP3    H142712   1.890   1.236   7.876 -0.5490 -0.3498 -1.4390
 7051TIP3    H242713   1.772   1.324   7.911  0.9775  0.8017  1.0654
 7052TIP3   OH242714   0.199   5.266   8.107  0.1263  0.3631 -0.3367
 7052TIP3    H142715   0.261   5.336   8.122 -1.2488  1.4735  0.4303
 7052TIP3    H242716   0.116   5.299   8.144 -0.1005 -2.5172  2.1307
 7053TIP3   OH242717   3.765   4.943   7.393 -0.2994  0.2975 -0.1281
 7053TIP3    H142718   3.857   4.963   7.374 -0.4010 -0.1951 -1.1923
 7053TIP3    H242719   3.745   4.995   7.471  0.6543  1.0041 -0.3352
 7054TIP3   OH242720   2.328   1.734   1.586  0.0253 -0.1986 -0.0066
 7054TIP3    H142721   2.361   1.759   1.499  2.5884  0.4205  1.0376
 7054TIP3    H242722   2.283   1.651   1.572 -0.4596  0.3470 -2.0623
 7055TIP3   OH242723   2.046   5.563   8.461 -0.4774  0.1429 -0.0181
 7055TIP3    H142724   1.983   5.514   8.514 -0.7239 -1.8825 -2.0106
 7055TIP3    H242725   1.993   5.619   8.405 -0.2315  1.9895  1.4897
 7056TIP3   OH242726   6.686   2.069   2.545 -0.7443 -0.1162 -0.3712
 7056TIP3    H142727   6.624   2.026   2.604  0.6101  0.7065  1.7703
 7056TIP3    H242728   6.656   2.160   2.541  0.6779  0.4702  1.2950
 7057TIP3   OH242729   3.600   5.014   1.066  0.0723 -0.0519  0.3442
 7057TIP3    H142730   3.686   5.019   1.107  0.3039 -0.2959 -0.1067
 7057TIP3    H242731   3.559   5.098   1.084  0.6666  0.3193 -0.0121
 7058TIP3   OH242732   0.320   0.812   2.720 -0.5466 -0.0492  0.2102
 7058TIP3    H142733   0.386   0.881   2.727 -1.1344  0.6223 -0.5592
 7058TIP3    H242734   0.365   0.732   2.747  0.5568  0.4088 -0.2146
 7059TIP3   OH242735   5.362   4.281   8.160  0.0481  0.2734 -0.1916
 7059TIP3    H142736   5.385   4.236   8.078 -0.8193 -0.1996 -0.1798
 7059TIP3    H242737   5.347   4.372   8.133 -0.6177  0.0411 -0.6350
 7060TIP3   OH242738   0.237   4.105   2.305  0.0124  0.2174  0.1905
 7060TIP3    H142739   0.216   4.064   2.389  0.5705 -1.9837 -0.6695
 7060TIP3    H242740   0.156   4.098   2.254  0.2773 -0.4024 -0.1602
 7061TIP3   OH242741   3.223   2.505   7.869 -0.1854  0.6499 -0.1119
 7061TIP3    H142742   3.270   2.569   7.922 -1.1644  0.2039  1.3749
 7061TIP3    H242743   3.147   2.553   7.835  0.9428  1.1998 -1.9870
 7062TIP3   OH242744   1.768   6.499   0.818 -0.1832 -0.1423  0.3070
 7062TIP3    H142745   1.731   6.588   0.818  0.6276  0.2002 -0.0622
 7062TIP3    H242746   1.855   6.509   0.779  0.1171 -1.0162  0.7319
 7063TIP3   OH242747   2.072   6.322   7.422 -0.4651 -0.5946 -0.4858
 7063TIP3    H142748   1.992   6.318   7.371 -0.4464  1.6943 -0.8277
 7063TIP3    H242749   2.101   6.231   7.431 -2.7915 -1.4169 -0.8004
 7064TIP3   OH242750   4.123   6.407   1.465 -0.2915  0.3165  0.4017
 7064TIP3    H142751   4.204   6.392   1.514  0.6930  1.0050 -0.9294
 7064TIP3    H242752   4.124   6.340   1.397 -0.2879  0.9754 -0.2624
 7065TIP3   OH242753   2.977   2.592   1.551  0.0571  0.1469 -0.4864
 7065TIP3    H142754   3.037   2.521   1.576 -0.8340 -0.9269 -1.2994
 7065TIP3    H242755   2.924   2.607   1.629  0.7359  0.4401 -0.0729
 7066TIP3   OH242756   0.609   5.810   7.143  0.7296 -0.7658 -0.0203
 7066TIP3    H142757   0.593   5.891   7.096  1.0301 -0.8915 -0.3392
 7066TIP3    H242758   0.539   5.751   7.116  0.9371 -0.8590 -0.3653
 7067LIG     C142759   2.784   1.298   7.263  0.0583 -0.3713  0.5714
 7067LIG     N142760   2.841   1.418   7.319 -0.0597  0.3535  0.4977
 7067LIG     C242761   2.837   1.548   7.259  0.1028  0.4035 -0.6162
 7067LIG     N242762   2.889   1.641   7.340  0.4909 -0.0103 -0.1562
 7067LIG     C342763   2.916   1.572   7.457 -0.7610  0.1729  0.5261
 7067LIG     C442764   2.888   1.435   7.443 -0.6217  0.0370 -0.8641
 7067LIG     C542765   2.907   1.345   7.545  0.4124 -0.9239 -0.6813
 7067LIG     O142766   2.895   1.224   7.547  0.3764 -0.0989  0.6976
 7067LIG     N342767   2.951   1.415   7.669  0.2158  0.5473  0.8227
 7067LIG     C642768   2.988   1.547   7.688  0.3988 -0.4303  0.9113
 7067LIG     O242769   3.033   1.592   7.795 -0.3574 -0.3541 -0.1700
 7067LIG     N442770   2.963   1.629   7.578  0.4145  0.0122 -0.3497
 7067LIG     C742771   2.992   1.770   7.594 -0.1169  0.0569 -0.2087
 7067LIG     C842772   2.979   1.332   7.782 -0.1208 -0.1610 -0.4228
 7067LIG     H142773   2.780   1.310   7.152  1.1065  1.8117  0.7041
 7067LIG     H242774   2.677   1.288   7.291 -0.0763 -0.1385  0.1503
 7067LIG     H342775   2.841   1.212   7.303  3.6244  2.2607  1.7301
 7067LIG     H442776   2.807   1.560   7.154  2.1407 -1.1029 -1.4269
 7067LIG     H542777   2.929   1.827   7.665 -0.5285 -0.6567  0.0068
 7067LIG     H642778   2.976   1.820   7.496 -0.2095  0.3585 -0.0417
 7067LIG     H742779   3.091   1.789   7.642  1.6661  0.5569 -3.7369
 7067LIG     H842780   3.066   1.270   7.752 -0.0119 -0.6651  0.8565
 7067LIG     H942781   2.894   1.265   7.808 -1.9456  2.5076  1.0039
 7067LIG    H1042782   3.007   1.384   7.877  1.9158  1.2422 -1.7132
   6.89147   6.89147   8.59622
